<LesHouchesEvents version="3.0">
<header>
<!--
#*********************************************************************
#                                                                    *
#                        MadGraph5_aMC@NLO                           *
#                                                                    *
#                           Going Beyond                             *
#                                                                    *
#                   http://madgraph.hep.uiuc.edu                     *
#                   http://madgraph.phys.ucl.ac.be                   *
#                   http://amcatnlo.cern.ch                          *
#                                                                    *
#                     The MadGraph5_aMC@NLO team                     *
#                                                                    *
#....................................................................*
#                                                                    *
# This file contains all the information necessary to reproduce      *
# the events generated:                                              *
#                                                                    *
# 1. software version                                                *
# 2. proc_card          : code generation info including model       *
# 3. param_card         : model primary parameters in the LH format  *
# 4. run_card           : running parameters (collider and cuts)     *
# 5. pythia_card        : present only if pythia has been run        *
# 6. pgs_card           : present only if pgs has been run           *
# 7. delphes_cards      : present only if delphes has been run       *
#                                                                    *
#                                                                    *
#*********************************************************************
-->
<MGVersion>
#5.2.2.3
</MGVersion>
<MG5ProcCard>
#************************************************************
#*                     MadGraph5_aMC@NLO                    *
#*                                                          *
#*                *                       *                 *
#*                  *        * *        *                   *
#*                    * * * * 5 * * * *                     *
#*                  *        * *        *                   *
#*                *                       *                 *
#*                                                          *
#*                                                          *
#*         VERSION 2.2.3                 2015-02-10         *
#*                                                          *
#*    The MadGraph5_aMC@NLO Development Team - Find us at   *
#*    https://server06.fynu.ucl.ac.be/projects/madgraph     *
#*                                                          *
#************************************************************
#*                                                          *
#*               Command File for MadGraph5_aMC@NLO         *
#*                                                          *
#*     run as ./bin/mg5_aMC  filename                       *
#*                                                          *
#************************************************************
set group_subprocesses Auto
set ignore_six_quark_processes False
set loop_optimized_output True
set gauge unitary
set complex_mass_scheme False
import model sm
define p = g u c d s u~ c~ d~ s~
define j = g u c d s u~ c~ d~ s~
define l+ = e+ mu+
define l- = e- mu-
define vl = ve vm vt
define vl~ = ve~ vm~ vt~
import model Zprime_UFO
generate p p > zph, zph > j j
add process p p > zph, zph > b b~
output Dijet_signal
</MG5ProcCard>
<MGProcCard>
#*********************************************************************
#                        MadGraph/MadEvent                           *
#                   http://madgraph.hep.uiuc.edu                     *
#                                                                    *
#                          proc_card.dat                             *
#*********************************************************************
#                                                                    *
#            This Files is generated by MADGRAPH 5                   *
#                                                                    *
# WARNING: This Files is generated for MADEVENT (compatibility issue)*
#          This files is NOT a valid MG4 proc_card.dat               *
#          Running this in MG4 will NEVER reproduce the result of MG5*
#                                                                    *
#*********************************************************************
#*********************************************************************
# Process(es) requested : mg2 input                                  *
#*********************************************************************
# Begin PROCESS # This is TAG. Do not modify this line
p p > zph , zph > j j           #Process
# Be carefull the coupling are here in MG5 convention
          
end_coup           # End the couplings input

done               # this tells MG there are no more procs
# End PROCESS  # This is TAG. Do not modify this line
#*********************************************************************
# Model information                                                  *
#*********************************************************************
# Begin MODEL  # This is TAG. Do not modify this line
Zprime_UFO
# End   MODEL  # This is TAG. Do not modify this line
#*********************************************************************
# Start multiparticle definitions                                    *
#*********************************************************************
# Begin MULTIPARTICLES # This is TAG. Do not modify this line

# End  MULTIPARTICLES # This is TAG. Do not modify this line
</MGProcCard>
<MGRunCard>
#*********************************************************************
#                       MadGraph5_aMC@NLO                            *
#                                                                    *
#                     run_card.dat MadEvent                          *
#                                                                    *
#  This file is used to set the parameters of the run.               *
#                                                                    *
#  Some notation/conventions:                                        *
#                                                                    *
#   Lines starting with a '# ' are info or comments                  *
#                                                                    *
#   mind the format:   value    = variable     ! comment             *
#*********************************************************************
#
#*******************                                                 
# Running parameters
#*******************                                                 
#                                                                    
#*********************************************************************
# Tag name for the run (one word)                                    *
#*********************************************************************
  tag_1     = run_tag ! name of the run 
#*********************************************************************
# Run to generate the grid pack                                      *
#*********************************************************************
  .false.     = gridpack  !True = setting up the grid pack
#*********************************************************************
# Number of events and rnd seed                                      *
# Warning: Do not generate more than 1M events in a single run       *
# If you want to run Pythia, avoid more than 50k events in a run.    *
#*********************************************************************
  2000 = nevents ! Number of unweighted events requested 
 588 = iseed   ! rnd seed (0=assigned automatically=default))
#*********************************************************************
# Collider type and energy                                           *
# lpp: 0=No PDF, 1=proton, -1=antiproton, 2=photon from proton,      *
#                                         3=photon from electron     *
#*********************************************************************
        1     = lpp1    ! beam 1 type 
        1     = lpp2    ! beam 2 type
     4000     = ebeam1  ! beam 1 total energy in GeV
     4000     = ebeam2  ! beam 2 total energy in GeV
#*********************************************************************
# Beam polarization from -100 (left-handed) to 100 (right-handed)    *
#*********************************************************************
        0     = polbeam1 ! beam polarization for beam 1
        0     = polbeam2 ! beam polarization for beam 2
#*********************************************************************
# PDF CHOICE: this automatically fixes also alpha_s and its evol.    *
#*********************************************************************
 'nn23lo1'    = pdlabel     ! PDF set                                     
 230000    = lhaid     ! if pdlabel=lhapdf, this is the lhapdf number
#*********************************************************************
# Renormalization and factorization scales                           *
#*********************************************************************
 F        = fixed_ren_scale  ! if .true. use fixed ren scale
 F        = fixed_fac_scale  ! if .true. use fixed fac scale
 91.1880  = scale            ! fixed ren scale
 91.1880  = dsqrt_q2fact1    ! fixed fact scale for pdf1
 91.1880  = dsqrt_q2fact2    ! fixed fact scale for pdf2
 1        = scalefact        ! scale factor for event-by-event scales
#*********************************************************************
# Matching - Warning! ickkw > 1 is still beta
#*********************************************************************
 0        = ickkw            ! 0 no matching, 1 MLM, 2 CKKW matching
 1        = highestmult      ! for ickkw=2, highest mult group
 1        = ktscheme         ! for ickkw=1, 1 Durham kT, 2 Pythia pTE
 1        = alpsfact         ! scale factor for QCD emission vx
 F        = chcluster        ! cluster only according to channel diag
 T        = pdfwgt           ! for ickkw=1, perform pdf reweighting
 5        = asrwgtflavor     ! highest quark flavor for a_s reweight
 T        = clusinfo         ! include clustering tag in output
 3.0      = lhe_version       ! Change the way clustering information pass to shower.        
#*********************************************************************
#**********************************************************
#
#**********************************************************
# Automatic ptj and mjj cuts if xqcut > 0
# (turn off for VBF and single top processes)
#**********************************************************
   T  = auto_ptj_mjj  ! Automatic setting of ptj and mjj
#**********************************************************
#                                                                    
#**********************************
# BW cutoff (M+/-bwcutoff*Gamma)
#**********************************
  15  = bwcutoff      ! (M+/-bwcutoff*Gamma)
#**********************************************************
# Apply pt/E/eta/dr/mij cuts on decay products or not
# (note that etmiss/ptll/ptheavy/ht/sorted cuts always apply)
#**********************************************************
   T  = cut_decays    ! Cut decay products 
#*************************************************************
# Number of helicities to sum per event (0 = all helicities)
# 0 gives more stable result, but longer run time (needed for
# long decay chains e.g.).
# Use >=2 if most helicities contribute, e.g. pure QCD.
#*************************************************************
   0  = nhel          ! Number of helicities used per event
#*******************                                                 
# Standard Cuts
#*******************                                                 
#                                                                    
#*********************************************************************
# Minimum and maximum pt's (for max, -1 means no cut)                *
#*********************************************************************
 20  = ptj       ! minimum pt for the jets 
  0  = ptb       ! minimum pt for the b 
 10  = pta       ! minimum pt for the photons 
 10  = ptl       ! minimum pt for the charged leptons 
  0  = misset    ! minimum missing Et (sum of neutrino's momenta)
  0  = ptheavy   ! minimum pt for one heavy final state
 1.0 = ptonium   ! minimum pt for the quarkonium states
 -1  = ptjmax    ! maximum pt for the jets
 -1  = ptbmax    ! maximum pt for the b
 -1  = ptamax    ! maximum pt for the photons
 -1  = ptlmax    ! maximum pt for the charged leptons
 -1  = missetmax ! maximum missing Et (sum of neutrino's momenta)
#*********************************************************************
# Minimum and maximum E's (in the center of mass frame)              *
#*********************************************************************
  0  = ej     ! minimum E for the jets 
  0  = eb     ! minimum E for the b 
  0  = ea     ! minimum E for the photons 
  0  = el     ! minimum E for the charged leptons 
 -1   = ejmax ! maximum E for the jets
 -1   = ebmax ! maximum E for the b
 -1   = eamax ! maximum E for the photons
 -1   = elmax ! maximum E for the charged leptons
#*********************************************************************
# Maximum and minimum absolute rapidity (for max, -1 means no cut)   *
#*********************************************************************
   5  = etaj    ! max rap for the jets 
  -1  = etab    ! max rap for the b
 2.5  = etaa    ! max rap for the photons 
 2.5  = etal    ! max rap for the charged leptons 
 0.6  = etaonium ! max rap for the quarkonium states
   0  = etajmin ! min rap for the jets
   0  = etabmin ! min rap for the b
   0  = etaamin ! min rap for the photons
   0  = etalmin ! main rap for the charged leptons
#*********************************************************************
# Minimum and maximum DeltaR distance                                *
#*********************************************************************
 0.4 = drjj    ! min distance between jets 
 0   = drbb    ! min distance between b's 
 0.4 = drll    ! min distance between leptons 
 0.4 = draa    ! min distance between gammas 
 0   = drbj    ! min distance between b and jet 
 0.4 = draj    ! min distance between gamma and jet 
 0.4 = drjl    ! min distance between jet and lepton 
 0   = drab    ! min distance between gamma and b 
 0   = drbl    ! min distance between b and lepton 
 0.4 = dral    ! min distance between gamma and lepton 
 -1  = drjjmax ! max distance between jets
 -1  = drbbmax ! max distance between b's
 -1  = drllmax ! max distance between leptons
 -1  = draamax ! max distance between gammas
 -1  = drbjmax ! max distance between b and jet
 -1  = drajmax ! max distance between gamma and jet
 -1  = drjlmax ! max distance between jet and lepton
 -1  = drabmax ! max distance between gamma and b
 -1  = drblmax ! max distance between b and lepton
 -1  = dralmax ! maxdistance between gamma and lepton
#*********************************************************************
# Minimum and maximum invariant mass for pairs                       *
# WARNING: for four lepton final state mmll cut require to have      *
#          different lepton masses for each flavor!                  *           
#*********************************************************************
 0   = mmjj    ! min invariant mass of a jet pair 
 0   = mmbb    ! min invariant mass of a b pair 
 0   = mmaa    ! min invariant mass of gamma gamma pair
 0   = mmll    ! min invariant mass of l+l- (same flavour) lepton pair
 -1  = mmjjmax ! max invariant mass of a jet pair
 -1  = mmbbmax ! max invariant mass of a b pair
 -1  = mmaamax ! max invariant mass of gamma gamma pair
 -1  = mmllmax ! max invariant mass of l+l- (same flavour) lepton pair
#*********************************************************************
# Minimum and maximum invariant mass for all letpons                 *
#*********************************************************************
 0   = mmnl    ! min invariant mass for all letpons (l+- and vl) 
 -1  = mmnlmax ! max invariant mass for all letpons (l+- and vl) 
#*********************************************************************
# Minimum and maximum pt for 4-momenta sum of leptons                *
#*********************************************************************
 0   = ptllmin  ! Minimum pt for 4-momenta sum of leptons(l and vl)
 -1  = ptllmax  ! Maximum pt for 4-momenta sum of leptons(l and vl)
#*********************************************************************
# Inclusive cuts                                                     *
#*********************************************************************
 0  = xptj ! minimum pt for at least one jet  
 0  = xptb ! minimum pt for at least one b 
 0  = xpta ! minimum pt for at least one photon 
 0  = xptl ! minimum pt for at least one charged lepton 
#*********************************************************************
# Control the pt's of the jets sorted by pt                          *
#*********************************************************************
 0   = ptj1min ! minimum pt for the leading jet in pt
 0   = ptj2min ! minimum pt for the second jet in pt
 0   = ptj3min ! minimum pt for the third jet in pt
 0   = ptj4min ! minimum pt for the fourth jet in pt
 -1  = ptj1max ! maximum pt for the leading jet in pt 
 -1  = ptj2max ! maximum pt for the second jet in pt
 -1  = ptj3max ! maximum pt for the third jet in pt
 -1  = ptj4max ! maximum pt for the fourth jet in pt
 0   = cutuse  ! reject event if fails any (0) / all (1) jet pt cuts
#*********************************************************************
# Control the pt's of leptons sorted by pt                           *
#*********************************************************************
 0   = ptl1min ! minimum pt for the leading lepton in pt
 0   = ptl2min ! minimum pt for the second lepton in pt
 0   = ptl3min ! minimum pt for the third lepton in pt
 0   = ptl4min ! minimum pt for the fourth lepton in pt
 -1  = ptl1max ! maximum pt for the leading lepton in pt 
 -1  = ptl2max ! maximum pt for the second lepton in pt
 -1  = ptl3max ! maximum pt for the third lepton in pt
 -1  = ptl4max ! maximum pt for the fourth lepton in pt
#*********************************************************************
# Control the Ht(k)=Sum of k leading jets                            *
#*********************************************************************
 0   = htjmin ! minimum jet HT=Sum(jet pt)
 -1  = htjmax ! maximum jet HT=Sum(jet pt)
 0   = ihtmin  !inclusive Ht for all partons (including b)
 -1  = ihtmax  !inclusive Ht for all partons (including b)
 0   = ht2min ! minimum Ht for the two leading jets
 0   = ht3min ! minimum Ht for the three leading jets
 0   = ht4min ! minimum Ht for the four leading jets
 -1  = ht2max ! maximum Ht for the two leading jets
 -1  = ht3max ! maximum Ht for the three leading jets
 -1  = ht4max ! maximum Ht for the four leading jets
#***********************************************************************
# Photon-isolation cuts, according to hep-ph/9801442                   *
# When ptgmin=0, all the other parameters are ignored                  *
# When ptgmin>0, pta and draj are not going to be used                 *
#***********************************************************************
   0 = ptgmin ! Min photon transverse momentum
 0.4 = R0gamma ! Radius of isolation code
 1.0 = xn ! n parameter of eq.(3.4) in hep-ph/9801442
 1.0 = epsgamma ! epsilon_gamma parameter of eq.(3.4) in hep-ph/9801442
 .true. = isoEM ! isolate photons from EM energy (photons and leptons)
#*********************************************************************
# WBF cuts                                                           *
#*********************************************************************
 0   = xetamin ! minimum rapidity for two jets in the WBF case  
 0   = deltaeta ! minimum rapidity for two jets in the WBF case 
#*********************************************************************
# KT DURHAM CUT                                                      *
#*********************************************************************
 -1    =  ktdurham        
 0.4  =  dparameter 
#*********************************************************************
# maximal pdg code for quark to be considered as a light jet         *
# (otherwise b cuts are applied)                                     *
#*********************************************************************
 4 = maxjetflavor    ! Maximum jet pdg code
#*********************************************************************
# Jet measure cuts                                                   *
#*********************************************************************
 0   = xqcut   ! minimum kt jet measure between partons
#*********************************************************************
#
#*********************************************************************
# Store info for systematics studies                                 *
# WARNING: If use_syst is T, matched Pythia output is                *
#          meaningful ONLY if plotted taking matchscale              *
#          reweighting into account!                                 *
#*********************************************************************
   F  = use_syst      ! Enable systematics studies
#
#**************************************
# Parameter of the systematics study
#  will be used by SysCalc (if installed)
#**************************************                                  
#
0.5 1 2 = sys_scalefact  # factorization/renormalization scale factor
0.5 1 2 = sys_alpsfact  # \alpha_s emission scale factors
30 50 = sys_matchscale # variation of merging scale
# PDF sets and number of members (0 or none for all members).
CT10nlo.LHgrid = sys_pdf # matching scales
# MSTW2008nlo68cl.LHgrid 1  = sys_pdf
</MGRunCard>
<slha>
######################################################################
## PARAM_CARD AUTOMATICALY GENERATED BY MG5 FOLLOWING UFO MODEL   ####
######################################################################
##                                                                  ##
##  Width set on Auto will be computed following the information    ##
##        present in the decay.py files of the model.               ##
##        See  arXiv:1402.1178 for more details.                    ##
##                                                                  ##
######################################################################

###################################
## INFORMATION FOR CKMBLOCK
###################################
Block ckmblock 
    1 2.277360e-01 # cabi 

###################################
## INFORMATION FOR FRBLOCK
###################################
Block frblock 
    1 2.000000e-01 # gz 

###################################
## INFORMATION FOR MASS
###################################
Block mass 
    1 5.040000e-03 # MD 
    2 2.550000e-03 # MU 
    3 1.010000e-01 # MS 
    4 1.270000e+00 # MC 
    5 4.700000e+00 # MB 
    6 1.720000e+02 # MT 
   11 5.110000e-04 # Me 
   13 1.056600e-01 # MM 
   15 1.777000e+00 # MTA 
   23 9.118760e+01 # MZ 
   25 1.200000e+02 # MH 
  10030 1.500000e+03 # MZph 
  10031 3.000000e+02 # MZpl 
## Dependent parameters, given by model restrictions.
## Those values should be edited following the 
## analytical expression. MG5 ignores those values 
## but they are important for interfacing the output of MG5
## to external program such as Pythia.
  12 0.000000 # ve : 0.0 
  14 0.000000 # vm : 0.0 
  16 0.000000 # vt : 0.0 
  21 0.000000 # g : 0.0 
  22 0.000000 # a : 0.0 
  24 79.824360 # w+ : cmath.sqrt(MZ__exp__2/2. + cmath.sqrt(MZ__exp__4/4. - (aEW*cmath.pi*MZ__exp__2)/(Gf*sqrt__2))) 

###################################
## INFORMATION FOR SMINPUTS
###################################
Block sminputs 
    1 1.279000e+02 # aEWM1 
    2 1.166370e-05 # Gf 
    3 1.184000e-01 # aS 

###################################
## INFORMATION FOR YUKAWA
###################################
Block yukawa 
    1 5.040000e-03 # ymdo 
    2 2.550000e-03 # ymup 
    3 1.010000e-01 # yms 
    4 1.270000e+00 # ymc 
    5 4.700000e+00 # ymb 
    6 1.720000e+02 # ymt 
   11 5.110000e-04 # yme 
   13 1.056600e-01 # ymm 
   15 1.777000e+00 # ymtau 

###################################
## INFORMATION FOR DECAY
###################################
DECAY   6 1.508336e+00 # WT 
DECAY  23 2.495200e+00 # WZ 
DECAY  24 2.085000e+00 # WW 
DECAY  25 5.753088e-03 # WH 
## Dependent parameters, given by model restrictions.
## Those values should be edited following the 
## analytical expression. MG5 ignores those values 
## but they are important for interfacing the output of MG5
## to external program such as Pythia.
DECAY  1 0.000000 # d : 0.0 
DECAY  2 0.000000 # u : 0.0 
DECAY  3 0.000000 # s : 0.0 
DECAY  4 0.000000 # c : 0.0 
DECAY  5 0.000000 # b : 0.0 
DECAY  11 0.000000 # e- : 0.0 
DECAY  12 0.000000 # ve : 0.0 
DECAY  13 0.000000 # mu- : 0.0 
DECAY  14 0.000000 # vm : 0.0 
DECAY  15 0.000000 # ta- : 0.0 
DECAY  16 0.000000 # vt : 0.0 
DECAY  21 0.000000 # g : 0.0 
DECAY  22 0.000000 # a : 0.0 
DECAY  10030 0.308725 # zph : (gz__exp__2*MZph*(5 + cmath.sqrt(1 - (4*MT__exp__2)/MZph__exp__2)))/(144.*cmath.pi) 
DECAY  10031 0.132629 # zpl : (5*gz__exp__2*MZpl)/(144.*cmath.pi) 
#===========================================================
# QUANTUM NUMBERS OF NEW STATE(S) (NON SM PDG CODE)
#===========================================================

Block QNUMBERS 10030  # zph 
        1 0  # 3 times electric charge
        2 3  # number of spin states (2S+1)
        3 1  # colour rep (1: singlet, 3: triplet, 8: octet)
        4 0  # Particle/Antiparticle distinction (0=own anti)
Block QNUMBERS 10031  # zpl 
        1 0  # 3 times electric charge
        2 3  # number of spin states (2S+1)
        3 1  # colour rep (1: singlet, 3: triplet, 8: octet)
        4 0  # Particle/Antiparticle distinction (0=own anti)
</slha>
## END BANNER##
<MGGenerationInfo>
#  Number of Events        :         3977
#  Integrated weight (pb)  :  0.89329E-02
#  Max wgt                 :  0.30936E-05
#  Average wgt             :  0.22461E-05
</MGGenerationInfo>
</header>
<init>
     2212     2212  0.40000000000E+04  0.40000000000E+04 0 0  247000  247000 2   1
  0.89380813270E-02  0.16931815224E-04  0.30936000000E-05   0
</init>
<event>
 5   0  0.3093600E-05  0.1499891E+04  0.7818609E-02  0.8884525E-01
        2   -1    0    0  501    0  0.00000000000E+00  0.00000000000E+00  0.10726387015E+04  0.10726387015E+04  0.25500000920E-02 0. -1.
       -2   -1    0    0    0  501  0.00000000000E+00  0.00000000000E+00 -0.52433145363E+03  0.52433145363E+03  0.25500000920E-02 0.  1.
    10030    2    1    2    0    0  0.00000000000E+00  0.00000000000E+00  0.54830724785E+03  0.15969701551E+04  0.14998909421E+04 0.  0.
        1    1    3    3  502    0 -0.29230941376E+03  0.60942028544E+03  0.62011580698E+03  0.91726849492E+03  0.50400001928E-02 0. -1.
       -1    1    3    3    0  502  0.29230941376E+03 -0.60942028544E+03 -0.71808559133E+02  0.67970166019E+03  0.50400001928E-02 0.  1.
</event>
<event>
 5   0  0.3093600E-05  0.1500297E+04  0.7818609E-02  0.8884255E-01
        2   -1    0    0  501    0  0.00000000000E+00  0.00000000000E+00  0.11469526188E+04  0.11469526188E+04  0.25500000920E-02 0. -1.
       -2   -1    0    0    0  501  0.00000000000E+00  0.00000000000E+00 -0.49062438787E+03  0.49062438787E+03  0.25500000920E-02 0.  1.
    10030    2    1    2    0    0  0.00000000000E+00  0.00000000000E+00  0.65632823095E+03  0.16375770067E+04  0.15002972059E+04 0.  0.
        1    1    3    3  502    0  0.20273141680E+03  0.15120949036E+03  0.10990136690E+04  0.11277390575E+04  0.50400001928E-02 0. -1.
       -1    1    3    3    0  502 -0.20273141680E+03 -0.15120949036E+03 -0.44268543801E+03  0.50983794914E+03  0.50400001928E-02 0.  1.
</event>
<event>
 5   0  0.2969498E-05  0.1500044E+04  0.7818609E-02  0.8884424E-01
        2   -1    0    0  501    0  0.00000000000E+00  0.00000000000E+00  0.11592323192E+04  0.11592323192E+04  0.25500000920E-02 0.  1.
       -2   -1    0    0    0  501  0.00000000000E+00  0.00000000000E+00 -0.48526328589E+03  0.48526328589E+03  0.25500000920E-02 0. -1.
    10030    2    1    2    0    0  0.00000000000E+00  0.00000000000E+00  0.67396903330E+03  0.16444956051E+04  0.15000438451E+04 0.  0.
        3    1    3    3  502    0  0.43185895204E+02  0.31580689924E+03 -0.40731556675E+03  0.51720885556E+03  0.10100000352E+00 0. -1.
       -3    1    3    3    0  502 -0.43185895204E+02 -0.31580689924E+03  0.10812846001E+04  0.11272867495E+04  0.10100000352E+00 0.  1.
</event>
<event>
 5   0  0.3093600E-05  0.1499979E+04  0.7818609E-02  0.8884467E-01
        2   -1    0    0  501    0  0.00000000000E+00  0.00000000000E+00  0.10155522294E+04  0.10155522294E+04  0.25500000920E-02 0. -1.
       -2   -1    0    0    0  501  0.00000000000E+00  0.00000000000E+00 -0.55387031449E+03  0.55387031449E+03  0.25500000920E-02 0.  1.
    10030    2    1    2    0    0  0.00000000000E+00  0.00000000000E+00  0.46168191489E+03  0.15694225439E+04  0.14999789767E+04 0.  0.
        1    1    3    3  502    0  0.74744647696E+03  0.36492886263E+02  0.28290685507E+03  0.80002765911E+03  0.50400001928E-02 0. -1.
       -1    1    3    3    0  502 -0.74744647696E+03 -0.36492886263E+02  0.17877505982E+03  0.76939488477E+03  0.50400001928E-02 0.  1.
</event>
<event>
 5   0  0.2969498E-05  0.1500921E+04  0.7818609E-02  0.8883841E-01
       -2   -1    0    0    0  501  0.00000000000E+00  0.00000000000E+00  0.72864337435E+03  0.72864337436E+03  0.25500000920E-02 0.  1.
        2   -1    0    0  501    0  0.00000000000E+00  0.00000000000E+00 -0.77293081252E+03  0.77293081252E+03  0.25500000920E-02 0. -1.
    10030    2    1    2    0    0  0.00000000000E+00  0.00000000000E+00 -0.44287438166E+02  0.15015741869E+04  0.15009209378E+04 0.  0.
        3    1    3    3  502    0  0.43315204971E+03 -0.11078048390E+03  0.58086059109E+03  0.73300208066E+03  0.10100000352E+00 0.  1.
       -3    1    3    3    0  502 -0.43315204971E+03  0.11078048390E+03 -0.62514802925E+03  0.76857210622E+03  0.10100000352E+00 0. -1.
</event>
<event>
 5   0  0.1576214E-05  0.1501696E+04  0.7818609E-02  0.8883326E-01
        1   -1    0    0  501    0  0.00000000000E+00  0.00000000000E+00  0.27186579051E+04  0.27186579051E+04  0.50400001928E-02 0. -1.
       -1   -1    0    0    0  501  0.00000000000E+00  0.00000000000E+00 -0.20737175176E+03  0.20737175183E+03  0.50400001928E-02 0.  1.
    10030    2    1    2    0    0  0.00000000000E+00  0.00000000000E+00  0.25112861534E+04  0.29260296570E+04  0.15016961774E+04 0.  0.
        1    1    3    3  502    0 -0.42674040029E+03 -0.60587905832E+03  0.10204001524E+04  0.12611158843E+04  0.50400001928E-02 0.  1.
       -1    1    3    3    0  502  0.42674040029E+03  0.60587905832E+03  0.14908860010E+04  0.16649137727E+04  0.50400001928E-02 0. -1.
</event>
<event>
 5   0  0.1588657E-05  0.1500391E+04  0.7818609E-02  0.8884193E-01
        1   -1    0    0  501    0  0.00000000000E+00  0.00000000000E+00  0.12339090039E+04  0.12339090039E+04  0.50400001928E-02 0. -1.
       -1   -1    0    0    0  501  0.00000000000E+00  0.00000000000E+00 -0.45610585980E+03  0.45610585983E+03  0.50400001928E-02 0.  1.
    10030    2    1    2    0    0  0.00000000000E+00  0.00000000000E+00  0.77780314411E+03  0.16900148637E+04  0.15003907853E+04 0.  0.
        3    1    3    3  502    0  0.10705387109E+03 -0.50732515439E+03  0.99959838808E+03  0.11260711750E+04  0.10100000352E+00 0. -1.
       -3    1    3    3    0  502 -0.10705387109E+03  0.50732515439E+03 -0.22179524397E+03  0.56394368871E+03  0.10100000352E+00 0.  1.
</event>
<event>
 5   0  0.3093600E-05  0.1498940E+04  0.7818609E-02  0.8885158E-01
        2   -1    0    0  501    0  0.00000000000E+00  0.00000000000E+00  0.11956065844E+04  0.11956065844E+04  0.25500000920E-02 0. -1.
       -2   -1    0    0    0  501  0.00000000000E+00  0.00000000000E+00 -0.46980756262E+03  0.46980756263E+03  0.25500000920E-02 0.  1.
    10030    2    1    2    0    0  0.00000000000E+00  0.00000000000E+00  0.72579902182E+03  0.16654141471E+04  0.14989396456E+04 0.  0.
        1    1    3    3  502    0  0.23315220338E+03  0.55814447413E+02 -0.42605572556E+03  0.48887491630E+03  0.50400001928E-02 0.  1.
       -1    1    3    3    0  502 -0.23315220338E+03 -0.55814447413E+02  0.11518547474E+04  0.11765392308E+04  0.50400001928E-02 0. -1.
</event>
<event>
 5   0  0.1580078E-05  0.1500198E+04  0.7818609E-02  0.8884321E-01
        1   -1    0    0  501    0  0.00000000000E+00  0.00000000000E+00  0.64384990855E+03  0.64384990857E+03  0.50400001928E-02 0. -1.
       -1   -1    0    0    0  501  0.00000000000E+00  0.00000000000E+00 -0.87388170420E+03  0.87388170422E+03  0.50400001928E-02 0.  1.
    10030    2    1    2    0    0  0.00000000000E+00  0.00000000000E+00 -0.23003179565E+03  0.15177316128E+04  0.15001981941E+04 0.  0.
        2    1    3    3  502    0  0.61614473311E+02  0.57746107845E+03  0.36528637459E+03  0.68606980396E+03  0.25500000920E-02 0. -1.
       -2    1    3    3    0  502 -0.61614473311E+02 -0.57746107845E+03 -0.59531817024E+03  0.83166180883E+03  0.25500000920E-02 0.  1.
</event>
<event>
 5   0  0.3093600E-05  0.1501412E+04  0.7818609E-02  0.8883514E-01
       -2   -1    0    0    0  501  0.00000000000E+00  0.00000000000E+00  0.74293673291E+03  0.74293673291E+03  0.25500000920E-02 0.  1.
        2   -1    0    0  501    0  0.00000000000E+00  0.00000000000E+00 -0.75855694774E+03  0.75855694774E+03  0.25500000920E-02 0. -1.
    10030    2    1    2    0    0  0.00000000000E+00  0.00000000000E+00 -0.15620214829E+02  0.15014936807E+04  0.15014124290E+04 0.  0.
        1    1    3    3  502    0 -0.56015539820E+03  0.12551832164E+03  0.47598347662E+03  0.74571387894E+03  0.50400001928E-02 0.  1.
       -1    1    3    3    0  502  0.56015539820E+03 -0.12551832164E+03 -0.49160369145E+03  0.75577980171E+03  0.50400001928E-02 0. -1.
</event>
<event>
 5   0  0.1116613E-05  0.1499697E+04  0.7818609E-02  0.8884654E-01
        4   -1    0    0  501    0  0.00000000000E+00  0.00000000000E+00  0.47226891484E+03  0.47227062245E+03  0.12699999809E+01 0.  1.
       -4   -1    0    0    0  501  0.00000000000E+00  0.00000000000E+00 -0.11905732353E+04  0.11905739127E+04  0.12699999809E+01 0. -1.
    10030    2    1    2    0    0  0.00000000000E+00  0.00000000000E+00 -0.71830432047E+03  0.16628445351E+04  0.14996969198E+04 0.  0.
        5    1    3    3  502    0  0.58287784170E+03  0.13150272696E+03  0.14313091910E+03  0.61444942472E+03  0.46999998093E+01 0.  1.
       -5    1    3    3    0  502 -0.58287784170E+03 -0.13150272696E+03 -0.86143523957E+03  0.10483951104E+04  0.46999998093E+01 0. -1.
</event>
<event>
 5   0  0.3030702E-05  0.1501484E+04  0.7818609E-02  0.8883467E-01
        2   -1    0    0  501    0  0.00000000000E+00  0.00000000000E+00  0.78704954336E+03  0.78704954336E+03  0.25500000920E-02 0.  1.
       -2   -1    0    0    0  501  0.00000000000E+00  0.00000000000E+00 -0.71610930091E+03  0.71610930091E+03  0.25500000920E-02 0. -1.
    10030    2    1    2    0    0  0.00000000000E+00  0.00000000000E+00  0.70940242451E+02  0.15031588443E+04  0.15014839304E+04 0.  0.
        5    1    3    3  502    0  0.12450501215E+03 -0.34197148285E+03  0.69281922331E+03  0.78260242736E+03  0.46999998093E+01 0.  1.
       -5    1    3    3    0  502 -0.12450501215E+03  0.34197148285E+03 -0.62187898086E+03  0.72055641692E+03  0.46999998093E+01 0. -1.
</event>
<event>
 5   0  0.1533777E-05  0.1500604E+04  0.7818609E-02  0.8884052E-01
        1   -1    0    0  501    0  0.00000000000E+00  0.00000000000E+00  0.62592757813E+03  0.62592757815E+03  0.50400001928E-02 0.  1.
       -1   -1    0    0    0  501  0.00000000000E+00  0.00000000000E+00 -0.89938960257E+03  0.89938960259E+03  0.50400001928E-02 0. -1.
    10030    2    1    2    0    0  0.00000000000E+00  0.00000000000E+00 -0.27346202445E+03  0.15253171807E+04  0.15006035529E+04 0.  0.
        5    1    3    3  502    0  0.58207570366E+03  0.20502042859E+02  0.34402579627E+03  0.67646751367E+03  0.46999998093E+01 0.  1.
       -5    1    3    3    0  502 -0.58207570366E+03 -0.20502042859E+02 -0.61748782071E+03  0.84884966707E+03  0.46999998093E+01 0. -1.
</event>
<event>
 5   0  0.1116613E-05  0.1499780E+04  0.7818609E-02  0.8884599E-01
       -3   -1    0    0    0  501  0.00000000000E+00  0.00000000000E+00  0.28815637982E+03  0.28815639752E+03  0.10100000352E+00 0.  1.
        3   -1    0    0  501    0  0.00000000000E+00  0.00000000000E+00 -0.19514920175E+04  0.19514920201E+04  0.10100000352E+00 0. -1.
    10030    2    1    2    0    0  0.00000000000E+00  0.00000000000E+00 -0.16633356377E+04  0.22396484176E+04  0.14997798475E+04 0.  0.
        5    1    3    3  502    0 -0.22198576640E+03 -0.68806193960E+03 -0.53447914952E+03  0.89910898365E+03  0.46999998093E+01 0. -1.
       -5    1    3    3    0  502  0.22198576640E+03  0.68806193960E+03 -0.11288564882E+04  0.13405394340E+04  0.46999998093E+01 0.  1.
</event>
<event>
 5   0  0.1576214E-05  0.1501637E+04  0.7818609E-02  0.8883365E-01
       -1   -1    0    0    0  501  0.00000000000E+00  0.00000000000E+00  0.63159069801E+03  0.63159069803E+03  0.50400001928E-02 0. -1.
        1   -1    0    0  501    0  0.00000000000E+00  0.00000000000E+00 -0.89255313781E+03  0.89255313783E+03  0.50400001928E-02 0.  1.
    10030    2    1    2    0    0  0.00000000000E+00  0.00000000000E+00 -0.26096243980E+03  0.15241438359E+04  0.15016367861E+04 0.  0.
        1    1    3    3  502    0 -0.20936059708E+03 -0.51301281596E+03  0.38378268579E+03  0.67402014724E+03  0.50400001928E-02 0. -1.
       -1    1    3    3    0  502  0.20936059708E+03  0.51301281596E+03 -0.64474512559E+03  0.85012368862E+03  0.50400001928E-02 0.  1.
</event>
<event>
 5   0  0.1588657E-05  0.1500070E+04  0.7818609E-02  0.8884406E-01
       -1   -1    0    0    0  501  0.00000000000E+00  0.00000000000E+00  0.64474329212E+03  0.64474329214E+03  0.50400001928E-02 0. -1.
        1   -1    0    0  501    0  0.00000000000E+00  0.00000000000E+00 -0.87252218163E+03  0.87252218164E+03  0.50400001928E-02 0.  1.
    10030    2    1    2    0    0  0.00000000000E+00  0.00000000000E+00 -0.22777888951E+03  0.15172654738E+04  0.15000704302E+04 0.  0.
        3    1    3    3  502    0  0.14792808002E+03  0.64403976149E+03  0.24497734066E+03  0.70475800022E+03  0.10100000352E+00 0. -1.
       -3    1    3    3    0  502 -0.14792808002E+03 -0.64403976149E+03 -0.47275623017E+03  0.81250747356E+03  0.10100000352E+00 0.  1.
</event>
<event>
 5   0  0.1588657E-05  0.1499548E+04  0.7818609E-02  0.8884754E-01
       -1   -1    0    0    0  501  0.00000000000E+00  0.00000000000E+00  0.23673907730E+04  0.23673907730E+04  0.50400001928E-02 0.  1.
        1   -1    0    0  501    0  0.00000000000E+00  0.00000000000E+00 -0.23746010951E+03  0.23746010956E+03  0.50400001928E-02 0. -1.
    10030    2    1    2    0    0  0.00000000000E+00  0.00000000000E+00  0.21299306634E+04  0.26048508825E+04  0.14995477615E+04 0.  0.
        3    1    3    3  502    0 -0.65561269459E+03  0.86412365130E+02  0.45114079303E+03  0.80051428938E+03  0.10100000352E+00 0. -1.
       -3    1    3    3    0  502  0.65561269459E+03 -0.86412365130E+02  0.16787898704E+04  0.18043365931E+04  0.10100000352E+00 0.  1.
</event>
<event>
 5   0  0.3093600E-05  0.1499630E+04  0.7818609E-02  0.8884699E-01
       -2   -1    0    0    0  501  0.00000000000E+00  0.00000000000E+00  0.19903626625E+04  0.19903626625E+04  0.25500000920E-02 0. -1.
        2   -1    0    0  501    0  0.00000000000E+00  0.00000000000E+00 -0.28247250588E+03  0.28247250589E+03  0.25500000920E-02 0.  1.
    10030    2    1    2    0    0  0.00000000000E+00  0.00000000000E+00  0.17078901567E+04  0.22728351684E+04  0.14996302596E+04 0.  0.
        1    1    3    3  502    0  0.13242574875E+03 -0.14708540338E+03 -0.24217010439E+03  0.31275718106E+03  0.50400001928E-02 0.  1.
       -1    1    3    3    0  502 -0.13242574875E+03  0.14708540338E+03  0.19500602611E+04  0.19600779874E+04  0.50400001928E-02 0. -1.
</event>
<event>
 5   0  0.1643498E-05  0.1500606E+04  0.7818609E-02  0.8884050E-01
       -1   -1    0    0    0  501  0.00000000000E+00  0.00000000000E+00  0.34112457197E+03  0.34112457201E+03  0.50400001928E-02 0. -1.
        1   -1    0    0  501    0  0.00000000000E+00  0.00000000000E+00 -0.16502894479E+04  0.16502894479E+04  0.50400001928E-02 0.  1.
    10030    2    1    2    0    0  0.00000000000E+00  0.00000000000E+00 -0.13091648759E+04  0.19914140199E+04  0.15006055865E+04 0.  0.
        4    1    3    3  502    0  0.39073718550E+03  0.31826853403E+03  0.83086972620E+02  0.51075969477E+03  0.12699999809E+01 0. -1.
       -4    1    3    3    0  502 -0.39073718550E+03 -0.31826853403E+03 -0.13922518485E+04  0.14806543251E+04  0.12699999809E+01 0.  1.
</event>
<event>
 5   0  0.1576214E-05  0.1501482E+04  0.7818609E-02  0.8883468E-01
        1   -1    0    0  501    0  0.00000000000E+00  0.00000000000E+00  0.71086619624E+03  0.71086619625E+03  0.50400001928E-02 0. -1.
       -1   -1    0    0    0  501  0.00000000000E+00  0.00000000000E+00 -0.79285275653E+03  0.79285275654E+03  0.50400001928E-02 0.  1.
    10030    2    1    2    0    0  0.00000000000E+00  0.00000000000E+00 -0.81986560289E+02  0.15037189528E+04  0.15014822320E+04 0.  0.
        1    1    3    3  502    0  0.72257276074E+03 -0.68195968319E+02  0.15125658278E+03  0.74137752766E+03  0.50400001928E-02 0. -1.
       -1    1    3    3    0  502 -0.72257276074E+03  0.68195968319E+02 -0.23324314307E+03  0.76234142513E+03  0.50400001928E-02 0.  1.
</event>
<event>
 5   0  0.3018308E-05  0.1500316E+04  0.7818609E-02  0.8884243E-01
        2   -1    0    0  501    0  0.00000000000E+00  0.00000000000E+00  0.20040152967E+04  0.20040152967E+04  0.25500000920E-02 0.  1.
       -2   -1    0    0    0  501  0.00000000000E+00  0.00000000000E+00 -0.28080489957E+03  0.28080489958E+03  0.25500000920E-02 0. -1.
    10030    2    1    2    0    0  0.00000000000E+00  0.00000000000E+00  0.17232103972E+04  0.22848201963E+04  0.15003163855E+04 0.  0.
        2    1    3    3  502    0 -0.12338497284E+03  0.34893725896E+03 -0.13208199692E+03  0.39297164800E+03  0.25500000920E-02 0. -1.
       -2    1    3    3    0  502  0.12338497284E+03 -0.34893725896E+03  0.18552923941E+04  0.18918485483E+04  0.25500000920E-02 0.  1.
</event>
<event>
 5   0  0.1588657E-05  0.1500187E+04  0.7818609E-02  0.8884329E-01
        1   -1    0    0  501    0  0.00000000000E+00  0.00000000000E+00  0.78923040368E+03  0.78923040369E+03  0.50400001928E-02 0. -1.
       -1   -1    0    0    0  501  0.00000000000E+00  0.00000000000E+00 -0.71289694497E+03  0.71289694499E+03  0.50400001928E-02 0.  1.
    10030    2    1    2    0    0  0.00000000000E+00  0.00000000000E+00  0.76333458711E+02  0.15021273487E+04  0.15001865800E+04 0.  0.
        3    1    3    3  502    0 -0.39444492775E+03 -0.14845525091E+03  0.65946455595E+03  0.78263610529E+03  0.10100000352E+00 0. -1.
       -3    1    3    3    0  502  0.39444492775E+03  0.14845525091E+03 -0.58313109724E+03  0.71949124339E+03  0.10100000352E+00 0.  1.
</event>
<event>
 5   0  0.2969498E-05  0.1500740E+04  0.7818609E-02  0.8883961E-01
       -2   -1    0    0    0  501  0.00000000000E+00  0.00000000000E+00  0.54965847213E+03  0.54965847214E+03  0.25500000920E-02 0. -1.
        2   -1    0    0  501    0  0.00000000000E+00  0.00000000000E+00 -0.10243729652E+04  0.10243729652E+04  0.25500000920E-02 0.  1.
    10030    2    1    2    0    0  0.00000000000E+00  0.00000000000E+00 -0.47471449306E+03  0.15740314373E+04  0.15007401893E+04 0.  0.
        3    1    3    3  502    0  0.36680999886E+02  0.11682457939E+03  0.53910912575E+03  0.55284006528E+03  0.10100000352E+00 0. -1.
       -3    1    3    3    0  502 -0.36680999886E+02 -0.11682457939E+03 -0.10138236188E+04  0.10211913721E+04  0.10100000352E+00 0.  1.
</event>
<event>
 5   0  0.1576214E-05  0.1500821E+04  0.7818609E-02  0.8883907E-01
       -1   -1    0    0    0  501  0.00000000000E+00  0.00000000000E+00  0.11853681610E+04  0.11853681610E+04  0.50400001928E-02 0. -1.
        1   -1    0    0  501    0  0.00000000000E+00  0.00000000000E+00 -0.47505545388E+03  0.47505545390E+03  0.50400001928E-02 0.  1.
    10030    2    1    2    0    0  0.00000000000E+00  0.00000000000E+00  0.71031270710E+03  0.16604236149E+04  0.15008205885E+04 0.  0.
        1    1    3    3  502    0  0.11273028266E+02  0.27991951566E+03  0.11253445880E+04  0.11596906735E+04  0.50400001928E-02 0. -1.
       -1    1    3    3    0  502 -0.11273028266E+02 -0.27991951566E+03 -0.41503188090E+03  0.50073294140E+03  0.50400001928E-02 0.  1.
</event>
<event>
 5   0  0.3018308E-05  0.1500049E+04  0.7818609E-02  0.8884420E-01
        2   -1    0    0  501    0  0.00000000000E+00  0.00000000000E+00  0.87799839787E+03  0.87799839787E+03  0.25500000920E-02 0. -1.
       -2   -1    0    0    0  501  0.00000000000E+00  0.00000000000E+00 -0.64070387400E+03  0.64070387401E+03  0.25500000920E-02 0.  1.
    10030    2    1    2    0    0  0.00000000000E+00  0.00000000000E+00  0.23729452386E+03  0.15187022719E+04  0.15000492990E+04 0.  0.
        2    1    3    3  502    0  0.63243660496E+03 -0.23457169731E+03  0.45065341921E+03  0.81122650643E+03  0.25500000920E-02 0. -1.
       -2    1    3    3    0  502 -0.63243660496E+03  0.23457169731E+03 -0.21335889535E+03  0.70747576546E+03  0.25500000920E-02 0.  1.
</event>
<event>
 5   0  0.1580078E-05  0.1500003E+04  0.7818609E-02  0.8884451E-01
       -1   -1    0    0    0  501  0.00000000000E+00  0.00000000000E+00  0.47283450554E+03  0.47283450557E+03  0.50400001928E-02 0. -1.
        1   -1    0    0  501    0  0.00000000000E+00  0.00000000000E+00 -0.11896387968E+04  0.11896387968E+04  0.50400001928E-02 0.  1.
    10030    2    1    2    0    0  0.00000000000E+00  0.00000000000E+00 -0.71680429129E+03  0.16624733024E+04  0.15000030297E+04 0.  0.
        2    1    3    3  502    0 -0.35708196747E+03  0.12586827690E+03  0.35914141637E+03  0.52185525922E+03  0.25500000920E-02 0. -1.
       -2    1    3    3    0  502  0.35708196747E+03 -0.12586827690E+03 -0.10759457077E+04  0.11406180432E+04  0.25500000920E-02 0.  1.
</event>
<event>
 5   0  0.2969498E-05  0.1500091E+04  0.7818609E-02  0.8884393E-01
       -2   -1    0    0    0  501  0.00000000000E+00  0.00000000000E+00  0.38357422555E+03  0.38357422556E+03  0.25500000920E-02 0.  1.
        2   -1    0    0  501    0  0.00000000000E+00  0.00000000000E+00 -0.14666474237E+04  0.14666474237E+04  0.25500000920E-02 0. -1.
    10030    2    1    2    0    0  0.00000000000E+00  0.00000000000E+00 -0.10830731982E+04  0.18502216493E+04  0.15000908636E+04 0.  0.
        3    1    3    3  502    0  0.24018273355E+03  0.69934517933E+03 -0.38651594236E+03  0.83436563283E+03  0.10100000352E+00 0. -1.
       -3    1    3    3    0  502 -0.24018273355E+03 -0.69934517933E+03 -0.69655725583E+03  0.10158560165E+04  0.10100000352E+00 0.  1.
</event>
<event>
 5   0  0.3030702E-05  0.1498409E+04  0.7818609E-02  0.8885512E-01
        2   -1    0    0  501    0  0.00000000000E+00  0.00000000000E+00  0.13174738048E+04  0.13174738048E+04  0.25500000920E-02 0.  1.
       -2   -1    0    0    0  501  0.00000000000E+00  0.00000000000E+00 -0.42604802149E+03  0.42604802150E+03  0.25500000920E-02 0. -1.
    10030    2    1    2    0    0  0.00000000000E+00  0.00000000000E+00  0.89142578326E+03  0.17435218263E+04  0.14984086330E+04 0.  0.
        5    1    3    3  502    0 -0.62470841726E+03  0.30543299744E+03  0.12129433349E+03  0.70589257529E+03  0.46999998093E+01 0. -1.
       -5    1    3    3    0  502  0.62470841726E+03 -0.30543299744E+03  0.77013144977E+03  0.10376292510E+04  0.46999998093E+01 0.  1.
</event>
<event>
 5   0  0.1580078E-05  0.1499593E+04  0.7818609E-02  0.8884724E-01
        1   -1    0    0  501    0  0.00000000000E+00  0.00000000000E+00  0.49473396916E+03  0.49473396918E+03  0.50400001928E-02 0.  1.
       -1   -1    0    0    0  501  0.00000000000E+00  0.00000000000E+00 -0.11363580077E+04  0.11363580077E+04  0.50400001928E-02 0. -1.
    10030    2    1    2    0    0  0.00000000000E+00  0.00000000000E+00 -0.64162403854E+03  0.16310919769E+04  0.14995931549E+04 0.  0.
        2    1    3    3  502    0  0.60212208455E+03  0.93768992702E+02 -0.79598587696E+03  0.10024655331E+04  0.25500000920E-02 0.  1.
       -2    1    3    3    0  502 -0.60212208455E+03 -0.93768992702E+02  0.15436183842E+03  0.62862644381E+03  0.25500000920E-02 0. -1.
</event>
<event>
 5   0  0.2969498E-05  0.1498752E+04  0.7818609E-02  0.8885283E-01
       -2   -1    0    0    0  501  0.00000000000E+00  0.00000000000E+00  0.10420810142E+04  0.10420810142E+04  0.25500000920E-02 0.  1.
        2   -1    0    0  501    0  0.00000000000E+00  0.00000000000E+00 -0.53888779133E+03  0.53888779134E+03  0.25500000920E-02 0. -1.
    10030    2    1    2    0    0  0.00000000000E+00  0.00000000000E+00  0.50319322291E+03  0.15809688056E+04  0.14987524628E+04 0.  0.
        3    1    3    3  502    0 -0.45102454932E+03  0.12750507511E+03 -0.36518696839E+03  0.59417356080E+03  0.10100000352E+00 0. -1.
       -3    1    3    3    0  502  0.45102454932E+03 -0.12750507511E+03  0.86838019130E+03  0.98679524478E+03  0.10100000352E+00 0.  1.
</event>
<event>
 5   0  0.3093600E-05  0.1499895E+04  0.7818609E-02  0.8884523E-01
       -2   -1    0    0    0  501  0.00000000000E+00  0.00000000000E+00  0.99285477560E+03  0.99285477561E+03  0.25500000920E-02 0.  1.
        2   -1    0    0  501    0  0.00000000000E+00  0.00000000000E+00 -0.56646883396E+03  0.56646883396E+03  0.25500000920E-02 0. -1.
    10030    2    1    2    0    0  0.00000000000E+00  0.00000000000E+00  0.42638594164E+03  0.15593236096E+04  0.14998950457E+04 0.  0.
        1    1    3    3  502    0  0.12475815381E+02  0.34546641799E+03 -0.47869748650E+03  0.59046928416E+03  0.50400001928E-02 0. -1.
       -1    1    3    3    0  502 -0.12475815381E+02 -0.34546641799E+03  0.90508342815E+03  0.96885432541E+03  0.50400001928E-02 0.  1.
</event>
<event>
 5   0  0.1533777E-05  0.1505234E+04  0.7818609E-02  0.8880980E-01
       -1   -1    0    0    0  501  0.00000000000E+00  0.00000000000E+00  0.42722606261E+03  0.42722606264E+03  0.50400001928E-02 0. -1.
        1   -1    0    0  501    0  0.00000000000E+00  0.00000000000E+00 -0.13258369365E+04  0.13258369365E+04  0.50400001928E-02 0.  1.
    10030    2    1    2    0    0  0.00000000000E+00  0.00000000000E+00 -0.89861087387E+03  0.17530629991E+04  0.15052336617E+04 0.  0.
        5    1    3    3  502    0 -0.24724201293E+03 -0.27313614862E+03  0.31500530465E+03  0.48474983300E+03  0.46999998093E+01 0. -1.
       -5    1    3    3    0  502  0.24724201293E+03  0.27313614862E+03 -0.12136161785E+04  0.12683131661E+04  0.46999998093E+01 0.  1.
</event>
<event>
 5   0  0.2969498E-05  0.1498077E+04  0.7818609E-02  0.8885733E-01
        2   -1    0    0  501    0  0.00000000000E+00  0.00000000000E+00  0.17412781573E+04  0.17412781573E+04  0.25500000920E-02 0.  1.
       -2   -1    0    0    0  501  0.00000000000E+00  0.00000000000E+00 -0.32221076443E+03  0.32221076444E+03  0.25500000920E-02 0. -1.
    10030    2    1    2    0    0  0.00000000000E+00  0.00000000000E+00  0.14190673929E+04  0.20634889218E+04  0.14980768554E+04 0.  0.
        3    1    3    3  502    0 -0.73065695994E+03 -0.95649066824E+02  0.52447509170E+03  0.90447911480E+03  0.10100000352E+00 0. -1.
       -3    1    3    3    0  502  0.73065695994E+03  0.95649066824E+02  0.89459230122E+03  0.11590098070E+04  0.10100000352E+00 0.  1.
</event>
<event>
 5   0  0.1643498E-05  0.1499930E+04  0.7818609E-02  0.8884499E-01
       -1   -1    0    0    0  501  0.00000000000E+00  0.00000000000E+00  0.40813901911E+03  0.40813901915E+03  0.50400001928E-02 0.  1.
        1   -1    0    0  501    0  0.00000000000E+00  0.00000000000E+00 -0.13780786712E+04  0.13780786712E+04  0.50400001928E-02 0. -1.
    10030    2    1    2    0    0  0.00000000000E+00  0.00000000000E+00 -0.96993965209E+03  0.17862176904E+04  0.14999302346E+04 0.  0.
        4    1    3    3  502    0 -0.23287845456E+03 -0.69032360098E+03 -0.69688736155E+03  0.10081828486E+04  0.12699999809E+01 0. -1.
       -4    1    3    3    0  502  0.23287845456E+03  0.69032360098E+03 -0.27305229053E+03  0.77803484173E+03  0.12699999809E+01 0.  1.
</event>
<event>
 5   0  0.1576214E-05  0.1505460E+04  0.7818609E-02  0.8880830E-01
        1   -1    0    0  501    0  0.00000000000E+00  0.00000000000E+00  0.14484716253E+04  0.14484716253E+04  0.50400001928E-02 0.  1.
       -1   -1    0    0    0  501  0.00000000000E+00  0.00000000000E+00 -0.39117262749E+03  0.39117262753E+03  0.50400001928E-02 0. -1.
    10030    2    1    2    0    0  0.00000000000E+00  0.00000000000E+00  0.10572989978E+04  0.18396442528E+04  0.15054599982E+04 0.  0.
        1    1    3    3  502    0 -0.20879604179E+03  0.24167737956E+02  0.14118831343E+04  0.14274431168E+04  0.50400001928E-02 0.  1.
       -1    1    3    3    0  502  0.20879604179E+03 -0.24167737956E+02 -0.35458413655E+03  0.41220113603E+03  0.50400001928E-02 0. -1.
</event>
<event>
 5   0  0.1588657E-05  0.1497974E+04  0.7818609E-02  0.8885801E-01
        1   -1    0    0  501    0  0.00000000000E+00  0.00000000000E+00  0.11603122275E+04  0.11603122275E+04  0.50400001928E-02 0.  1.
       -1   -1    0    0    0  501  0.00000000000E+00  0.00000000000E+00 -0.48347465715E+03  0.48347465717E+03  0.50400001928E-02 0. -1.
    10030    2    1    2    0    0  0.00000000000E+00  0.00000000000E+00  0.67683757035E+03  0.16437868847E+04  0.14979740404E+04 0.  0.
        3    1    3    3  502    0 -0.43196274705E+03  0.61173540599E+03  0.35270632202E+03  0.82777640796E+03  0.10100000352E+00 0.  1.
       -3    1    3    3    0  502  0.43196274705E+03 -0.61173540599E+03  0.32413124832E+03  0.81601047672E+03  0.10100000352E+00 0. -1.
</event>
<event>
 5   0  0.3070497E-05  0.1499873E+04  0.7818609E-02  0.8884538E-01
        2   -1    0    0  501    0  0.00000000000E+00  0.00000000000E+00  0.14598158772E+04  0.14598158772E+04  0.25500000920E-02 0.  1.
       -2   -1    0    0    0  501  0.00000000000E+00  0.00000000000E+00 -0.38525718717E+03  0.38525718717E+03  0.25500000920E-02 0. -1.
    10030    2    1    2    0    0  0.00000000000E+00  0.00000000000E+00  0.10745586901E+04  0.18450730644E+04  0.14998727395E+04 0.  0.
        4    1    3    3  502    0 -0.93205118120E+01  0.13815826941E+03  0.14439517061E+04  0.14505766860E+04  0.12699999809E+01 0.  1.
       -4    1    3    3    0  502  0.93205118120E+01 -0.13815826941E+03 -0.36939301609E+03  0.39449637841E+03  0.12699999809E+01 0. -1.
</event>
<event>
 5   0  0.3070497E-05  0.1499828E+04  0.7818609E-02  0.8884567E-01
        2   -1    0    0  501    0  0.00000000000E+00  0.00000000000E+00  0.47111082546E+03  0.47111082546E+03  0.25500000920E-02 0. -1.
       -2   -1    0    0    0  501  0.00000000000E+00  0.00000000000E+00 -0.11937131871E+04  0.11937131871E+04  0.25500000920E-02 0.  1.
    10030    2    1    2    0    0  0.00000000000E+00  0.00000000000E+00 -0.72260236169E+03  0.16648240126E+04  0.14998282635E+04 0.  0.
        4    1    3    3  502    0  0.46927097946E+03 -0.56949989018E+03 -0.21310670882E+03  0.76808948653E+03  0.12699999809E+01 0.  1.
       -4    1    3    3    0  502 -0.46927097946E+03  0.56949989018E+03 -0.50949565287E+03  0.89673452608E+03  0.12699999809E+01 0. -1.
</event>
<event>
 5   0  0.1580078E-05  0.1500446E+04  0.7818609E-02  0.8884156E-01
       -1   -1    0    0    0  501  0.00000000000E+00  0.00000000000E+00  0.54239373441E+03  0.54239373443E+03  0.50400001928E-02 0.  1.
        1   -1    0    0  501    0  0.00000000000E+00  0.00000000000E+00 -0.10376869296E+04  0.10376869296E+04  0.50400001928E-02 0. -1.
    10030    2    1    2    0    0  0.00000000000E+00  0.00000000000E+00 -0.49529319521E+03  0.15800806641E+04  0.15004464521E+04 0.  0.
        2    1    3    3  502    0 -0.47760050534E+03 -0.46312267218E+03 -0.61282187381E+03  0.90450843070E+03  0.25500000920E-02 0. -1.
       -2    1    3    3    0  502  0.47760050534E+03  0.46312267218E+03  0.11752867860E+03  0.67557223336E+03  0.25500000920E-02 0.  1.
</event>
<event>
 5   0  0.1588657E-05  0.1499229E+04  0.7818609E-02  0.8884966E-01
        1   -1    0    0  501    0  0.00000000000E+00  0.00000000000E+00  0.10698771466E+04  0.10698771466E+04  0.50400001928E-02 0. -1.
       -1   -1    0    0    0  501  0.00000000000E+00  0.00000000000E+00 -0.52522124364E+03  0.52522124366E+03  0.50400001928E-02 0.  1.
    10030    2    1    2    0    0  0.00000000000E+00  0.00000000000E+00  0.54465590298E+03  0.15950983903E+04  0.14992294094E+04 0.  0.
        3    1    3    3  502    0  0.24512694159E+03 -0.36268900381E+03  0.91975576345E+03  0.10186173008E+04  0.10100000352E+00 0. -1.
       -3    1    3    3    0  502 -0.24512694159E+03  0.36268900381E+03 -0.37509986046E+03  0.57648108945E+03  0.10100000352E+00 0.  1.
</event>
<event>
 5   0  0.1533777E-05  0.1501723E+04  0.7818609E-02  0.8883308E-01
        1   -1    0    0  501    0  0.00000000000E+00  0.00000000000E+00  0.95495232748E+03  0.95495232749E+03  0.50400001928E-02 0. -1.
       -1   -1    0    0    0  501  0.00000000000E+00  0.00000000000E+00 -0.59038871055E+03  0.59038871057E+03  0.50400001928E-02 0.  1.
    10030    2    1    2    0    0  0.00000000000E+00  0.00000000000E+00  0.36456361693E+03  0.15453410381E+04  0.15017231080E+04 0.  0.
        5    1    3    3  502    0 -0.20849713630E+03 -0.65519958771E+02  0.92148238535E+03  0.94705638552E+03  0.46999998093E+01 0. -1.
       -5    1    3    3    0  502  0.20849713630E+03  0.65519958771E+02 -0.55691876843E+03  0.59828465254E+03  0.46999998093E+01 0.  1.
</event>
<event>
 5   0  0.3018308E-05  0.1500479E+04  0.7818609E-02  0.8884135E-01
        2   -1    0    0  501    0  0.00000000000E+00  0.00000000000E+00  0.12528379213E+04  0.12528379213E+04  0.25500000920E-02 0.  1.
       -2   -1    0    0    0  501  0.00000000000E+00  0.00000000000E+00 -0.44926731958E+03  0.44926731959E+03  0.25500000920E-02 0. -1.
    10030    2    1    2    0    0  0.00000000000E+00  0.00000000000E+00  0.80357060167E+03  0.17021052408E+04  0.15004787699E+04 0.  0.
        2    1    3    3  502    0 -0.14704116910E+03  0.52493211972E+03 -0.18292332246E+03  0.57500937177E+03  0.25500000920E-02 0. -1.
       -2    1    3    3    0  502  0.14704116910E+03 -0.52493211972E+03  0.98649392413E+03  0.11270958691E+04  0.25500000920E-02 0.  1.
</event>
<event>
 5   0  0.2969498E-05  0.1500092E+04  0.7818609E-02  0.8884392E-01
        2   -1    0    0  501    0  0.00000000000E+00  0.00000000000E+00  0.71869599146E+03  0.71869599146E+03  0.25500000920E-02 0. -1.
       -2   -1    0    0    0  501  0.00000000000E+00  0.00000000000E+00 -0.78276339674E+03  0.78276339675E+03  0.25500000920E-02 0.  1.
    10030    2    1    2    0    0  0.00000000000E+00  0.00000000000E+00 -0.64067405284E+02  0.15014593882E+04  0.15000918845E+04 0.  0.
        3    1    3    3  502    0  0.66130176406E+03  0.16957706227E+03 -0.34294930211E+03  0.76399649032E+03  0.10100000352E+00 0.  1.
       -3    1    3    3    0  502 -0.66130176406E+03 -0.16957706227E+03  0.27888189683E+03  0.73746289790E+03  0.10100000352E+00 0. -1.
</event>
<event>
 5   0  0.3093600E-05  0.1499852E+04  0.7818609E-02  0.8884551E-01
       -2   -1    0    0    0  501  0.00000000000E+00  0.00000000000E+00  0.85334049695E+03  0.85334049696E+03  0.25500000920E-02 0.  1.
        2   -1    0    0  501    0  0.00000000000E+00  0.00000000000E+00 -0.65904391004E+03  0.65904391005E+03  0.25500000920E-02 0. -1.
    10030    2    1    2    0    0  0.00000000000E+00  0.00000000000E+00  0.19429658691E+03  0.15123844070E+04  0.14998518030E+04 0.  0.
        1    1    3    3  502    0 -0.17627874400E+03 -0.72884801779E+03  0.10698837288E+03  0.75745636216E+03  0.50400001928E-02 0. -1.
       -1    1    3    3    0  502  0.17627874400E+03  0.72884801779E+03  0.87308214034E+02  0.75492804484E+03  0.50400001928E-02 0.  1.
</event>
<event>
 5   0  0.3018308E-05  0.1499894E+04  0.7818609E-02  0.8884523E-01
        2   -1    0    0  501    0  0.00000000000E+00  0.00000000000E+00  0.89245823252E+03  0.89245823252E+03  0.25500000920E-02 0. -1.
       -2   -1    0    0    0  501  0.00000000000E+00  0.00000000000E+00 -0.63019281634E+03  0.63019281634E+03  0.25500000920E-02 0.  1.
    10030    2    1    2    0    0  0.00000000000E+00  0.00000000000E+00  0.26226541618E+03  0.15226510489E+04  0.14998943523E+04 0.  0.
        2    1    3    3  502    0 -0.40762611368E+03  0.62938782443E+03  0.11943904703E+03  0.75931137754E+03  0.25500000920E-02 0. -1.
       -2    1    3    3    0  502  0.40762611368E+03 -0.62938782443E+03  0.14282636914E+03  0.76333967133E+03  0.25500000920E-02 0.  1.
</event>
<event>
 5   0  0.2969498E-05  0.1499927E+04  0.7818609E-02  0.8884502E-01
        2   -1    0    0  501    0  0.00000000000E+00  0.00000000000E+00  0.10997952801E+04  0.10997952801E+04  0.25500000920E-02 0.  1.
       -2   -1    0    0    0  501  0.00000000000E+00  0.00000000000E+00 -0.51140874727E+03  0.51140874727E+03  0.25500000920E-02 0. -1.
    10030    2    1    2    0    0  0.00000000000E+00  0.00000000000E+00  0.58838653281E+03  0.16112040274E+04  0.14999265668E+04 0.  0.
        3    1    3    3  502    0 -0.90976111261E+02  0.29671272085E+03  0.10275815831E+04  0.10734239664E+04  0.10100000352E+00 0.  1.
       -3    1    3    3    0  502  0.90976111261E+02 -0.29671272085E+03 -0.43919505030E+03  0.53778006094E+03  0.10100000352E+00 0. -1.
</event>
<event>
 5   0  0.1588657E-05  0.1498821E+04  0.7818609E-02  0.8885237E-01
       -1   -1    0    0    0  501  0.00000000000E+00  0.00000000000E+00  0.34549385694E+03  0.34549385698E+03  0.50400001928E-02 0.  1.
        1   -1    0    0  501    0  0.00000000000E+00  0.00000000000E+00 -0.16255466364E+04  0.16255466364E+04  0.50400001928E-02 0. -1.
    10030    2    1    2    0    0  0.00000000000E+00  0.00000000000E+00 -0.12800527795E+04  0.19710404934E+04  0.14988213731E+04 0.  0.
        3    1    3    3  502    0  0.25470110998E+03 -0.14282009599E+03 -0.15476525198E+04  0.15749598621E+04  0.10100000352E+00 0. -1.
       -3    1    3    3    0  502 -0.25470110998E+03  0.14282009599E+03  0.26759974030E+03  0.39608063125E+03  0.10100000352E+00 0.  1.
</event>
<event>
 5   0  0.3030702E-05  0.1500191E+04  0.7818609E-02  0.8884326E-01
       -2   -1    0    0    0  501  0.00000000000E+00  0.00000000000E+00  0.15499311871E+04  0.15499311871E+04  0.25500000920E-02 0.  1.
        2   -1    0    0  501    0  0.00000000000E+00  0.00000000000E+00 -0.36301164462E+03  0.36301164463E+03  0.25500000920E-02 0. -1.
    10030    2    1    2    0    0  0.00000000000E+00  0.00000000000E+00  0.11869195425E+04  0.19129428318E+04  0.15001907469E+04 0.  0.
        5    1    3    3  502    0 -0.81218081129E+01 -0.17192879507E+03  0.15243903202E+04  0.15340839001E+04  0.46999998093E+01 0.  1.
       -5    1    3    3    0  502  0.81218081129E+01  0.17192879507E+03 -0.33747077765E+03  0.37885893167E+03  0.46999998093E+01 0. -1.
</event>
<event>
 5   0  0.1533777E-05  0.1499787E+04  0.7818609E-02  0.8884594E-01
       -1   -1    0    0    0  501  0.00000000000E+00  0.00000000000E+00  0.68916411183E+03  0.68916411184E+03  0.50400001928E-02 0.  1.
        1   -1    0    0  501    0  0.00000000000E+00  0.00000000000E+00 -0.81597491890E+03  0.81597491892E+03  0.50400001928E-02 0. -1.
    10030    2    1    2    0    0  0.00000000000E+00  0.00000000000E+00 -0.12681080708E+03  0.15051390308E+04  0.14997874920E+04 0.  0.
        5    1    3    3  502    0 -0.34712535380E+03 -0.87721452188E+02 -0.72463993742E+03  0.80827977416E+03  0.46999998093E+01 0. -1.
       -5    1    3    3    0  502  0.34712535380E+03  0.87721452188E+02  0.59782913034E+03  0.69685925660E+03  0.46999998093E+01 0.  1.
</event>
<event>
 5   0  0.1588657E-05  0.1499446E+04  0.7818609E-02  0.8884821E-01
       -1   -1    0    0    0  501  0.00000000000E+00  0.00000000000E+00  0.39197133254E+03  0.39197133258E+03  0.50400001928E-02 0.  1.
        1   -1    0    0  501    0  0.00000000000E+00  0.00000000000E+00 -0.14339938347E+04  0.14339938347E+04  0.50400001928E-02 0. -1.
    10030    2    1    2    0    0  0.00000000000E+00  0.00000000000E+00 -0.10420225021E+04  0.18259651673E+04  0.14994458633E+04 0.  0.
        3    1    3    3  502    0 -0.36416249447E+03 -0.35147084349E+03 -0.11945749683E+04  0.12973648066E+04  0.10100000352E+00 0. -1.
       -3    1    3    3    0  502  0.36416249447E+03  0.35147084349E+03  0.15255246617E+03  0.52860036070E+03  0.10100000352E+00 0.  1.
</event>
<event>
 5   0  0.2969498E-05  0.1496976E+04  0.7818609E-02  0.8886466E-01
        2   -1    0    0  501    0  0.00000000000E+00  0.00000000000E+00  0.15088773782E+04  0.15088773782E+04  0.25500000920E-02 0. -1.
       -2   -1    0    0    0  501  0.00000000000E+00  0.00000000000E+00 -0.37129222884E+03  0.37129222884E+03  0.25500000920E-02 0.  1.
    10030    2    1    2    0    0  0.00000000000E+00  0.00000000000E+00  0.11375851494E+04  0.18801696071E+04  0.14969762120E+04 0.  0.
        3    1    3    3  502    0 -0.49383159320E+00 -0.33258727710E+03  0.14109725061E+04  0.14496406327E+04  0.10100000352E+00 0. -1.
       -3    1    3    3    0  502  0.49383159320E+00  0.33258727710E+03 -0.27338735672E+03  0.43052897438E+03  0.10100000352E+00 0.  1.
</event>
<event>
 5   0  0.1576214E-05  0.1500179E+04  0.7818609E-02  0.8884334E-01
       -1   -1    0    0    0  501  0.00000000000E+00  0.00000000000E+00  0.10901054087E+04  0.10901054087E+04  0.50400001928E-02 0.  1.
        1   -1    0    0  501    0  0.00000000000E+00  0.00000000000E+00 -0.51612819150E+03  0.51612819152E+03  0.50400001928E-02 0. -1.
    10030    2    1    2    0    0  0.00000000000E+00  0.00000000000E+00  0.57397721715E+03  0.16062336002E+04  0.15001788335E+04 0.  0.
        1    1    3    3  502    0  0.37442069745E+03  0.64683915016E+03  0.35506314384E+03  0.82744279620E+03  0.50400001928E-02 0. -1.
       -1    1    3    3    0  502 -0.37442069745E+03 -0.64683915016E+03  0.21891407331E+03  0.77879080398E+03  0.50400001928E-02 0.  1.
</event>
<event>
 5   0  0.1588657E-05  0.1499967E+04  0.7818609E-02  0.8884475E-01
        1   -1    0    0  501    0  0.00000000000E+00  0.00000000000E+00  0.13094617916E+04  0.13094617916E+04  0.50400001928E-02 0. -1.
       -1   -1    0    0    0  501  0.00000000000E+00  0.00000000000E+00 -0.42954692791E+03  0.42954692794E+03  0.50400001928E-02 0.  1.
    10030    2    1    2    0    0  0.00000000000E+00  0.00000000000E+00  0.87991486365E+03  0.17390087195E+04  0.14999670527E+04 0.  0.
        3    1    3    3  502    0  0.40711517758E+03  0.14522452199E+03 -0.27061329867E+03  0.50996519217E+03  0.10100000352E+00 0.  1.
       -3    1    3    3    0  502 -0.40711517758E+03 -0.14522452199E+03  0.11505281623E+04  0.12290435273E+04  0.10100000352E+00 0. -1.
</event>
<event>
 5   0  0.1580078E-05  0.1500036E+04  0.7818609E-02  0.8884429E-01
        1   -1    0    0  501    0  0.00000000000E+00  0.00000000000E+00  0.24433768308E+04  0.24433768308E+04  0.50400001928E-02 0.  1.
       -1   -1    0    0    0  501  0.00000000000E+00  0.00000000000E+00 -0.23022509233E+03  0.23022509239E+03  0.50400001928E-02 0. -1.
    10030    2    1    2    0    0  0.00000000000E+00  0.00000000000E+00  0.22131517384E+04  0.26736019231E+04  0.15000355416E+04 0.  0.
        2    1    3    3  502    0 -0.53086430564E+03 -0.39683695613E+03  0.17322579680E+04  0.18547275132E+04  0.25500000920E-02 0.  1.
       -2    1    3    3    0  502  0.53086430564E+03  0.39683695613E+03  0.48089377046E+03  0.81887440992E+03  0.25500000920E-02 0. -1.
</event>
<event>
 5   0  0.1533777E-05  0.1501100E+04  0.7818609E-02  0.8883722E-01
       -1   -1    0    0    0  501  0.00000000000E+00  0.00000000000E+00  0.53448760047E+03  0.53448760049E+03  0.50400001928E-02 0. -1.
        1   -1    0    0  501    0  0.00000000000E+00  0.00000000000E+00 -0.10539540804E+04  0.10539540804E+04  0.50400001928E-02 0.  1.
    10030    2    1    2    0    0  0.00000000000E+00  0.00000000000E+00 -0.51946647996E+03  0.15884416809E+04  0.15011001132E+04 0.  0.
        5    1    3    3  502    0  0.28253810413E+03  0.45843011756E+03  0.29348337256E+03  0.61330296994E+03  0.46999998093E+01 0. -1.
       -5    1    3    3    0  502 -0.28253810413E+03 -0.45843011756E+03 -0.81294985252E+03  0.97513871100E+03  0.46999998093E+01 0.  1.
</event>
<event>
 5   0  0.3070497E-05  0.1501106E+04  0.7818609E-02  0.8883718E-01
       -2   -1    0    0    0  501  0.00000000000E+00  0.00000000000E+00  0.53106780003E+03  0.53106780004E+03  0.25500000920E-02 0. -1.
        2   -1    0    0  501    0  0.00000000000E+00  0.00000000000E+00 -0.10607488237E+04  0.10607488237E+04  0.25500000920E-02 0.  1.
    10030    2    1    2    0    0  0.00000000000E+00  0.00000000000E+00 -0.52968102371E+03  0.15918166238E+04  0.15011056515E+04 0.  0.
        4    1    3    3  502    0  0.50596466857E+03 -0.52322093052E+03 -0.70554490399E+02  0.73125914490E+03  0.12699999809E+01 0. -1.
       -4    1    3    3    0  502 -0.50596466857E+03  0.52322093052E+03 -0.45912653331E+03  0.86055747889E+03  0.12699999809E+01 0.  1.
</event>
<event>
 5   0  0.3093600E-05  0.1497860E+04  0.7818609E-02  0.8885877E-01
        2   -1    0    0  501    0  0.00000000000E+00  0.00000000000E+00  0.85430250961E+03  0.85430250962E+03  0.25500000920E-02 0. -1.
       -2   -1    0    0    0  501  0.00000000000E+00  0.00000000000E+00 -0.65655477304E+03  0.65655477305E+03  0.25500000920E-02 0.  1.
    10030    2    1    2    0    0  0.00000000000E+00  0.00000000000E+00  0.19774773657E+03  0.15108572827E+04  0.14978603277E+04 0.  0.
        1    1    3    3  502    0  0.33362347631E+03 -0.33595123389E+02 -0.57661080276E+03  0.66701819627E+03  0.50400001928E-02 0.  1.
       -1    1    3    3    0  502 -0.33362347631E+03  0.33595123389E+02  0.77435853934E+03  0.84383908640E+03  0.50400001928E-02 0. -1.
</event>
<event>
 5   0  0.1643498E-05  0.1499258E+04  0.7818609E-02  0.8884946E-01
       -1   -1    0    0    0  501  0.00000000000E+00  0.00000000000E+00  0.32829365122E+03  0.32829365126E+03  0.50400001928E-02 0.  1.
        1   -1    0    0  501    0  0.00000000000E+00  0.00000000000E+00 -0.17117114368E+04  0.17117114368E+04  0.50400001928E-02 0. -1.
    10030    2    1    2    0    0  0.00000000000E+00  0.00000000000E+00 -0.13834177856E+04  0.20400050881E+04  0.14992584800E+04 0.  0.
        4    1    3    3  502    0  0.48550729596E+03 -0.11299414725E+03  0.70096392383E+02  0.50338864595E+03  0.12699999809E+01 0.  1.
       -4    1    3    3    0  502 -0.48550729596E+03  0.11299414725E+03 -0.14535141779E+04  0.15366164421E+04  0.12699999809E+01 0. -1.
</event>
<event>
 5   0  0.3018308E-05  0.1498655E+04  0.7818609E-02  0.8885348E-01
        2   -1    0    0  501    0  0.00000000000E+00  0.00000000000E+00  0.15934565634E+04  0.15934565634E+04  0.25500000920E-02 0.  1.
       -2   -1    0    0    0  501  0.00000000000E+00  0.00000000000E+00 -0.35237359707E+03  0.35237359708E+03  0.25500000920E-02 0. -1.
    10030    2    1    2    0    0  0.00000000000E+00  0.00000000000E+00  0.12410829664E+04  0.19458301605E+04  0.14986554254E+04 0.  0.
        2    1    3    3  502    0  0.76831956918E+02 -0.46880013782E+03  0.13729494431E+04  0.14528134402E+04  0.25500000920E-02 0.  1.
       -2    1    3    3    0  502 -0.76831956918E+02  0.46880013782E+03 -0.13186647669E+03  0.49301672031E+03  0.25500000920E-02 0. -1.
</event>
<event>
 5   0  0.1533777E-05  0.1501070E+04  0.7818609E-02  0.8883742E-01
        1   -1    0    0  501    0  0.00000000000E+00  0.00000000000E+00  0.95743140497E+03  0.95743140499E+03  0.50400001928E-02 0. -1.
       -1   -1    0    0    0  501  0.00000000000E+00  0.00000000000E+00 -0.58834760100E+03  0.58834760103E+03  0.50400001928E-02 0.  1.
    10030    2    1    2    0    0  0.00000000000E+00  0.00000000000E+00  0.36908380397E+03  0.15457790060E+04  0.15010695790E+04 0.  0.
        5    1    3    3  502    0  0.69563959686E+03  0.27804678933E+03  0.13784918940E+03  0.76174073988E+03  0.46999998093E+01 0.  1.
       -5    1    3    3    0  502 -0.69563959686E+03 -0.27804678933E+03  0.23123461457E+03  0.78403826613E+03  0.46999998093E+01 0. -1.
</event>
<event>
 5   0  0.3018308E-05  0.1499915E+04  0.7818609E-02  0.8884510E-01
        2   -1    0    0  501    0  0.00000000000E+00  0.00000000000E+00  0.11436544269E+04  0.11436544269E+04  0.25500000920E-02 0. -1.
       -2   -1    0    0    0  501  0.00000000000E+00  0.00000000000E+00 -0.49178848617E+03  0.49178848618E+03  0.25500000920E-02 0.  1.
    10030    2    1    2    0    0  0.00000000000E+00  0.00000000000E+00  0.65186594076E+03  0.16354429131E+04  0.14999147700E+04 0.  0.
        2    1    3    3  502    0 -0.45959885260E+03  0.26897407814E+03  0.90171790679E+03  0.10472217260E+04  0.25500000920E-02 0. -1.
       -2    1    3    3    0  502  0.45959885260E+03 -0.26897407814E+03 -0.24985196602E+03  0.58822118710E+03  0.25500000920E-02 0.  1.
</event>
<event>
 5   0  0.1643498E-05  0.1500018E+04  0.7818609E-02  0.8884441E-01
        1   -1    0    0  501    0  0.00000000000E+00  0.00000000000E+00  0.69148372991E+03  0.69148372993E+03  0.50400001928E-02 0.  1.
       -1   -1    0    0    0  501  0.00000000000E+00  0.00000000000E+00 -0.81348769135E+03  0.81348769137E+03  0.50400001928E-02 0. -1.
    10030    2    1    2    0    0  0.00000000000E+00  0.00000000000E+00 -0.12200396144E+03  0.15049714213E+04  0.15000180040E+04 0.  0.
        4    1    3    3  502    0 -0.31677870633E+03  0.23810073496E+03  0.57786696369E+03  0.70069433378E+03  0.12699999809E+01 0.  1.
       -4    1    3    3    0  502  0.31677870633E+03 -0.23810073496E+03 -0.69987092513E+03  0.80427708752E+03  0.12699999809E+01 0. -1.
</event>
<event>
 5   0  0.1643498E-05  0.1492174E+04  0.7818609E-02  0.8889674E-01
       -1   -1    0    0    0  501  0.00000000000E+00  0.00000000000E+00  0.55022760692E+03  0.55022760694E+03  0.50400001928E-02 0.  1.
        1   -1    0    0  501    0  0.00000000000E+00  0.00000000000E+00 -0.10116639985E+04  0.10116639985E+04  0.50400001928E-02 0. -1.
    10030    2    1    2    0    0  0.00000000000E+00  0.00000000000E+00 -0.46143639161E+03  0.15618916055E+04  0.14921735301E+04 0.  0.
        4    1    3    3  502    0  0.27905645671E+03 -0.59642170897E+03 -0.59789628466E+03  0.88942281344E+03  0.12699999809E+01 0. -1.
       -4    1    3    3    0  502 -0.27905645671E+03  0.59642170897E+03  0.13645989304E+03  0.67246879205E+03  0.12699999809E+01 0.  1.
</event>
<event>
 5   0  0.1580078E-05  0.1500118E+04  0.7818609E-02  0.8884374E-01
       -1   -1    0    0    0  501  0.00000000000E+00  0.00000000000E+00  0.82211751424E+03  0.82211751426E+03  0.50400001928E-02 0.  1.
        1   -1    0    0  501    0  0.00000000000E+00  0.00000000000E+00 -0.68431648061E+03  0.68431648062E+03  0.50400001928E-02 0. -1.
    10030    2    1    2    0    0  0.00000000000E+00  0.00000000000E+00  0.13780103364E+03  0.15064339949E+04  0.15001180807E+04 0.  0.
        2    1    3    3  502    0 -0.14582564878E+03 -0.65484181784E+03  0.40573132319E+03  0.78402859187E+03  0.25500000920E-02 0.  1.
       -2    1    3    3    0  502  0.14582564878E+03  0.65484181784E+03 -0.26793028955E+03  0.72240540302E+03  0.25500000920E-02 0. -1.
</event>
<event>
 5   0  0.3018308E-05  0.1499770E+04  0.7818609E-02  0.8884606E-01
        2   -1    0    0  501    0  0.00000000000E+00  0.00000000000E+00  0.12032180526E+04  0.12032180526E+04  0.25500000920E-02 0.  1.
       -2   -1    0    0    0  501  0.00000000000E+00  0.00000000000E+00 -0.46735276622E+03  0.46735276623E+03  0.25500000920E-02 0. -1.
    10030    2    1    2    0    0  0.00000000000E+00  0.00000000000E+00  0.73586528637E+03  0.16705708188E+04  0.14997696960E+04 0.  0.
        2    1    3    3  502    0 -0.64959809927E+03 -0.34540608737E+03  0.20634548937E+03  0.76410831480E+03  0.25500000920E-02 0. -1.
       -2    1    3    3    0  502  0.64959809927E+03  0.34540608737E+03  0.52951979701E+03  0.90646250402E+03  0.25500000920E-02 0.  1.
</event>
<event>
 5   0  0.1533777E-05  0.1499741E+04  0.7818609E-02  0.8884625E-01
        1   -1    0    0  501    0  0.00000000000E+00  0.00000000000E+00  0.72043863000E+03  0.72043863002E+03  0.50400001928E-02 0. -1.
       -1   -1    0    0    0  501  0.00000000000E+00  0.00000000000E+00 -0.78050518622E+03  0.78050518624E+03  0.50400001928E-02 0.  1.
    10030    2    1    2    0    0  0.00000000000E+00  0.00000000000E+00 -0.60066556215E+02  0.15009438163E+04  0.14997414272E+04 0.  0.
        5    1    3    3  502    0 -0.16216284401E+03 -0.53392700877E+03 -0.53134320517E+03  0.77053392550E+03  0.46999998093E+01 0.  1.
       -5    1    3    3    0  502  0.16216284401E+03  0.53392700877E+03  0.47127664896E+03  0.73040989076E+03  0.46999998093E+01 0. -1.
</event>
<event>
 5   0  0.3030702E-05  0.1500143E+04  0.7818609E-02  0.8884358E-01
       -2   -1    0    0    0  501  0.00000000000E+00  0.00000000000E+00  0.11173225007E+04  0.11173225007E+04  0.25500000920E-02 0. -1.
        2   -1    0    0  501    0  0.00000000000E+00  0.00000000000E+00 -0.50353133293E+03  0.50353133294E+03  0.25500000920E-02 0.  1.
    10030    2    1    2    0    0  0.00000000000E+00  0.00000000000E+00  0.61379116773E+03  0.16208538336E+04  0.15001425107E+04 0.  0.
        5    1    3    3  502    0 -0.37363924449E+03 -0.63385713772E+03  0.46422740371E+03  0.87000593585E+03  0.46999998093E+01 0. -1.
       -5    1    3    3    0  502  0.37363924449E+03  0.63385713772E+03  0.14956376402E+03  0.75084789776E+03  0.46999998093E+01 0.  1.
</event>
<event>
 5   0  0.3030702E-05  0.1501010E+04  0.7818609E-02  0.8883782E-01
        2   -1    0    0  501    0  0.00000000000E+00  0.00000000000E+00  0.69205833486E+03  0.69205833487E+03  0.25500000920E-02 0. -1.
       -2   -1    0    0    0  501  0.00000000000E+00  0.00000000000E+00 -0.81388754828E+03  0.81388754828E+03  0.25500000920E-02 0.  1.
    10030    2    1    2    0    0  0.00000000000E+00  0.00000000000E+00 -0.12182921341E+03  0.15059458831E+04  0.15010098753E+04 0.  0.
        5    1    3    3  502    0  0.29706245196E+03 -0.17740739461E+03 -0.72907465608E+03  0.80702628716E+03  0.46999998093E+01 0.  1.
       -5    1    3    3    0  502 -0.29706245196E+03  0.17740739461E+03  0.60724544266E+03  0.69891959599E+03  0.46999998093E+01 0. -1.
</event>
<event>
 5   0  0.3070497E-05  0.1500659E+04  0.7818609E-02  0.8884015E-01
        2   -1    0    0  501    0  0.00000000000E+00  0.00000000000E+00  0.24141706955E+04  0.24141706955E+04  0.25500000920E-02 0. -1.
       -2   -1    0    0    0  501  0.00000000000E+00  0.00000000000E+00 -0.23320417814E+03  0.23320417815E+03  0.25500000920E-02 0.  1.
    10030    2    1    2    0    0  0.00000000000E+00  0.00000000000E+00  0.21809665174E+04  0.26473748737E+04  0.15006594456E+04 0.  0.
        4    1    3    3  502    0 -0.15734116351E+03 -0.18685356004E+01 -0.20376800358E+03  0.25745435584E+03  0.12699999809E+01 0.  1.
       -4    1    3    3    0  502  0.15734116351E+03  0.18685356004E+01  0.23847345210E+04  0.23899205178E+04  0.12699999809E+01 0. -1.
</event>
<event>
 5   0  0.1643498E-05  0.1500127E+04  0.7818609E-02  0.8884369E-01
       -1   -1    0    0    0  501  0.00000000000E+00  0.00000000000E+00  0.59750302867E+03  0.59750302869E+03  0.50400001928E-02 0. -1.
        1   -1    0    0  501    0  0.00000000000E+00  0.00000000000E+00 -0.94157713788E+03  0.94157713789E+03  0.50400001928E-02 0.  1.
    10030    2    1    2    0    0  0.00000000000E+00  0.00000000000E+00 -0.34407410921E+03  0.15390801666E+04  0.15001269168E+04 0.  0.
        4    1    3    3  502    0 -0.35190122379E+01 -0.13529107136E+03 -0.92894565008E+03  0.93875326425E+03  0.12699999809E+01 0.  1.
       -4    1    3    3    0  502  0.35190122379E+01  0.13529107136E+03  0.58487154087E+03  0.60032690233E+03  0.12699999809E+01 0. -1.
</event>
<event>
 5   0  0.1580078E-05  0.1499827E+04  0.7818609E-02  0.8884568E-01
        1   -1    0    0  501    0  0.00000000000E+00  0.00000000000E+00  0.69576469390E+03  0.69576469392E+03  0.50400001928E-02 0. -1.
       -1   -1    0    0    0  501  0.00000000000E+00  0.00000000000E+00 -0.80827654595E+03  0.80827654596E+03  0.50400001928E-02 0.  1.
    10030    2    1    2    0    0  0.00000000000E+00  0.00000000000E+00 -0.11251185205E+03  0.15040412399E+04  0.14998270348E+04 0.  0.
        2    1    3    3  502    0 -0.66839935137E+02 -0.29713363397E+03 -0.74346554236E+03  0.80342827063E+03  0.25500000920E-02 0.  1.
       -2    1    3    3    0  502  0.66839935137E+02  0.29713363397E+03  0.63095369031E+03  0.70061296925E+03  0.25500000920E-02 0. -1.
</event>
<event>
 5   0  0.3018308E-05  0.1499875E+04  0.7818609E-02  0.8884536E-01
        2   -1    0    0  501    0  0.00000000000E+00  0.00000000000E+00  0.16981688316E+04  0.16981688316E+04  0.25500000920E-02 0.  1.
       -2   -1    0    0    0  501  0.00000000000E+00  0.00000000000E+00 -0.33118386063E+03  0.33118386064E+03  0.25500000920E-02 0. -1.
    10030    2    1    2    0    0  0.00000000000E+00  0.00000000000E+00  0.13669849709E+04  0.20293526922E+04  0.14998748076E+04 0.  0.
        2    1    3    3  502    0 -0.59672842422E+02 -0.23488306515E+02  0.16944521558E+04  0.16956652549E+04  0.25500000920E-02 0.  1.
       -2    1    3    3    0  502  0.59672842422E+02  0.23488306515E+02 -0.32746718481E+03  0.33368743728E+03  0.25500000920E-02 0. -1.
</event>
<event>
 5   0  0.1580078E-05  0.1499882E+04  0.7818609E-02  0.8884531E-01
        1   -1    0    0  501    0  0.00000000000E+00  0.00000000000E+00  0.51782720362E+03  0.51782720365E+03  0.50400001928E-02 0.  1.
       -1   -1    0    0    0  501  0.00000000000E+00  0.00000000000E+00 -0.10860989351E+04  0.10860989351E+04  0.50400001928E-02 0. -1.
    10030    2    1    2    0    0  0.00000000000E+00  0.00000000000E+00 -0.56827173150E+03  0.16039261388E+04  0.14998820946E+04 0.  0.
        2    1    3    3  502    0  0.75106804133E+02 -0.18464184431E+03 -0.10572512695E+04  0.10758781946E+04  0.25500000920E-02 0. -1.
       -2    1    3    3    0  502 -0.75106804133E+02  0.18464184431E+03  0.48897953805E+03  0.52804794416E+03  0.25500000920E-02 0.  1.
</event>
<event>
 5   0  0.2969498E-05  0.1501016E+04  0.7818609E-02  0.8883778E-01
        2   -1    0    0  501    0  0.00000000000E+00  0.00000000000E+00  0.42769859668E+03  0.42769859668E+03  0.25500000920E-02 0.  1.
       -2   -1    0    0    0  501  0.00000000000E+00  0.00000000000E+00 -0.13169600505E+04  0.13169600506E+04  0.25500000920E-02 0. -1.
    10030    2    1    2    0    0  0.00000000000E+00  0.00000000000E+00 -0.88926145387E+03  0.17446586472E+04  0.15010156102E+04 0.  0.
        3    1    3    3  502    0  0.43196972490E+03  0.46805887016E+03  0.16774707125E+02  0.63714860917E+03  0.10100000352E+00 0.  1.
       -3    1    3    3    0  502 -0.43196972490E+03 -0.46805887016E+03 -0.90603616100E+03  0.11075100381E+04  0.10100000352E+00 0. -1.
</event>
<event>
 5   0  0.3030702E-05  0.1499008E+04  0.7818609E-02  0.8885113E-01
        2   -1    0    0  501    0  0.00000000000E+00  0.00000000000E+00  0.12187186767E+04  0.12187186767E+04  0.25500000920E-02 0.  1.
       -2   -1    0    0    0  501  0.00000000000E+00  0.00000000000E+00 -0.46094014701E+03  0.46094014702E+03  0.25500000920E-02 0. -1.
    10030    2    1    2    0    0  0.00000000000E+00  0.00000000000E+00  0.75777852965E+03  0.16796588237E+04  0.14990081601E+04 0.  0.
        5    1    3    3  502    0 -0.22450319973E+03  0.54861888534E+03  0.89280065328E+03  0.10716806728E+04  0.46999998093E+01 0.  1.
       -5    1    3    3    0  502  0.22450319973E+03 -0.54861888534E+03 -0.13502212363E+03  0.60797815085E+03  0.46999998093E+01 0. -1.
</event>
<event>
 5   0  0.1533777E-05  0.1502037E+04  0.7818609E-02  0.8883100E-01
        1   -1    0    0  501    0  0.00000000000E+00  0.00000000000E+00  0.23107440529E+04  0.23107440529E+04  0.50400001928E-02 0. -1.
       -1   -1    0    0    0  501  0.00000000000E+00  0.00000000000E+00 -0.24408957571E+03  0.24408957576E+03  0.50400001928E-02 0.  1.
    10030    2    1    2    0    0  0.00000000000E+00  0.00000000000E+00  0.20666544772E+04  0.25548336287E+04  0.15020366647E+04 0.  0.
        5    1    3    3  502    0  0.74435932686E+03 -0.10578620479E+02  0.86474170024E+03  0.11410447024E+04  0.46999998093E+01 0.  1.
       -5    1    3    3    0  502 -0.74435932686E+03  0.10578620479E+02  0.12019127770E+04  0.14137889263E+04  0.46999998093E+01 0. -1.
</event>
<event>
 5   0  0.1588657E-05  0.1500297E+04  0.7818609E-02  0.8884256E-01
       -1   -1    0    0    0  501  0.00000000000E+00  0.00000000000E+00  0.99478244307E+03  0.99478244308E+03  0.50400001928E-02 0. -1.
        1   -1    0    0  501    0  0.00000000000E+00  0.00000000000E+00 -0.56567384802E+03  0.56567384804E+03  0.50400001928E-02 0.  1.
    10030    2    1    2    0    0  0.00000000000E+00  0.00000000000E+00  0.42910859505E+03  0.15604562911E+04  0.15002965207E+04 0.  0.
        3    1    3    3  502    0  0.50226666876E+03  0.38528882187E+02 -0.36358160027E+03  0.62124702942E+03  0.10100000352E+00 0.  1.
       -3    1    3    3    0  502 -0.50226666876E+03 -0.38528882187E+02  0.79269019531E+03  0.93920926170E+03  0.10100000352E+00 0. -1.
</event>
<event>
 5   0  0.2969498E-05  0.1500244E+04  0.7818609E-02  0.8884291E-01
       -2   -1    0    0    0  501  0.00000000000E+00  0.00000000000E+00  0.72290506131E+03  0.72290506131E+03  0.25500000920E-02 0.  1.
        2   -1    0    0  501    0  0.00000000000E+00  0.00000000000E+00 -0.77836382515E+03  0.77836382515E+03  0.25500000920E-02 0. -1.
    10030    2    1    2    0    0  0.00000000000E+00  0.00000000000E+00 -0.55458763841E+02  0.15012688865E+04  0.15002441785E+04 0.  0.
        3    1    3    3  502    0 -0.65921330780E+03 -0.35364327600E+02  0.32870250318E+03  0.73746740039E+03  0.10100000352E+00 0.  1.
       -3    1    3    3    0  502  0.65921330780E+03  0.35364327600E+02 -0.38416126702E+03  0.76380148607E+03  0.10100000352E+00 0. -1.
</event>
<event>
 5   0  0.3093600E-05  0.1499685E+04  0.7818609E-02  0.8884662E-01
       -2   -1    0    0    0  501  0.00000000000E+00  0.00000000000E+00  0.83253649127E+03  0.83253649128E+03  0.25500000920E-02 0. -1.
        2   -1    0    0  501    0  0.00000000000E+00  0.00000000000E+00 -0.67536250448E+03  0.67536250449E+03  0.25500000920E-02 0.  1.
    10030    2    1    2    0    0  0.00000000000E+00  0.00000000000E+00  0.15717398679E+03  0.15078989958E+04  0.14996852067E+04 0.  0.
        1    1    3    3  502    0 -0.16163073073E+02  0.26644904926E+03 -0.62597018939E+03  0.68051085136E+03  0.50400001928E-02 0.  1.
       -1    1    3    3    0  502  0.16163073073E+02 -0.26644904926E+03  0.78314417619E+03  0.82738814441E+03  0.50400001928E-02 0. -1.
</event>
<event>
 5   0  0.3093600E-05  0.1495924E+04  0.7818609E-02  0.8887168E-01
       -2   -1    0    0    0  501  0.00000000000E+00  0.00000000000E+00  0.20679140493E+03  0.20679140494E+03  0.25500000920E-02 0.  1.
        2   -1    0    0  501    0  0.00000000000E+00  0.00000000000E+00 -0.27053705671E+04  0.27053705671E+04  0.25500000920E-02 0. -1.
    10030    2    1    2    0    0  0.00000000000E+00  0.00000000000E+00 -0.24985791621E+04  0.29121619720E+04  0.14959243035E+04 0.  0.
        1    1    3    3  502    0  0.38051880408E+03 -0.66045872422E+02 -0.24962474443E+04  0.25259469355E+04  0.50400001928E-02 0. -1.
       -1    1    3    3    0  502 -0.38051880408E+03  0.66045872422E+02 -0.23317178251E+01  0.38621503654E+03  0.50400001928E-02 0.  1.
</event>
<event>
 5   0  0.3018308E-05  0.1499728E+04  0.7818609E-02  0.8884634E-01
        2   -1    0    0  501    0  0.00000000000E+00  0.00000000000E+00  0.47299026673E+03  0.47299026674E+03  0.25500000920E-02 0. -1.
       -2   -1    0    0    0  501  0.00000000000E+00  0.00000000000E+00 -0.11888109951E+04  0.11888109951E+04  0.25500000920E-02 0.  1.
    10030    2    1    2    0    0  0.00000000000E+00  0.00000000000E+00 -0.71582072835E+03  0.16618012618E+04  0.14997280149E+04 0.  0.
        2    1    3    3  502    0  0.42001242160E+03 -0.56172246321E+03 -0.65181696543E+03  0.95750087019E+03  0.25500000920E-02 0.  1.
       -2    1    3    3    0  502 -0.42001242160E+03  0.56172246321E+03 -0.64003762920E+02  0.70430039163E+03  0.25500000920E-02 0. -1.
</event>
<event>
 5   0  0.1576214E-05  0.1499715E+04  0.7818609E-02  0.8884643E-01
        1   -1    0    0  501    0  0.00000000000E+00  0.00000000000E+00  0.18208200203E+04  0.18208200203E+04  0.50400001928E-02 0. -1.
       -1   -1    0    0    0  501  0.00000000000E+00  0.00000000000E+00 -0.30880923860E+03  0.30880923864E+03  0.50400001928E-02 0.  1.
    10030    2    1    2    0    0  0.00000000000E+00  0.00000000000E+00  0.15120107817E+04  0.21296292589E+04  0.14997146984E+04 0.  0.
        1    1    3    3  502    0 -0.45793706779E+03 -0.16760111443E+02 -0.86845848115E+02  0.46640053682E+03  0.50400001928E-02 0.  1.
       -1    1    3    3    0  502  0.45793706779E+03  0.16760111443E+02  0.15988566298E+04  0.16632287221E+04  0.50400001928E-02 0. -1.
</event>
<event>
 5   0  0.3093600E-05  0.1500324E+04  0.7818609E-02  0.8884238E-01
       -2   -1    0    0    0  501  0.00000000000E+00  0.00000000000E+00  0.52268017729E+03  0.52268017730E+03  0.25500000920E-02 0.  1.
        2   -1    0    0  501    0  0.00000000000E+00  0.00000000000E+00 -0.10766488215E+04  0.10766488215E+04  0.25500000920E-02 0. -1.
    10030    2    1    2    0    0  0.00000000000E+00  0.00000000000E+00 -0.55396864423E+03  0.15993289988E+04  0.15003239609E+04 0.  0.
        1    1    3    3  502    0 -0.18657248530E+03  0.69013650324E+03 -0.34731850140E+02  0.71575413853E+03  0.50400001928E-02 0.  1.
       -1    1    3    3    0  502  0.18657248530E+03 -0.69013650324E+03 -0.51923679409E+03  0.88357486030E+03  0.50400001928E-02 0. -1.
</event>
<event>
 5   0  0.3070497E-05  0.1500292E+04  0.7818609E-02  0.8884259E-01
       -2   -1    0    0    0  501  0.00000000000E+00  0.00000000000E+00  0.12751289267E+04  0.12751289267E+04  0.25500000920E-02 0. -1.
        2   -1    0    0  501    0  0.00000000000E+00  0.00000000000E+00 -0.44130378042E+03  0.44130378042E+03  0.25500000920E-02 0.  1.
    10030    2    1    2    0    0  0.00000000000E+00  0.00000000000E+00  0.83382514628E+03  0.17164327071E+04  0.15002922594E+04 0.  0.
        4    1    3    3  502    0  0.58303607743E+03  0.25701499856E+03  0.86983803783E+03  0.10782428307E+04  0.12699999809E+01 0. -1.
       -4    1    3    3    0  502 -0.58303607743E+03 -0.25701499856E+03 -0.36012891552E+02  0.63818987639E+03  0.12699999809E+01 0.  1.
</event>
<event>
 5   0  0.2969498E-05  0.1501342E+04  0.7818609E-02  0.8883561E-01
        2   -1    0    0  501    0  0.00000000000E+00  0.00000000000E+00  0.54312005662E+03  0.54312005663E+03  0.25500000920E-02 0. -1.
       -2   -1    0    0    0  501  0.00000000000E+00  0.00000000000E+00 -0.10375367465E+04  0.10375367465E+04  0.25500000920E-02 0.  1.
    10030    2    1    2    0    0  0.00000000000E+00  0.00000000000E+00 -0.49441668989E+03  0.15806568031E+04  0.15013420883E+04 0.  0.
        3    1    3    3  502    0  0.24307377255E+03 -0.29345757544E+03  0.43372460293E+03  0.57733807156E+03  0.10100000352E+00 0. -1.
       -3    1    3    3    0  502 -0.24307377255E+03  0.29345757544E+03 -0.92814129282E+03  0.10033187316E+04  0.10100000352E+00 0.  1.
</event>
<event>
 5   0  0.1533777E-05  0.1499946E+04  0.7818609E-02  0.8884489E-01
       -1   -1    0    0    0  501  0.00000000000E+00  0.00000000000E+00  0.45001594153E+03  0.45001594156E+03  0.50400001928E-02 0.  1.
        1   -1    0    0  501    0  0.00000000000E+00  0.00000000000E+00 -0.12498660115E+04  0.12498660115E+04  0.50400001928E-02 0. -1.
    10030    2    1    2    0    0  0.00000000000E+00  0.00000000000E+00 -0.79985006994E+03  0.16998819530E+04  0.14999461723E+04 0.  0.
        5    1    3    3  502    0 -0.62433035033E+03  0.37187774465E+03 -0.60998582625E+03  0.94878145088E+03  0.46999998093E+01 0. -1.
       -5    1    3    3    0  502  0.62433035033E+03 -0.37187774465E+03 -0.18986424369E+03  0.75110050216E+03  0.46999998093E+01 0.  1.
</event>
<event>
 5   0  0.1580078E-05  0.1499787E+04  0.7818609E-02  0.8884595E-01
       -1   -1    0    0    0  501  0.00000000000E+00  0.00000000000E+00  0.14445751424E+04  0.14445751424E+04  0.50400001928E-02 0.  1.
        1   -1    0    0  501    0  0.00000000000E+00  0.00000000000E+00 -0.38927700766E+03  0.38927700769E+03  0.50400001928E-02 0. -1.
    10030    2    1    2    0    0  0.00000000000E+00  0.00000000000E+00  0.10552981348E+04  0.18338521501E+04  0.14997865032E+04 0.  0.
        2    1    3    3  502    0 -0.46316606576E+03 -0.49323641558E+03  0.92298435302E+03  0.11444234715E+04  0.25500000920E-02 0.  1.
       -2    1    3    3    0  502  0.46316606576E+03  0.49323641558E+03  0.13231378175E+03  0.68942867867E+03  0.25500000920E-02 0. -1.
</event>
<event>
 5   0  0.3093600E-05  0.1499935E+04  0.7818609E-02  0.8884496E-01
        2   -1    0    0  501    0  0.00000000000E+00  0.00000000000E+00  0.21746378118E+04  0.21746378118E+04  0.25500000920E-02 0.  1.
       -2   -1    0    0    0  501  0.00000000000E+00  0.00000000000E+00 -0.25864119112E+03  0.25864119113E+03  0.25500000920E-02 0. -1.
    10030    2    1    2    0    0  0.00000000000E+00  0.00000000000E+00  0.19159966207E+04  0.24332790029E+04  0.14999345505E+04 0.  0.
        1    1    3    3  502    0  0.24446085428E+03 -0.59509094637E+03  0.15832653437E+04  0.17089831749E+04  0.50400001928E-02 0. -1.
       -1    1    3    3    0  502 -0.24446085428E+03  0.59509094637E+03  0.33273127703E+03  0.72429582801E+03  0.50400001928E-02 0.  1.
</event>
<event>
 5   0  0.3070497E-05  0.1499959E+04  0.7818609E-02  0.8884480E-01
        2   -1    0    0  501    0  0.00000000000E+00  0.00000000000E+00  0.12576728601E+04  0.12576728601E+04  0.25500000920E-02 0. -1.
       -2   -1    0    0    0  501  0.00000000000E+00  0.00000000000E+00 -0.44723039728E+03  0.44723039729E+03  0.25500000920E-02 0.  1.
    10030    2    1    2    0    0  0.00000000000E+00  0.00000000000E+00  0.81044246280E+03  0.17049032574E+04  0.14999593766E+04 0.  0.
        4    1    3    3  502    0  0.56163732431E+03  0.26362211923E+03 -0.73697703797E+02  0.62479282186E+03  0.12699999809E+01 0.  1.
       -4    1    3    3    0  502 -0.56163732431E+03 -0.26362211923E+03  0.88414016660E+03  0.10801104355E+04  0.12699999809E+01 0. -1.
</event>
<event>
 5   0  0.2969498E-05  0.1500246E+04  0.7818609E-02  0.8884290E-01
        2   -1    0    0  501    0  0.00000000000E+00  0.00000000000E+00  0.11716849380E+04  0.11716849380E+04  0.25500000920E-02 0. -1.
       -2   -1    0    0    0  501  0.00000000000E+00  0.00000000000E+00 -0.48023508935E+03  0.48023508936E+03  0.25500000920E-02 0.  1.
    10030    2    1    2    0    0  0.00000000000E+00  0.00000000000E+00  0.69144984869E+03  0.16519200274E+04  0.15002456078E+04 0.  0.
        3    1    3    3  502    0  0.69523586891E+03 -0.20184256659E+03  0.12941872283E+03  0.73541998281E+03  0.10100000352E+00 0.  1.
       -3    1    3    3    0  502 -0.69523586891E+03  0.20184256659E+03  0.56203112586E+03  0.91650004459E+03  0.10100000352E+00 0. -1.
</event>
<event>
 5   0  0.1576214E-05  0.1499766E+04  0.7818609E-02  0.8884609E-01
       -1   -1    0    0    0  501  0.00000000000E+00  0.00000000000E+00  0.39444308373E+03  0.39444308377E+03  0.50400001928E-02 0. -1.
        1   -1    0    0  501    0  0.00000000000E+00  0.00000000000E+00 -0.14256162133E+04  0.14256162133E+04  0.50400001928E-02 0.  1.
    10030    2    1    2    0    0  0.00000000000E+00  0.00000000000E+00 -0.10311731296E+04  0.18200592971E+04  0.14997659223E+04 0.  0.
        1    1    3    3  502    0  0.22069313163E+03  0.10815973357E+03  0.34417793668E+03  0.42292131471E+03  0.50400001928E-02 0. -1.
       -1    1    3    3    0  502 -0.22069313163E+03 -0.10815973357E+03 -0.13753510663E+04  0.13971379824E+04  0.50400001928E-02 0.  1.
</event>
<event>
 5   0  0.3018308E-05  0.1500123E+04  0.7818609E-02  0.8884371E-01
       -2   -1    0    0    0  501  0.00000000000E+00  0.00000000000E+00  0.72638869250E+03  0.72638869251E+03  0.25500000920E-02 0. -1.
        2   -1    0    0  501    0  0.00000000000E+00  0.00000000000E+00 -0.77450578836E+03  0.77450578836E+03  0.25500000920E-02 0.  1.
    10030    2    1    2    0    0  0.00000000000E+00  0.00000000000E+00 -0.48117095856E+02  0.15008944809E+04  0.15001229909E+04 0.  0.
        2    1    3    3  502    0  0.11427812735E+03  0.67089622560E+03  0.29143045184E+03  0.74033299547E+03  0.25500000920E-02 0. -1.
       -2    1    3    3    0  502 -0.11427812735E+03 -0.67089622560E+03 -0.33954754770E+03  0.76056148540E+03  0.25500000920E-02 0.  1.
</event>
<event>
 5   0  0.1576214E-05  0.1500349E+04  0.7818609E-02  0.8884221E-01
       -1   -1    0    0    0  501  0.00000000000E+00  0.00000000000E+00  0.10155314318E+04  0.10155314318E+04  0.50400001928E-02 0. -1.
        1   -1    0    0  501    0  0.00000000000E+00  0.00000000000E+00 -0.55415506232E+03  0.55415506235E+03  0.50400001928E-02 0.  1.
    10030    2    1    2    0    0  0.00000000000E+00  0.00000000000E+00  0.46137636944E+03  0.15696864941E+04  0.15003491379E+04 0.  0.
        1    1    3    3  502    0  0.90681921247E+02 -0.57268305359E+03 -0.26730622523E+03  0.63846825198E+03  0.50400001928E-02 0.  1.
       -1    1    3    3    0  502 -0.90681921247E+02  0.57268305359E+03  0.72868259467E+03  0.93121824215E+03  0.50400001928E-02 0. -1.
</event>
<event>
 5   0  0.1580078E-05  0.1499884E+04  0.7818609E-02  0.8884530E-01
        1   -1    0    0  501    0  0.00000000000E+00  0.00000000000E+00  0.10445433165E+04  0.10445433165E+04  0.50400001928E-02 0. -1.
       -1   -1    0    0    0  501  0.00000000000E+00  0.00000000000E+00 -0.53842933923E+03  0.53842933926E+03  0.50400001928E-02 0.  1.
    10030    2    1    2    0    0  0.00000000000E+00  0.00000000000E+00  0.50611397727E+03  0.15829726558E+04  0.14998836858E+04 0.  0.
        2    1    3    3  502    0  0.26947051728E+03 -0.68654332881E+03  0.39643826919E+03  0.83732873072E+03  0.25500000920E-02 0. -1.
       -2    1    3    3    0  502 -0.26947051728E+03  0.68654332881E+03  0.10967570808E+03  0.74564392505E+03  0.25500000920E-02 0.  1.
</event>
<event>
 5   0  0.3030702E-05  0.1500186E+04  0.7818609E-02  0.8884329E-01
       -2   -1    0    0    0  501  0.00000000000E+00  0.00000000000E+00  0.42387109631E+03  0.42387109632E+03  0.25500000920E-02 0. -1.
        2   -1    0    0  501    0  0.00000000000E+00  0.00000000000E+00 -0.13273837868E+04  0.13273837868E+04  0.25500000920E-02 0.  1.
    10030    2    1    2    0    0  0.00000000000E+00  0.00000000000E+00 -0.90351269051E+03  0.17512548831E+04  0.15001861497E+04 0.  0.
        5    1    3    3  502    0 -0.11471735693E+03  0.70406537038E+03 -0.72239577605E+03  0.10152565513E+04  0.46999998093E+01 0.  1.
       -5    1    3    3    0  502  0.11471735693E+03 -0.70406537038E+03 -0.18111691446E+03  0.73599833182E+03  0.46999998093E+01 0. -1.
</event>
<event>
 5   0  0.1576214E-05  0.1500191E+04  0.7818609E-02  0.8884326E-01
       -1   -1    0    0    0  501  0.00000000000E+00  0.00000000000E+00  0.68496384063E+03  0.68496384064E+03  0.50400001928E-02 0. -1.
        1   -1    0    0  501    0  0.00000000000E+00  0.00000000000E+00 -0.82142054671E+03  0.82142054673E+03  0.50400001928E-02 0.  1.
    10030    2    1    2    0    0  0.00000000000E+00  0.00000000000E+00 -0.13645670609E+03  0.15063843874E+04  0.15001911511E+04 0.  0.
        1    1    3    3  502    0  0.48211868520E+03  0.43456455858E+03  0.30930063949E+03  0.71899351027E+03  0.50400001928E-02 0. -1.
       -1    1    3    3    0  502 -0.48211868520E+03 -0.43456455858E+03 -0.44575734558E+03  0.78739087711E+03  0.50400001928E-02 0.  1.
</event>
<event>
 5   0  0.3070497E-05  0.1499692E+04  0.7818609E-02  0.8884658E-01
       -2   -1    0    0    0  501  0.00000000000E+00  0.00000000000E+00  0.13701174391E+04  0.13701174391E+04  0.25500000920E-02 0.  1.
        2   -1    0    0  501    0  0.00000000000E+00  0.00000000000E+00 -0.41038018347E+03  0.41038018348E+03  0.25500000920E-02 0. -1.
    10030    2    1    2    0    0  0.00000000000E+00  0.00000000000E+00  0.95973725559E+03  0.17804976225E+04  0.14996920297E+04 0.  0.
        4    1    3    3  502    0  0.46341737990E+03  0.44180537294E+03  0.94322747869E+03  0.11400119934E+04  0.12699999809E+01 0.  1.
       -4    1    3    3    0  502 -0.46341737990E+03 -0.44180537294E+03  0.16509776903E+02  0.64048562918E+03  0.12699999809E+01 0. -1.
</event>
<event>
 5   0  0.1116613E-05  0.1501502E+04  0.7818609E-02  0.8883455E-01
        3   -1    0    0  501    0  0.00000000000E+00  0.00000000000E+00  0.93174329644E+03  0.93174330192E+03  0.10100000352E+00 0.  1.
       -3   -1    0    0    0  501  0.00000000000E+00  0.00000000000E+00 -0.60491632906E+03  0.60491633749E+03  0.10100000352E+00 0. -1.
    10030    2    1    2    0    0  0.00000000000E+00  0.00000000000E+00  0.32682696739E+03  0.15366596394E+04  0.15015015753E+04 0.  0.
        2    1    3    3  502    0 -0.36294627935E+03  0.17322568466E+03 -0.48537820744E+03  0.63034049829E+03  0.25500000920E-02 0. -1.
       -2    1    3    3    0  502  0.36294627935E+03 -0.17322568466E+03  0.81220517483E+03  0.90631914111E+03  0.25500000920E-02 0.  1.
</event>
<event>
 5   0  0.2969498E-05  0.1499752E+04  0.7818609E-02  0.8884618E-01
       -2   -1    0    0    0  501  0.00000000000E+00  0.00000000000E+00  0.12794984413E+04  0.12794984413E+04  0.25500000920E-02 0.  1.
        2   -1    0    0  501    0  0.00000000000E+00  0.00000000000E+00 -0.43948023315E+03  0.43948023316E+03  0.25500000920E-02 0. -1.
    10030    2    1    2    0    0  0.00000000000E+00  0.00000000000E+00  0.84001820819E+03  0.17189786745E+04  0.14997523440E+04 0.  0.
        3    1    3    3  502    0  0.72569261199E+03  0.60479163966E+02  0.62512885856E+03  0.95972579228E+03  0.10100000352E+00 0.  1.
       -3    1    3    3    0  502 -0.72569261199E+03 -0.60479163966E+02  0.21488934963E+03  0.75925288222E+03  0.10100000352E+00 0. -1.
</event>
<event>
 5   0  0.3030702E-05  0.1499864E+04  0.7818609E-02  0.8884544E-01
       -2   -1    0    0    0  501  0.00000000000E+00  0.00000000000E+00  0.68026965217E+03  0.68026965218E+03  0.25500000920E-02 0.  1.
        2   -1    0    0  501    0  0.00000000000E+00  0.00000000000E+00 -0.82672766888E+03  0.82672766888E+03  0.25500000920E-02 0. -1.
    10030    2    1    2    0    0  0.00000000000E+00  0.00000000000E+00 -0.14645801671E+03  0.15069973211E+04  0.14998636521E+04 0.  0.
        5    1    3    3  502    0 -0.31482184110E+03 -0.49812457888E+03  0.39280327128E+03  0.70820716436E+03  0.46999998093E+01 0.  1.
       -5    1    3    3    0  502  0.31482184110E+03  0.49812457888E+03 -0.53926128799E+03  0.79879015670E+03  0.46999998093E+01 0. -1.
</event>
<event>
 5   0  0.1588657E-05  0.1499933E+04  0.7818609E-02  0.8884497E-01
       -1   -1    0    0    0  501  0.00000000000E+00  0.00000000000E+00  0.71926647963E+03  0.71926647965E+03  0.50400001928E-02 0. -1.
        1   -1    0    0  501    0  0.00000000000E+00  0.00000000000E+00 -0.78197703981E+03  0.78197703983E+03  0.50400001928E-02 0.  1.
    10030    2    1    2    0    0  0.00000000000E+00  0.00000000000E+00 -0.62710560177E+02  0.15012435195E+04  0.14999331620E+04 0.  0.
        3    1    3    3  502    0 -0.25720889597E+03 -0.61971201833E+02  0.67100774325E+03  0.72128236339E+03  0.10100000352E+00 0. -1.
       -3    1    3    3    0  502  0.25720889597E+03  0.61971201833E+02 -0.73371830343E+03  0.77996115609E+03  0.10100000352E+00 0.  1.
</event>
<event>
 5   0  0.3018308E-05  0.1500288E+04  0.7818609E-02  0.8884261E-01
        2   -1    0    0  501    0  0.00000000000E+00  0.00000000000E+00  0.13632226946E+04  0.13632226946E+04  0.25500000920E-02 0. -1.
       -2   -1    0    0    0  501  0.00000000000E+00  0.00000000000E+00 -0.41278360111E+03  0.41278360112E+03  0.25500000920E-02 0.  1.
    10030    2    1    2    0    0  0.00000000000E+00  0.00000000000E+00  0.95043909347E+03  0.17760062957E+04  0.15002879364E+04 0.  0.
        2    1    3    3  502    0 -0.89582184253E+02 -0.57085837519E+03 -0.91031499386E+02  0.58497092761E+03  0.25500000920E-02 0.  1.
       -2    1    3    3    0  502  0.89582184253E+02  0.57085837519E+03  0.10414705929E+04  0.11910353681E+04  0.25500000920E-02 0. -1.
</event>
<event>
 5   0  0.3070497E-05  0.1499936E+04  0.7818609E-02  0.8884495E-01
        2   -1    0    0  501    0  0.00000000000E+00  0.00000000000E+00  0.90736205527E+03  0.90736205527E+03  0.25500000920E-02 0. -1.
       -2   -1    0    0    0  501  0.00000000000E+00  0.00000000000E+00 -0.61987641513E+03  0.61987641514E+03  0.25500000920E-02 0.  1.
    10030    2    1    2    0    0  0.00000000000E+00  0.00000000000E+00  0.28748564013E+03  0.15272384704E+04  0.14999364494E+04 0.  0.
        4    1    3    3  502    0 -0.31345826467E+03  0.61772362960E+03 -0.14891220266E+03  0.70853018515E+03  0.12699999809E+01 0.  1.
       -4    1    3    3    0  502  0.31345826467E+03 -0.61772362960E+03  0.43639784280E+03  0.81870828526E+03  0.12699999809E+01 0. -1.
</event>
<event>
 5   0  0.3070497E-05  0.1499677E+04  0.7818609E-02  0.8884668E-01
        2   -1    0    0  501    0  0.00000000000E+00  0.00000000000E+00  0.97082297647E+03  0.97082297647E+03  0.25500000920E-02 0.  1.
       -2   -1    0    0    0  501  0.00000000000E+00  0.00000000000E+00 -0.57915548955E+03  0.57915548955E+03  0.25500000920E-02 0. -1.
    10030    2    1    2    0    0  0.00000000000E+00  0.00000000000E+00  0.39166748692E+03  0.15499784660E+04  0.14996765734E+04 0.  0.
        4    1    3    3  502    0 -0.30351996630E+03 -0.67451770188E+03  0.68589073514E+02  0.74283549591E+03  0.12699999809E+01 0. -1.
       -4    1    3    3    0  502  0.30351996630E+03  0.67451770188E+03  0.32307841341E+03  0.80714297011E+03  0.12699999809E+01 0.  1.
</event>
<event>
 5   0  0.1643498E-05  0.1500185E+04  0.7818609E-02  0.8884330E-01
       -1   -1    0    0    0  501  0.00000000000E+00  0.00000000000E+00  0.56054095727E+03  0.56054095730E+03  0.50400001928E-02 0.  1.
        1   -1    0    0  501    0  0.00000000000E+00  0.00000000000E+00 -0.10037424746E+04  0.10037424747E+04  0.50400001928E-02 0. -1.
    10030    2    1    2    0    0  0.00000000000E+00  0.00000000000E+00 -0.44320151736E+03  0.15642834319E+04  0.15001850121E+04 0.  0.
        4    1    3    3  502    0 -0.43242333796E+03  0.60974753191E+03 -0.28634360096E+03  0.80048501959E+03  0.12699999809E+01 0. -1.
       -4    1    3    3    0  502  0.43242333796E+03 -0.60974753191E+03 -0.15685791641E+03  0.76379841236E+03  0.12699999809E+01 0.  1.
</event>
<event>
 5   0  0.1588657E-05  0.1509666E+04  0.7818609E-02  0.8878050E-01
        1   -1    0    0  501    0  0.00000000000E+00  0.00000000000E+00  0.59126833394E+03  0.59126833396E+03  0.50400001928E-02 0. -1.
       -1   -1    0    0    0  501  0.00000000000E+00  0.00000000000E+00 -0.96364552199E+03  0.96364552200E+03  0.50400001928E-02 0.  1.
    10030    2    1    2    0    0  0.00000000000E+00  0.00000000000E+00 -0.37237718805E+03  0.15549138560E+04  0.15096662973E+04 0.  0.
        3    1    3    3  502    0 -0.24897595916E+02  0.18031776700E+03  0.56832377224E+03  0.59676319229E+03  0.10100000352E+00 0. -1.
       -3    1    3    3    0  502  0.24897595916E+02 -0.18031776700E+03 -0.94070096030E+03  0.95815066367E+03  0.10100000352E+00 0.  1.
</event>
<event>
 5   0  0.1576214E-05  0.1500176E+04  0.7818609E-02  0.8884336E-01
        1   -1    0    0  501    0  0.00000000000E+00  0.00000000000E+00  0.13087741654E+04  0.13087741654E+04  0.50400001928E-02 0.  1.
       -1   -1    0    0    0  501  0.00000000000E+00  0.00000000000E+00 -0.42989226256E+03  0.42989226259E+03  0.50400001928E-02 0. -1.
    10030    2    1    2    0    0  0.00000000000E+00  0.00000000000E+00  0.87888190279E+03  0.17386664280E+04  0.15001758392E+04 0.  0.
        1    1    3    3  502    0  0.52726977283E+03  0.33881423317E+03 -0.38168435275E+02  0.62790550835E+03  0.50400001928E-02 0. -1.
       -1    1    3    3    0  502 -0.52726977283E+03 -0.33881423317E+03  0.91705033806E+03  0.11107609196E+04  0.50400001928E-02 0.  1.
</event>
<event>
 5   0  0.1643498E-05  0.1500476E+04  0.7818609E-02  0.8884136E-01
        1   -1    0    0  501    0  0.00000000000E+00  0.00000000000E+00  0.90509848088E+03  0.90509848089E+03  0.50400001928E-02 0.  1.
       -1   -1    0    0    0  501  0.00000000000E+00  0.00000000000E+00 -0.62187419773E+03  0.62187419775E+03  0.50400001928E-02 0. -1.
    10030    2    1    2    0    0  0.00000000000E+00  0.00000000000E+00  0.28322428315E+03  0.15269726786E+04  0.15004764466E+04 0.  0.
        4    1    3    3  502    0  0.48577677023E+03 -0.50043488543E+03  0.42297519223E+03  0.81567381421E+03  0.12699999809E+01 0. -1.
       -4    1    3    3    0  502 -0.48577677023E+03  0.50043488543E+03 -0.13975090908E+03  0.71129886443E+03  0.12699999809E+01 0.  1.
</event>
<event>
 5   0  0.1576214E-05  0.1502179E+04  0.7818609E-02  0.8883005E-01
        1   -1    0    0  501    0  0.00000000000E+00  0.00000000000E+00  0.97643323636E+03  0.97643323637E+03  0.50400001928E-02 0.  1.
       -1   -1    0    0    0  501  0.00000000000E+00  0.00000000000E+00 -0.57775121511E+03  0.57775121513E+03  0.50400001928E-02 0. -1.
    10030    2    1    2    0    0  0.00000000000E+00  0.00000000000E+00  0.39868202125E+03  0.15541844515E+04  0.15021790690E+04 0.  0.
        1    1    3    3  502    0  0.29983529337E+03 -0.68727191112E+03  0.15434270367E+03  0.76554918403E+03  0.50400001928E-02 0. -1.
       -1    1    3    3    0  502 -0.29983529337E+03  0.68727191112E+03  0.24433931757E+03  0.78863526747E+03  0.50400001928E-02 0.  1.
</event>
<event>
 5   0  0.3018308E-05  0.1500375E+04  0.7818609E-02  0.8884204E-01
       -2   -1    0    0    0  501  0.00000000000E+00  0.00000000000E+00  0.62612534992E+03  0.62612534992E+03  0.25500000920E-02 0.  1.
        2   -1    0    0  501    0  0.00000000000E+00  0.00000000000E+00 -0.89883172790E+03  0.89883172790E+03  0.25500000920E-02 0. -1.
    10030    2    1    2    0    0  0.00000000000E+00  0.00000000000E+00 -0.27270637798E+03  0.15249570778E+04  0.15003750600E+04 0.  0.
        2    1    3    3  502    0 -0.48553726354E+03  0.45013691563E+03 -0.49485249048E+03  0.82658857023E+03  0.25500000920E-02 0. -1.
       -2    1    3    3    0  502  0.48553726354E+03 -0.45013691563E+03  0.22214611250E+03  0.69836850759E+03  0.25500000920E-02 0.  1.
</event>
<event>
 5   0  0.1643498E-05  0.1500872E+04  0.7818609E-02  0.8883873E-01
       -1   -1    0    0    0  501  0.00000000000E+00  0.00000000000E+00  0.32470411600E+03  0.32470411604E+03  0.50400001928E-02 0. -1.
        1   -1    0    0  501    0  0.00000000000E+00  0.00000000000E+00 -0.17343618203E+04  0.17343618203E+04  0.50400001928E-02 0.  1.
    10030    2    1    2    0    0  0.00000000000E+00  0.00000000000E+00 -0.14096577043E+04  0.20590659363E+04  0.15008723087E+04 0.  0.
        4    1    3    3  502    0  0.31879742301E+03  0.66912681725E+03 -0.54372215580E+03  0.91923766790E+03  0.12699999809E+01 0. -1.
       -4    1    3    3    0  502 -0.31879742301E+03 -0.66912681725E+03 -0.86593554847E+03  0.11398282684E+04  0.12699999809E+01 0.  1.
</event>
<event>
 5   0  0.3070497E-05  0.1500085E+04  0.7818609E-02  0.8884396E-01
       -2   -1    0    0    0  501  0.00000000000E+00  0.00000000000E+00  0.31304817540E+03  0.31304817541E+03  0.25500000920E-02 0.  1.
        2   -1    0    0  501    0  0.00000000000E+00  0.00000000000E+00 -0.17970517983E+04  0.17970517983E+04  0.25500000920E-02 0. -1.
    10030    2    1    2    0    0  0.00000000000E+00  0.00000000000E+00 -0.14840036229E+04  0.21100999737E+04  0.15000850463E+04 0.  0.
        4    1    3    3  502    0  0.26653395736E+03  0.24955397039E+01 -0.17281809276E+04  0.17486158839E+04  0.12699999809E+01 0. -1.
       -4    1    3    3    0  502 -0.26653395736E+03 -0.24955397039E+01  0.24417730468E+03  0.36148408978E+03  0.12699999809E+01 0.  1.
</event>
<event>
 5   0  0.1576214E-05  0.1500560E+04  0.7818609E-02  0.8884081E-01
       -1   -1    0    0    0  501  0.00000000000E+00  0.00000000000E+00  0.65874057545E+03  0.65874057547E+03  0.50400001928E-02 0.  1.
        1   -1    0    0  501    0  0.00000000000E+00  0.00000000000E+00 -0.85453978666E+03  0.85453978667E+03  0.50400001928E-02 0. -1.
    10030    2    1    2    0    0  0.00000000000E+00  0.00000000000E+00 -0.19579921121E+03  0.15132803621E+04  0.15005599366E+04 0.  0.
        1    1    3    3  502    0 -0.43900598020E+03 -0.52503196550E+03 -0.40797182526E+03  0.79675957834E+03  0.50400001928E-02 0. -1.
       -1    1    3    3    0  502  0.43900598020E+03  0.52503196550E+03  0.21217261406E+03  0.71652078381E+03  0.50400001928E-02 0.  1.
</event>
<event>
 5   0  0.1588657E-05  0.1500154E+04  0.7818609E-02  0.8884350E-01
       -1   -1    0    0    0  501  0.00000000000E+00  0.00000000000E+00  0.58469189394E+03  0.58469189396E+03  0.50400001928E-02 0. -1.
        1   -1    0    0  501    0  0.00000000000E+00  0.00000000000E+00 -0.96224290732E+03  0.96224290733E+03  0.50400001928E-02 0.  1.
    10030    2    1    2    0    0  0.00000000000E+00  0.00000000000E+00 -0.37755101338E+03  0.15469348013E+04  0.15001541627E+04 0.  0.
        3    1    3    3  502    0  0.29530891373E+03  0.63830226354E+03  0.80081806727E+02  0.70784902355E+03  0.10100000352E+00 0.  1.
       -3    1    3    3    0  502 -0.29530891373E+03 -0.63830226354E+03 -0.45763282011E+03  0.83908577774E+03  0.10100000352E+00 0. -1.
</event>
<event>
 5   0  0.3018308E-05  0.1499999E+04  0.7818609E-02  0.8884454E-01
        2   -1    0    0  501    0  0.00000000000E+00  0.00000000000E+00  0.12530996398E+04  0.12530996398E+04  0.25500000920E-02 0.  1.
       -2   -1    0    0    0  501  0.00000000000E+00  0.00000000000E+00 -0.44888617640E+03  0.44888617641E+03  0.25500000920E-02 0. -1.
    10030    2    1    2    0    0  0.00000000000E+00  0.00000000000E+00  0.80421346343E+03  0.17019858162E+04  0.14999988080E+04 0.  0.
        2    1    3    3  502    0  0.56070880041E+03 -0.34528046139E+03 -0.52436693127E+01  0.65851382063E+03  0.25500000920E-02 0. -1.
       -2    1    3    3    0  502 -0.56070880041E+03  0.34528046139E+03  0.80945713275E+03  0.10434719956E+04  0.25500000920E-02 0.  1.
</event>
<event>
 5   0  0.2969498E-05  0.1500132E+04  0.7818609E-02  0.8884365E-01
       -2   -1    0    0    0  501  0.00000000000E+00  0.00000000000E+00  0.36771060260E+03  0.36771060261E+03  0.25500000920E-02 0.  1.
        2   -1    0    0  501    0  0.00000000000E+00  0.00000000000E+00 -0.15300048356E+04  0.15300048356E+04  0.25500000920E-02 0. -1.
    10030    2    1    2    0    0  0.00000000000E+00  0.00000000000E+00 -0.11622942330E+04  0.18977154382E+04  0.15001319943E+04 0.  0.
        3    1    3    3  502    0  0.52532294444E+02  0.74156657186E+03 -0.70713295006E+03  0.10260202930E+04  0.10100000352E+00 0. -1.
       -3    1    3    3    0  502 -0.52532294444E+02 -0.74156657186E+03 -0.45516128297E+03  0.87169514520E+03  0.10100000352E+00 0.  1.
</event>
<event>
 5   0  0.3030702E-05  0.1500135E+04  0.7818609E-02  0.8884363E-01
        2   -1    0    0  501    0  0.00000000000E+00  0.00000000000E+00  0.13687620679E+04  0.13687620679E+04  0.25500000920E-02 0.  1.
       -2   -1    0    0    0  501  0.00000000000E+00  0.00000000000E+00 -0.41102902612E+03  0.41102902613E+03  0.25500000920E-02 0. -1.
    10030    2    1    2    0    0  0.00000000000E+00  0.00000000000E+00  0.95773304180E+03  0.17797910941E+04  0.15001345803E+04 0.  0.
        5    1    3    3  502    0 -0.57410251861E+03 -0.47807589095E+03  0.55782005310E+03  0.93238166060E+03  0.46999998093E+01 0.  1.
       -5    1    3    3    0  502  0.57410251861E+03  0.47807589095E+03  0.39991298869E+03  0.84740943346E+03  0.46999998093E+01 0. -1.
</event>
<event>
 5   0  0.1643498E-05  0.1500016E+04  0.7818609E-02  0.8884443E-01
       -1   -1    0    0    0  501  0.00000000000E+00  0.00000000000E+00  0.13319470860E+04  0.13319470860E+04  0.50400001928E-02 0.  1.
        1   -1    0    0  501    0  0.00000000000E+00  0.00000000000E+00 -0.42232289484E+03  0.42232289487E+03  0.50400001928E-02 0. -1.
    10030    2    1    2    0    0  0.00000000000E+00  0.00000000000E+00  0.90962419112E+03  0.17542699808E+04  0.15000156654E+04 0.  0.
        4    1    3    3  502    0 -0.44464856664E+03  0.42244493644E+03 -0.50025194428E+02  0.61536672409E+03  0.12699999809E+01 0. -1.
       -4    1    3    3    0  502  0.44464856664E+03 -0.42244493644E+03  0.95964938555E+03  0.11389032567E+04  0.12699999809E+01 0.  1.
</event>
<event>
 5   0  0.1576214E-05  0.1499086E+04  0.7818609E-02  0.8885061E-01
       -1   -1    0    0    0  501  0.00000000000E+00  0.00000000000E+00  0.60670112027E+03  0.60670112029E+03  0.50400001928E-02 0.  1.
        1   -1    0    0  501    0  0.00000000000E+00  0.00000000000E+00 -0.92601539086E+03  0.92601539088E+03  0.50400001928E-02 0. -1.
    10030    2    1    2    0    0  0.00000000000E+00  0.00000000000E+00 -0.31931427060E+03  0.15327165112E+04  0.14990858215E+04 0.  0.
        1    1    3    3  502    0 -0.13525548237E+02  0.71826447574E+03  0.58980733852E+02  0.72080893762E+03  0.50400001928E-02 0.  1.
       -1    1    3    3    0  502  0.13525548237E+02 -0.71826447574E+03 -0.37829500445E+03  0.81190757354E+03  0.50400001928E-02 0. -1.
</event>
<event>
 5   0  0.1588657E-05  0.1499354E+04  0.7818609E-02  0.8884882E-01
        1   -1    0    0  501    0  0.00000000000E+00  0.00000000000E+00  0.11362001726E+04  0.11362001726E+04  0.50400001928E-02 0.  1.
       -1   -1    0    0    0  501  0.00000000000E+00  0.00000000000E+00 -0.49464515972E+03  0.49464515975E+03  0.50400001928E-02 0. -1.
    10030    2    1    2    0    0  0.00000000000E+00  0.00000000000E+00  0.64155501292E+03  0.16308453324E+04  0.14993544156E+04 0.  0.
        3    1    3    3  502    0  0.42580702796E+03 -0.39206578150E+03 -0.19743822681E+03  0.61156280601E+03  0.10100000352E+00 0. -1.
       -3    1    3    3    0  502 -0.42580702796E+03  0.39206578150E+03  0.83899323973E+03  0.10192825264E+04  0.10100000352E+00 0.  1.
</event>
<event>
 5   0  0.2969498E-05  0.1499617E+04  0.7818609E-02  0.8884707E-01
       -2   -1    0    0    0  501  0.00000000000E+00  0.00000000000E+00  0.12757534534E+04  0.12757534534E+04  0.25500000920E-02 0. -1.
        2   -1    0    0  501    0  0.00000000000E+00  0.00000000000E+00 -0.44069095960E+03  0.44069095961E+03  0.25500000920E-02 0.  1.
    10030    2    1    2    0    0  0.00000000000E+00  0.00000000000E+00  0.83506249379E+03  0.17164444130E+04  0.14996173026E+04 0.  0.
        3    1    3    3  502    0  0.48540383780E+03  0.79376603867E+02 -0.23024452503E+03  0.54307465647E+03  0.10100000352E+00 0.  1.
       -3    1    3    3    0  502 -0.48540383780E+03 -0.79376603867E+02  0.10653070188E+04  0.11733697565E+04  0.10100000352E+00 0. -1.
</event>
<event>
 5   0  0.3018308E-05  0.1500284E+04  0.7818609E-02  0.8884264E-01
       -2   -1    0    0    0  501  0.00000000000E+00  0.00000000000E+00  0.90742890017E+03  0.90742890018E+03  0.25500000920E-02 0. -1.
        2   -1    0    0  501    0  0.00000000000E+00  0.00000000000E+00 -0.62011841667E+03  0.62011841668E+03  0.25500000920E-02 0.  1.
    10030    2    1    2    0    0  0.00000000000E+00  0.00000000000E+00  0.28731048350E+03  0.15275473169E+04  0.15002844701E+04 0.  0.
        2    1    3    3  502    0  0.60669484456E+03 -0.35199275280E+03  0.41445035118E+03  0.81470646618E+03  0.25500000920E-02 0. -1.
       -2    1    3    3    0  502 -0.60669484456E+03  0.35199275280E+03 -0.12713986768E+03  0.71284085068E+03  0.25500000920E-02 0.  1.
</event>
<event>
 5   0  0.1580078E-05  0.1501098E+04  0.7818609E-02  0.8883723E-01
       -1   -1    0    0    0  501  0.00000000000E+00  0.00000000000E+00  0.45579518188E+03  0.45579518190E+03  0.50400001928E-02 0. -1.
        1   -1    0    0  501    0  0.00000000000E+00  0.00000000000E+00 -0.12359145927E+04  0.12359145927E+04  0.50400001928E-02 0.  1.
    10030    2    1    2    0    0  0.00000000000E+00  0.00000000000E+00 -0.78011941082E+03  0.16917097746E+04  0.15010981535E+04 0.  0.
        2    1    3    3  502    0  0.51245908480E+03 -0.54778554657E+03 -0.36153576342E+03  0.83270128309E+03  0.25500000920E-02 0.  1.
       -2    1    3    3    0  502 -0.51245908480E+03  0.54778554657E+03 -0.41858364740E+03  0.85900849152E+03  0.25500000920E-02 0. -1.
</event>
<event>
 5   0  0.1580078E-05  0.1511612E+04  0.7818609E-02  0.8876768E-01
       -1   -1    0    0    0  501  0.00000000000E+00  0.00000000000E+00  0.74393981020E+03  0.74393981022E+03  0.50400001928E-02 0. -1.
        1   -1    0    0  501    0  0.00000000000E+00  0.00000000000E+00 -0.76786119506E+03  0.76786119507E+03  0.50400001928E-02 0.  1.
    10030    2    1    2    0    0  0.00000000000E+00  0.00000000000E+00 -0.23921384856E+02  0.15118010053E+04  0.15116117382E+04 0.  0.
        2    1    3    3  502    0  0.18612054826E+03 -0.28727621245E+03  0.66197383427E+03  0.74523676640E+03  0.25500000920E-02 0. -1.
       -2    1    3    3    0  502 -0.18612054826E+03  0.28727621245E+03 -0.68589521913E+03  0.76656423889E+03  0.25500000920E-02 0.  1.
</event>
<event>
 5   0  0.3093600E-05  0.1499824E+04  0.7818609E-02  0.8884570E-01
       -2   -1    0    0    0  501  0.00000000000E+00  0.00000000000E+00  0.38506410196E+03  0.38506410197E+03  0.25500000920E-02 0.  1.
        2   -1    0    0  501    0  0.00000000000E+00  0.00000000000E+00 -0.14604536594E+04  0.14604536594E+04  0.25500000920E-02 0. -1.
    10030    2    1    2    0    0  0.00000000000E+00  0.00000000000E+00 -0.10753895574E+04  0.18455177613E+04  0.14998243588E+04 0.  0.
        1    1    3    3  502    0  0.64342002282E+03 -0.30671931062E+03 -0.82443366957E+03  0.10898426202E+04  0.50400001928E-02 0. -1.
       -1    1    3    3    0  502 -0.64342002282E+03  0.30671931062E+03 -0.25095588784E+03  0.75567514114E+03  0.50400001928E-02 0.  1.
</event>
<event>
 5   0  0.1588657E-05  0.1500409E+04  0.7818609E-02  0.8884181E-01
       -1   -1    0    0    0  501  0.00000000000E+00  0.00000000000E+00  0.72843339026E+03  0.72843339028E+03  0.50400001928E-02 0.  1.
        1   -1    0    0  501    0  0.00000000000E+00  0.00000000000E+00 -0.77262615616E+03  0.77262615618E+03  0.50400001928E-02 0. -1.
    10030    2    1    2    0    0  0.00000000000E+00  0.00000000000E+00 -0.44192765902E+02  0.15010595465E+04  0.15004088648E+04 0.  0.
        3    1    3    3  502    0 -0.14244493583E+03 -0.71180959945E+03 -0.21150152941E+03  0.75610605920E+03  0.10100000352E+00 0. -1.
       -3    1    3    3    0  502  0.14244493583E+03  0.71180959945E+03  0.16730876350E+03  0.74495348725E+03  0.10100000352E+00 0.  1.
</event>
<event>
 5   0  0.3093600E-05  0.1499592E+04  0.7818609E-02  0.8884724E-01
       -2   -1    0    0    0  501  0.00000000000E+00  0.00000000000E+00  0.39162519592E+03  0.39162519593E+03  0.25500000920E-02 0.  1.
        2   -1    0    0  501    0  0.00000000000E+00  0.00000000000E+00 -0.14355414229E+04  0.14355414229E+04  0.25500000920E-02 0. -1.
    10030    2    1    2    0    0  0.00000000000E+00  0.00000000000E+00 -0.10439162270E+04  0.18271666188E+04  0.14995921992E+04 0.  0.
        1    1    3    3  502    0 -0.70711389883E+03 -0.24916098924E+03 -0.53431954033E+03  0.92064577101E+03  0.50400001928E-02 0.  1.
       -1    1    3    3    0  502  0.70711389883E+03  0.24916098924E+03 -0.50959668666E+03  0.90652084784E+03  0.50400001928E-02 0. -1.
</event>
<event>
 5   0  0.1580078E-05  0.1499832E+04  0.7818609E-02  0.8884565E-01
       -1   -1    0    0    0  501  0.00000000000E+00  0.00000000000E+00  0.11361788603E+04  0.11361788603E+04  0.50400001928E-02 0.  1.
        1   -1    0    0  501    0  0.00000000000E+00  0.00000000000E+00 -0.49496951895E+03  0.49496951898E+03  0.50400001928E-02 0. -1.
    10030    2    1    2    0    0  0.00000000000E+00  0.00000000000E+00  0.64120934132E+03  0.16311483793E+04  0.14998318625E+04 0.  0.
        2    1    3    3  502    0  0.62777811171E+03  0.37048845936E+03  0.12909985353E+03  0.74029306916E+03  0.25500000920E-02 0. -1.
       -2    1    3    3    0  502 -0.62777811171E+03 -0.37048845936E+03  0.51210948779E+03  0.89085531011E+03  0.25500000920E-02 0.  1.
</event>
<event>
 5   0  0.1643498E-05  0.1500433E+04  0.7818609E-02  0.8884165E-01
       -1   -1    0    0    0  501  0.00000000000E+00  0.00000000000E+00  0.64420525795E+03  0.64420525797E+03  0.50400001928E-02 0.  1.
        1   -1    0    0  501    0  0.00000000000E+00  0.00000000000E+00 -0.87367278390E+03  0.87367278392E+03  0.50400001928E-02 0. -1.
    10030    2    1    2    0    0  0.00000000000E+00  0.00000000000E+00 -0.22946752595E+03  0.15178780419E+04  0.15004327391E+04 0.  0.
        4    1    3    3  502    0 -0.18140653219E+03 -0.56350683461E+03 -0.58093319660E+03  0.82941743072E+03  0.12699999809E+01 0. -1.
       -4    1    3    3    0  502  0.18140653219E+03  0.56350683461E+03  0.35146567065E+03  0.68846061116E+03  0.12699999809E+01 0.  1.
</event>
<event>
 5   0  0.3070497E-05  0.1499576E+04  0.7818609E-02  0.8884735E-01
       -2   -1    0    0    0  501  0.00000000000E+00  0.00000000000E+00  0.66680269403E+03  0.66680269404E+03  0.25500000920E-02 0. -1.
        2   -1    0    0  501    0  0.00000000000E+00  0.00000000000E+00 -0.84310053307E+03  0.84310053307E+03  0.25500000920E-02 0.  1.
    10030    2    1    2    0    0  0.00000000000E+00  0.00000000000E+00 -0.17629783904E+03  0.15099032271E+04  0.14995755490E+04 0.  0.
        4    1    3    3  502    0  0.53152081525E+03 -0.21749085960E+03 -0.57350968193E+03  0.81162283065E+03  0.12699999809E+01 0.  1.
       -4    1    3    3    0  502 -0.53152081525E+03  0.21749085960E+03  0.39721184290E+03  0.69828039647E+03  0.12699999809E+01 0. -1.
</event>
<event>
 5   0  0.3018308E-05  0.1500584E+04  0.7818609E-02  0.8884065E-01
       -2   -1    0    0    0  501  0.00000000000E+00  0.00000000000E+00  0.11033551341E+04  0.11033551341E+04  0.25500000920E-02 0. -1.
        2   -1    0    0  501    0  0.00000000000E+00  0.00000000000E+00 -0.51020551875E+03  0.51020551875E+03  0.25500000920E-02 0.  1.
    10030    2    1    2    0    0  0.00000000000E+00  0.00000000000E+00  0.59314961536E+03  0.16135606529E+04  0.15005837245E+04 0.  0.
        2    1    3    3  502    0 -0.34476708609E+03  0.55776467562E+03 -0.95532854997E+02  0.66264040279E+03  0.25500000920E-02 0.  1.
       -2    1    3    3    0  502  0.34476708609E+03 -0.55776467562E+03  0.68868247036E+03  0.95092025007E+03  0.25500000920E-02 0. -1.
</event>
<event>
 5   0  0.1533777E-05  0.1498895E+04  0.7818609E-02  0.8885188E-01
        1   -1    0    0  501    0  0.00000000000E+00  0.00000000000E+00  0.41447861350E+03  0.41447861353E+03  0.50400001928E-02 0.  1.
       -1   -1    0    0    0  501  0.00000000000E+00  0.00000000000E+00 -0.13551285675E+04  0.13551285676E+04  0.50400001928E-02 0. -1.
    10030    2    1    2    0    0  0.00000000000E+00  0.00000000000E+00 -0.94064995404E+03  0.17696071811E+04  0.14988953397E+04 0.  0.
        5    1    3    3  502    0 -0.51718159147E+03 -0.50900665017E+03 -0.69146494374E+03  0.10023524464E+04  0.46999998093E+01 0. -1.
       -5    1    3    3    0  502  0.51718159147E+03  0.50900665017E+03 -0.24918501030E+03  0.76725473464E+03  0.46999998093E+01 0.  1.
</event>
<event>
 5   0  0.3030702E-05  0.1500539E+04  0.7818609E-02  0.8884095E-01
       -2   -1    0    0    0  501  0.00000000000E+00  0.00000000000E+00  0.46767042223E+03  0.46767042223E+03  0.25500000920E-02 0.  1.
        2   -1    0    0  501    0  0.00000000000E+00  0.00000000000E+00 -0.12036345838E+04  0.12036345838E+04  0.25500000920E-02 0. -1.
    10030    2    1    2    0    0  0.00000000000E+00  0.00000000000E+00 -0.73596416158E+03  0.16713050060E+04  0.15005389619E+04 0.  0.
        5    1    3    3  502    0  0.19970672946E+03  0.44818932472E+03 -0.10001335659E+04  0.11140223015E+04  0.46999998093E+01 0. -1.
       -5    1    3    3    0  502 -0.19970672946E+03 -0.44818932472E+03  0.26416940434E+03  0.55728270453E+03  0.46999998093E+01 0.  1.
</event>
<event>
 5   0  0.3018308E-05  0.1499824E+04  0.7818609E-02  0.8884570E-01
       -2   -1    0    0    0  501  0.00000000000E+00  0.00000000000E+00  0.89458928537E+03  0.89458928537E+03  0.25500000920E-02 0. -1.
        2   -1    0    0  501    0  0.00000000000E+00  0.00000000000E+00 -0.62863266478E+03  0.62863266478E+03  0.25500000920E-02 0.  1.
    10030    2    1    2    0    0  0.00000000000E+00  0.00000000000E+00  0.26595662059E+03  0.15232219502E+04  0.14998240515E+04 0.  0.
        2    1    3    3  502    0 -0.16078937072E+03  0.11691188784E+03  0.86733989658E+03  0.88983150509E+03  0.25500000920E-02 0. -1.
       -2    1    3    3    0  502  0.16078937072E+03 -0.11691188784E+03 -0.60138327599E+03  0.63339044506E+03  0.25500000920E-02 0.  1.
</event>
<event>
 5   0  0.1116613E-05  0.1499728E+04  0.7818609E-02  0.8884634E-01
        4   -1    0    0  501    0  0.00000000000E+00  0.00000000000E+00  0.11878660062E+04  0.11878666852E+04  0.12699999809E+01 0. -1.
       -4   -1    0    0    0  501  0.00000000000E+00  0.00000000000E+00 -0.47336471714E+03  0.47336642079E+03  0.12699999809E+01 0.  1.
    10030    2    1    2    0    0  0.00000000000E+00  0.00000000000E+00  0.71450128911E+03  0.16612331059E+04  0.14997277553E+04 0.  0.
        3    1    3    3  502    0 -0.32552293407E+03 -0.76735065501E+02 -0.38617539311E+03  0.51086680782E+03  0.10100000352E+00 0.  1.
       -3    1    3    3    0  502  0.32552293407E+03  0.76735065501E+02  0.11006766822E+04  0.11503662981E+04  0.10100000352E+00 0. -1.
</event>
<event>
 5   0  0.1588657E-05  0.1500361E+04  0.7818609E-02  0.8884213E-01
        1   -1    0    0  501    0  0.00000000000E+00  0.00000000000E+00  0.11711434004E+04  0.11711434004E+04  0.50400001928E-02 0. -1.
       -1   -1    0    0    0  501  0.00000000000E+00  0.00000000000E+00 -0.48053122481E+03  0.48053122484E+03  0.50400001928E-02 0.  1.
    10030    2    1    2    0    0  0.00000000000E+00  0.00000000000E+00  0.69061217560E+03  0.16516746253E+04  0.15003612534E+04 0.  0.
        3    1    3    3  502    0 -0.57183631763E+03  0.29767110648E+03  0.76761723801E+03  0.10024176256E+04  0.10100000352E+00 0. -1.
       -3    1    3    3    0  502  0.57183631763E+03 -0.29767110648E+03 -0.77005062409E+02  0.64925699968E+03  0.10100000352E+00 0.  1.
</event>
<event>
 5   0  0.3093600E-05  0.1493569E+04  0.7818609E-02  0.8888740E-01
        2   -1    0    0  501    0  0.00000000000E+00  0.00000000000E+00  0.97718727944E+03  0.97718727944E+03  0.25500000920E-02 0. -1.
       -2   -1    0    0    0  501  0.00000000000E+00  0.00000000000E+00 -0.57070677310E+03  0.57070677310E+03  0.25500000920E-02 0.  1.
    10030    2    1    2    0    0  0.00000000000E+00  0.00000000000E+00  0.40648050635E+03  0.15478940525E+04  0.14935694145E+04 0.  0.
        1    1    3    3  502    0 -0.67834463129E+03 -0.30011547780E+03  0.11368748570E+03  0.75043026541E+03  0.50400001928E-02 0. -1.
       -1    1    3    3    0  502  0.67834463129E+03  0.30011547780E+03  0.29279302065E+03  0.79746378713E+03  0.50400001928E-02 0.  1.
</event>
<event>
 5   0  0.1588657E-05  0.1500324E+04  0.7818609E-02  0.8884238E-01
        1   -1    0    0  501    0  0.00000000000E+00  0.00000000000E+00  0.58212639961E+03  0.58212639963E+03  0.50400001928E-02 0.  1.
       -1   -1    0    0    0  501  0.00000000000E+00  0.00000000000E+00 -0.96670234587E+03  0.96670234589E+03  0.50400001928E-02 0. -1.
    10030    2    1    2    0    0  0.00000000000E+00  0.00000000000E+00 -0.38457594627E+03  0.15488287455E+04  0.15003239065E+04 0.  0.
        3    1    3    3  502    0 -0.39041504430E+03 -0.24495099968E+03 -0.80329981361E+03  0.92612931052E+03  0.10100000352E+00 0. -1.
       -3    1    3    3    0  502  0.39041504430E+03  0.24495099968E+03  0.41872386734E+03  0.62269943500E+03  0.10100000352E+00 0.  1.
</event>
<event>
 5   0  0.3018308E-05  0.1498414E+04  0.7818609E-02  0.8885508E-01
        2   -1    0    0  501    0  0.00000000000E+00  0.00000000000E+00  0.54670823340E+03  0.54670823341E+03  0.25500000920E-02 0. -1.
       -2   -1    0    0    0  501  0.00000000000E+00  0.00000000000E+00 -0.10267111270E+04  0.10267111270E+04  0.25500000920E-02 0.  1.
    10030    2    1    2    0    0  0.00000000000E+00  0.00000000000E+00 -0.48000289358E+03  0.15734193604E+04  0.14984143972E+04 0.  0.
        2    1    3    3  502    0 -0.70728054306E+03 -0.11547944522E+03 -0.10593220729E+02  0.71672413465E+03  0.25500000920E-02 0. -1.
       -2    1    3    3    0  502  0.70728054306E+03  0.11547944522E+03 -0.46940967285E+03  0.85669522575E+03  0.25500000920E-02 0.  1.
</event>
<event>
 5   0  0.2969498E-05  0.1499858E+04  0.7818609E-02  0.8884547E-01
       -2   -1    0    0    0  501  0.00000000000E+00  0.00000000000E+00  0.73846274582E+03  0.73846274583E+03  0.25500000920E-02 0.  1.
        2   -1    0    0  501    0  0.00000000000E+00  0.00000000000E+00 -0.76157366061E+03  0.76157366061E+03  0.25500000920E-02 0. -1.
    10030    2    1    2    0    0  0.00000000000E+00  0.00000000000E+00 -0.23110914783E+02  0.15000364064E+04  0.14998583621E+04 0.  0.
        3    1    3    3  502    0  0.17907020723E+02 -0.72526325538E+03  0.17837842203E+03  0.74709191044E+03  0.10100000352E+00 0. -1.
       -3    1    3    3    0  502 -0.17907020723E+02  0.72526325538E+03 -0.20148933681E+03  0.75294449600E+03  0.10100000352E+00 0.  1.
</event>
<event>
 5   0  0.3093600E-05  0.1499756E+04  0.7818609E-02  0.8884616E-01
       -2   -1    0    0    0  501  0.00000000000E+00  0.00000000000E+00  0.60334737576E+03  0.60334737577E+03  0.25500000920E-02 0. -1.
        2   -1    0    0  501    0  0.00000000000E+00  0.00000000000E+00 -0.93199486024E+03  0.93199486024E+03  0.25500000920E-02 0.  1.
    10030    2    1    2    0    0  0.00000000000E+00  0.00000000000E+00 -0.32864748447E+03  0.15353422360E+04  0.14997555176E+04 0.  0.
        1    1    3    3  502    0  0.52625017962E+03  0.50544222046E+03  0.12711904868E+02  0.72977577538E+03  0.50400001928E-02 0. -1.
       -1    1    3    3    0  502 -0.52625017962E+03 -0.50544222046E+03 -0.34135938934E+03  0.80556646063E+03  0.50400001928E-02 0.  1.
</event>
<event>
 5   0  0.3030702E-05  0.1499895E+04  0.7818609E-02  0.8884523E-01
        2   -1    0    0  501    0  0.00000000000E+00  0.00000000000E+00  0.14259321048E+04  0.14259321048E+04  0.25500000920E-02 0.  1.
       -2   -1    0    0    0  501  0.00000000000E+00  0.00000000000E+00 -0.39442360135E+03  0.39442360135E+03  0.25500000920E-02 0. -1.
    10030    2    1    2    0    0  0.00000000000E+00  0.00000000000E+00  0.10315085034E+04  0.18203557061E+04  0.14998950310E+04 0.  0.
        5    1    3    3  502    0  0.70942324281E+03 -0.12211602686E+03  0.77092663354E+03  0.10547718359E+04  0.46999998093E+01 0.  1.
       -5    1    3    3    0  502 -0.70942324281E+03  0.12211602686E+03  0.26058186987E+03  0.76558387023E+03  0.46999998093E+01 0. -1.
</event>
<event>
 5   0  0.1643498E-05  0.1502228E+04  0.7818609E-02  0.8882973E-01
       -1   -1    0    0    0  501  0.00000000000E+00  0.00000000000E+00  0.38565556907E+03  0.38565556910E+03  0.50400001928E-02 0.  1.
        1   -1    0    0  501    0  0.00000000000E+00  0.00000000000E+00 -0.14628909387E+04  0.14628909387E+04  0.50400001928E-02 0. -1.
    10030    2    1    2    0    0  0.00000000000E+00  0.00000000000E+00 -0.10772353696E+04  0.18485465078E+04  0.15022277291E+04 0.  0.
        4    1    3    3  502    0 -0.65033346972E+03  0.33044823948E+03 -0.31835240896E+03  0.79591427302E+03  0.12699999809E+01 0.  1.
       -4    1    3    3    0  502  0.65033346972E+03 -0.33044823948E+03 -0.75888296065E+03  0.10526322348E+04  0.12699999809E+01 0. -1.
</event>
<event>
 5   0  0.1533777E-05  0.1500035E+04  0.7818609E-02  0.8884430E-01
       -1   -1    0    0    0  501  0.00000000000E+00  0.00000000000E+00  0.25423938522E+03  0.25423938527E+03  0.50400001928E-02 0. -1.
        1   -1    0    0  501    0  0.00000000000E+00  0.00000000000E+00 -0.22125851488E+04  0.22125851488E+04  0.50400001928E-02 0.  1.
    10030    2    1    2    0    0  0.00000000000E+00  0.00000000000E+00 -0.19583457635E+04  0.24668245340E+04  0.15000350503E+04 0.  0.
        5    1    3    3  502    0  0.35456512760E+03  0.26160160528E+03 -0.19772603101E+04  0.20257670778E+04  0.46999998093E+01 0.  1.
       -5    1    3    3    0  502 -0.35456512760E+03 -0.26160160528E+03  0.18914546589E+02  0.44105745620E+03  0.46999998093E+01 0. -1.
</event>
<event>
 5   0  0.3070497E-05  0.1499534E+04  0.7818609E-02  0.8884763E-01
       -2   -1    0    0    0  501  0.00000000000E+00  0.00000000000E+00  0.62019671376E+03  0.62019671376E+03  0.25500000920E-02 0. -1.
        2   -1    0    0  501    0  0.00000000000E+00  0.00000000000E+00 -0.90640628892E+03  0.90640628892E+03  0.25500000920E-02 0.  1.
    10030    2    1    2    0    0  0.00000000000E+00  0.00000000000E+00 -0.28620957516E+03  0.15266030027E+04  0.14995335298E+04 0.  0.
        4    1    3    3  502    0 -0.22973443789E+03 -0.17781944507E+03  0.56056790555E+03  0.63137600258E+03  0.12699999809E+01 0. -1.
       -4    1    3    3    0  502  0.22973443789E+03  0.17781944507E+03 -0.84677748071E+03  0.89522700011E+03  0.12699999809E+01 0.  1.
</event>
<event>
 5   0  0.1643498E-05  0.1499866E+04  0.7818609E-02  0.8884542E-01
        1   -1    0    0  501    0  0.00000000000E+00  0.00000000000E+00  0.10022026231E+04  0.10022026231E+04  0.50400001928E-02 0.  1.
       -1   -1    0    0    0  501  0.00000000000E+00  0.00000000000E+00 -0.56116383288E+03  0.56116383291E+03  0.50400001928E-02 0. -1.
    10030    2    1    2    0    0  0.00000000000E+00  0.00000000000E+00  0.44103879019E+03  0.15633664560E+04  0.14998664812E+04 0.  0.
        4    1    3    3  502    0 -0.26253549622E+01 -0.92324661625E+02 -0.55521158742E+03  0.56284301128E+03  0.12699999809E+01 0. -1.
       -4    1    3    3    0  502  0.26253549622E+01  0.92324661625E+02  0.99625037762E+03  0.10005234447E+04  0.12699999809E+01 0.  1.
</event>
<event>
 5   0  0.1576214E-05  0.1499658E+04  0.7818609E-02  0.8884680E-01
        1   -1    0    0  501    0  0.00000000000E+00  0.00000000000E+00  0.81373253308E+03  0.81373253309E+03  0.50400001928E-02 0.  1.
       -1   -1    0    0    0  501  0.00000000000E+00  0.00000000000E+00 -0.69094431894E+03  0.69094431896E+03  0.50400001928E-02 0. -1.
    10030    2    1    2    0    0  0.00000000000E+00  0.00000000000E+00  0.12278821413E+03  0.15046768521E+04  0.14996584556E+04 0.  0.
        1    1    3    3  502    0 -0.67243300907E+03  0.23667912215E+03  0.29468176397E+03  0.77137571947E+03  0.50400001928E-02 0. -1.
       -1    1    3    3    0  502  0.67243300907E+03 -0.23667912215E+03 -0.17189354983E+03  0.73330113258E+03  0.50400001928E-02 0.  1.
</event>
<event>
 5   0  0.3093600E-05  0.1498451E+04  0.7818609E-02  0.8885484E-01
        2   -1    0    0  501    0  0.00000000000E+00  0.00000000000E+00  0.21275124947E+04  0.21275124947E+04  0.25500000920E-02 0.  1.
       -2   -1    0    0    0  501  0.00000000000E+00  0.00000000000E+00 -0.26384740243E+03  0.26384740244E+03  0.25500000920E-02 0. -1.
    10030    2    1    2    0    0  0.00000000000E+00  0.00000000000E+00  0.18636650922E+04  0.23913598971E+04  0.14984507271E+04 0.  0.
        1    1    3    3  502    0  0.14210880333E+03  0.25936607474E+03 -0.16675189711E+03  0.33951710992E+03  0.50400001928E-02 0. -1.
       -1    1    3    3    0  502 -0.14210880333E+03 -0.25936607474E+03  0.20304169894E+04  0.20518427872E+04  0.50400001928E-02 0.  1.
</event>
<event>
 5   0  0.1533777E-05  0.1499558E+04  0.7818609E-02  0.8884747E-01
       -1   -1    0    0    0  501  0.00000000000E+00  0.00000000000E+00  0.76794984728E+03  0.76794984730E+03  0.50400001928E-02 0.  1.
        1   -1    0    0  501    0  0.00000000000E+00  0.00000000000E+00 -0.73203830073E+03  0.73203830075E+03  0.50400001928E-02 0. -1.
    10030    2    1    2    0    0  0.00000000000E+00  0.00000000000E+00  0.35911546550E+02  0.14999881480E+04  0.14995582033E+04 0.  0.
        5    1    3    3  502    0 -0.16754423169E+02 -0.60619175677E+03  0.45898745427E+03  0.76055291061E+03  0.46999998093E+01 0.  1.
       -5    1    3    3    0  502  0.16754423169E+02  0.60619175677E+03 -0.42307590772E+03  0.73943523743E+03  0.46999998093E+01 0. -1.
</event>
<event>
 5   0  0.3070497E-05  0.1499548E+04  0.7818609E-02  0.8884753E-01
       -2   -1    0    0    0  501  0.00000000000E+00  0.00000000000E+00  0.75379632695E+03  0.75379632696E+03  0.25500000920E-02 0.  1.
        2   -1    0    0  501    0  0.00000000000E+00  0.00000000000E+00 -0.74577326276E+03  0.74577326277E+03  0.25500000920E-02 0. -1.
    10030    2    1    2    0    0  0.00000000000E+00  0.00000000000E+00  0.80230641872E+01  0.14995695897E+04  0.14995481269E+04 0.  0.
        4    1    3    3  502    0  0.18781162907E+03 -0.30119546763E+03  0.66445085655E+03  0.75331830683E+03  0.12699999809E+01 0.  1.
       -4    1    3    3    0  502 -0.18781162907E+03  0.30119546763E+03 -0.65642779236E+03  0.74625128289E+03  0.12699999809E+01 0. -1.
</event>
<event>
 5   0  0.3093600E-05  0.1500221E+04  0.7818609E-02  0.8884306E-01
       -2   -1    0    0    0  501  0.00000000000E+00  0.00000000000E+00  0.40950277143E+03  0.40950277144E+03  0.25500000920E-02 0. -1.
        2   -1    0    0  501    0  0.00000000000E+00  0.00000000000E+00 -0.13740220722E+04  0.13740220722E+04  0.25500000920E-02 0.  1.
    10030    2    1    2    0    0  0.00000000000E+00  0.00000000000E+00 -0.96451930074E+03  0.17835248436E+04  0.15002211125E+04 0.  0.
        1    1    3    3  502    0  0.36213890238E+03 -0.17250786671E+03  0.27128411322E+03  0.48425057439E+03  0.50400001928E-02 0. -1.
       -1    1    3    3    0  502 -0.36213890238E+03  0.17250786671E+03 -0.12358034140E+04  0.12992742692E+04  0.50400001928E-02 0.  1.
</event>
<event>
 5   0  0.2969498E-05  0.1499999E+04  0.7818609E-02  0.8884453E-01
        2   -1    0    0  501    0  0.00000000000E+00  0.00000000000E+00  0.12662148122E+04  0.12662148122E+04  0.25500000920E-02 0.  1.
       -2   -1    0    0    0  501  0.00000000000E+00  0.00000000000E+00 -0.44423694584E+03  0.44423694584E+03  0.25500000920E-02 0. -1.
    10030    2    1    2    0    0  0.00000000000E+00  0.00000000000E+00  0.82197786636E+03  0.17104517580E+04  0.14999992013E+04 0.  0.
        3    1    3    3  502    0  0.70149091017E+03 -0.22859309043E+03  0.25734371893E+03  0.78138985015E+03  0.10100000352E+00 0.  1.
       -3    1    3    3    0  502 -0.70149091017E+03  0.22859309043E+03  0.56463414743E+03  0.92906190789E+03  0.10100000352E+00 0. -1.
</event>
<event>
 5   0  0.3018308E-05  0.1501230E+04  0.7818609E-02  0.8883636E-01
       -2   -1    0    0    0  501  0.00000000000E+00  0.00000000000E+00  0.42460514849E+03  0.42460514850E+03  0.25500000920E-02 0. -1.
        2   -1    0    0  501    0  0.00000000000E+00  0.00000000000E+00 -0.13269329034E+04  0.13269329034E+04  0.25500000920E-02 0.  1.
    10030    2    1    2    0    0  0.00000000000E+00  0.00000000000E+00 -0.90232775492E+03  0.17515380519E+04  0.15012295527E+04 0.  0.
        2    1    3    3  502    0  0.90034893758E+02 -0.67799298948E+03 -0.90339171598E+02  0.68988545557E+03  0.25500000920E-02 0. -1.
       -2    1    3    3    0  502 -0.90034893758E+02  0.67799298948E+03 -0.81198858332E+03  0.10616525963E+04  0.25500000920E-02 0.  1.
</event>
<event>
 5   0  0.3093600E-05  0.1500127E+04  0.7818609E-02  0.8884368E-01
       -2   -1    0    0    0  501  0.00000000000E+00  0.00000000000E+00  0.64155208336E+03  0.64155208337E+03  0.25500000920E-02 0. -1.
        2   -1    0    0  501    0  0.00000000000E+00  0.00000000000E+00 -0.87692865012E+03  0.87692865012E+03  0.25500000920E-02 0.  1.
    10030    2    1    2    0    0  0.00000000000E+00  0.00000000000E+00 -0.23537656675E+03  0.15184807335E+04  0.15001271979E+04 0.  0.
        1    1    3    3  502    0 -0.64942844953E+03 -0.79028102143E+01 -0.49747953041E+03  0.81811102466E+03  0.50400001928E-02 0.  1.
       -1    1    3    3    0  502  0.64942844953E+03  0.79028102143E+01  0.26210296366E+03  0.70036970883E+03  0.50400001928E-02 0. -1.
</event>
<event>
 5   0  0.3030702E-05  0.1499958E+04  0.7818609E-02  0.8884481E-01
       -2   -1    0    0    0  501  0.00000000000E+00  0.00000000000E+00  0.75622193220E+03  0.75622193220E+03  0.25500000920E-02 0.  1.
        2   -1    0    0  501    0  0.00000000000E+00  0.00000000000E+00 -0.74378762511E+03  0.74378762512E+03  0.25500000920E-02 0. -1.
    10030    2    1    2    0    0  0.00000000000E+00  0.00000000000E+00  0.12434307087E+02  0.15000095573E+04  0.14999580194E+04 0.  0.
        5    1    3    3  502    0  0.51759675378E+03 -0.44570172418E+03 -0.30345458903E+03  0.74743775932E+03  0.46999998093E+01 0. -1.
       -5    1    3    3    0  502 -0.51759675378E+03  0.44570172418E+03  0.31588889611E+03  0.75257179800E+03  0.46999998093E+01 0.  1.
</event>
<event>
 5   0  0.3018308E-05  0.1504579E+04  0.7818609E-02  0.8881414E-01
        2   -1    0    0  501    0  0.00000000000E+00  0.00000000000E+00  0.30828183738E+04  0.30828183738E+04  0.25500000920E-02 0. -1.
       -2   -1    0    0    0  501  0.00000000000E+00  0.00000000000E+00 -0.18357862550E+03  0.18357862552E+03  0.25500000920E-02 0.  1.
    10030    2    1    2    0    0  0.00000000000E+00  0.00000000000E+00  0.28992397483E+04  0.32663969993E+04  0.15045790903E+04 0.  0.
        2    1    3    3  502    0 -0.63246746506E+03  0.19808359013E+03  0.67690266698E+03  0.94733807250E+03  0.25500000920E-02 0.  1.
       -2    1    3    3    0  502  0.63246746506E+03 -0.19808359013E+03  0.22223370813E+04  0.23190589268E+04  0.25500000920E-02 0. -1.
</event>
<event>
 5   0  0.1588657E-05  0.1500149E+04  0.7818609E-02  0.8884354E-01
        1   -1    0    0  501    0  0.00000000000E+00  0.00000000000E+00  0.87425705815E+03  0.87425705817E+03  0.50400001928E-02 0. -1.
       -1   -1    0    0    0  501  0.00000000000E+00  0.00000000000E+00 -0.64353124867E+03  0.64353124869E+03  0.50400001928E-02 0.  1.
    10030    2    1    2    0    0  0.00000000000E+00  0.00000000000E+00  0.23072580948E+03  0.15177883069E+04  0.15001489744E+04 0.  0.
        3    1    3    3  502    0 -0.48890107321E+03 -0.48977165942E+03  0.40809380400E+03  0.80339349065E+03  0.10100000352E+00 0. -1.
       -3    1    3    3    0  502  0.48890107321E+03  0.48977165942E+03 -0.17736799452E+03  0.71439481621E+03  0.10100000352E+00 0.  1.
</event>
<event>
 5   0  0.1576214E-05  0.1500137E+04  0.7818609E-02  0.8884362E-01
        1   -1    0    0  501    0  0.00000000000E+00  0.00000000000E+00  0.84750114836E+03  0.84750114838E+03  0.50400001928E-02 0. -1.
       -1   -1    0    0    0  501  0.00000000000E+00  0.00000000000E+00 -0.66383752395E+03  0.66383752397E+03  0.50400001928E-02 0.  1.
    10030    2    1    2    0    0  0.00000000000E+00  0.00000000000E+00  0.18366362441E+03  0.15113386723E+04  0.15001374122E+04 0.  0.
        1    1    3    3  502    0  0.18677968098E+03  0.71804127628E+03 -0.19141196588E+02  0.74218347401E+03  0.50400001928E-02 0.  1.
       -1    1    3    3    0  502 -0.18677968098E+03 -0.71804127628E+03  0.20280482100E+03  0.76915519833E+03  0.50400001928E-02 0. -1.
</event>
<event>
 5   0  0.3018308E-05  0.1500569E+04  0.7818609E-02  0.8884075E-01
        2   -1    0    0  501    0  0.00000000000E+00  0.00000000000E+00  0.15166448236E+04  0.15166448236E+04  0.25500000920E-02 0. -1.
       -2   -1    0    0    0  501  0.00000000000E+00  0.00000000000E+00 -0.37116573653E+03  0.37116573654E+03  0.25500000920E-02 0.  1.
    10030    2    1    2    0    0  0.00000000000E+00  0.00000000000E+00  0.11454790870E+04  0.18878105601E+04  0.15005686829E+04 0.  0.
        2    1    3    3  502    0 -0.51976517390E+03  0.16954950137E+03 -0.73694185515E+02  0.55166448354E+03  0.25500000920E-02 0.  1.
       -2    1    3    3    0  502  0.51976517390E+03 -0.16954950137E+03  0.12191732726E+04  0.13361460766E+04  0.25500000920E-02 0. -1.
</event>
<event>
 5   0  0.3030702E-05  0.1500298E+04  0.7818609E-02  0.8884255E-01
       -2   -1    0    0    0  501  0.00000000000E+00  0.00000000000E+00  0.93584219594E+03  0.93584219594E+03  0.25500000920E-02 0.  1.
        2   -1    0    0  501    0  0.00000000000E+00  0.00000000000E+00 -0.60130179209E+03  0.60130179209E+03  0.25500000920E-02 0. -1.
    10030    2    1    2    0    0  0.00000000000E+00  0.00000000000E+00  0.33454040385E+03  0.15371439880E+04  0.15002980898E+04 0.  0.
        5    1    3    3  502    0 -0.17304105698E+03  0.44989180126E+03 -0.42161124261E+03  0.64040922084E+03  0.46999998093E+01 0. -1.
       -5    1    3    3    0  502  0.17304105698E+03 -0.44989180126E+03  0.75615164646E+03  0.89673476719E+03  0.46999998093E+01 0.  1.
</event>
<event>
 5   0  0.3030702E-05  0.1499744E+04  0.7818609E-02  0.8884623E-01
        2   -1    0    0  501    0  0.00000000000E+00  0.00000000000E+00  0.36014412280E+03  0.36014412280E+03  0.25500000920E-02 0.  1.
       -2   -1    0    0    0  501  0.00000000000E+00  0.00000000000E+00 -0.15613406963E+04  0.15613406963E+04  0.25500000920E-02 0. -1.
    10030    2    1    2    0    0  0.00000000000E+00  0.00000000000E+00 -0.12011965735E+04  0.19214848191E+04  0.14997435454E+04 0.  0.
        5    1    3    3  502    0 -0.78452161412E+02  0.51823367931E+03 -0.12876473326E+04  0.13902440905E+04  0.46999998093E+01 0. -1.
       -5    1    3    3    0  502  0.78452161412E+02 -0.51823367931E+03  0.86450759092E+02  0.53124072862E+03  0.46999998093E+01 0.  1.
</event>
<event>
 5   0  0.1643498E-05  0.1497898E+04  0.7818609E-02  0.8885852E-01
       -1   -1    0    0    0  501  0.00000000000E+00  0.00000000000E+00  0.77621772752E+03  0.77621772753E+03  0.50400001928E-02 0.  1.
        1   -1    0    0  501    0  0.00000000000E+00  0.00000000000E+00 -0.72263838519E+03  0.72263838521E+03  0.50400001928E-02 0. -1.
    10030    2    1    2    0    0  0.00000000000E+00  0.00000000000E+00  0.53579342328E+02  0.14988561127E+04  0.14978981610E+04 0.  0.
        4    1    3    3  502    0  0.47446641282E+03  0.35632887440E+03 -0.43048668527E+03  0.73308187995E+03  0.12699999809E+01 0. -1.
       -4    1    3    3    0  502 -0.47446641282E+03 -0.35632887440E+03  0.48406602760E+03  0.76577423278E+03  0.12699999809E+01 0.  1.
</event>
<event>
 5   0  0.1533777E-05  0.1499576E+04  0.7818609E-02  0.8884735E-01
       -1   -1    0    0    0  501  0.00000000000E+00  0.00000000000E+00  0.97360920157E+03  0.97360920158E+03  0.50400001928E-02 0. -1.
        1   -1    0    0  501    0  0.00000000000E+00  0.00000000000E+00 -0.57742072030E+03  0.57742072032E+03  0.50400001928E-02 0.  1.
    10030    2    1    2    0    0  0.00000000000E+00  0.00000000000E+00  0.39618848127E+03  0.15510299219E+04  0.14995761088E+04 0.  0.
        5    1    3    3  502    0 -0.65783319458E+03  0.12584677662E+03  0.54667145009E+03  0.86455403961E+03  0.46999998093E+01 0. -1.
       -5    1    3    3    0  502  0.65783319458E+03 -0.12584677662E+03 -0.15048296882E+03  0.68647588229E+03  0.46999998093E+01 0.  1.
</event>
<event>
 5   0  0.3093600E-05  0.1499818E+04  0.7818609E-02  0.8884574E-01
       -2   -1    0    0    0  501  0.00000000000E+00  0.00000000000E+00  0.80945962928E+03  0.80945962929E+03  0.25500000920E-02 0.  1.
        2   -1    0    0  501    0  0.00000000000E+00  0.00000000000E+00 -0.69473942419E+03  0.69473942419E+03  0.25500000920E-02 0. -1.
    10030    2    1    2    0    0  0.00000000000E+00  0.00000000000E+00  0.11472020510E+03  0.15041990535E+04  0.14998180113E+04 0.  0.
        1    1    3    3  502    0  0.37186256605E+03 -0.48408323184E+02  0.70867094889E+03  0.80177281546E+03  0.50400001928E-02 0.  1.
       -1    1    3    3    0  502 -0.37186256605E+03  0.48408323184E+02 -0.59395074379E+03  0.70242623802E+03  0.50400001928E-02 0. -1.
</event>
<event>
 5   0  0.3070497E-05  0.1500507E+04  0.7818609E-02  0.8884116E-01
       -2   -1    0    0    0  501  0.00000000000E+00  0.00000000000E+00  0.48514357987E+03  0.48514357988E+03  0.25500000920E-02 0.  1.
        2   -1    0    0  501    0  0.00000000000E+00  0.00000000000E+00 -0.11602350180E+04  0.11602350180E+04  0.25500000920E-02 0. -1.
    10030    2    1    2    0    0  0.00000000000E+00  0.00000000000E+00 -0.67509143817E+03  0.16453785979E+04  0.15005073411E+04 0.  0.
        4    1    3    3  502    0  0.12438927492E+03 -0.56492967030E+03 -0.86143959695E+03  0.10376406007E+04  0.12699999809E+01 0. -1.
       -4    1    3    3    0  502 -0.12438927492E+03  0.56492967030E+03  0.18634815877E+03  0.60773799724E+03  0.12699999809E+01 0.  1.
</event>
<event>
 5   0  0.3018308E-05  0.1499967E+04  0.7818609E-02  0.8884475E-01
        2   -1    0    0  501    0  0.00000000000E+00  0.00000000000E+00  0.11849493413E+04  0.11849493413E+04  0.25500000920E-02 0.  1.
       -2   -1    0    0    0  501  0.00000000000E+00  0.00000000000E+00 -0.47468325740E+03  0.47468325741E+03  0.25500000920E-02 0. -1.
    10030    2    1    2    0    0  0.00000000000E+00  0.00000000000E+00  0.71026608388E+03  0.16596325987E+04  0.14999674839E+04 0.  0.
        2    1    3    3  502    0 -0.19214284618E+03  0.24434670229E+03  0.11103188644E+04  0.11530100454E+04  0.25500000920E-02 0.  1.
       -2    1    3    3    0  502  0.19214284618E+03 -0.24434670229E+03 -0.40005278051E+03  0.50662255325E+03  0.25500000920E-02 0. -1.
</event>
<event>
 5   0  0.3018308E-05  0.1500094E+04  0.7818609E-02  0.8884391E-01
        2   -1    0    0  501    0  0.00000000000E+00  0.00000000000E+00  0.15391995234E+04  0.15391995235E+04  0.25500000920E-02 0. -1.
       -2   -1    0    0    0  501  0.00000000000E+00  0.00000000000E+00 -0.36549533176E+03  0.36549533177E+03  0.25500000920E-02 0.  1.
    10030    2    1    2    0    0  0.00000000000E+00  0.00000000000E+00  0.11737041917E+04  0.19046948552E+04  0.15000936510E+04 0.  0.
        2    1    3    3  502    0 -0.11074056090E+03 -0.64122899667E+03  0.11324219565E+03  0.66050124366E+03  0.25500000920E-02 0. -1.
       -2    1    3    3    0  502  0.11074056090E+03  0.64122899667E+03  0.10604619960E+04  0.12441936116E+04  0.25500000920E-02 0.  1.
</event>
<event>
 5   0  0.1580078E-05  0.1500439E+04  0.7818609E-02  0.8884161E-01
        1   -1    0    0  501    0  0.00000000000E+00  0.00000000000E+00  0.11643181976E+04  0.11643181976E+04  0.50400001928E-02 0.  1.
       -1   -1    0    0    0  501  0.00000000000E+00  0.00000000000E+00 -0.48339820993E+03  0.48339820996E+03  0.50400001928E-02 0. -1.
    10030    2    1    2    0    0  0.00000000000E+00  0.00000000000E+00  0.68091998767E+03  0.16477164076E+04  0.15004390458E+04 0.  0.
        2    1    3    3  502    0  0.46040774334E+03  0.56328519788E+03  0.13927302186E+03  0.74071754326E+03  0.25500000920E-02 0.  1.
       -2    1    3    3    0  502 -0.46040774334E+03 -0.56328519788E+03  0.54164696581E+03  0.90699886430E+03  0.25500000920E-02 0. -1.
</event>
<event>
 5   0  0.1588657E-05  0.1500082E+04  0.7818609E-02  0.8884398E-01
       -1   -1    0    0    0  501  0.00000000000E+00  0.00000000000E+00  0.75757449878E+03  0.75757449879E+03  0.50400001928E-02 0.  1.
        1   -1    0    0  501    0  0.00000000000E+00  0.00000000000E+00 -0.74258290146E+03  0.74258290148E+03  0.50400001928E-02 0. -1.
    10030    2    1    2    0    0  0.00000000000E+00  0.00000000000E+00  0.14991597312E+02  0.15001574003E+04  0.15000824903E+04 0.  0.
        3    1    3    3  502    0  0.34272060610E+03  0.33162873403E+03  0.58642610499E+03  0.75586415307E+03  0.10100000352E+00 0.  1.
       -3    1    3    3    0  502 -0.34272060610E+03 -0.33162873403E+03 -0.57143450767E+03  0.74429324721E+03  0.10100000352E+00 0. -1.
</event>
<event>
 5   0  0.3030702E-05  0.1499709E+04  0.7818609E-02  0.8884646E-01
       -2   -1    0    0    0  501  0.00000000000E+00  0.00000000000E+00  0.62739497008E+03  0.62739497009E+03  0.25500000920E-02 0.  1.
        2   -1    0    0  501    0  0.00000000000E+00  0.00000000000E+00 -0.89621664564E+03  0.89621664564E+03  0.25500000920E-02 0. -1.
    10030    2    1    2    0    0  0.00000000000E+00  0.00000000000E+00 -0.26882167555E+03  0.15236116157E+04  0.14997090592E+04 0.  0.
        5    1    3    3  502    0 -0.41527684061E+03  0.23420243208E+02  0.49943715676E+03  0.64997148068E+03  0.46999998093E+01 0.  1.
       -5    1    3    3    0  502  0.41527684061E+03 -0.23420243208E+02 -0.76825883231E+03  0.87364013505E+03  0.46999998093E+01 0. -1.
</event>
<event>
 5   0  0.3093600E-05  0.1493384E+04  0.7818609E-02  0.8888865E-01
        2   -1    0    0  501    0  0.00000000000E+00  0.00000000000E+00  0.11405470173E+04  0.11405470173E+04  0.25500000920E-02 0. -1.
       -2   -1    0    0    0  501  0.00000000000E+00  0.00000000000E+00 -0.48884332300E+03  0.48884332301E+03  0.25500000920E-02 0.  1.
    10030    2    1    2    0    0  0.00000000000E+00  0.00000000000E+00  0.65170369428E+03  0.16293903403E+04  0.14933838006E+04 0.  0.
        1    1    3    3  502    0  0.41873300859E+03 -0.42964588947E+03  0.81087739159E+03  0.10086897774E+04  0.50400001928E-02 0. -1.
       -1    1    3    3    0  502 -0.41873300859E+03  0.42964588947E+03 -0.15917369731E+03  0.62070056288E+03  0.50400001928E-02 0.  1.
</event>
<event>
 5   0  0.1643498E-05  0.1500290E+04  0.7818609E-02  0.8884260E-01
       -1   -1    0    0    0  501  0.00000000000E+00  0.00000000000E+00  0.33325220917E+03  0.33325220921E+03  0.50400001928E-02 0.  1.
        1   -1    0    0  501    0  0.00000000000E+00  0.00000000000E+00 -0.16885644592E+04  0.16885644592E+04  0.50400001928E-02 0. -1.
    10030    2    1    2    0    0  0.00000000000E+00  0.00000000000E+00 -0.13553122500E+04  0.20218166684E+04  0.15002904204E+04 0.  0.
        4    1    3    3  502    0  0.18136558882E+03 -0.46723533307E+02  0.30123671418E+03  0.35471359749E+03  0.12699999809E+01 0.  1.
       -4    1    3    3    0  502 -0.18136558882E+03  0.46723533307E+02 -0.16565489642E+04  0.16671030709E+04  0.12699999809E+01 0. -1.
</event>
<event>
 5   0  0.1588657E-05  0.1499133E+04  0.7818609E-02  0.8885030E-01
       -1   -1    0    0    0  501  0.00000000000E+00  0.00000000000E+00  0.47389493930E+03  0.47389493933E+03  0.50400001928E-02 0. -1.
        1   -1    0    0  501    0  0.00000000000E+00  0.00000000000E+00 -0.11856004624E+04  0.11856004624E+04  0.50400001928E-02 0.  1.
    10030    2    1    2    0    0  0.00000000000E+00  0.00000000000E+00 -0.71170552308E+03  0.16594954017E+04  0.14991331618E+04 0.  0.
        3    1    3    3  502    0  0.53942433951E+03 -0.18425920795E+03 -0.89466404451E+03  0.10608269588E+04  0.10100000352E+00 0.  1.
       -3    1    3    3    0  502 -0.53942433951E+03  0.18425920795E+03  0.18295852144E+03  0.59866844291E+03  0.10100000352E+00 0. -1.
</event>
<event>
 5   0  0.3030702E-05  0.1500016E+04  0.7818609E-02  0.8884443E-01
        2   -1    0    0  501    0  0.00000000000E+00  0.00000000000E+00  0.78191505556E+03  0.78191505556E+03  0.25500000920E-02 0.  1.
       -2   -1    0    0    0  501  0.00000000000E+00  0.00000000000E+00 -0.71940261630E+03  0.71940261630E+03  0.25500000920E-02 0. -1.
    10030    2    1    2    0    0  0.00000000000E+00  0.00000000000E+00  0.62512439265E+02  0.15013176719E+04  0.15000156488E+04 0.  0.
        5    1    3    3  502    0 -0.52816057236E+02  0.58411479546E+03  0.49911251947E+03  0.77013961543E+03  0.46999998093E+01 0.  1.
       -5    1    3    3    0  502  0.52816057236E+02 -0.58411479546E+03 -0.43660008020E+03  0.73117805643E+03  0.46999998093E+01 0. -1.
</event>
<event>
 5   0  0.1116613E-05  0.1498253E+04  0.7818609E-02  0.8885615E-01
       -4   -1    0    0    0  501  0.00000000000E+00  0.00000000000E+00  0.57578560133E+03  0.57578700194E+03  0.12699999809E+01 0. -1.
        4   -1    0    0  501    0  0.00000000000E+00  0.00000000000E+00 -0.97464923440E+03  0.97465006182E+03  0.12699999809E+01 0.  1.
    10030    2    1    2    0    0  0.00000000000E+00  0.00000000000E+00 -0.39886363307E+03  0.15504370638E+04  0.14982532800E+04 0.  0.
        4    1    3    3  502    0  0.30013755227E+03  0.57183854389E+03  0.19340465703E+03  0.67415787827E+03  0.12699999809E+01 0. -1.
       -4    1    3    3    0  502 -0.30013755227E+03 -0.57183854389E+03 -0.59226829010E+03  0.87627918549E+03  0.12699999809E+01 0.  1.
</event>
<event>
 5   0  0.3018308E-05  0.1500026E+04  0.7818609E-02  0.8884435E-01
       -2   -1    0    0    0  501  0.00000000000E+00  0.00000000000E+00  0.29836462696E+03  0.29836462697E+03  0.25500000920E-02 0.  1.
        2   -1    0    0  501    0  0.00000000000E+00  0.00000000000E+00 -0.18853429803E+04  0.18853429803E+04  0.25500000920E-02 0. -1.
    10030    2    1    2    0    0  0.00000000000E+00  0.00000000000E+00 -0.15869783533E+04  0.21837076073E+04  0.15000262065E+04 0.  0.
        2    1    3    3  502    0  0.34930380658E+02  0.22264419162E+02 -0.18836764850E+04  0.18841318786E+04  0.25500000920E-02 0. -1.
       -2    1    3    3    0  502 -0.34930380658E+02 -0.22264419162E+02  0.29669813167E+03  0.29957572865E+03  0.25500000920E-02 0.  1.
</event>
<event>
 5   0  0.3070497E-05  0.1499897E+04  0.7818609E-02  0.8884522E-01
       -2   -1    0    0    0  501  0.00000000000E+00  0.00000000000E+00  0.46821697891E+03  0.46821697892E+03  0.25500000920E-02 0. -1.
        2   -1    0    0  501    0  0.00000000000E+00  0.00000000000E+00 -0.12012007881E+04  0.12012007881E+04  0.25500000920E-02 0.  1.
    10030    2    1    2    0    0  0.00000000000E+00  0.00000000000E+00 -0.73298380915E+03  0.16694177670E+04  0.14998968019E+04 0.  0.
        4    1    3    3  502    0  0.67043919183E+03  0.33508052534E+03 -0.39494093995E+03  0.84719987450E+03  0.12699999809E+01 0. -1.
       -4    1    3    3    0  502 -0.67043919183E+03 -0.33508052534E+03 -0.33804286920E+03  0.82221789249E+03  0.12699999809E+01 0.  1.
</event>
<event>
 5   0  0.1576214E-05  0.1499730E+04  0.7818609E-02  0.8884633E-01
       -1   -1    0    0    0  501  0.00000000000E+00  0.00000000000E+00  0.14147869250E+04  0.14147869250E+04  0.50400001928E-02 0.  1.
        1   -1    0    0  501    0  0.00000000000E+00  0.00000000000E+00 -0.39744303955E+03  0.39744303958E+03  0.50400001928E-02 0. -1.
    10030    2    1    2    0    0  0.00000000000E+00  0.00000000000E+00  0.10173438854E+04  0.18122299646E+04  0.14997295967E+04 0.  0.
        1    1    3    3  502    0  0.41229120379E+03 -0.20482820542E+03  0.12239200658E+04  0.13076386955E+04  0.50400001928E-02 0.  1.
       -1    1    3    3    0  502 -0.41229120379E+03  0.20482820542E+03 -0.20657618041E+03  0.50459126904E+03  0.50400001928E-02 0. -1.
</event>
<event>
 5   0  0.1576214E-05  0.1500329E+04  0.7818609E-02  0.8884234E-01
        1   -1    0    0  501    0  0.00000000000E+00  0.00000000000E+00  0.16671647836E+04  0.16671647836E+04  0.50400001928E-02 0. -1.
       -1   -1    0    0    0  501  0.00000000000E+00  0.00000000000E+00 -0.33754720316E+03  0.33754720319E+03  0.50400001928E-02 0.  1.
    10030    2    1    2    0    0  0.00000000000E+00  0.00000000000E+00  0.13296175805E+04  0.20047119868E+04  0.15003290439E+04 0.  0.
        1    1    3    3  502    0  0.67850745787E+03  0.50820291489E+02  0.10869062736E+04  0.12823105396E+04  0.50400001928E-02 0. -1.
       -1    1    3    3    0  502 -0.67850745787E+03 -0.50820291489E+02  0.24271130685E+03  0.72240144719E+03  0.50400001928E-02 0.  1.
</event>
<event>
 5   0  0.1588657E-05  0.1500145E+04  0.7818609E-02  0.8884357E-01
       -1   -1    0    0    0  501  0.00000000000E+00  0.00000000000E+00  0.12038990020E+04  0.12038990020E+04  0.50400001928E-02 0.  1.
        1   -1    0    0  501    0  0.00000000000E+00  0.00000000000E+00 -0.46732219183E+03  0.46732219186E+03  0.50400001928E-02 0. -1.
    10030    2    1    2    0    0  0.00000000000E+00  0.00000000000E+00  0.73657681016E+03  0.16712211939E+04  0.15001449535E+04 0.  0.
        3    1    3    3  502    0  0.19018443291E+03  0.66923010442E+03  0.68055688080E+03  0.97324032458E+03  0.10100000352E+00 0.  1.
       -3    1    3    3    0  502 -0.19018443291E+03 -0.66923010442E+03  0.56019929359E+02  0.69798086927E+03  0.10100000352E+00 0. -1.
</event>
<event>
 5   0  0.3093600E-05  0.1500050E+04  0.7818609E-02  0.8884420E-01
        2   -1    0    0  501    0  0.00000000000E+00  0.00000000000E+00  0.11161739398E+04  0.11161739398E+04  0.25500000920E-02 0. -1.
       -2   -1    0    0    0  501  0.00000000000E+00  0.00000000000E+00 -0.50398708635E+03  0.50398708635E+03  0.25500000920E-02 0.  1.
    10030    2    1    2    0    0  0.00000000000E+00  0.00000000000E+00  0.61218685345E+03  0.16201610262E+04  0.15000496682E+04 0.  0.
        1    1    3    3  502    0 -0.60836926823E+03 -0.64702455719E+02  0.77469724111E+03  0.98714507025E+03  0.50400001928E-02 0. -1.
       -1    1    3    3    0  502  0.60836926823E+03  0.64702455719E+02 -0.16251038766E+03  0.63301595590E+03  0.50400001928E-02 0.  1.
</event>
<event>
 5   0  0.1116613E-05  0.1503927E+04  0.7818609E-02  0.8881846E-01
       -3   -1    0    0    0  501  0.00000000000E+00  0.00000000000E+00  0.75801787022E+03  0.75801787695E+03  0.10100000352E+00 0.  1.
        3   -1    0    0  501    0  0.00000000000E+00  0.00000000000E+00 -0.74595777062E+03  0.74595777746E+03  0.10100000352E+00 0. -1.
    10030    2    1    2    0    0  0.00000000000E+00  0.00000000000E+00  0.12060099602E+02  0.15039756544E+04  0.15039272998E+04 0.  0.
        3    1    3    3  502    0  0.39493614330E+03 -0.73652828987E+02  0.64169978063E+03  0.75708514394E+03  0.10100000352E+00 0.  1.
       -3    1    3    3    0  502 -0.39493614330E+03  0.73652828987E+02 -0.62963968103E+03  0.74689051047E+03  0.10100000352E+00 0. -1.
</event>
<event>
 5   0  0.3070497E-05  0.1499939E+04  0.7818609E-02  0.8884493E-01
       -2   -1    0    0    0  501  0.00000000000E+00  0.00000000000E+00  0.75984057346E+03  0.75984057347E+03  0.25500000920E-02 0.  1.
        2   -1    0    0  501    0  0.00000000000E+00  0.00000000000E+00 -0.74022667646E+03  0.74022667646E+03  0.25500000920E-02 0. -1.
    10030    2    1    2    0    0  0.00000000000E+00  0.00000000000E+00  0.19613897003E+02  0.15000672499E+04  0.14999390152E+04 0.  0.
        4    1    3    3  502    0  0.13553852125E+03  0.42167935108E+03  0.61505988178E+03  0.75794751596E+03  0.12699999809E+01 0.  1.
       -4    1    3    3    0  502 -0.13553852125E+03 -0.42167935108E+03 -0.59544598478E+03  0.74211973398E+03  0.12699999809E+01 0. -1.
</event>
<event>
 5   0  0.1643498E-05  0.1500299E+04  0.7818609E-02  0.8884254E-01
       -1   -1    0    0    0  501  0.00000000000E+00  0.00000000000E+00  0.67334618598E+03  0.67334618600E+03  0.50400001928E-02 0.  1.
        1   -1    0    0  501    0  0.00000000000E+00  0.00000000000E+00 -0.83571299224E+03  0.83571299225E+03  0.50400001928E-02 0. -1.
    10030    2    1    2    0    0  0.00000000000E+00  0.00000000000E+00 -0.16236680626E+03  0.15090591783E+04  0.15002988448E+04 0.  0.
        4    1    3    3  502    0  0.85289306669E+02  0.34857192970E+03  0.58140874405E+03  0.68323816972E+03  0.12699999809E+01 0.  1.
       -4    1    3    3    0  502 -0.85289306669E+02 -0.34857192970E+03 -0.74377555030E+03  0.82582100853E+03  0.12699999809E+01 0. -1.
</event>
<event>
 5   0  0.1533777E-05  0.1496106E+04  0.7818609E-02  0.8887046E-01
        1   -1    0    0  501    0  0.00000000000E+00  0.00000000000E+00  0.90509006254E+03  0.90509006255E+03  0.50400001928E-02 0. -1.
       -1   -1    0    0    0  501  0.00000000000E+00  0.00000000000E+00 -0.61826292749E+03  0.61826292751E+03  0.50400001928E-02 0.  1.
    10030    2    1    2    0    0  0.00000000000E+00  0.00000000000E+00  0.28682713504E+03  0.15233529901E+04  0.14961064558E+04 0.  0.
        5    1    3    3  502    0 -0.31530038978E+03  0.67407828085E+03  0.22072847055E+03  0.77623386439E+03  0.46999998093E+01 0. -1.
       -5    1    3    3    0  502  0.31530038978E+03 -0.67407828085E+03  0.66098664491E+02  0.74711912568E+03  0.46999998093E+01 0.  1.
</event>
<event>
 5   0  0.3093600E-05  0.1499707E+04  0.7818609E-02  0.8884648E-01
       -2   -1    0    0    0  501  0.00000000000E+00  0.00000000000E+00  0.13134161707E+04  0.13134161708E+04  0.25500000920E-02 0. -1.
        2   -1    0    0  501    0  0.00000000000E+00  0.00000000000E+00 -0.42810526177E+03  0.42810526178E+03  0.25500000920E-02 0.  1.
    10030    2    1    2    0    0  0.00000000000E+00  0.00000000000E+00  0.88531090898E+03  0.17415214325E+04  0.14997071362E+04 0.  0.
        1    1    3    3  502    0  0.77816939004E+02 -0.38485656110E+03  0.11844970088E+04  0.12478794864E+04  0.50400001928E-02 0. -1.
       -1    1    3    3    0  502 -0.77816939004E+02  0.38485656110E+03 -0.29918609985E+03  0.49364194613E+03  0.50400001928E-02 0.  1.
</event>
<event>
 5   0  0.1588657E-05  0.1499679E+04  0.7818609E-02  0.8884667E-01
       -1   -1    0    0    0  501  0.00000000000E+00  0.00000000000E+00  0.62658041681E+03  0.62658041684E+03  0.50400001928E-02 0. -1.
        1   -1    0    0  501    0  0.00000000000E+00  0.00000000000E+00 -0.89734555780E+03  0.89734555782E+03  0.50400001928E-02 0.  1.
    10030    2    1    2    0    0  0.00000000000E+00  0.00000000000E+00 -0.27076514099E+03  0.15239259747E+04  0.14996788372E+04 0.  0.
        3    1    3    3  502    0 -0.67896012460E+03  0.13018353603E+03  0.15969934767E+03  0.70953399897E+03  0.10100000352E+00 0. -1.
       -3    1    3    3    0  502  0.67896012460E+03 -0.13018353603E+03 -0.43046448866E+03  0.81439197568E+03  0.10100000352E+00 0.  1.
</event>
<event>
 5   0  0.3018308E-05  0.1501087E+04  0.7818609E-02  0.8883731E-01
        2   -1    0    0  501    0  0.00000000000E+00  0.00000000000E+00  0.96287816114E+03  0.96287816115E+03  0.25500000920E-02 0.  1.
       -2   -1    0    0    0  501  0.00000000000E+00  0.00000000000E+00 -0.58503275114E+03  0.58503275115E+03  0.25500000920E-02 0. -1.
    10030    2    1    2    0    0  0.00000000000E+00  0.00000000000E+00  0.37784541000E+03  0.15479109123E+04  0.15010866193E+04 0.  0.
        2    1    3    3  502    0 -0.16019430896E+03 -0.10719701886E+03 -0.55907434130E+03  0.59136920496E+03  0.25500000920E-02 0. -1.
       -2    1    3    3    0  502  0.16019430896E+03  0.10719701886E+03  0.93691975130E+03  0.95654170733E+03  0.25500000920E-02 0.  1.
</event>
<event>
 5   0  0.3018308E-05  0.1504813E+04  0.7818609E-02  0.8881259E-01
        2   -1    0    0  501    0  0.00000000000E+00  0.00000000000E+00  0.40805640138E+03  0.40805640139E+03  0.25500000920E-02 0.  1.
       -2   -1    0    0    0  501  0.00000000000E+00  0.00000000000E+00 -0.13873458050E+04  0.13873458050E+04  0.25500000920E-02 0. -1.
    10030    2    1    2    0    0  0.00000000000E+00  0.00000000000E+00 -0.97928940363E+03  0.17954022064E+04  0.15048127281E+04 0.  0.
        2    1    3    3  502    0 -0.25434490704E+03  0.47261942225E+03 -0.11187807421E+04  0.12408588956E+04  0.25500000920E-02 0. -1.
       -2    1    3    3    0  502  0.25434490704E+03 -0.47261942225E+03  0.13949133843E+03  0.55454331078E+03  0.25500000920E-02 0.  1.
</event>
<event>
 5   0  0.3070497E-05  0.1500157E+04  0.7818609E-02  0.8884348E-01
        2   -1    0    0  501    0  0.00000000000E+00  0.00000000000E+00  0.10209611038E+04  0.10209611038E+04  0.25500000920E-02 0. -1.
       -2   -1    0    0    0  501  0.00000000000E+00  0.00000000000E+00 -0.55106709034E+03  0.55106709035E+03  0.25500000920E-02 0.  1.
    10030    2    1    2    0    0  0.00000000000E+00  0.00000000000E+00  0.46989401345E+03  0.15720281941E+04  0.15001574115E+04 0.  0.
        4    1    3    3  502    0  0.67261841142E+03  0.41087943213E+02 -0.11024743538E+03  0.68283223149E+03  0.12699999809E+01 0.  1.
       -4    1    3    3    0  502 -0.67261841142E+03 -0.41087943213E+02  0.58014144883E+03  0.88919596266E+03  0.12699999809E+01 0. -1.
</event>
<event>
 5   0  0.3030702E-05  0.1500408E+04  0.7818609E-02  0.8884182E-01
        2   -1    0    0  501    0  0.00000000000E+00  0.00000000000E+00  0.16981684356E+04  0.16981684356E+04  0.25500000920E-02 0.  1.
       -2   -1    0    0    0  501  0.00000000000E+00  0.00000000000E+00 -0.33141938991E+03  0.33141938992E+03  0.25500000920E-02 0. -1.
    10030    2    1    2    0    0  0.00000000000E+00  0.00000000000E+00  0.13667490457E+04  0.20295878255E+04  0.15004078738E+04 0.  0.
        5    1    3    3  502    0 -0.50642623052E+03  0.13027739557E+03 -0.44247529180E+02  0.52480440222E+03  0.46999998093E+01 0. -1.
       -5    1    3    3    0  502  0.50642623052E+03 -0.13027739557E+03  0.14109965749E+04  0.15047834233E+04  0.46999998093E+01 0.  1.
</event>
<event>
 5   0  0.3093600E-05  0.1499918E+04  0.7818609E-02  0.8884507E-01
       -2   -1    0    0    0  501  0.00000000000E+00  0.00000000000E+00  0.42976891769E+03  0.42976891770E+03  0.25500000920E-02 0. -1.
        2   -1    0    0  501    0  0.00000000000E+00  0.00000000000E+00 -0.13086999517E+04  0.13086999517E+04  0.25500000920E-02 0.  1.
    10030    2    1    2    0    0  0.00000000000E+00  0.00000000000E+00 -0.87893103402E+03  0.17384688694E+04  0.14999180802E+04 0.  0.
        1    1    3    3  502    0  0.36315006571E+03  0.65396294171E+03 -0.50180716566E+03  0.90075297995E+03  0.50400001928E-02 0. -1.
       -1    1    3    3    0  502 -0.36315006571E+03 -0.65396294171E+03 -0.37712386836E+03  0.83771588946E+03  0.50400001928E-02 0.  1.
</event>
<event>
 5   0  0.3030702E-05  0.1500191E+04  0.7818609E-02  0.8884326E-01
       -2   -1    0    0    0  501  0.00000000000E+00  0.00000000000E+00  0.47899832708E+03  0.47899832709E+03  0.25500000920E-02 0.  1.
        2   -1    0    0  501    0  0.00000000000E+00  0.00000000000E+00 -0.11746244831E+04  0.11746244831E+04  0.25500000920E-02 0. -1.
    10030    2    1    2    0    0  0.00000000000E+00  0.00000000000E+00 -0.69562615602E+03  0.16536228102E+04  0.15001908710E+04 0.  0.
        5    1    3    3  502    0  0.38871607541E+03  0.64088595054E+03 -0.31690839649E+03  0.81381079536E+03  0.46999998093E+01 0.  1.
       -5    1    3    3    0  502 -0.38871607541E+03 -0.64088595054E+03 -0.37871775953E+03  0.83981201484E+03  0.46999998093E+01 0. -1.
</event>
<event>
 5   0  0.1643498E-05  0.1500048E+04  0.7818609E-02  0.8884421E-01
        1   -1    0    0  501    0  0.00000000000E+00  0.00000000000E+00  0.17636577542E+04  0.17636577542E+04  0.50400001928E-02 0.  1.
       -1   -1    0    0    0  501  0.00000000000E+00  0.00000000000E+00 -0.31895984110E+03  0.31895984114E+03  0.50400001928E-02 0. -1.
    10030    2    1    2    0    0  0.00000000000E+00  0.00000000000E+00  0.14446979131E+04  0.20826175953E+04  0.15000479953E+04 0.  0.
        4    1    3    3  502    0 -0.25381127011E+03  0.50926437401E+03  0.43944300067E+02  0.57070401950E+03  0.12699999809E+01 0. -1.
       -4    1    3    3    0  502  0.25381127011E+03 -0.50926437401E+03  0.14007536130E+04  0.15119135758E+04  0.12699999809E+01 0.  1.
</event>
<event>
 5   0  0.1533777E-05  0.1492685E+04  0.7818609E-02  0.8889332E-01
       -1   -1    0    0    0  501  0.00000000000E+00  0.00000000000E+00  0.48829876682E+03  0.48829876684E+03  0.50400001928E-02 0.  1.
        1   -1    0    0  501    0  0.00000000000E+00  0.00000000000E+00 -0.11407506986E+04  0.11407506986E+04  0.50400001928E-02 0. -1.
    10030    2    1    2    0    0  0.00000000000E+00  0.00000000000E+00 -0.65245193175E+03  0.16290494654E+04  0.14926850430E+04 0.  0.
        5    1    3    3  502    0  0.10093137963E+03  0.60355700113E+02  0.47810728606E+03  0.49238056512E+03  0.46999998093E+01 0.  1.
       -5    1    3    3    0  502 -0.10093137963E+03 -0.60355700113E+02 -0.11305592178E+04  0.11366689003E+04  0.46999998093E+01 0. -1.
</event>
<event>
 5   0  0.3070497E-05  0.1499442E+04  0.7818609E-02  0.8884824E-01
        2   -1    0    0  501    0  0.00000000000E+00  0.00000000000E+00  0.18216417463E+04  0.18216417463E+04  0.25500000920E-02 0.  1.
       -2   -1    0    0    0  501  0.00000000000E+00  0.00000000000E+00 -0.30855781228E+03  0.30855781229E+03  0.25500000920E-02 0. -1.
    10030    2    1    2    0    0  0.00000000000E+00  0.00000000000E+00  0.15130839340E+04  0.21301995586E+04  0.14994422857E+04 0.  0.
        4    1    3    3  502    0 -0.57802716690E+03 -0.47671199256E+03  0.71867529221E+03  0.10382030235E+04  0.12699999809E+01 0.  1.
       -4    1    3    3    0  502  0.57802716690E+03  0.47671199256E+03  0.79440864182E+03  0.10919965351E+04  0.12699999809E+01 0. -1.
</event>
<event>
 5   0  0.3018308E-05  0.1501761E+04  0.7818609E-02  0.8883283E-01
        2   -1    0    0  501    0  0.00000000000E+00  0.00000000000E+00  0.11058327985E+04  0.11058327985E+04  0.25500000920E-02 0.  1.
       -2   -1    0    0    0  501  0.00000000000E+00  0.00000000000E+00 -0.50986131907E+03  0.50986131907E+03  0.25500000920E-02 0. -1.
    10030    2    1    2    0    0  0.00000000000E+00  0.00000000000E+00  0.59597147944E+03  0.16156941176E+04  0.15017607923E+04 0.  0.
        2    1    3    3  502    0 -0.23144582752E+03 -0.59186303767E+03  0.72826824144E+03  0.96656280600E+03  0.25500000920E-02 0.  1.
       -2    1    3    3    0  502  0.23144582752E+03  0.59186303767E+03 -0.13229676200E+03  0.64913131158E+03  0.25500000920E-02 0. -1.
</event>
<event>
 5   0  0.1533777E-05  0.1499881E+04  0.7818609E-02  0.8884532E-01
       -1   -1    0    0    0  501  0.00000000000E+00  0.00000000000E+00  0.42264390389E+03  0.42264390392E+03  0.50400001928E-02 0.  1.
        1   -1    0    0  501    0  0.00000000000E+00  0.00000000000E+00 -0.13306958084E+04  0.13306958084E+04  0.50400001928E-02 0. -1.
    10030    2    1    2    0    0  0.00000000000E+00  0.00000000000E+00 -0.90805190450E+03  0.17533397123E+04  0.14998806237E+04 0.  0.
        5    1    3    3  502    0  0.47994125949E+03  0.56441030680E+03 -0.31827361371E+03  0.80636393159E+03  0.46999998093E+01 0. -1.
       -5    1    3    3    0  502 -0.47994125949E+03 -0.56441030680E+03 -0.58977829078E+03  0.94697578072E+03  0.46999998093E+01 0.  1.
</event>
<event>
 5   0  0.1580078E-05  0.1500547E+04  0.7818609E-02  0.8884089E-01
       -1   -1    0    0    0  501  0.00000000000E+00  0.00000000000E+00  0.37842016600E+03  0.37842016603E+03  0.50400001928E-02 0.  1.
        1   -1    0    0  501    0  0.00000000000E+00  0.00000000000E+00 -0.14875272936E+04  0.14875272936E+04  0.50400001928E-02 0. -1.
    10030    2    1    2    0    0  0.00000000000E+00  0.00000000000E+00 -0.11091071276E+04  0.18659474596E+04  0.15005470008E+04 0.  0.
        2    1    3    3  502    0  0.57357967966E+02  0.28170410145E+03  0.30721263875E+03  0.42074546067E+03  0.25500000920E-02 0.  1.
       -2    1    3    3    0  502 -0.57357967966E+02 -0.28170410145E+03 -0.14163197663E+04  0.14452019990E+04  0.25500000920E-02 0. -1.
</event>
<event>
 5   0  0.3030702E-05  0.1500065E+04  0.7818609E-02  0.8884410E-01
        2   -1    0    0  501    0  0.00000000000E+00  0.00000000000E+00  0.14214972940E+04  0.14214972940E+04  0.25500000920E-02 0. -1.
       -2   -1    0    0    0  501  0.00000000000E+00  0.00000000000E+00 -0.39574365236E+03  0.39574365237E+03  0.25500000920E-02 0.  1.
    10030    2    1    2    0    0  0.00000000000E+00  0.00000000000E+00  0.10257536416E+04  0.18172409464E+04  0.15000647065E+04 0.  0.
        5    1    3    3  502    0  0.66093772070E+03 -0.22795557684E+03  0.84180951367E+03  0.10942887018E+04  0.46999998093E+01 0. -1.
       -5    1    3    3    0  502 -0.66093772070E+03  0.22795557684E+03  0.18394412796E+03  0.72295224452E+03  0.46999998093E+01 0.  1.
</event>
<event>
 5   0  0.1580078E-05  0.1499244E+04  0.7818609E-02  0.8884956E-01
       -1   -1    0    0    0  501  0.00000000000E+00  0.00000000000E+00  0.52746377634E+03  0.52746377636E+03  0.50400001928E-02 0. -1.
        1   -1    0    0  501    0  0.00000000000E+00  0.00000000000E+00 -0.10653487674E+04  0.10653487674E+04  0.50400001928E-02 0.  1.
    10030    2    1    2    0    0  0.00000000000E+00  0.00000000000E+00 -0.53788499108E+03  0.15928125438E+04  0.14992436547E+04 0.  0.
        2    1    3    3  502    0  0.58379103142E+03 -0.41877244583E+03 -0.41699436093E+02  0.71966740424E+03  0.25500000920E-02 0. -1.
       -2    1    3    3    0  502 -0.58379103142E+03  0.41877244583E+03 -0.49618555499E+03  0.87314513956E+03  0.25500000920E-02 0.  1.
</event>
<event>
 5   0  0.1588657E-05  0.1500673E+04  0.7818609E-02  0.8884006E-01
       -1   -1    0    0    0  501  0.00000000000E+00  0.00000000000E+00  0.46193618278E+03  0.46193618281E+03  0.50400001928E-02 0. -1.
        1   -1    0    0  501    0  0.00000000000E+00  0.00000000000E+00 -0.12187928386E+04  0.12187928386E+04  0.50400001928E-02 0.  1.
    10030    2    1    2    0    0  0.00000000000E+00  0.00000000000E+00 -0.75685665583E+03  0.16807290214E+04  0.15006725312E+04 0.  0.
        3    1    3    3  502    0 -0.29836413133E+02 -0.25334822406E+03  0.41187800509E+03  0.48447810627E+03  0.10100000352E+00 0. -1.
       -3    1    3    3    0  502  0.29836413133E+02  0.25334822406E+03 -0.11687346609E+04  0.11962509152E+04  0.10100000352E+00 0.  1.
</event>
<event>
 5   0  0.1576214E-05  0.1500309E+04  0.7818609E-02  0.8884248E-01
        1   -1    0    0  501    0  0.00000000000E+00  0.00000000000E+00  0.22938084171E+04  0.22938084171E+04  0.50400001928E-02 0. -1.
       -1   -1    0    0    0  501  0.00000000000E+00  0.00000000000E+00 -0.24532637809E+03  0.24532637814E+03  0.50400001928E-02 0.  1.
    10030    2    1    2    0    0  0.00000000000E+00  0.00000000000E+00  0.20484820390E+04  0.25391347952E+04  0.15003089163E+04 0.  0.
        1    1    3    3  502    0 -0.39448982688E+03 -0.55883112086E+03  0.50310777287E+03  0.84913595867E+03  0.50400001928E-02 0. -1.
       -1    1    3    3    0  502  0.39448982688E+03  0.55883112086E+03  0.15453742661E+04  0.16899988366E+04  0.50400001928E-02 0.  1.
</event>
<event>
 5   0  0.3093600E-05  0.1499329E+04  0.7818609E-02  0.8884899E-01
       -2   -1    0    0    0  501  0.00000000000E+00  0.00000000000E+00  0.10857961053E+04  0.10857961053E+04  0.25500000920E-02 0.  1.
        2   -1    0    0  501    0  0.00000000000E+00  0.00000000000E+00 -0.51758989848E+03  0.51758989848E+03  0.25500000920E-02 0. -1.
    10030    2    1    2    0    0  0.00000000000E+00  0.00000000000E+00  0.56820620686E+03  0.16033860038E+04  0.14993293113E+04 0.  0.
        1    1    3    3  502    0  0.16838837510E+03 -0.25888398507E+03  0.10146085278E+04  0.10605687282E+04  0.50400001928E-02 0.  1.
       -1    1    3    3    0  502 -0.16838837510E+03  0.25888398507E+03 -0.44640232090E+03  0.54281727563E+03  0.50400001928E-02 0. -1.
</event>
<event>
 5   0  0.1116613E-05  0.1498754E+04  0.7818609E-02  0.8885282E-01
        3   -1    0    0  501    0  0.00000000000E+00  0.00000000000E+00  0.52740820459E+03  0.52740821426E+03  0.10100000352E+00 0. -1.
       -3   -1    0    0    0  501  0.00000000000E+00  0.00000000000E+00 -0.10647646738E+04  0.10647646786E+04  0.10100000352E+00 0.  1.
    10030    2    1    2    0    0  0.00000000000E+00  0.00000000000E+00 -0.53735646926E+03  0.15921728929E+04  0.14987536642E+04 0.  0.
        5    1    3    3  502    0 -0.39215659901E+03 -0.24487395628E+03 -0.89517768528E+03  0.10075292705E+04  0.46999998093E+01 0.  1.
       -5    1    3    3    0  502  0.39215659901E+03  0.24487395628E+03  0.35782121602E+03  0.58464362243E+03  0.46999998093E+01 0. -1.
</event>
<event>
 5   0  0.2969498E-05  0.1499588E+04  0.7818609E-02  0.8884727E-01
       -2   -1    0    0    0  501  0.00000000000E+00  0.00000000000E+00  0.53739762254E+03  0.53739762254E+03  0.25500000920E-02 0. -1.
        2   -1    0    0  501    0  0.00000000000E+00  0.00000000000E+00 -0.10461364994E+04  0.10461364994E+04  0.25500000920E-02 0.  1.
    10030    2    1    2    0    0  0.00000000000E+00  0.00000000000E+00 -0.50873887689E+03  0.15835341220E+04  0.14995883004E+04 0.  0.
        3    1    3    3  502    0 -0.46453976643E+03 -0.45587371510E+03  0.13872331238E+03  0.66547893003E+03  0.10100000352E+00 0.  1.
       -3    1    3    3    0  502  0.46453976643E+03  0.45587371510E+03 -0.64746218927E+03  0.91805519194E+03  0.10100000352E+00 0. -1.
</event>
<event>
 5   0  0.3030702E-05  0.1499977E+04  0.7818609E-02  0.8884468E-01
        2   -1    0    0  501    0  0.00000000000E+00  0.00000000000E+00  0.13684811363E+04  0.13684811363E+04  0.25500000920E-02 0.  1.
       -2   -1    0    0    0  501  0.00000000000E+00  0.00000000000E+00 -0.41102725356E+03  0.41102725356E+03  0.25500000920E-02 0. -1.
    10030    2    1    2    0    0  0.00000000000E+00  0.00000000000E+00  0.95745388278E+03  0.17795083899E+04  0.14999773905E+04 0.  0.
        5    1    3    3  502    0 -0.55583309884E+03 -0.47869392972E+03  0.29355400686E+03  0.79012300122E+03  0.46999998093E+01 0. -1.
       -5    1    3    3    0  502  0.55583309884E+03  0.47869392972E+03  0.66389987592E+03  0.98938538869E+03  0.46999998093E+01 0.  1.
</event>
<event>
 5   0  0.3070497E-05  0.1499506E+04  0.7818609E-02  0.8884781E-01
       -2   -1    0    0    0  501  0.00000000000E+00  0.00000000000E+00  0.45671505125E+03  0.45671505126E+03  0.25500000920E-02 0.  1.
        2   -1    0    0  501    0  0.00000000000E+00  0.00000000000E+00 -0.12308103676E+04  0.12308103676E+04  0.25500000920E-02 0. -1.
    10030    2    1    2    0    0  0.00000000000E+00  0.00000000000E+00 -0.77409531632E+03  0.16875254188E+04  0.14995060788E+04 0.  0.
        4    1    3    3  502    0 -0.62740475274E+03  0.90309420601E+02  0.63579048593E+02  0.63705292051E+03  0.12699999809E+01 0.  1.
       -4    1    3    3    0  502  0.62740475274E+03 -0.90309420601E+02 -0.83767436492E+03  0.10504724983E+04  0.12699999809E+01 0. -1.
</event>
<event>
 5   0  0.3093600E-05  0.1500280E+04  0.7818609E-02  0.8884267E-01
        2   -1    0    0  501    0  0.00000000000E+00  0.00000000000E+00  0.53061415083E+03  0.53061415084E+03  0.25500000920E-02 0.  1.
       -2   -1    0    0    0  501  0.00000000000E+00  0.00000000000E+00 -0.10604884027E+04  0.10604884027E+04  0.25500000920E-02 0. -1.
    10030    2    1    2    0    0  0.00000000000E+00  0.00000000000E+00 -0.52987425183E+03  0.15911025535E+04  0.15002801782E+04 0.  0.
        1    1    3    3  502    0  0.61931317231E+03 -0.41762295489E+03 -0.19182607990E+03  0.77120359361E+03  0.50400001928E-02 0.  1.
       -1    1    3    3    0  502 -0.61931317231E+03  0.41762295489E+03 -0.33804817193E+03  0.81989895988E+03  0.50400001928E-02 0. -1.
</event>
<event>
 5   0  0.1580078E-05  0.1500174E+04  0.7818609E-02  0.8884337E-01
        1   -1    0    0  501    0  0.00000000000E+00  0.00000000000E+00  0.16078328283E+04  0.16078328283E+04  0.50400001928E-02 0.  1.
       -1   -1    0    0    0  501  0.00000000000E+00  0.00000000000E+00 -0.34993117303E+03  0.34993117307E+03  0.50400001928E-02 0. -1.
    10030    2    1    2    0    0  0.00000000000E+00  0.00000000000E+00  0.12579016552E+04  0.19577640013E+04  0.15001744268E+04 0.  0.
        2    1    3    3  502    0  0.18087105463E+03  0.40576829437E+03 -0.15977259685E+03  0.47211177684E+03  0.25500000920E-02 0. -1.
       -2    1    3    3    0  502 -0.18087105463E+03 -0.40576829437E+03  0.14176742521E+04  0.14856522245E+04  0.25500000920E-02 0.  1.
</event>
<event>
 5   0  0.1588657E-05  0.1499992E+04  0.7818609E-02  0.8884459E-01
       -1   -1    0    0    0  501  0.00000000000E+00  0.00000000000E+00  0.10320475489E+04  0.10320475489E+04  0.50400001928E-02 0.  1.
        1   -1    0    0  501    0  0.00000000000E+00  0.00000000000E+00 -0.54502686887E+03  0.54502686889E+03  0.50400001928E-02 0. -1.
    10030    2    1    2    0    0  0.00000000000E+00  0.00000000000E+00  0.48702068004E+03  0.15770744178E+04  0.14999915255E+04 0.  0.
        3    1    3    3  502    0 -0.21014449107E+03 -0.66055048575E+03  0.54459328121E+03  0.88151545845E+03  0.10100000352E+00 0.  1.
       -3    1    3    3    0  502  0.21014449107E+03  0.66055048575E+03 -0.57572601166E+02  0.69555895937E+03  0.10100000352E+00 0. -1.
</event>
<event>
 5   0  0.2969498E-05  0.1499676E+04  0.7818609E-02  0.8884668E-01
       -2   -1    0    0    0  501  0.00000000000E+00  0.00000000000E+00  0.85245870701E+03  0.85245870702E+03  0.25500000920E-02 0.  1.
        2   -1    0    0  501    0  0.00000000000E+00  0.00000000000E+00 -0.65957103842E+03  0.65957103842E+03  0.25500000920E-02 0. -1.
    10030    2    1    2    0    0  0.00000000000E+00  0.00000000000E+00  0.19288766860E+03  0.15120297454E+04  0.14996760645E+04 0.  0.
        3    1    3    3  502    0  0.74172783845E+03  0.10799391875E+03  0.11745274698E+03  0.75869495239E+03  0.10100000352E+00 0.  1.
       -3    1    3    3    0  502 -0.74172783845E+03 -0.10799391875E+03  0.75434921616E+02  0.75333479305E+03  0.10100000352E+00 0. -1.
</event>
<event>
 5   0  0.2969498E-05  0.1499870E+04  0.7818609E-02  0.8884540E-01
        2   -1    0    0  501    0  0.00000000000E+00  0.00000000000E+00  0.10374055338E+04  0.10374055338E+04  0.25500000920E-02 0.  1.
       -2   -1    0    0    0  501  0.00000000000E+00  0.00000000000E+00 -0.54212392126E+03  0.54212392127E+03  0.25500000920E-02 0. -1.
    10030    2    1    2    0    0  0.00000000000E+00  0.00000000000E+00  0.49528161252E+03  0.15795294550E+04  0.14998698022E+04 0.  0.
        3    1    3    3  502    0  0.23393014733E+03  0.26605056910E+02  0.99747598785E+03  0.10248851152E+04  0.10100000352E+00 0.  1.
       -3    1    3    3    0  502 -0.23393014733E+03 -0.26605056910E+02 -0.50219437533E+03  0.55464433982E+03  0.10100000352E+00 0. -1.
</event>
<event>
 5   0  0.1580078E-05  0.1499158E+04  0.7818609E-02  0.8885013E-01
       -1   -1    0    0    0  501  0.00000000000E+00  0.00000000000E+00  0.87427240990E+03  0.87427240992E+03  0.50400001928E-02 0.  1.
        1   -1    0    0  501    0  0.00000000000E+00  0.00000000000E+00 -0.64267031491E+03  0.64267031493E+03  0.50400001928E-02 0. -1.
    10030    2    1    2    0    0  0.00000000000E+00  0.00000000000E+00  0.23160209499E+03  0.15169427248E+04  0.14991583305E+04 0.  0.
        2    1    3    3  502    0 -0.31420198139E+03  0.40212288113E+03 -0.43975060943E+03  0.67365146414E+03  0.25500000920E-02 0. -1.
       -2    1    3    3    0  502  0.31420198139E+03 -0.40212288113E+03  0.67135270442E+03  0.84329126070E+03  0.25500000920E-02 0.  1.
</event>
<event>
 5   0  0.1576214E-05  0.1499542E+04  0.7818609E-02  0.8884758E-01
       -1   -1    0    0    0  501  0.00000000000E+00  0.00000000000E+00  0.11425444362E+04  0.11425444362E+04  0.50400001928E-02 0.  1.
        1   -1    0    0  501    0  0.00000000000E+00  0.00000000000E+00 -0.49202156320E+03  0.49202156322E+03  0.50400001928E-02 0. -1.
    10030    2    1    2    0    0  0.00000000000E+00  0.00000000000E+00  0.65052287297E+03  0.16345659994E+04  0.14995419294E+04 0.  0.
        1    1    3    3  502    0  0.58370570067E+03  0.23612834003E+03 -0.11843792152E+03  0.64069999161E+03  0.50400001928E-02 0. -1.
       -1    1    3    3    0  502 -0.58370570067E+03 -0.23612834003E+03  0.76896079449E+03  0.99386600780E+03  0.50400001928E-02 0.  1.
</event>
<event>
 5   0  0.3030702E-05  0.1500176E+04  0.7818609E-02  0.8884336E-01
       -2   -1    0    0    0  501  0.00000000000E+00  0.00000000000E+00  0.48386253752E+03  0.48386253753E+03  0.25500000920E-02 0.  1.
        2   -1    0    0  501    0  0.00000000000E+00  0.00000000000E+00 -0.11627929220E+04  0.11627929220E+04  0.25500000920E-02 0. -1.
    10030    2    1    2    0    0  0.00000000000E+00  0.00000000000E+00 -0.67893038451E+03  0.16466554596E+04  0.15001759015E+04 0.  0.
        5    1    3    3  502    0 -0.62882095777E+03  0.20384834127E+03 -0.72853214714E+03  0.98374342315E+03  0.46999998093E+01 0. -1.
       -5    1    3    3    0  502  0.62882095777E+03 -0.20384834127E+03  0.49601762630E+02  0.66291203642E+03  0.46999998093E+01 0.  1.
</event>
<event>
 5   0  0.1643498E-05  0.1501306E+04  0.7818609E-02  0.8883585E-01
       -1   -1    0    0    0  501  0.00000000000E+00  0.00000000000E+00  0.35955075418E+03  0.35955075421E+03  0.50400001928E-02 0.  1.
        1   -1    0    0  501    0  0.00000000000E+00  0.00000000000E+00 -0.15671778747E+04  0.15671778747E+04  0.50400001928E-02 0. -1.
    10030    2    1    2    0    0  0.00000000000E+00  0.00000000000E+00 -0.12076271205E+04  0.19267286289E+04  0.15013060805E+04 0.  0.
        4    1    3    3  502    0  0.69817939854E+01 -0.16092151618E+03 -0.15447368837E+04  0.15531124018E+04  0.12699999809E+01 0. -1.
       -4    1    3    3    0  502 -0.69817939854E+01  0.16092151618E+03  0.33710976320E+03  0.37361622711E+03  0.12699999809E+01 0.  1.
</event>
<event>
 5   0  0.1576214E-05  0.1492247E+04  0.7818609E-02  0.8889625E-01
        1   -1    0    0  501    0  0.00000000000E+00  0.00000000000E+00  0.56122930257E+03  0.56122930259E+03  0.50400001928E-02 0.  1.
       -1   -1    0    0    0  501  0.00000000000E+00  0.00000000000E+00 -0.99193075021E+03  0.99193075022E+03  0.50400001928E-02 0. -1.
    10030    2    1    2    0    0  0.00000000000E+00  0.00000000000E+00 -0.43070144764E+03  0.15531600528E+04  0.14922474368E+04 0.  0.
        1    1    3    3  502    0 -0.55336438731E+03  0.46400097689E+03 -0.41060231288E+03  0.83072456992E+03  0.50400001928E-02 0. -1.
       -1    1    3    3    0  502  0.55336438731E+03 -0.46400097689E+03 -0.20099134759E+02  0.72243548289E+03  0.50400001928E-02 0.  1.
</event>
<event>
 5   0  0.3070497E-05  0.1500974E+04  0.7818609E-02  0.8883806E-01
        2   -1    0    0  501    0  0.00000000000E+00  0.00000000000E+00  0.18797741310E+04  0.18797741310E+04  0.25500000920E-02 0.  1.
       -2   -1    0    0    0  501  0.00000000000E+00  0.00000000000E+00 -0.29962672444E+03  0.29962672446E+03  0.25500000920E-02 0. -1.
    10030    2    1    2    0    0  0.00000000000E+00  0.00000000000E+00  0.15801474066E+04  0.21794008555E+04  0.15009737714E+04 0.  0.
        4    1    3    3  502    0  0.13724662304E+03  0.59005383590E+02 -0.27781696811E+03  0.31543961625E+03  0.12699999809E+01 0. -1.
       -4    1    3    3    0  502 -0.13724662304E+03 -0.59005383590E+02  0.18579643747E+04  0.18639612392E+04  0.12699999809E+01 0.  1.
</event>
<event>
 5   0  0.1588657E-05  0.1500133E+04  0.7818609E-02  0.8884365E-01
        1   -1    0    0  501    0  0.00000000000E+00  0.00000000000E+00  0.13883295783E+04  0.13883295783E+04  0.50400001928E-02 0. -1.
       -1   -1    0    0    0  501  0.00000000000E+00  0.00000000000E+00 -0.40523488091E+03  0.40523488094E+03  0.50400001928E-02 0.  1.
    10030    2    1    2    0    0  0.00000000000E+00  0.00000000000E+00  0.98309469738E+03  0.17935644592E+04  0.15001327559E+04 0.  0.
        3    1    3    3  502    0  0.28673054061E+03  0.49608543204E+03  0.10702546789E+04  0.12139852745E+04  0.10100000352E+00 0. -1.
       -3    1    3    3    0  502 -0.28673054061E+03 -0.49608543204E+03 -0.87159981514E+02  0.57957918474E+03  0.10100000352E+00 0.  1.
</event>
<event>
 5   0  0.1576214E-05  0.1501504E+04  0.7818609E-02  0.8883453E-01
       -1   -1    0    0    0  501  0.00000000000E+00  0.00000000000E+00  0.29403482542E+03  0.29403482547E+03  0.50400001928E-02 0.  1.
        1   -1    0    0  501    0  0.00000000000E+00  0.00000000000E+00 -0.19168772677E+04  0.19168772677E+04  0.50400001928E-02 0. -1.
    10030    2    1    2    0    0  0.00000000000E+00  0.00000000000E+00 -0.16228424422E+04  0.22109120931E+04  0.15015041429E+04 0.  0.
        1    1    3    3  502    0 -0.72801446856E+03  0.95000324257E+02 -0.10423614797E+04  0.12749696398E+04  0.50400001928E-02 0.  1.
       -1    1    3    3    0  502  0.72801446856E+03 -0.95000324257E+02 -0.58048096253E+03  0.93594245332E+03  0.50400001928E-02 0. -1.
</event>
<event>
 5   0  0.1576214E-05  0.1500518E+04  0.7818609E-02  0.8884108E-01
       -1   -1    0    0    0  501  0.00000000000E+00  0.00000000000E+00  0.48276626142E+03  0.48276626144E+03  0.50400001928E-02 0.  1.
        1   -1    0    0  501    0  0.00000000000E+00  0.00000000000E+00 -0.11659654978E+04  0.11659654978E+04  0.50400001928E-02 0. -1.
    10030    2    1    2    0    0  0.00000000000E+00  0.00000000000E+00 -0.68319923642E+03  0.16487317593E+04  0.15005183163E+04 0.  0.
        1    1    3    3  502    0 -0.36267060431E+02  0.68651044334E+03 -0.11460444807E+02  0.68756325550E+03  0.50400001928E-02 0.  1.
       -1    1    3    3    0  502  0.36267060431E+02 -0.68651044334E+03 -0.67173879161E+03  0.96116850379E+03  0.50400001928E-02 0. -1.
</event>
<event>
 5   0  0.1533777E-05  0.1500087E+04  0.7818609E-02  0.8884395E-01
       -1   -1    0    0    0  501  0.00000000000E+00  0.00000000000E+00  0.11545855106E+04  0.11545855106E+04  0.50400001928E-02 0.  1.
        1   -1    0    0  501    0  0.00000000000E+00  0.00000000000E+00 -0.48724463713E+03  0.48724463716E+03  0.50400001928E-02 0. -1.
    10030    2    1    2    0    0  0.00000000000E+00  0.00000000000E+00  0.66734087349E+03  0.16418301478E+04  0.15000874617E+04 0.  0.
        5    1    3    3  502    0  0.40771158719E+03 -0.27876619128E+03  0.95145546613E+03  0.10720209521E+04  0.46999998093E+01 0.  1.
       -5    1    3    3    0  502 -0.40771158719E+03  0.27876619128E+03 -0.28411459264E+03  0.56980919568E+03  0.46999998093E+01 0. -1.
</event>
<event>
 5   0  0.1533777E-05  0.1500467E+04  0.7818609E-02  0.8884143E-01
        1   -1    0    0  501    0  0.00000000000E+00  0.00000000000E+00  0.10169974315E+04  0.10169974315E+04  0.50400001928E-02 0. -1.
       -1   -1    0    0    0  501  0.00000000000E+00  0.00000000000E+00 -0.55344309531E+03  0.55344309533E+03  0.50400001928E-02 0.  1.
    10030    2    1    2    0    0  0.00000000000E+00  0.00000000000E+00  0.46355433622E+03  0.15704405269E+04  0.15004668693E+04 0.  0.
        5    1    3    3  502    0 -0.73171155763E+03  0.67477323260E+02  0.39006875146E+03  0.83194393657E+03  0.46999998093E+01 0. -1.
       -5    1    3    3    0  502  0.73171155763E+03 -0.67477323260E+02  0.73485584760E+02  0.73849659031E+03  0.46999998093E+01 0.  1.
</event>
<event>
 5   0  0.1580078E-05  0.1499017E+04  0.7818609E-02  0.8885107E-01
       -1   -1    0    0    0  501  0.00000000000E+00  0.00000000000E+00  0.71331972437E+03  0.71331972439E+03  0.50400001928E-02 0.  1.
        1   -1    0    0  501    0  0.00000000000E+00  0.00000000000E+00 -0.78753313118E+03  0.78753313119E+03  0.50400001928E-02 0. -1.
    10030    2    1    2    0    0  0.00000000000E+00  0.00000000000E+00 -0.74213406801E+02  0.15008528556E+04  0.14990168993E+04 0.  0.
        2    1    3    3  502    0 -0.30626986654E+03  0.43031269217E+03 -0.56954055852E+03  0.77675394560E+03  0.25500000920E-02 0. -1.
       -2    1    3    3    0  502  0.30626986654E+03 -0.43031269217E+03  0.49532715172E+03  0.72409890998E+03  0.25500000920E-02 0.  1.
</event>
<event>
 5   0  0.1580078E-05  0.1500345E+04  0.7818609E-02  0.8884224E-01
       -1   -1    0    0    0  501  0.00000000000E+00  0.00000000000E+00  0.27736447897E+03  0.27736447902E+03  0.50400001928E-02 0.  1.
        1   -1    0    0  501    0  0.00000000000E+00  0.00000000000E+00 -0.20289504407E+04  0.20289504407E+04  0.50400001928E-02 0. -1.
    10030    2    1    2    0    0  0.00000000000E+00  0.00000000000E+00 -0.17515859618E+04  0.23063149198E+04  0.15003450029E+04 0.  0.
        2    1    3    3  502    0  0.18945941094E+03  0.69922796314E+03 -0.57635975039E+03  0.92574573977E+03  0.25500000920E-02 0.  1.
       -2    1    3    3    0  502 -0.18945941094E+03 -0.69922796314E+03 -0.11752262114E+04  0.13805691800E+04  0.25500000920E-02 0. -1.
</event>
<event>
 5   0  0.1580078E-05  0.1500764E+04  0.7818609E-02  0.8883945E-01
        1   -1    0    0  501    0  0.00000000000E+00  0.00000000000E+00  0.13933455901E+04  0.13933455901E+04  0.50400001928E-02 0. -1.
       -1   -1    0    0    0  501  0.00000000000E+00  0.00000000000E+00 -0.40411618125E+03  0.40411618128E+03  0.50400001928E-02 0.  1.
    10030    2    1    2    0    0  0.00000000000E+00  0.00000000000E+00  0.98922940882E+03  0.17974617714E+04  0.15007644706E+04 0.  0.
        2    1    3    3  502    0  0.59275413483E+03 -0.20073763756E+03  0.99049679110E+03  0.11716385777E+04  0.25500000920E-02 0. -1.
       -2    1    3    3    0  502 -0.59275413483E+03  0.20073763756E+03 -0.12673822789E+01  0.62582319369E+03  0.25500000920E-02 0.  1.
</event>
<event>
 5   0  0.3030702E-05  0.1502461E+04  0.7818609E-02  0.8882818E-01
       -2   -1    0    0    0  501  0.00000000000E+00  0.00000000000E+00  0.39022761002E+03  0.39022761003E+03  0.25500000920E-02 0. -1.
        2   -1    0    0  501    0  0.00000000000E+00  0.00000000000E+00 -0.14462002758E+04  0.14462002758E+04  0.25500000920E-02 0.  1.
    10030    2    1    2    0    0  0.00000000000E+00  0.00000000000E+00 -0.10559726658E+04  0.18364278858E+04  0.15024610174E+04 0.  0.
        5    1    3    3  502    0  0.15637036994E+03  0.38763512846E+03  0.23494791051E+03  0.47951568907E+03  0.46999998093E+01 0. -1.
       -5    1    3    3    0  502 -0.15637036994E+03 -0.38763512846E+03 -0.12909205763E+04  0.13569121967E+04  0.46999998093E+01 0.  1.
</event>
<event>
 5   0  0.1576214E-05  0.1498506E+04  0.7818609E-02  0.8885447E-01
       -1   -1    0    0    0  501  0.00000000000E+00  0.00000000000E+00  0.15329959265E+04  0.15329959265E+04  0.50400001928E-02 0. -1.
        1   -1    0    0  501    0  0.00000000000E+00  0.00000000000E+00 -0.36619798785E+03  0.36619798789E+03  0.50400001928E-02 0.  1.
    10030    2    1    2    0    0  0.00000000000E+00  0.00000000000E+00  0.11667979387E+04  0.18991939144E+04  0.14985059542E+04 0.  0.
        1    1    3    3  502    0  0.72720320872E+02  0.34497226249E+03  0.14213029309E+04  0.14643756787E+04  0.50400001928E-02 0. -1.
       -1    1    3    3    0  502 -0.72720320872E+02 -0.34497226249E+03 -0.25450499228E+03  0.43481823568E+03  0.50400001928E-02 0.  1.
</event>
<event>
 5   0  0.1116613E-05  0.1499948E+04  0.7818609E-02  0.8884487E-01
       -3   -1    0    0    0  501  0.00000000000E+00  0.00000000000E+00  0.66655832921E+03  0.66655833686E+03  0.10100000352E+00 0. -1.
        3   -1    0    0  501    0  0.00000000000E+00  0.00000000000E+00 -0.84382877107E+03  0.84382877712E+03  0.10100000352E+00 0.  1.
    10030    2    1    2    0    0  0.00000000000E+00  0.00000000000E+00 -0.17727044187E+03  0.15103871140E+04  0.14999481406E+04 0.  0.
        4    1    3    3  502    0 -0.61686617355E+02  0.43732103564E+03 -0.69899274493E+03  0.82682972693E+03  0.12699999809E+01 0.  1.
       -4    1    3    3    0  502  0.61686617355E+02 -0.43732103564E+03  0.52172230306E+03  0.68355738705E+03  0.12699999809E+01 0. -1.
</event>
<event>
 5   0  0.3030702E-05  0.1500672E+04  0.7818609E-02  0.8884006E-01
       -2   -1    0    0    0  501  0.00000000000E+00  0.00000000000E+00  0.34396706061E+03  0.34396706062E+03  0.25500000920E-02 0. -1.
        2   -1    0    0  501    0  0.00000000000E+00  0.00000000000E+00 -0.16367959955E+04  0.16367959955E+04  0.25500000920E-02 0.  1.
    10030    2    1    2    0    0  0.00000000000E+00  0.00000000000E+00 -0.12928289349E+04  0.19807630562E+04  0.15006717261E+04 0.  0.
        5    1    3    3  502    0  0.65441306919E+03  0.60069825579E+02 -0.16847127890E+03  0.67843165528E+03  0.46999998093E+01 0.  1.
       -5    1    3    3    0  502 -0.65441306919E+03 -0.60069825579E+02 -0.11243576560E+04  0.13023314009E+04  0.46999998093E+01 0. -1.
</event>
<event>
 5   0  0.1643498E-05  0.1500143E+04  0.7818609E-02  0.8884358E-01
        1   -1    0    0  501    0  0.00000000000E+00  0.00000000000E+00  0.11625074592E+04  0.11625074592E+04  0.50400001928E-02 0. -1.
       -1   -1    0    0    0  501  0.00000000000E+00  0.00000000000E+00 -0.48396004526E+03  0.48396004528E+03  0.50400001928E-02 0.  1.
    10030    2    1    2    0    0  0.00000000000E+00  0.00000000000E+00  0.67854741396E+03  0.16464675045E+04  0.15001428767E+04 0.  0.
        4    1    3    3  502    0 -0.67150425207E+03  0.70479360158E+02  0.69781894134E+03  0.97099855229E+03  0.12699999809E+01 0. -1.
       -4    1    3    3    0  502  0.67150425207E+03 -0.70479360158E+02 -0.19271527379E+02  0.67546895222E+03  0.12699999809E+01 0.  1.
</event>
<event>
 5   0  0.3070497E-05  0.1495065E+04  0.7818609E-02  0.8887741E-01
       -2   -1    0    0    0  501  0.00000000000E+00  0.00000000000E+00  0.40713704284E+03  0.40713704285E+03  0.25500000920E-02 0. -1.
        2   -1    0    0  501    0  0.00000000000E+00  0.00000000000E+00 -0.13725223391E+04  0.13725223391E+04  0.25500000920E-02 0.  1.
    10030    2    1    2    0    0  0.00000000000E+00  0.00000000000E+00 -0.96538529624E+03  0.17796593819E+04  0.14950647964E+04 0.  0.
        4    1    3    3  502    0 -0.59735883471E+03 -0.19238774184E+03 -0.96614787716E+03  0.11520824424E+04  0.12699999809E+01 0.  1.
       -4    1    3    3    0  502  0.59735883471E+03  0.19238774184E+03  0.76258092423E+00  0.62757693954E+03  0.12699999809E+01 0. -1.
</event>
<event>
 5   0  0.3093600E-05  0.1496926E+04  0.7818609E-02  0.8886500E-01
        2   -1    0    0  501    0  0.00000000000E+00  0.00000000000E+00  0.25889043644E+03  0.25889043646E+03  0.25500000920E-02 0.  1.
       -2   -1    0    0    0  501  0.00000000000E+00  0.00000000000E+00 -0.21638369687E+04  0.21638369687E+04  0.25500000920E-02 0. -1.
    10030    2    1    2    0    0  0.00000000000E+00  0.00000000000E+00 -0.19049465323E+04  0.24227274052E+04  0.14969257794E+04 0.  0.
        1    1    3    3  502    0  0.20837721662E+03 -0.71564024516E+03 -0.10626560651E+04  0.12979984351E+04  0.50400001928E-02 0.  1.
       -1    1    3    3    0  502 -0.20837721662E+03  0.71564024516E+03 -0.84229046715E+03  0.11247289700E+04  0.50400001928E-02 0. -1.
</event>
<event>
 5   0  0.1588657E-05  0.1500436E+04  0.7818609E-02  0.8884163E-01
        1   -1    0    0  501    0  0.00000000000E+00  0.00000000000E+00  0.19093416412E+04  0.19093416412E+04  0.50400001928E-02 0. -1.
       -1   -1    0    0    0  501  0.00000000000E+00  0.00000000000E+00 -0.29477532892E+03  0.29477532897E+03  0.50400001928E-02 0.  1.
    10030    2    1    2    0    0  0.00000000000E+00  0.00000000000E+00  0.16145663123E+04  0.22041169702E+04  0.15004356839E+04 0.  0.
        3    1    3    3  502    0  0.31523480267E+03  0.35991788323E+03 -0.41572558520E+02  0.48025217470E+03  0.10100000352E+00 0.  1.
       -3    1    3    3    0  502 -0.31523480267E+03 -0.35991788323E+03  0.16561388708E+04  0.17238647954E+04  0.10100000352E+00 0. -1.
</event>
<event>
 5   0  0.2969498E-05  0.1501229E+04  0.7818609E-02  0.8883636E-01
       -2   -1    0    0    0  501  0.00000000000E+00  0.00000000000E+00  0.55716244839E+03  0.55716244839E+03  0.25500000920E-02 0. -1.
        2   -1    0    0  501    0  0.00000000000E+00  0.00000000000E+00 -0.10112353484E+04  0.10112353484E+04  0.25500000920E-02 0.  1.
    10030    2    1    2    0    0  0.00000000000E+00  0.00000000000E+00 -0.45407290001E+03  0.15683977968E+04  0.15012293131E+04 0.  0.
        3    1    3    3  502    0 -0.13422775761E+03  0.68628718534E+03  0.57960294922E+02  0.70168839071E+03  0.10100000352E+00 0. -1.
       -3    1    3    3    0  502  0.13422775761E+03 -0.68628718534E+03 -0.51203319493E+03  0.86670940608E+03  0.10100000352E+00 0.  1.
</event>
<event>
 5   0  0.1643498E-05  0.1500848E+04  0.7818609E-02  0.8883890E-01
       -1   -1    0    0    0  501  0.00000000000E+00  0.00000000000E+00  0.43566430367E+03  0.43566430370E+03  0.50400001928E-02 0.  1.
        1   -1    0    0  501    0  0.00000000000E+00  0.00000000000E+00 -0.12925912080E+04  0.12925912081E+04  0.50400001928E-02 0. -1.
    10030    2    1    2    0    0  0.00000000000E+00  0.00000000000E+00 -0.85692690437E+03  0.17282555118E+04  0.15008475587E+04 0.  0.
        4    1    3    3  502    0  0.64546395611E+03  0.30202993497E+03 -0.69922595368E+03  0.99838086292E+03  0.12699999809E+01 0. -1.
       -4    1    3    3    0  502 -0.64546395611E+03 -0.30202993497E+03 -0.15770095070E+03  0.72987464883E+03  0.12699999809E+01 0.  1.
</event>
<event>
 5   0  0.3018308E-05  0.1493833E+04  0.7818609E-02  0.8888564E-01
        2   -1    0    0  501    0  0.00000000000E+00  0.00000000000E+00  0.12509501704E+04  0.12509501704E+04  0.25500000920E-02 0. -1.
       -2   -1    0    0    0  501  0.00000000000E+00  0.00000000000E+00 -0.44596849906E+03  0.44596849907E+03  0.25500000920E-02 0.  1.
    10030    2    1    2    0    0  0.00000000000E+00  0.00000000000E+00  0.80498167138E+03  0.16969186695E+04  0.14938331499E+04 0.  0.
        2    1    3    3  502    0  0.55404364067E+03 -0.26831997681E+03 -0.78009532675E+02  0.62052030823E+03  0.25500000920E-02 0.  1.
       -2    1    3    3    0  502 -0.55404364067E+03  0.26831997681E+03  0.88299120406E+03  0.10763983613E+04  0.25500000920E-02 0. -1.
</event>
<event>
 5   0  0.1643498E-05  0.1501575E+04  0.7818609E-02  0.8883406E-01
       -1   -1    0    0    0  501  0.00000000000E+00  0.00000000000E+00  0.12160789905E+04  0.12160789905E+04  0.50400001928E-02 0. -1.
        1   -1    0    0  501    0  0.00000000000E+00  0.00000000000E+00 -0.46352418800E+03  0.46352418802E+03  0.50400001928E-02 0.  1.
    10030    2    1    2    0    0  0.00000000000E+00  0.00000000000E+00  0.75255480247E+03  0.16796031785E+04  0.15015752084E+04 0.  0.
        4    1    3    3  502    0 -0.20982351498E+03  0.35335212031E+03  0.10791011084E+04  0.11547053492E+04  0.12699999809E+01 0. -1.
       -4    1    3    3    0  502  0.20982351498E+03 -0.35335212031E+03 -0.32654630596E+03  0.52489782930E+03  0.12699999809E+01 0.  1.
</event>
<event>
 5   0  0.1643498E-05  0.1499512E+04  0.7818609E-02  0.8884777E-01
       -1   -1    0    0    0  501  0.00000000000E+00  0.00000000000E+00  0.28375093514E+03  0.28375093518E+03  0.50400001928E-02 0.  1.
        1   -1    0    0  501    0  0.00000000000E+00  0.00000000000E+00 -0.19810830661E+04  0.19810830661E+04  0.50400001928E-02 0. -1.
    10030    2    1    2    0    0  0.00000000000E+00  0.00000000000E+00 -0.16973321310E+04  0.22648340013E+04  0.14995121509E+04 0.  0.
        4    1    3    3  502    0 -0.60837244245E+03 -0.31927511876E+03 -0.13019788792E+04  0.14721427394E+04  0.12699999809E+01 0. -1.
       -4    1    3    3    0  502  0.60837244245E+03  0.31927511876E+03 -0.39535325173E+03  0.79269126193E+03  0.12699999809E+01 0.  1.
</event>
<event>
 5   0  0.1580078E-05  0.1510563E+04  0.7818609E-02  0.8877459E-01
        1   -1    0    0  501    0  0.00000000000E+00  0.00000000000E+00  0.10888741465E+04  0.10888741465E+04  0.50400001928E-02 0.  1.
       -1   -1    0    0    0  501  0.00000000000E+00  0.00000000000E+00 -0.52388961487E+03  0.52388961489E+03  0.50400001928E-02 0. -1.
    10030    2    1    2    0    0  0.00000000000E+00  0.00000000000E+00  0.56498453161E+03  0.16127637614E+04  0.15105626200E+04 0.  0.
        2    1    3    3  502    0  0.34106599245E+03 -0.10791105929E+03  0.99268852261E+03  0.10551783313E+04  0.25500000920E-02 0.  1.
       -2    1    3    3    0  502 -0.34106599245E+03  0.10791105929E+03 -0.42770399100E+03  0.55758543008E+03  0.25500000920E-02 0. -1.
</event>
<event>
 5   0  0.3018308E-05  0.1501216E+04  0.7818609E-02  0.8883645E-01
       -2   -1    0    0    0  501  0.00000000000E+00  0.00000000000E+00  0.34652973678E+03  0.34652973679E+03  0.25500000920E-02 0.  1.
        2   -1    0    0  501    0  0.00000000000E+00  0.00000000000E+00 -0.16258703101E+04  0.16258703101E+04  0.25500000920E-02 0. -1.
    10030    2    1    2    0    0  0.00000000000E+00  0.00000000000E+00 -0.12793405733E+04  0.19724000469E+04  0.15012160545E+04 0.  0.
        2    1    3    3  502    0 -0.62925956913E+03 -0.26411395090E+03 -0.10503221568E+04  0.12525575505E+04  0.25500000920E-02 0. -1.
       -2    1    3    3    0  502  0.62925956913E+03  0.26411395090E+03 -0.22901841652E+03  0.71984249632E+03  0.25500000920E-02 0.  1.
</event>
<event>
 5   0  0.3093600E-05  0.1499126E+04  0.7818609E-02  0.8885034E-01
       -2   -1    0    0    0  501  0.00000000000E+00  0.00000000000E+00  0.50540186932E+03  0.50540186932E+03  0.25500000920E-02 0. -1.
        2   -1    0    0  501    0  0.00000000000E+00  0.00000000000E+00 -0.11116792617E+04  0.11116792617E+04  0.25500000920E-02 0.  1.
    10030    2    1    2    0    0  0.00000000000E+00  0.00000000000E+00 -0.60627739242E+03  0.16170811311E+04  0.14991261147E+04 0.  0.
        1    1    3    3  502    0 -0.66621247241E+03  0.48320139530E+02  0.63725783435E+02  0.67099543201E+03  0.50400001928E-02 0. -1.
       -1    1    3    3    0  502  0.66621247241E+03 -0.48320139530E+02 -0.67000317586E+03  0.94608569905E+03  0.50400001928E-02 0.  1.
</event>
<event>
 5   0  0.1116613E-05  0.1499612E+04  0.7818609E-02  0.8884711E-01
        4   -1    0    0  501    0  0.00000000000E+00  0.00000000000E+00  0.59791811801E+03  0.59791946677E+03  0.12699999809E+01 0. -1.
       -4   -1    0    0    0  501  0.00000000000E+00  0.00000000000E+00 -0.94027453045E+03  0.94027538813E+03  0.12699999809E+01 0.  1.
    10030    2    1    2    0    0  0.00000000000E+00  0.00000000000E+00 -0.34235641245E+03  0.15381948549E+04  0.14996117826E+04 0.  0.
        1    1    3    3  502    0  0.69070922086E+03  0.11443627660E+03 -0.44647504985E+03  0.83037031459E+03  0.50400001928E-02 0. -1.
       -1    1    3    3    0  502 -0.69070922086E+03 -0.11443627660E+03  0.10411863740E+03  0.70782454031E+03  0.50400001928E-02 0.  1.
</event>
<event>
 5   0  0.3093600E-05  0.1500206E+04  0.7818609E-02  0.8884316E-01
       -2   -1    0    0    0  501  0.00000000000E+00  0.00000000000E+00  0.33909052680E+03  0.33909052681E+03  0.25500000920E-02 0. -1.
        2   -1    0    0  501    0  0.00000000000E+00  0.00000000000E+00 -0.16593055662E+04  0.16593055662E+04  0.25500000920E-02 0.  1.
    10030    2    1    2    0    0  0.00000000000E+00  0.00000000000E+00 -0.13202150394E+04  0.19983960930E+04  0.15002063839E+04 0.  0.
        1    1    3    3  502    0  0.41238710327E+03 -0.30579333253E+03 -0.13886011909E+04  0.14804681531E+04  0.50400001928E-02 0.  1.
       -1    1    3    3    0  502 -0.41238710327E+03  0.30579333253E+03  0.68386151456E+02  0.51792793988E+03  0.50400001928E-02 0. -1.
</event>
<event>
 5   0  0.1576214E-05  0.1499617E+04  0.7818609E-02  0.8884708E-01
        1   -1    0    0  501    0  0.00000000000E+00  0.00000000000E+00  0.16182347926E+04  0.16182347926E+04  0.50400001928E-02 0.  1.
       -1   -1    0    0    0  501  0.00000000000E+00  0.00000000000E+00 -0.34742353154E+03  0.34742353157E+03  0.50400001928E-02 0. -1.
    10030    2    1    2    0    0  0.00000000000E+00  0.00000000000E+00  0.12708112611E+04  0.19656583242E+04  0.14996170799E+04 0.  0.
        1    1    3    3  502    0  0.54612733987E+02  0.32294648469E+02 -0.34389863754E+03  0.34970239913E+03  0.50400001928E-02 0. -1.
       -1    1    3    3    0  502 -0.54612733987E+02 -0.32294648469E+02  0.16147098986E+04  0.16159559250E+04  0.50400001928E-02 0.  1.
</event>
<event>
 5   0  0.3030702E-05  0.1500387E+04  0.7818609E-02  0.8884196E-01
        2   -1    0    0  501    0  0.00000000000E+00  0.00000000000E+00  0.92443693406E+03  0.92443693406E+03  0.25500000920E-02 0.  1.
       -2   -1    0    0    0  501  0.00000000000E+00  0.00000000000E+00 -0.60879221539E+03  0.60879221539E+03  0.25500000920E-02 0. -1.
    10030    2    1    2    0    0  0.00000000000E+00  0.00000000000E+00  0.31564471867E+03  0.15332291495E+04  0.15003866289E+04 0.  0.
        5    1    3    3  502    0 -0.49998121035E+02  0.65810614187E+02  0.91975521106E+03  0.92347311131E+03  0.46999998093E+01 0.  1.
       -5    1    3    3    0  502  0.49998121035E+02 -0.65810614187E+02 -0.60411049239E+03  0.60975603815E+03  0.46999998093E+01 0. -1.
</event>
<event>
 5   0  0.1116613E-05  0.1498546E+04  0.7818609E-02  0.8885421E-01
        3   -1    0    0  501    0  0.00000000000E+00  0.00000000000E+00  0.86611503298E+03  0.86611503887E+03  0.10100000352E+00 0.  1.
       -3   -1    0    0    0  501  0.00000000000E+00  0.00000000000E+00 -0.64819298759E+03  0.64819299546E+03  0.10100000352E+00 0. -1.
    10030    2    1    2    0    0  0.00000000000E+00  0.00000000000E+00  0.21792204539E+03  0.15143080343E+04  0.14985455632E+04 0.  0.
        1    1    3    3  502    0  0.34153817886E+03  0.38013686912E+03  0.66268214019E+03  0.83683928315E+03  0.50400001928E-02 0.  1.
       -1    1    3    3    0  502 -0.34153817886E+03 -0.38013686912E+03 -0.44476009479E+03  0.67746875118E+03  0.50400001928E-02 0. -1.
</event>
<event>
 5   0  0.3070497E-05  0.1500401E+04  0.7818609E-02  0.8884187E-01
       -2   -1    0    0    0  501  0.00000000000E+00  0.00000000000E+00  0.38075786955E+03  0.38075786955E+03  0.25500000920E-02 0.  1.
        2   -1    0    0  501    0  0.00000000000E+00  0.00000000000E+00 -0.14781060559E+04  0.14781060559E+04  0.25500000920E-02 0. -1.
    10030    2    1    2    0    0  0.00000000000E+00  0.00000000000E+00 -0.10973481864E+04  0.18588639255E+04  0.15004006303E+04 0.  0.
        4    1    3    3  502    0 -0.25392358985E+02 -0.28436143649E+02 -0.14769038557E+04  0.14773963578E+04  0.12699999809E+01 0. -1.
       -4    1    3    3    0  502  0.25392358985E+02  0.28436143649E+02  0.37955566933E+03  0.38146756767E+03  0.12699999809E+01 0.  1.
</event>
<event>
 5   0  0.3070497E-05  0.1499415E+04  0.7818609E-02  0.8884842E-01
        2   -1    0    0  501    0  0.00000000000E+00  0.00000000000E+00  0.86464497887E+03  0.86464497888E+03  0.25500000920E-02 0. -1.
       -2   -1    0    0    0  501  0.00000000000E+00  0.00000000000E+00 -0.65004882742E+03  0.65004882743E+03  0.25500000920E-02 0.  1.
    10030    2    1    2    0    0  0.00000000000E+00  0.00000000000E+00  0.21459615145E+03  0.15146938063E+04  0.14994151589E+04 0.  0.
        4    1    3    3  502    0 -0.72737207073E+03 -0.18162075511E+03  0.10537770452E+03  0.75707483215E+03  0.12699999809E+01 0.  1.
       -4    1    3    3    0  502  0.72737207073E+03  0.18162075511E+03  0.10921844693E+03  0.75761897416E+03  0.12699999809E+01 0. -1.
</event>
<event>
 5   0  0.1580078E-05  0.1501744E+04  0.7818609E-02  0.8883294E-01
        1   -1    0    0  501    0  0.00000000000E+00  0.00000000000E+00  0.73602226904E+03  0.73602226906E+03  0.50400001928E-02 0. -1.
       -1   -1    0    0    0  501  0.00000000000E+00  0.00000000000E+00 -0.76602118884E+03  0.76602118886E+03  0.50400001928E-02 0.  1.
    10030    2    1    2    0    0  0.00000000000E+00  0.00000000000E+00 -0.29998919799E+02  0.15020434579E+04  0.15017438578E+04 0.  0.
        2    1    3    3  502    0  0.17716003359E+03 -0.55233974445E+03 -0.49190039582E+03  0.76054642870E+03  0.25500000920E-02 0.  1.
       -2    1    3    3    0  502 -0.17716003359E+03  0.55233974445E+03  0.46190147602E+03  0.74149702922E+03  0.25500000920E-02 0. -1.
</event>
<event>
 5   0  0.1588657E-05  0.1500168E+04  0.7818609E-02  0.8884341E-01
        1   -1    0    0  501    0  0.00000000000E+00  0.00000000000E+00  0.58989393774E+03  0.58989393776E+03  0.50400001928E-02 0.  1.
       -1   -1    0    0    0  501  0.00000000000E+00  0.00000000000E+00 -0.95377519918E+03  0.95377519920E+03  0.50400001928E-02 0. -1.
    10030    2    1    2    0    0  0.00000000000E+00  0.00000000000E+00 -0.36388126144E+03  0.15436691370E+04  0.15001682679E+04 0.  0.
        3    1    3    3  502    0 -0.43750308292E+03 -0.96772641841E+02 -0.80092533702E+03  0.91774467988E+03  0.10100000352E+00 0. -1.
       -3    1    3    3    0  502  0.43750308292E+03  0.96772641841E+02  0.43704407557E+03  0.62592445708E+03  0.10100000352E+00 0.  1.
</event>
<event>
 5   0  0.1533777E-05  0.1499181E+04  0.7818609E-02  0.8884998E-01
        1   -1    0    0  501    0  0.00000000000E+00  0.00000000000E+00  0.15063838679E+04  0.15063838679E+04  0.50400001928E-02 0.  1.
       -1   -1    0    0    0  501  0.00000000000E+00  0.00000000000E+00 -0.37300321182E+03  0.37300321185E+03  0.50400001928E-02 0. -1.
    10030    2    1    2    0    0  0.00000000000E+00  0.00000000000E+00  0.11333806561E+04  0.18793870798E+04  0.14991811378E+04 0.  0.
        5    1    3    3  502    0  0.38942161557E+03  0.33251755610E+03  0.12529159945E+04  0.13535278715E+04  0.46999998093E+01 0.  1.
       -5    1    3    3    0  502 -0.38942161557E+03 -0.33251755610E+03 -0.11953533837E+03  0.52585920826E+03  0.46999998093E+01 0. -1.
</event>
<event>
 5   0  0.3070497E-05  0.1502040E+04  0.7818609E-02  0.8883097E-01
       -2   -1    0    0    0  501  0.00000000000E+00  0.00000000000E+00  0.36179929247E+03  0.36179929247E+03  0.25500000920E-02 0. -1.
        2   -1    0    0  501    0  0.00000000000E+00  0.00000000000E+00 -0.15589612150E+04  0.15589612150E+04  0.25500000920E-02 0.  1.
    10030    2    1    2    0    0  0.00000000000E+00  0.00000000000E+00 -0.11971619225E+04  0.19207605074E+04  0.15020400322E+04 0.  0.
        4    1    3    3  502    0 -0.26466665676E+03  0.28780821697E+03  0.22137496057E+03  0.44932226188E+03  0.12699999809E+01 0. -1.
       -4    1    3    3    0  502  0.26466665676E+03 -0.28780821697E+03 -0.14185368831E+04  0.14714382456E+04  0.12699999809E+01 0.  1.
</event>
<event>
 5   0  0.3030702E-05  0.1501643E+04  0.7818609E-02  0.8883361E-01
        2   -1    0    0  501    0  0.00000000000E+00  0.00000000000E+00  0.13852510268E+04  0.13852510268E+04  0.25500000920E-02 0. -1.
       -2   -1    0    0    0  501  0.00000000000E+00  0.00000000000E+00 -0.40695362117E+03  0.40695362118E+03  0.25500000920E-02 0.  1.
    10030    2    1    2    0    0  0.00000000000E+00  0.00000000000E+00  0.97829740561E+03  0.17922046480E+04  0.15016429956E+04 0.  0.
        5    1    3    3  502    0  0.22529854391E+03  0.21262245588E+03  0.13054013342E+04  0.13416640697E+04  0.46999998093E+01 0. -1.
       -5    1    3    3    0  502 -0.22529854391E+03 -0.21262245588E+03 -0.32710392854E+03  0.45054057830E+03  0.46999998093E+01 0.  1.
</event>
<event>
 5   0  0.3093600E-05  0.1499343E+04  0.7818609E-02  0.8884890E-01
       -2   -1    0    0    0  501  0.00000000000E+00  0.00000000000E+00  0.84628532508E+03  0.84628532509E+03  0.25500000920E-02 0. -1.
        2   -1    0    0  501    0  0.00000000000E+00  0.00000000000E+00 -0.66408715095E+03  0.66408715096E+03  0.25500000920E-02 0.  1.
    10030    2    1    2    0    0  0.00000000000E+00  0.00000000000E+00  0.18219817413E+03  0.15103724760E+04  0.14993428033E+04 0.  0.
        1    1    3    3  502    0 -0.31767976466E+03 -0.73041187459E+01  0.77508842337E+03  0.83769675127E+03  0.50400001928E-02 0. -1.
       -1    1    3    3    0  502  0.31767976466E+03  0.73041187459E+01 -0.59289024924E+03  0.67267572477E+03  0.50400001928E-02 0.  1.
</event>
<event>
 5   0  0.3093600E-05  0.1499118E+04  0.7818609E-02  0.8885040E-01
        2   -1    0    0  501    0  0.00000000000E+00  0.00000000000E+00  0.17888515935E+04  0.17888515935E+04  0.25500000920E-02 0. -1.
       -2   -1    0    0    0  501  0.00000000000E+00  0.00000000000E+00 -0.31407771848E+03  0.31407771849E+03  0.25500000920E-02 0.  1.
    10030    2    1    2    0    0  0.00000000000E+00  0.00000000000E+00  0.14747738751E+04  0.21029293120E+04  0.14991176434E+04 0.  0.
        1    1    3    3  502    0  0.35098327624E+03 -0.13277732456E+03 -0.17281967604E+03  0.41314128161E+03  0.50400001928E-02 0.  1.
       -1    1    3    3    0  502 -0.35098327624E+03  0.13277732456E+03  0.16475935511E+04  0.16897880304E+04  0.50400001928E-02 0. -1.
</event>
<event>
 5   0  0.1533777E-05  0.1500116E+04  0.7818609E-02  0.8884376E-01
        1   -1    0    0  501    0  0.00000000000E+00  0.00000000000E+00  0.94358730079E+03  0.94358730080E+03  0.50400001928E-02 0.  1.
       -1   -1    0    0    0  501  0.00000000000E+00  0.00000000000E+00 -0.59622112290E+03  0.59622112292E+03  0.50400001928E-02 0. -1.
    10030    2    1    2    0    0  0.00000000000E+00  0.00000000000E+00  0.34736617789E+03  0.15398084237E+04  0.15001155690E+04 0.  0.
        5    1    3    3  502    0 -0.28166620665E+02 -0.49608529284E+03  0.75039517122E+03  0.90000498847E+03  0.46999998093E+01 0.  1.
       -5    1    3    3    0  502  0.28166620665E+02  0.49608529284E+03 -0.40302899333E+03  0.63980343525E+03  0.46999998093E+01 0. -1.
</event>
<event>
 5   0  0.1533777E-05  0.1500115E+04  0.7818609E-02  0.8884376E-01
       -1   -1    0    0    0  501  0.00000000000E+00  0.00000000000E+00  0.21426082104E+03  0.21426082110E+03  0.50400001928E-02 0.  1.
        1   -1    0    0  501    0  0.00000000000E+00  0.00000000000E+00 -0.26257084309E+04  0.26257084309E+04  0.50400001928E-02 0. -1.
    10030    2    1    2    0    0  0.00000000000E+00  0.00000000000E+00 -0.24114476098E+04  0.28399692520E+04  0.15001152546E+04 0.  0.
        5    1    3    3  502    0 -0.70226974438E+03  0.69625623964E+02 -0.72479283936E+03  0.10116211106E+04  0.46999998093E+01 0.  1.
       -5    1    3    3    0  502  0.70226974438E+03 -0.69625623964E+02 -0.16866547705E+04  0.18283481414E+04  0.46999998093E+01 0. -1.
</event>
<event>
 5   0  0.3070497E-05  0.1500166E+04  0.7818609E-02  0.8884343E-01
       -2   -1    0    0    0  501  0.00000000000E+00  0.00000000000E+00  0.74496736617E+03  0.74496736617E+03  0.25500000920E-02 0.  1.
        2   -1    0    0  501    0  0.00000000000E+00  0.00000000000E+00 -0.75523355808E+03  0.75523355808E+03  0.25500000920E-02 0. -1.
    10030    2    1    2    0    0  0.00000000000E+00  0.00000000000E+00 -0.10266191910E+02  0.15002009242E+04  0.15001657970E+04 0.  0.
        4    1    3    3  502    0  0.24810487972E+03 -0.56149042644E+03  0.42591668364E+03  0.74715069740E+03  0.12699999809E+01 0.  1.
       -4    1    3    3    0  502 -0.24810487972E+03  0.56149042644E+03 -0.43618287555E+03  0.75305022685E+03  0.12699999809E+01 0. -1.
</event>
<event>
 5   0  0.1643498E-05  0.1499687E+04  0.7818609E-02  0.8884661E-01
       -1   -1    0    0    0  501  0.00000000000E+00  0.00000000000E+00  0.76535659681E+03  0.76535659683E+03  0.50400001928E-02 0.  1.
        1   -1    0    0  501    0  0.00000000000E+00  0.00000000000E+00 -0.73464509315E+03  0.73464509317E+03  0.50400001928E-02 0. -1.
    10030    2    1    2    0    0  0.00000000000E+00  0.00000000000E+00  0.30711503660E+02  0.15000016900E+04  0.14996872586E+04 0.  0.
        4    1    3    3  502    0 -0.57048010565E+03  0.36840924913E+03 -0.30265890904E+03  0.74348971339E+03  0.12699999809E+01 0. -1.
       -4    1    3    3    0  502  0.57048010565E+03 -0.36840924913E+03  0.33337041270E+03  0.75651197661E+03  0.12699999809E+01 0.  1.
</event>
<event>
 5   0  0.3070497E-05  0.1500410E+04  0.7818609E-02  0.8884180E-01
        2   -1    0    0  501    0  0.00000000000E+00  0.00000000000E+00  0.12499811697E+04  0.12499811697E+04  0.25500000920E-02 0. -1.
       -2   -1    0    0    0  501  0.00000000000E+00  0.00000000000E+00 -0.45025293492E+03  0.45025293493E+03  0.25500000920E-02 0.  1.
    10030    2    1    2    0    0  0.00000000000E+00  0.00000000000E+00  0.79972823480E+03  0.17002341047E+04  0.15004101976E+04 0.  0.
        4    1    3    3  502    0  0.23712795673E+03 -0.94303379116E+02  0.11992845465E+04  0.12261353235E+04  0.12699999809E+01 0. -1.
       -4    1    3    3    0  502 -0.23712795673E+03  0.94303379116E+02 -0.39955631170E+03  0.47409878115E+03  0.12699999809E+01 0.  1.
</event>
<event>
 5   0  0.1588657E-05  0.1499799E+04  0.7818609E-02  0.8884587E-01
       -1   -1    0    0    0  501  0.00000000000E+00  0.00000000000E+00  0.63043069429E+03  0.63043069431E+03  0.50400001928E-02 0.  1.
        1   -1    0    0  501    0  0.00000000000E+00  0.00000000000E+00 -0.89200805539E+03  0.89200805540E+03  0.50400001928E-02 0. -1.
    10030    2    1    2    0    0  0.00000000000E+00  0.00000000000E+00 -0.26157736110E+03  0.15224387497E+04  0.14997989968E+04 0.  0.
        3    1    3    3  502    0 -0.21362242756E+03 -0.48853595044E+03  0.40447297848E+03  0.66925355207E+03  0.10100000352E+00 0.  1.
       -3    1    3    3    0  502  0.21362242756E+03  0.48853595044E+03 -0.66605033958E+03  0.85318519765E+03  0.10100000352E+00 0. -1.
</event>
<event>
 5   0  0.1643498E-05  0.1502170E+04  0.7818609E-02  0.8883011E-01
        1   -1    0    0  501    0  0.00000000000E+00  0.00000000000E+00  0.59027553079E+03  0.59027553081E+03  0.50400001928E-02 0. -1.
       -1   -1    0    0    0  501  0.00000000000E+00  0.00000000000E+00 -0.95570436485E+03  0.95570436486E+03  0.50400001928E-02 0.  1.
    10030    2    1    2    0    0  0.00000000000E+00  0.00000000000E+00 -0.36542883406E+03  0.15459798957E+04  0.15021702983E+04 0.  0.
        4    1    3    3  502    0 -0.57518259134E+03  0.41004899124E+03  0.79978812555E+02  0.71089620336E+03  0.12699999809E+01 0.  1.
       -4    1    3    3    0  502  0.57518259134E+03 -0.41004899124E+03 -0.44540764662E+03  0.83508369231E+03  0.12699999809E+01 0. -1.
</event>
<event>
 5   0  0.1580078E-05  0.1496728E+04  0.7818609E-02  0.8886632E-01
       -1   -1    0    0    0  501  0.00000000000E+00  0.00000000000E+00  0.88176589642E+03  0.88176589644E+03  0.50400001928E-02 0. -1.
        1   -1    0    0  501    0  0.00000000000E+00  0.00000000000E+00 -0.63514459739E+03  0.63514459741E+03  0.50400001928E-02 0.  1.
    10030    2    1    2    0    0  0.00000000000E+00  0.00000000000E+00  0.24662129903E+03  0.15169104938E+04  0.14967282256E+04 0.  0.
        2    1    3    3  502    0  0.55805349162E+03  0.49097712095E+03  0.21146987243E+03  0.77278828909E+03  0.25500000920E-02 0. -1.
       -2    1    3    3    0  502 -0.55805349162E+03 -0.49097712095E+03  0.35151426604E+02  0.74412220475E+03  0.25500000920E-02 0.  1.
</event>
<event>
 5   0  0.3093600E-05  0.1499154E+04  0.7818609E-02  0.8885016E-01
       -2   -1    0    0    0  501  0.00000000000E+00  0.00000000000E+00  0.45072840401E+03  0.45072840402E+03  0.25500000920E-02 0.  1.
        2   -1    0    0  501    0  0.00000000000E+00  0.00000000000E+00 -0.12465720785E+04  0.12465720785E+04  0.25500000920E-02 0. -1.
    10030    2    1    2    0    0  0.00000000000E+00  0.00000000000E+00 -0.79584367445E+03  0.16973004825E+04  0.14991536858E+04 0.  0.
        1    1    3    3  502    0 -0.31331633198E+02 -0.48452925363E+03  0.24862215656E+03  0.54549357982E+03  0.50400001928E-02 0.  1.
       -1    1    3    3    0  502  0.31331633198E+02  0.48452925363E+03 -0.10444658310E+04  0.11518069027E+04  0.50400001928E-02 0. -1.
</event>
<event>
 5   0  0.1576214E-05  0.1501218E+04  0.7818609E-02  0.8883643E-01
       -1   -1    0    0    0  501  0.00000000000E+00  0.00000000000E+00  0.69955457607E+03  0.69955457608E+03  0.50400001928E-02 0.  1.
        1   -1    0    0  501    0  0.00000000000E+00  0.00000000000E+00 -0.80538960409E+03  0.80538960411E+03  0.50400001928E-02 0. -1.
    10030    2    1    2    0    0  0.00000000000E+00  0.00000000000E+00 -0.10583502803E+03  0.15049441802E+04  0.15012181495E+04 0.  0.
        1    1    3    3  502    0  0.51381420989E+03  0.20524480450E+03 -0.56140768481E+03  0.78823160343E+03  0.50400001928E-02 0. -1.
       -1    1    3    3    0  502 -0.51381420989E+03 -0.20524480450E+03  0.45557265678E+03  0.71671257676E+03  0.50400001928E-02 0.  1.
</event>
<event>
 5   0  0.2969498E-05  0.1501821E+04  0.7818609E-02  0.8883243E-01
        2   -1    0    0  501    0  0.00000000000E+00  0.00000000000E+00  0.20057412330E+04  0.20057412330E+04  0.25500000920E-02 0. -1.
       -2   -1    0    0    0  501  0.00000000000E+00  0.00000000000E+00 -0.28112637306E+03  0.28112637307E+03  0.25500000920E-02 0.  1.
    10030    2    1    2    0    0  0.00000000000E+00  0.00000000000E+00  0.17246148600E+04  0.22868676061E+04  0.15018212386E+04 0.  0.
        3    1    3    3  502    0  0.63212030439E+03 -0.87969574751E+02  0.14648005923E+04  0.15977970805E+04  0.10100000352E+00 0. -1.
       -3    1    3    3    0  502 -0.63212030439E+03  0.87969574751E+02  0.25981426774E+03  0.68907052558E+03  0.10100000352E+00 0.  1.
</event>
<event>
 5   0  0.3018308E-05  0.1499533E+04  0.7818609E-02  0.8884763E-01
       -2   -1    0    0    0  501  0.00000000000E+00  0.00000000000E+00  0.61572584685E+03  0.61572584685E+03  0.25500000920E-02 0.  1.
        2   -1    0    0  501    0  0.00000000000E+00  0.00000000000E+00 -0.91298765939E+03  0.91298765940E+03  0.25500000920E-02 0. -1.
    10030    2    1    2    0    0  0.00000000000E+00  0.00000000000E+00 -0.29726181254E+03  0.15287135062E+04  0.14995333938E+04 0.  0.
        2    1    3    3  502    0 -0.69686457690E+03  0.27398151976E+03 -0.10962424996E+03  0.75677182023E+03  0.25500000920E-02 0. -1.
       -2    1    3    3    0  502  0.69686457690E+03 -0.27398151976E+03 -0.18763756258E+03  0.77194168602E+03  0.25500000920E-02 0.  1.
</event>
<event>
 5   0  0.3070497E-05  0.1500093E+04  0.7818609E-02  0.8884391E-01
       -2   -1    0    0    0  501  0.00000000000E+00  0.00000000000E+00  0.10652860781E+04  0.10652860781E+04  0.25500000920E-02 0. -1.
        2   -1    0    0  501    0  0.00000000000E+00  0.00000000000E+00 -0.52809260361E+03  0.52809260362E+03  0.25500000920E-02 0.  1.
    10030    2    1    2    0    0  0.00000000000E+00  0.00000000000E+00  0.53719347453E+03  0.15933786818E+04  0.15000929286E+04 0.  0.
        4    1    3    3  502    0 -0.83694812288E+02 -0.62326066154E+03 -0.16561473518E+03  0.65029879842E+03  0.12699999809E+01 0.  1.
       -4    1    3    3    0  502  0.83694812288E+02  0.62326066154E+03  0.70280820971E+03  0.94307988334E+03  0.12699999809E+01 0. -1.
</event>
<event>
 5   0  0.1643498E-05  0.1499997E+04  0.7818609E-02  0.8884455E-01
        1   -1    0    0  501    0  0.00000000000E+00  0.00000000000E+00  0.68233049564E+03  0.68233049566E+03  0.50400001928E-02 0.  1.
       -1   -1    0    0    0  501  0.00000000000E+00  0.00000000000E+00 -0.82437698318E+03  0.82437698319E+03  0.50400001928E-02 0. -1.
    10030    2    1    2    0    0  0.00000000000E+00  0.00000000000E+00 -0.14204648753E+03  0.15067074789E+04  0.14999967407E+04 0.  0.
        4    1    3    3  502    0  0.50634409830E+03  0.30795104284E+03 -0.53272923725E+03  0.79688157450E+03  0.12699999809E+01 0. -1.
       -4    1    3    3    0  502 -0.50634409830E+03 -0.30795104284E+03  0.39068274971E+03  0.70982590435E+03  0.12699999809E+01 0.  1.
</event>
<event>
 5   0  0.1576214E-05  0.1499907E+04  0.7818609E-02  0.8884515E-01
        1   -1    0    0  501    0  0.00000000000E+00  0.00000000000E+00  0.15321633691E+04  0.15321633691E+04  0.50400001928E-02 0.  1.
       -1   -1    0    0    0  501  0.00000000000E+00  0.00000000000E+00 -0.36708255557E+03  0.36708255560E+03  0.50400001928E-02 0. -1.
    10030    2    1    2    0    0  0.00000000000E+00  0.00000000000E+00  0.11650808135E+04  0.18992459247E+04  0.14999072573E+04 0.  0.
        1    1    3    3  502    0 -0.36173604936E+03 -0.34608380759E+03  0.12896020389E+04  0.13833656025E+04  0.50400001928E-02 0.  1.
       -1    1    3    3    0  502  0.36173604936E+03  0.34608380759E+03 -0.12452122538E+03  0.51588032224E+03  0.50400001928E-02 0. -1.
</event>
<event>
 5   0  0.3070497E-05  0.1499984E+04  0.7818609E-02  0.8884463E-01
        2   -1    0    0  501    0  0.00000000000E+00  0.00000000000E+00  0.96220766264E+03  0.96220766264E+03  0.25500000920E-02 0. -1.
       -2   -1    0    0    0  501  0.00000000000E+00  0.00000000000E+00 -0.58458080346E+03  0.58458080347E+03  0.25500000920E-02 0.  1.
    10030    2    1    2    0    0  0.00000000000E+00  0.00000000000E+00  0.37762685918E+03  0.15467884661E+04  0.14999841713E+04 0.  0.
        4    1    3    3  502    0 -0.49672465576E+03 -0.50990172321E+03  0.43229831104E+03  0.83283767542E+03  0.12699999809E+01 0. -1.
       -4    1    3    3    0  502  0.49672465576E+03  0.50990172321E+03 -0.54671451865E+02  0.71395079069E+03  0.12699999809E+01 0.  1.
</event>
<event>
 5   0  0.3030702E-05  0.1494245E+04  0.7818609E-02  0.8888289E-01
       -2   -1    0    0    0  501  0.00000000000E+00  0.00000000000E+00  0.30183274679E+03  0.30183274680E+03  0.25500000920E-02 0. -1.
        2   -1    0    0  501    0  0.00000000000E+00  0.00000000000E+00 -0.18493422277E+04  0.18493422277E+04  0.25500000920E-02 0.  1.
    10030    2    1    2    0    0  0.00000000000E+00  0.00000000000E+00 -0.15475094809E+04  0.21511749745E+04  0.14942450192E+04 0.  0.
        5    1    3    3  502    0  0.57520237351E+02 -0.67957054114E+03 -0.12128927592E+04  0.13914940293E+04  0.46999998093E+01 0.  1.
       -5    1    3    3    0  502 -0.57520237351E+02  0.67957054114E+03 -0.33461672162E+03  0.75968094519E+03  0.46999998093E+01 0. -1.
</event>
<event>
 5   0  0.1580078E-05  0.1502295E+04  0.7818609E-02  0.8882928E-01
        1   -1    0    0  501    0  0.00000000000E+00  0.00000000000E+00  0.35855438809E+03  0.35855438813E+03  0.50400001928E-02 0.  1.
       -1   -1    0    0    0  501  0.00000000000E+00  0.00000000000E+00 -0.15736038436E+04  0.15736038436E+04  0.50400001928E-02 0. -1.
    10030    2    1    2    0    0  0.00000000000E+00  0.00000000000E+00 -0.12150494555E+04  0.19321582317E+04  0.15022949954E+04 0.  0.
        2    1    3    3  502    0  0.52977538198E+03  0.94652016532E+02 -0.12814923040E+04  0.13899077253E+04  0.25500000920E-02 0. -1.
       -2    1    3    3    0  502 -0.52977538198E+03 -0.94652016532E+02  0.66442848519E+02  0.54225050642E+03  0.25500000920E-02 0.  1.
</event>
<event>
 5   0  0.1116613E-05  0.1499788E+04  0.7818609E-02  0.8884594E-01
        3   -1    0    0  501    0  0.00000000000E+00  0.00000000000E+00  0.57923157819E+03  0.57923158700E+03  0.10100000352E+00 0. -1.
       -3   -1    0    0    0  501  0.00000000000E+00  0.00000000000E+00 -0.97083970981E+03  0.97083971507E+03  0.10100000352E+00 0.  1.
    10030    2    1    2    0    0  0.00000000000E+00  0.00000000000E+00 -0.39160813162E+03  0.15500713021E+04  0.14997880226E+04 0.  0.
        5    1    3    3  502    0 -0.15563358385E+03 -0.51602213330E+03  0.34303754760E+03  0.63890336009E+03  0.46999998093E+01 0. -1.
       -5    1    3    3    0  502  0.15563358385E+03  0.51602213330E+03 -0.73464567922E+03  0.91116794197E+03  0.46999998093E+01 0.  1.
</event>
<event>
 5   0  0.1588657E-05  0.1499721E+04  0.7818609E-02  0.8884638E-01
        1   -1    0    0  501    0  0.00000000000E+00  0.00000000000E+00  0.13833975898E+04  0.13833975898E+04  0.50400001928E-02 0.  1.
       -1   -1    0    0    0  501  0.00000000000E+00  0.00000000000E+00 -0.40645650652E+03  0.40645650655E+03  0.50400001928E-02 0. -1.
    10030    2    1    2    0    0  0.00000000000E+00  0.00000000000E+00  0.97694108324E+03  0.17898540963E+04  0.14997212428E+04 0.  0.
        3    1    3    3  502    0  0.46098338478E+03 -0.54285201269E+03  0.76860780140E+03  0.10478320244E+04  0.10100000352E+00 0.  1.
       -3    1    3    3    0  502 -0.46098338478E+03  0.54285201269E+03  0.20833328184E+03  0.74202207194E+03  0.10100000352E+00 0. -1.
</event>
<event>
 5   0  0.3018308E-05  0.1500761E+04  0.7818609E-02  0.8883947E-01
       -2   -1    0    0    0  501  0.00000000000E+00  0.00000000000E+00  0.51476313439E+03  0.51476313439E+03  0.25500000920E-02 0.  1.
        2   -1    0    0  501    0  0.00000000000E+00  0.00000000000E+00 -0.10938443522E+04  0.10938443522E+04  0.25500000920E-02 0. -1.
    10030    2    1    2    0    0  0.00000000000E+00  0.00000000000E+00 -0.57908121782E+03  0.16086074866E+04  0.15007608034E+04 0.  0.
        2    1    3    3  502    0  0.34890021858E+03  0.44070115318E+03  0.24329618368E+03  0.61248828719E+03  0.25500000920E-02 0.  1.
       -2    1    3    3    0  502 -0.34890021858E+03 -0.44070115318E+03 -0.82237740149E+03  0.99611919941E+03  0.25500000920E-02 0. -1.
</event>
<event>
 5   0  0.3070497E-05  0.1500062E+04  0.7818609E-02  0.8884411E-01
       -2   -1    0    0    0  501  0.00000000000E+00  0.00000000000E+00  0.43748209992E+03  0.43748209993E+03  0.25500000920E-02 0. -1.
        2   -1    0    0  501    0  0.00000000000E+00  0.00000000000E+00 -0.12858739033E+04  0.12858739033E+04  0.25500000920E-02 0.  1.
    10030    2    1    2    0    0  0.00000000000E+00  0.00000000000E+00 -0.84839180336E+03  0.17233560032E+04  0.15000624193E+04 0.  0.
        4    1    3    3  502    0 -0.17680806384E+03 -0.50615649863E+03  0.17836762915E+03  0.56504169454E+03  0.12699999809E+01 0. -1.
       -4    1    3    3    0  502  0.17680806384E+03  0.50615649863E+03 -0.10267594325E+04  0.11583143087E+04  0.12699999809E+01 0.  1.
</event>
<event>
 5   0  0.1576214E-05  0.1504241E+04  0.7818609E-02  0.8881638E-01
       -1   -1    0    0    0  501  0.00000000000E+00  0.00000000000E+00  0.55963324425E+03  0.55963324428E+03  0.50400001928E-02 0. -1.
        1   -1    0    0  501    0  0.00000000000E+00  0.00000000000E+00 -0.10108140540E+04  0.10108140540E+04  0.50400001928E-02 0.  1.
    10030    2    1    2    0    0  0.00000000000E+00  0.00000000000E+00 -0.45118080977E+03  0.15704472983E+04  0.15042408696E+04 0.  0.
        1    1    3    3  502    0  0.18579594790E+03 -0.12299669988E+03 -0.97556461682E+03  0.10006870860E+04  0.50400001928E-02 0.  1.
       -1    1    3    3    0  502 -0.18579594790E+03  0.12299669988E+03  0.52438380705E+03  0.56976021233E+03  0.50400001928E-02 0. -1.
</event>
<event>
 5   0  0.1576214E-05  0.1500123E+04  0.7818609E-02  0.8884371E-01
        1   -1    0    0  501    0  0.00000000000E+00  0.00000000000E+00  0.60197765392E+03  0.60197765394E+03  0.50400001928E-02 0.  1.
       -1   -1    0    0    0  501  0.00000000000E+00  0.00000000000E+00 -0.93457292634E+03  0.93457292636E+03  0.50400001928E-02 0. -1.
    10030    2    1    2    0    0  0.00000000000E+00  0.00000000000E+00 -0.33259527242E+03  0.15365505803E+04  0.15001226852E+04 0.  0.
        1    1    3    3  502    0 -0.37531225226E+03 -0.38078677983E+03  0.37253199158E+03  0.65164249644E+03  0.50400001928E-02 0.  1.
       -1    1    3    3    0  502  0.37531225226E+03  0.38078677983E+03 -0.70512726401E+03  0.88490808385E+03  0.50400001928E-02 0. -1.
</event>
<event>
 5   0  0.2969498E-05  0.1498582E+04  0.7818609E-02  0.8885396E-01
       -2   -1    0    0    0  501  0.00000000000E+00  0.00000000000E+00  0.81525149662E+03  0.81525149663E+03  0.25500000920E-02 0. -1.
        2   -1    0    0  501    0  0.00000000000E+00  0.00000000000E+00 -0.68866743260E+03  0.68866743261E+03  0.25500000920E-02 0.  1.
    10030    2    1    2    0    0  0.00000000000E+00  0.00000000000E+00  0.12658406402E+03  0.15039189292E+04  0.14985822034E+04 0.  0.
        3    1    3    3  502    0 -0.51179845783E+03  0.10652754770E+03  0.60200098777E+03  0.79730231364E+03  0.10100000352E+00 0. -1.
       -3    1    3    3    0  502  0.51179845783E+03 -0.10652754770E+03 -0.47541692375E+03  0.70661661560E+03  0.10100000352E+00 0.  1.
</event>
<event>
 5   0  0.1643498E-05  0.1501325E+04  0.7818609E-02  0.8883573E-01
        1   -1    0    0  501    0  0.00000000000E+00  0.00000000000E+00  0.16159509616E+04  0.16159509616E+04  0.50400001928E-02 0. -1.
       -1   -1    0    0    0  501  0.00000000000E+00  0.00000000000E+00 -0.34870733113E+03  0.34870733117E+03  0.50400001928E-02 0.  1.
    10030    2    1    2    0    0  0.00000000000E+00  0.00000000000E+00  0.12672436304E+04  0.19646582928E+04  0.15013246779E+04 0.  0.
        4    1    3    3  502    0 -0.44286642083E+03 -0.31192543191E+03  0.13136797387E+04  0.14209800176E+04  0.12699999809E+01 0. -1.
       -4    1    3    3    0  502  0.44286642083E+03  0.31192543191E+03 -0.46436108254E+02  0.54367827511E+03  0.12699999809E+01 0.  1.
</event>
<event>
 5   0  0.1576214E-05  0.1500415E+04  0.7818609E-02  0.8884177E-01
        1   -1    0    0  501    0  0.00000000000E+00  0.00000000000E+00  0.34497637251E+03  0.34497637255E+03  0.50400001928E-02 0. -1.
       -1   -1    0    0    0  501  0.00000000000E+00  0.00000000000E+00 -0.16314495568E+04  0.16314495568E+04  0.50400001928E-02 0.  1.
    10030    2    1    2    0    0  0.00000000000E+00  0.00000000000E+00 -0.12864731843E+04  0.19764259294E+04  0.15004153426E+04 0.  0.
        1    1    3    3  502    0 -0.35830383075E+03 -0.45893679735E+03 -0.12664055513E+04  0.13938391728E+04  0.50400001928E-02 0.  1.
       -1    1    3    3    0  502  0.35830383075E+03  0.45893679735E+03 -0.20067633018E+02  0.58258675664E+03  0.50400001928E-02 0. -1.
</event>
<event>
 5   0  0.1576214E-05  0.1499494E+04  0.7818609E-02  0.8884789E-01
        1   -1    0    0  501    0  0.00000000000E+00  0.00000000000E+00  0.15982547613E+04  0.15982547613E+04  0.50400001928E-02 0.  1.
       -1   -1    0    0    0  501  0.00000000000E+00  0.00000000000E+00 -0.35170915429E+03  0.35170915433E+03  0.50400001928E-02 0. -1.
    10030    2    1    2    0    0  0.00000000000E+00  0.00000000000E+00  0.12465456070E+04  0.19499639156E+04  0.14994943554E+04 0.  0.
        1    1    3    3  502    0  0.55378299475E+03  0.33742919660E+03  0.11125929139E+04  0.12877876611E+04  0.50400001928E-02 0.  1.
       -1    1    3    3    0  502 -0.55378299475E+03 -0.33742919660E+03  0.13395269304E+03  0.66217625447E+03  0.50400001928E-02 0. -1.
</event>
<event>
 5   0  0.1588657E-05  0.1500198E+04  0.7818609E-02  0.8884322E-01
       -1   -1    0    0    0  501  0.00000000000E+00  0.00000000000E+00  0.69252472812E+03  0.69252472813E+03  0.50400001928E-02 0.  1.
        1   -1    0    0  501    0  0.00000000000E+00  0.00000000000E+00 -0.81245933007E+03  0.81245933008E+03  0.50400001928E-02 0. -1.
    10030    2    1    2    0    0  0.00000000000E+00  0.00000000000E+00 -0.11993460195E+03  0.15049840582E+04  0.15001975559E+04 0.  0.
        3    1    3    3  502    0 -0.54833145154E+03 -0.28510182389E+03  0.36647453194E+03  0.71850819306E+03  0.10100000352E+00 0.  1.
       -3    1    3    3    0  502  0.54833145154E+03  0.28510182389E+03 -0.48640913389E+03  0.78647586515E+03  0.10100000352E+00 0. -1.
</event>
<event>
 5   0  0.1116613E-05  0.1503639E+04  0.7818609E-02  0.8882036E-01
        4   -1    0    0  501    0  0.00000000000E+00  0.00000000000E+00  0.12610360167E+04  0.12610366562E+04  0.12699999809E+01 0. -1.
       -4   -1    0    0    0  501  0.00000000000E+00  0.00000000000E+00 -0.44822727521E+03  0.44822907441E+03  0.12699999809E+01 0.  1.
    10030    2    1    2    0    0  0.00000000000E+00  0.00000000000E+00  0.81280874148E+03  0.17092657306E+04  0.15036393476E+04 0.  0.
        4    1    3    3  502    0  0.64734215376E+03  0.17619589898E+03  0.20687743503E+02  0.67121267456E+03  0.12699999809E+01 0.  1.
       -4    1    3    3    0  502 -0.64734215376E+03 -0.17619589898E+03  0.79212099797E+03  0.10380530561E+04  0.12699999809E+01 0. -1.
</event>
<event>
 5   0  0.1643498E-05  0.1499984E+04  0.7818609E-02  0.8884463E-01
        1   -1    0    0  501    0  0.00000000000E+00  0.00000000000E+00  0.86578801585E+03  0.86578801587E+03  0.50400001928E-02 0. -1.
       -1   -1    0    0    0  501  0.00000000000E+00  0.00000000000E+00 -0.64968359232E+03  0.64968359234E+03  0.50400001928E-02 0.  1.
    10030    2    1    2    0    0  0.00000000000E+00  0.00000000000E+00  0.21610442353E+03  0.15154716082E+04  0.14999843577E+04 0.  0.
        4    1    3    3  502    0 -0.25694632330E+03 -0.43884485942E+03  0.66499738142E+03  0.83715551357E+03  0.12699999809E+01 0. -1.
       -4    1    3    3    0  502  0.25694632330E+03  0.43884485942E+03 -0.44889295789E+03  0.67831609464E+03  0.12699999809E+01 0.  1.
</event>
<event>
 5   0  0.1576214E-05  0.1500569E+04  0.7818609E-02  0.8884075E-01
       -1   -1    0    0    0  501  0.00000000000E+00  0.00000000000E+00  0.10537377336E+04  0.10537377336E+04  0.50400001928E-02 0. -1.
        1   -1    0    0  501    0  0.00000000000E+00  0.00000000000E+00 -0.53421919712E+03  0.53421919715E+03  0.50400001928E-02 0.  1.
    10030    2    1    2    0    0  0.00000000000E+00  0.00000000000E+00  0.51951853644E+03  0.15879569307E+04  0.15005691267E+04 0.  0.
        1    1    3    3  502    0 -0.74424062926E+03  0.45154313694E+02  0.17125944310E+03  0.76502472063E+03  0.50400001928E-02 0. -1.
       -1    1    3    3    0  502  0.74424062926E+03 -0.45154313694E+02  0.34825909334E+03  0.82293221010E+03  0.50400001928E-02 0.  1.
</event>
<event>
 5   0  0.1576214E-05  0.1499746E+04  0.7818609E-02  0.8884622E-01
       -1   -1    0    0    0  501  0.00000000000E+00  0.00000000000E+00  0.15898594720E+04  0.15898594721E+04  0.50400001928E-02 0.  1.
        1   -1    0    0  501    0  0.00000000000E+00  0.00000000000E+00 -0.35368502890E+03  0.35368502894E+03  0.50400001928E-02 0. -1.
    10030    2    1    2    0    0  0.00000000000E+00  0.00000000000E+00  0.12361744431E+04  0.19435445010E+04  0.14997459696E+04 0.  0.
        1    1    3    3  502    0 -0.14076270908E+03  0.28030743257E+03  0.15007601006E+04  0.15331885979E+04  0.50400001928E-02 0.  1.
       -1    1    3    3    0  502  0.14076270908E+03 -0.28030743257E+03 -0.26458565750E+03  0.41035590309E+03  0.50400001928E-02 0. -1.
</event>
<event>
 5   0  0.3030702E-05  0.1498637E+04  0.7818609E-02  0.8885360E-01
        2   -1    0    0  501    0  0.00000000000E+00  0.00000000000E+00  0.13118763219E+04  0.13118763219E+04  0.25500000920E-02 0.  1.
       -2   -1    0    0    0  501  0.00000000000E+00  0.00000000000E+00 -0.42799629806E+03  0.42799629807E+03  0.25500000920E-02 0. -1.
    10030    2    1    2    0    0  0.00000000000E+00  0.00000000000E+00  0.88388002384E+03  0.17398726200E+04  0.14986369931E+04 0.  0.
        5    1    3    3  502    0  0.14644480664E+03  0.79684501276E+02  0.12900525841E+04  0.13007895529E+04  0.46999998093E+01 0.  1.
       -5    1    3    3    0  502 -0.14644480664E+03 -0.79684501276E+02 -0.40617256024E+03  0.43908306711E+03  0.46999998093E+01 0. -1.
</event>
<event>
 5   0  0.3070497E-05  0.1499259E+04  0.7818609E-02  0.8884946E-01
       -2   -1    0    0    0  501  0.00000000000E+00  0.00000000000E+00  0.68412156839E+03  0.68412156840E+03  0.25500000920E-02 0. -1.
        2   -1    0    0  501    0  0.00000000000E+00  0.00000000000E+00 -0.82141005840E+03  0.82141005840E+03  0.25500000920E-02 0.  1.
    10030    2    1    2    0    0  0.00000000000E+00  0.00000000000E+00 -0.13728849000E+03  0.15055316268E+04  0.14992589335E+04 0.  0.
        4    1    3    3  502    0  0.44441198221E+03 -0.60237089570E+03 -0.10868611439E+03  0.75641720649E+03  0.12699999809E+01 0. -1.
       -4    1    3    3    0  502 -0.44441198221E+03  0.60237089570E+03 -0.28602375609E+02  0.74911442031E+03  0.12699999809E+01 0.  1.
</event>
<event>
 5   0  0.1533777E-05  0.1500377E+04  0.7818609E-02  0.8884202E-01
       -1   -1    0    0    0  501  0.00000000000E+00  0.00000000000E+00  0.73678088589E+03  0.73678088591E+03  0.50400001928E-02 0. -1.
        1   -1    0    0  501    0  0.00000000000E+00  0.00000000000E+00 -0.76384030271E+03  0.76384030273E+03  0.50400001928E-02 0.  1.
    10030    2    1    2    0    0  0.00000000000E+00  0.00000000000E+00 -0.27059416822E+02  0.15006211886E+04  0.15003771992E+04 0.  0.
        5    1    3    3  502    0 -0.20598107797E+03  0.71847480108E+03  0.50719360848E+02  0.74915204587E+03  0.46999998093E+01 0. -1.
       -5    1    3    3    0  502  0.20598107797E+03 -0.71847480108E+03 -0.77778777671E+02  0.75146914276E+03  0.46999998093E+01 0.  1.
</event>
<event>
 5   0  0.3070497E-05  0.1499942E+04  0.7818609E-02  0.8884492E-01
        2   -1    0    0  501    0  0.00000000000E+00  0.00000000000E+00  0.10536949175E+04  0.10536949175E+04  0.25500000920E-02 0. -1.
       -2   -1    0    0    0  501  0.00000000000E+00  0.00000000000E+00 -0.53379423551E+03  0.53379423552E+03  0.25500000920E-02 0.  1.
    10030    2    1    2    0    0  0.00000000000E+00  0.00000000000E+00  0.51990068194E+03  0.15874891530E+04  0.14999416961E+04 0.  0.
        4    1    3    3  502    0 -0.10179234292E+03 -0.36247953637E+03  0.94642332778E+03  0.10185636080E+04  0.12699999809E+01 0. -1.
       -4    1    3    3    0  502  0.10179234292E+03  0.36247953637E+03 -0.42652264584E+03  0.56892554493E+03  0.12699999809E+01 0.  1.
</event>
<event>
 5   0  0.1588657E-05  0.1499675E+04  0.7818609E-02  0.8884669E-01
       -1   -1    0    0    0  501  0.00000000000E+00  0.00000000000E+00  0.38895325761E+03  0.38895325764E+03  0.50400001928E-02 0. -1.
        1   -1    0    0  501    0  0.00000000000E+00  0.00000000000E+00 -0.14455618748E+04  0.14455618748E+04  0.50400001928E-02 0.  1.
    10030    2    1    2    0    0  0.00000000000E+00  0.00000000000E+00 -0.10566086172E+04  0.18345151324E+04  0.14996746318E+04 0.  0.
        3    1    3    3  502    0  0.73885670803E+03  0.96198657726E+02 -0.63132540586E+03  0.97659366936E+03  0.10100000352E+00 0.  1.
       -3    1    3    3    0  502 -0.73885670803E+03 -0.96198657726E+02 -0.42528321131E+03  0.85792146306E+03  0.10100000352E+00 0. -1.
</event>
<event>
 5   0  0.3018308E-05  0.1499747E+04  0.7818609E-02  0.8884621E-01
       -2   -1    0    0    0  501  0.00000000000E+00  0.00000000000E+00  0.58942005724E+03  0.58942005724E+03  0.25500000920E-02 0.  1.
        2   -1    0    0  501    0  0.00000000000E+00  0.00000000000E+00 -0.95400549108E+03  0.95400549108E+03  0.25500000920E-02 0. -1.
    10030    2    1    2    0    0  0.00000000000E+00  0.00000000000E+00 -0.36458543384E+03  0.15434255483E+04  0.14997466068E+04 0.  0.
        2    1    3    3  502    0 -0.26308188337E+03 -0.10329452620E+03 -0.89709200378E+03  0.94056148111E+03  0.25500000920E-02 0. -1.
       -2    1    3    3    0  502  0.26308188337E+03  0.10329452620E+03  0.53250656994E+03  0.60286406721E+03  0.25500000920E-02 0.  1.
</event>
<event>
 5   0  0.3093600E-05  0.1500220E+04  0.7818609E-02  0.8884307E-01
        2   -1    0    0  501    0  0.00000000000E+00  0.00000000000E+00  0.22732073380E+04  0.22732073380E+04  0.25500000920E-02 0.  1.
       -2   -1    0    0    0  501  0.00000000000E+00  0.00000000000E+00 -0.24752025811E+03  0.24752025812E+03  0.25500000920E-02 0. -1.
    10030    2    1    2    0    0  0.00000000000E+00  0.00000000000E+00  0.20256870798E+04  0.25207275961E+04  0.15002198066E+04 0.  0.
        1    1    3    3  502    0  0.29781981575E+02 -0.45248894263E+03  0.88651060311E+01  0.45355462710E+03  0.50400001928E-02 0. -1.
       -1    1    3    3    0  502 -0.29781981575E+02  0.45248894263E+03  0.20168219738E+04  0.20671729690E+04  0.50400001928E-02 0.  1.
</event>
<event>
 5   0  0.1643498E-05  0.1500113E+04  0.7818609E-02  0.8884378E-01
        1   -1    0    0  501    0  0.00000000000E+00  0.00000000000E+00  0.56317393397E+03  0.56317393400E+03  0.50400001928E-02 0. -1.
       -1   -1    0    0    0  501  0.00000000000E+00  0.00000000000E+00 -0.99895345571E+03  0.99895345572E+03  0.50400001928E-02 0.  1.
    10030    2    1    2    0    0  0.00000000000E+00  0.00000000000E+00 -0.43577952174E+03  0.15621273897E+04  0.15001127258E+04 0.  0.
        4    1    3    3  502    0  0.37006842893E+03 -0.30471077143E+03 -0.81861175736E+03  0.94864435829E+03  0.12699999809E+01 0.  1.
       -4    1    3    3    0  502 -0.37006842893E+03  0.30471077143E+03  0.38283223562E+03  0.61348303143E+03  0.12699999809E+01 0. -1.
</event>
<event>
 5   0  0.3093600E-05  0.1500317E+04  0.7818609E-02  0.8884242E-01
        2   -1    0    0  501    0  0.00000000000E+00  0.00000000000E+00  0.47976767984E+03  0.47976767985E+03  0.25500000920E-02 0.  1.
       -2   -1    0    0    0  501  0.00000000000E+00  0.00000000000E+00 -0.11729378942E+04  0.11729378942E+04  0.25500000920E-02 0. -1.
    10030    2    1    2    0    0  0.00000000000E+00  0.00000000000E+00 -0.69317021434E+03  0.16527055740E+04  0.15003168893E+04 0.  0.
        1    1    3    3  502    0  0.16341191146E+02 -0.10845380620E+03  0.47088777656E+03  0.48349204828E+03  0.50400001928E-02 0.  1.
       -1    1    3    3    0  502 -0.16341191146E+02  0.10845380620E+03 -0.11640579909E+04  0.11692135258E+04  0.50400001928E-02 0. -1.
</event>
<event>
 5   0  0.1580078E-05  0.1499152E+04  0.7818609E-02  0.8885017E-01
        1   -1    0    0  501    0  0.00000000000E+00  0.00000000000E+00  0.19954028658E+04  0.19954028658E+04  0.50400001928E-02 0.  1.
       -1   -1    0    0    0  501  0.00000000000E+00  0.00000000000E+00 -0.28157947814E+03  0.28157947819E+03  0.50400001928E-02 0. -1.
    10030    2    1    2    0    0  0.00000000000E+00  0.00000000000E+00  0.17138233877E+04  0.22769823440E+04  0.14991524241E+04 0.  0.
        2    1    3    3  502    0 -0.13978487583E+03  0.45258756157E+03 -0.25444222413E+02  0.47436559831E+03  0.25500000920E-02 0. -1.
       -2    1    3    3    0  502  0.13978487583E+03 -0.45258756157E+03  0.17392676101E+04  0.18026167457E+04  0.25500000920E-02 0.  1.
</event>
<event>
 5   0  0.3070497E-05  0.1500292E+04  0.7818609E-02  0.8884259E-01
        2   -1    0    0  501    0  0.00000000000E+00  0.00000000000E+00  0.12584528360E+04  0.12584528360E+04  0.25500000920E-02 0.  1.
       -2   -1    0    0    0  501  0.00000000000E+00  0.00000000000E+00 -0.44715144910E+03  0.44715144911E+03  0.25500000920E-02 0. -1.
    10030    2    1    2    0    0  0.00000000000E+00  0.00000000000E+00  0.81130138689E+03  0.17056042851E+04  0.15002919839E+04 0.  0.
        4    1    3    3  502    0  0.51515809245E+02 -0.45824010563E+03  0.10782955786E+04  0.11727577929E+04  0.12699999809E+01 0.  1.
       -4    1    3    3    0  502 -0.51515809245E+02  0.45824010563E+03 -0.26699419169E+03  0.53284649225E+03  0.12699999809E+01 0. -1.
</event>
<event>
 5   0  0.2969498E-05  0.1499882E+04  0.7818609E-02  0.8884531E-01
       -2   -1    0    0    0  501  0.00000000000E+00  0.00000000000E+00  0.39096765333E+03  0.39096765334E+03  0.25500000920E-02 0.  1.
        2   -1    0    0  501    0  0.00000000000E+00  0.00000000000E+00 -0.14385113305E+04  0.14385113305E+04  0.25500000920E-02 0. -1.
    10030    2    1    2    0    0  0.00000000000E+00  0.00000000000E+00 -0.10475436772E+04  0.18294789839E+04  0.14998818609E+04 0.  0.
        3    1    3    3  502    0  0.61172740160E+03  0.43315037999E+03 -0.49435278805E+03  0.89789440070E+03  0.10100000352E+00 0. -1.
       -3    1    3    3    0  502 -0.61172740160E+03 -0.43315037999E+03 -0.55319088914E+03  0.93158458316E+03  0.10100000352E+00 0.  1.
</event>
<event>
 5   0  0.1580078E-05  0.1500573E+04  0.7818609E-02  0.8884072E-01
       -1   -1    0    0    0  501  0.00000000000E+00  0.00000000000E+00  0.91115623666E+03  0.91115623668E+03  0.50400001928E-02 0.  1.
        1   -1    0    0  501    0  0.00000000000E+00  0.00000000000E+00 -0.61781893710E+03  0.61781893712E+03  0.50400001928E-02 0. -1.
    10030    2    1    2    0    0  0.00000000000E+00  0.00000000000E+00  0.29333729956E+03  0.15289751738E+04  0.15005726610E+04 0.  0.
        2    1    3    3  502    0  0.36290303281E+03  0.43328406395E+03  0.64946164474E+03  0.86094954515E+03  0.25500000920E-02 0.  1.
       -2    1    3    3    0  502 -0.36290303281E+03 -0.43328406395E+03 -0.35612434518E+03  0.66802562865E+03  0.25500000920E-02 0. -1.
</event>
<event>
 5   0  0.1643498E-05  0.1500289E+04  0.7818609E-02  0.8884261E-01
        1   -1    0    0  501    0  0.00000000000E+00  0.00000000000E+00  0.82350127175E+03  0.82350127177E+03  0.50400001928E-02 0. -1.
       -1   -1    0    0    0  501  0.00000000000E+00  0.00000000000E+00 -0.68332258101E+03  0.68332258102E+03  0.50400001928E-02 0.  1.
    10030    2    1    2    0    0  0.00000000000E+00  0.00000000000E+00  0.14017869075E+03  0.15068238528E+04  0.15002893248E+04 0.  0.
        4    1    3    3  502    0 -0.65070613313E+03 -0.19527381280E+03  0.38953924506E+03  0.78313011052E+03  0.12699999809E+01 0. -1.
       -4    1    3    3    0  502  0.65070613313E+03  0.19527381280E+03 -0.24936055432E+03  0.72369374227E+03  0.12699999809E+01 0.  1.
</event>
<event>
 5   0  0.1588657E-05  0.1499905E+04  0.7818609E-02  0.8884516E-01
        1   -1    0    0  501    0  0.00000000000E+00  0.00000000000E+00  0.81428020246E+03  0.81428020247E+03  0.50400001928E-02 0.  1.
       -1   -1    0    0    0  501  0.00000000000E+00  0.00000000000E+00 -0.69070652121E+03  0.69070652122E+03  0.50400001928E-02 0. -1.
    10030    2    1    2    0    0  0.00000000000E+00  0.00000000000E+00  0.12357368125E+03  0.15049867237E+04  0.14999048583E+04 0.  0.
        3    1    3    3  502    0 -0.39713492654E+02  0.58736810569E+03  0.52795774854E+03  0.79077041391E+03  0.10100000352E+00 0.  1.
       -3    1    3    3    0  502  0.39713492654E+02 -0.58736810569E+03 -0.40438406729E+03  0.71421630978E+03  0.10100000352E+00 0. -1.
</event>
<event>
 5   0  0.1588657E-05  0.1499277E+04  0.7818609E-02  0.8884934E-01
        1   -1    0    0  501    0  0.00000000000E+00  0.00000000000E+00  0.62173511708E+03  0.62173511710E+03  0.50400001928E-02 0. -1.
       -1   -1    0    0    0  501  0.00000000000E+00  0.00000000000E+00 -0.90385381912E+03  0.90385381913E+03  0.50400001928E-02 0.  1.
    10030    2    1    2    0    0  0.00000000000E+00  0.00000000000E+00 -0.28211870203E+03  0.15255889362E+04  0.14992767057E+04 0.  0.
        3    1    3    3  502    0 -0.24779238187E+03 -0.42910684933E+03  0.43132845709E+03  0.65694596486E+03  0.10100000352E+00 0. -1.
       -3    1    3    3    0  502  0.24779238187E+03  0.42910684933E+03 -0.71344715912E+03  0.86864297137E+03  0.10100000352E+00 0.  1.
</event>
<event>
 5   0  0.2969498E-05  0.1498581E+04  0.7818609E-02  0.8885397E-01
        2   -1    0    0  501    0  0.00000000000E+00  0.00000000000E+00  0.19472976921E+04  0.19472976921E+04  0.25500000920E-02 0.  1.
       -2   -1    0    0    0  501  0.00000000000E+00  0.00000000000E+00 -0.28831549543E+03  0.28831549545E+03  0.25500000920E-02 0. -1.
    10030    2    1    2    0    0  0.00000000000E+00  0.00000000000E+00  0.16589821967E+04  0.22356131876E+04  0.14985807938E+04 0.  0.
        3    1    3    3  502    0  0.38473690995E+03 -0.51799968828E+03  0.13977354451E+04  0.15394838588E+04  0.10100000352E+00 0.  1.
       -3    1    3    3    0  502 -0.38473690995E+03  0.51799968828E+03  0.26124675164E+03  0.69612932878E+03  0.10100000352E+00 0. -1.
</event>
<event>
 5   0  0.3030702E-05  0.1499908E+04  0.7818609E-02  0.8884514E-01
        2   -1    0    0  501    0  0.00000000000E+00  0.00000000000E+00  0.15894063675E+04  0.15894063675E+04  0.25500000920E-02 0.  1.
       -2   -1    0    0    0  501  0.00000000000E+00  0.00000000000E+00 -0.35386241973E+03  0.35386241974E+03  0.25500000920E-02 0. -1.
    10030    2    1    2    0    0  0.00000000000E+00  0.00000000000E+00  0.12355439478E+04  0.19432687873E+04  0.14999082414E+04 0.  0.
        5    1    3    3  502    0 -0.29220427478E+03  0.41886577040E+03  0.13292597638E+04  0.14240033292E+04  0.46999998093E+01 0.  1.
       -5    1    3    3    0  502  0.29220427478E+03 -0.41886577040E+03 -0.93715816001E+02  0.51926545811E+03  0.46999998093E+01 0. -1.
</event>
<event>
 5   0  0.3018308E-05  0.1500074E+04  0.7818609E-02  0.8884404E-01
        2   -1    0    0  501    0  0.00000000000E+00  0.00000000000E+00  0.87090173786E+03  0.87090173786E+03  0.25500000920E-02 0.  1.
       -2   -1    0    0    0  501  0.00000000000E+00  0.00000000000E+00 -0.64594563984E+03  0.64594563984E+03  0.25500000920E-02 0. -1.
    10030    2    1    2    0    0  0.00000000000E+00  0.00000000000E+00  0.22495609802E+03  0.15168473777E+04  0.15000735719E+04 0.  0.
        2    1    3    3  502    0  0.62663806616E+03  0.18364716089E+03 -0.26063801293E+03  0.70308869956E+03  0.25500000920E-02 0. -1.
       -2    1    3    3    0  502 -0.62663806616E+03 -0.18364716089E+03  0.48559411095E+03  0.81375867815E+03  0.25500000920E-02 0.  1.
</event>
<event>
 5   0  0.1576214E-05  0.1500346E+04  0.7818609E-02  0.8884223E-01
       -1   -1    0    0    0  501  0.00000000000E+00  0.00000000000E+00  0.44185209716E+03  0.44185209719E+03  0.50400001928E-02 0.  1.
        1   -1    0    0  501    0  0.00000000000E+00  0.00000000000E+00 -0.12736377310E+04  0.12736377310E+04  0.50400001928E-02 0. -1.
    10030    2    1    2    0    0  0.00000000000E+00  0.00000000000E+00 -0.83178563385E+03  0.17154898282E+04  0.15003459634E+04 0.  0.
        1    1    3    3  502    0 -0.62908845840E+03  0.40279688569E+03 -0.49479446727E+03  0.89600177705E+03  0.50400001928E-02 0. -1.
       -1    1    3    3    0  502  0.62908845840E+03 -0.40279688569E+03 -0.33699116658E+03  0.81948805116E+03  0.50400001928E-02 0.  1.
</event>
<event>
 5   0  0.3018308E-05  0.1500111E+04  0.7818609E-02  0.8884379E-01
       -2   -1    0    0    0  501  0.00000000000E+00  0.00000000000E+00  0.10314470637E+04  0.10314470637E+04  0.25500000920E-02 0.  1.
        2   -1    0    0  501    0  0.00000000000E+00  0.00000000000E+00 -0.54543089194E+03  0.54543089195E+03  0.25500000920E-02 0. -1.
    10030    2    1    2    0    0  0.00000000000E+00  0.00000000000E+00  0.48601617174E+03  0.15768779556E+04  0.15001107852E+04 0.  0.
        2    1    3    3  502    0 -0.30213444304E+03 -0.66430787201E+03  0.60960831446E+02  0.73232942961E+03  0.25500000920E-02 0.  1.
       -2    1    3    3    0  502  0.30213444304E+03  0.66430787201E+03  0.42505534029E+03  0.84454852602E+03  0.25500000920E-02 0. -1.
</event>
<event>
 5   0  0.1576214E-05  0.1499794E+04  0.7818609E-02  0.8884590E-01
        1   -1    0    0  501    0  0.00000000000E+00  0.00000000000E+00  0.42754582367E+03  0.42754582370E+03  0.50400001928E-02 0. -1.
       -1   -1    0    0    0  501  0.00000000000E+00  0.00000000000E+00 -0.13152866253E+04  0.13152866254E+04  0.50400001928E-02 0.  1.
    10030    2    1    2    0    0  0.00000000000E+00  0.00000000000E+00 -0.88774080168E+03  0.17428324491E+04  0.14997937240E+04 0.  0.
        1    1    3    3  502    0 -0.54051665057E+03 -0.29358263185E+03  0.54587680227E+02  0.61751827999E+03  0.50400001928E-02 0. -1.
       -1    1    3    3    0  502  0.54051665057E+03  0.29358263185E+03 -0.94232848190E+03  0.11253141691E+04  0.50400001928E-02 0.  1.
</event>
<event>
 5   0  0.1533777E-05  0.1500608E+04  0.7818609E-02  0.8884049E-01
        1   -1    0    0  501    0  0.00000000000E+00  0.00000000000E+00  0.78161628305E+03  0.78161628307E+03  0.50400001928E-02 0.  1.
       -1   -1    0    0    0  501  0.00000000000E+00  0.00000000000E+00 -0.72024577295E+03  0.72024577297E+03  0.50400001928E-02 0. -1.
    10030    2    1    2    0    0  0.00000000000E+00  0.00000000000E+00  0.61370510106E+02  0.15018620560E+04  0.15006076422E+04 0.  0.
        5    1    3    3  502    0  0.38573928069E+03  0.52319369147E+03 -0.34433760293E+03  0.73560648872E+03  0.46999998093E+01 0. -1.
       -5    1    3    3    0  502 -0.38573928069E+03 -0.52319369147E+03  0.40570811304E+03  0.76625556732E+03  0.46999998093E+01 0.  1.
</event>
<event>
 5   0  0.3070497E-05  0.1500411E+04  0.7818609E-02  0.8884180E-01
        2   -1    0    0  501    0  0.00000000000E+00  0.00000000000E+00  0.70958010209E+03  0.70958010210E+03  0.25500000920E-02 0. -1.
       -2   -1    0    0    0  501  0.00000000000E+00  0.00000000000E+00 -0.79315702558E+03  0.79315702559E+03  0.25500000920E-02 0.  1.
    10030    2    1    2    0    0  0.00000000000E+00  0.00000000000E+00 -0.83576923489E+02  0.15027371277E+04  0.15004112012E+04 0.  0.
        4    1    3    3  502    0  0.54799511864E+01  0.44154810966E+03 -0.64920373182E+03  0.78515085258E+03  0.12699999809E+01 0.  1.
       -4    1    3    3    0  502 -0.54799511864E+01 -0.44154810966E+03  0.56562680833E+03  0.71758627510E+03  0.12699999809E+01 0. -1.
</event>
<event>
 5   0  0.1588657E-05  0.1499882E+04  0.7818609E-02  0.8884532E-01
       -1   -1    0    0    0  501  0.00000000000E+00  0.00000000000E+00  0.41634386319E+03  0.41634386322E+03  0.50400001928E-02 0. -1.
        1   -1    0    0  501    0  0.00000000000E+00  0.00000000000E+00 -0.13508338003E+04  0.13508338003E+04  0.50400001928E-02 0.  1.
    10030    2    1    2    0    0  0.00000000000E+00  0.00000000000E+00 -0.93448993710E+03  0.17671776635E+04  0.14998818127E+04 0.  0.
        3    1    3    3  502    0  0.14654412528E+03 -0.27459709934E+03 -0.12711379305E+04  0.13086903362E+04  0.10100000352E+00 0.  1.
       -3    1    3    3    0  502 -0.14654412528E+03  0.27459709934E+03  0.33664799340E+03  0.45848732728E+03  0.10100000352E+00 0. -1.
</event>
<event>
 5   0  0.1116613E-05  0.1500237E+04  0.7818609E-02  0.8884295E-01
       -3   -1    0    0    0  501  0.00000000000E+00  0.00000000000E+00  0.75989049292E+03  0.75989049963E+03  0.10100000352E+00 0.  1.
        3   -1    0    0  501    0  0.00000000000E+00  0.00000000000E+00 -0.74047243451E+03  0.74047244139E+03  0.10100000352E+00 0. -1.
    10030    2    1    2    0    0  0.00000000000E+00  0.00000000000E+00  0.19418058413E+02  0.15003629410E+04  0.15002372792E+04 0.  0.
        4    1    3    3  502    0 -0.95893355910E+02  0.58150866489E+03 -0.45436485652E+03  0.74417531455E+03  0.12699999809E+01 0. -1.
       -4    1    3    3    0  502  0.95893355910E+02 -0.58150866489E+03  0.47378291493E+03  0.75618762647E+03  0.12699999809E+01 0.  1.
</event>
<event>
 5   0  0.1576214E-05  0.1495678E+04  0.7818609E-02  0.8887332E-01
        1   -1    0    0  501    0  0.00000000000E+00  0.00000000000E+00  0.77714746533E+03  0.77714746535E+03  0.50400001928E-02 0.  1.
       -1   -1    0    0    0  501  0.00000000000E+00  0.00000000000E+00 -0.71963600239E+03  0.71963600241E+03  0.50400001928E-02 0. -1.
    10030    2    1    2    0    0  0.00000000000E+00  0.00000000000E+00  0.57511462942E+02  0.14967834678E+04  0.14956781676E+04 0.  0.
        1    1    3    3  502    0  0.55776279457E+03  0.42404355394E+02  0.52547506080E+03  0.76747736377E+03  0.50400001928E-02 0.  1.
       -1    1    3    3    0  502 -0.55776279457E+03 -0.42404355394E+02 -0.46796359785E+03  0.72930610398E+03  0.50400001928E-02 0. -1.
</event>
<event>
 5   0  0.1580078E-05  0.1498883E+04  0.7818609E-02  0.8885196E-01
       -1   -1    0    0    0  501  0.00000000000E+00  0.00000000000E+00  0.48179021110E+03  0.48179021112E+03  0.50400001928E-02 0. -1.
        1   -1    0    0  501    0  0.00000000000E+00  0.00000000000E+00 -0.11657831168E+04  0.11657831168E+04  0.50400001928E-02 0.  1.
    10030    2    1    2    0    0  0.00000000000E+00  0.00000000000E+00 -0.68399290574E+03  0.16475733280E+04  0.14988834431E+04 0.  0.
        2    1    3    3  502    0  0.30690832265E+03 -0.77955561787E+02  0.40464558959E+03  0.51381693365E+03  0.25500000920E-02 0. -1.
       -2    1    3    3    0  502 -0.30690832265E+03  0.77955561787E+02 -0.10886384953E+04  0.11337563943E+04  0.25500000920E-02 0.  1.
</event>
<event>
 5   0  0.1643498E-05  0.1501013E+04  0.7818609E-02  0.8883780E-01
       -1   -1    0    0    0  501  0.00000000000E+00  0.00000000000E+00  0.33436699679E+03  0.33436699683E+03  0.50400001928E-02 0.  1.
        1   -1    0    0  501    0  0.00000000000E+00  0.00000000000E+00 -0.16845558437E+04  0.16845558437E+04  0.50400001928E-02 0. -1.
    10030    2    1    2    0    0  0.00000000000E+00  0.00000000000E+00 -0.13501888469E+04  0.20189228406E+04  0.15010128293E+04 0.  0.
        4    1    3    3  502    0  0.80723870841E+02 -0.10448692892E+03 -0.16688093004E+04  0.16740250761E+04  0.12699999809E+01 0. -1.
       -4    1    3    3    0  502 -0.80723870841E+02  0.10448692892E+03  0.31862045345E+03  0.34489776441E+03  0.12699999809E+01 0.  1.
</event>
<event>
 5   0  0.1533777E-05  0.1500404E+04  0.7818609E-02  0.8884184E-01
       -1   -1    0    0    0  501  0.00000000000E+00  0.00000000000E+00  0.79044627981E+03  0.79044627982E+03  0.50400001928E-02 0. -1.
        1   -1    0    0  501    0  0.00000000000E+00  0.00000000000E+00 -0.71200700051E+03  0.71200700053E+03  0.50400001928E-02 0.  1.
    10030    2    1    2    0    0  0.00000000000E+00  0.00000000000E+00  0.78439279295E+02  0.15024532803E+04  0.15004043252E+04 0.  0.
        5    1    3    3  502    0  0.41697437893E+02 -0.43411498819E+02 -0.70957016893E+03  0.71213422133E+03  0.46999998093E+01 0.  1.
       -5    1    3    3    0  502 -0.41697437893E+02  0.43411498819E+02  0.78800944823E+03  0.79031905902E+03  0.46999998093E+01 0. -1.
</event>
<event>
 5   0  0.3093600E-05  0.1499421E+04  0.7818609E-02  0.8884838E-01
       -2   -1    0    0    0  501  0.00000000000E+00  0.00000000000E+00  0.39153364551E+03  0.39153364552E+03  0.25500000920E-02 0.  1.
        2   -1    0    0  501    0  0.00000000000E+00  0.00000000000E+00 -0.14355485964E+04  0.14355485964E+04  0.25500000920E-02 0. -1.
    10030    2    1    2    0    0  0.00000000000E+00  0.00000000000E+00 -0.10440149509E+04  0.18270822419E+04  0.14994206551E+04 0.  0.
        1    1    3    3  502    0 -0.62946668721E+02 -0.74531754542E+03 -0.58420062105E+03  0.94907897052E+03  0.50400001928E-02 0. -1.
       -1    1    3    3    0  502  0.62946668721E+02  0.74531754542E+03 -0.45981432981E+03  0.87800327137E+03  0.50400001928E-02 0.  1.
</event>
<event>
 5   0  0.1580078E-05  0.1499804E+04  0.7818609E-02  0.8884583E-01
       -1   -1    0    0    0  501  0.00000000000E+00  0.00000000000E+00  0.40572601009E+03  0.40572601012E+03  0.50400001928E-02 0.  1.
        1   -1    0    0  501    0  0.00000000000E+00  0.00000000000E+00 -0.13860419783E+04  0.13860419783E+04  0.50400001928E-02 0. -1.
    10030    2    1    2    0    0  0.00000000000E+00  0.00000000000E+00 -0.98031596824E+03  0.17917679885E+04  0.14998043629E+04 0.  0.
        2    1    3    3  502    0  0.14428609465E+03 -0.55418645657E+03 -0.10685699167E+04  0.12123459789E+04  0.25500000920E-02 0. -1.
       -2    1    3    3    0  502 -0.14428609465E+03  0.55418645657E+03  0.88253948421E+02  0.57942200957E+03  0.25500000920E-02 0.  1.
</event>
<event>
 5   0  0.2969498E-05  0.1502354E+04  0.7818609E-02  0.8882889E-01
       -2   -1    0    0    0  501  0.00000000000E+00  0.00000000000E+00  0.47368172155E+03  0.47368172156E+03  0.25500000920E-02 0.  1.
        2   -1    0    0  501    0  0.00000000000E+00  0.00000000000E+00 -0.11912370834E+04  0.11912370834E+04  0.25500000920E-02 0. -1.
    10030    2    1    2    0    0  0.00000000000E+00  0.00000000000E+00 -0.71755536186E+03  0.16649188050E+04  0.15023544621E+04 0.  0.
        3    1    3    3  502    0  0.44134877237E+03 -0.47994386663E+03 -0.77214366555E+03  0.10106140235E+04  0.10100000352E+00 0. -1.
       -3    1    3    3    0  502 -0.44134877237E+03  0.47994386663E+03  0.54588303689E+02  0.65430478150E+03  0.10100000352E+00 0.  1.
</event>
<event>
 5   0  0.1643498E-05  0.1499352E+04  0.7818609E-02  0.8884884E-01
        1   -1    0    0  501    0  0.00000000000E+00  0.00000000000E+00  0.48244653807E+03  0.48244653810E+03  0.50400001928E-02 0. -1.
       -1   -1    0    0    0  501  0.00000000000E+00  0.00000000000E+00 -0.11649258601E+04  0.11649258601E+04  0.50400001928E-02 0.  1.
    10030    2    1    2    0    0  0.00000000000E+00  0.00000000000E+00 -0.68247932206E+03  0.16473723982E+04  0.14993524580E+04 0.  0.
        4    1    3    3  502    0  0.74061530527E+03  0.72295722378E+02 -0.44118799419E+03  0.86509315163E+03  0.12699999809E+01 0.  1.
       -4    1    3    3    0  502 -0.74061530527E+03 -0.72295722378E+02 -0.24129132787E+03  0.78227924661E+03  0.12699999809E+01 0. -1.
</event>
<event>
 5   0  0.3093600E-05  0.1499620E+04  0.7818609E-02  0.8884705E-01
       -2   -1    0    0    0  501  0.00000000000E+00  0.00000000000E+00  0.22233575892E+03  0.22233575894E+03  0.25500000920E-02 0. -1.
        2   -1    0    0  501    0  0.00000000000E+00  0.00000000000E+00 -0.25286768182E+04  0.25286768182E+04  0.25500000920E-02 0.  1.
    10030    2    1    2    0    0  0.00000000000E+00  0.00000000000E+00 -0.23063410593E+04  0.27510125772E+04  0.14996203246E+04 0.  0.
        1    1    3    3  502    0  0.51458459943E+03  0.46962540654E+03 -0.64455507909E+03  0.94910304100E+03  0.50400001928E-02 0. -1.
       -1    1    3    3    0  502 -0.51458459943E+03 -0.46962540654E+03 -0.16617859802E+04  0.18019095362E+04  0.50400001928E-02 0.  1.
</event>
<event>
 5   0  0.1588657E-05  0.1500148E+04  0.7818609E-02  0.8884355E-01
        1   -1    0    0  501    0  0.00000000000E+00  0.00000000000E+00  0.70365915668E+03  0.70365915669E+03  0.50400001928E-02 0.  1.
       -1   -1    0    0    0  501  0.00000000000E+00  0.00000000000E+00 -0.79955001054E+03  0.79955001056E+03  0.50400001928E-02 0. -1.
    10030    2    1    2    0    0  0.00000000000E+00  0.00000000000E+00 -0.95890853868E+02  0.15032091673E+04  0.15001475743E+04 0.  0.
        3    1    3    3  502    0 -0.69234383456E+02  0.64758537175E+03 -0.42079413005E+03  0.77538888543E+03  0.10100000352E+00 0. -1.
       -3    1    3    3    0  502  0.69234383456E+02 -0.64758537175E+03  0.32490327618E+03  0.72782028183E+03  0.10100000352E+00 0.  1.
</event>
<event>
 5   0  0.3070497E-05  0.1500327E+04  0.7818609E-02  0.8884235E-01
       -2   -1    0    0    0  501  0.00000000000E+00  0.00000000000E+00  0.52546591749E+03  0.52546591750E+03  0.25500000920E-02 0.  1.
        2   -1    0    0  501    0  0.00000000000E+00  0.00000000000E+00 -0.10709456167E+04  0.10709456167E+04  0.25500000920E-02 0. -1.
    10030    2    1    2    0    0  0.00000000000E+00  0.00000000000E+00 -0.54547969923E+03  0.15964115342E+04  0.15003271924E+04 0.  0.
        4    1    3    3  502    0  0.20872801117E+03  0.43825212831E+03  0.33582488347E+03  0.59026458124E+03  0.12699999809E+01 0.  1.
       -4    1    3    3    0  502 -0.20872801117E+03 -0.43825212831E+03 -0.88130458269E+03  0.10061469530E+04  0.12699999809E+01 0. -1.
</event>
<event>
 5   0  0.1116613E-05  0.1500064E+04  0.7818609E-02  0.8884411E-01
        3   -1    0    0  501    0  0.00000000000E+00  0.00000000000E+00  0.10566957380E+04  0.10566957428E+04  0.10100000352E+00 0.  1.
       -3   -1    0    0    0  501  0.00000000000E+00  0.00000000000E+00 -0.53236495775E+03  0.53236496733E+03  0.10100000352E+00 0. -1.
    10030    2    1    2    0    0  0.00000000000E+00  0.00000000000E+00  0.52433078020E+03  0.15890607101E+04  0.15000637231E+04 0.  0.
        5    1    3    3  502    0  0.28944673804E+03  0.65638032789E+03  0.49403781222E+03  0.87103960812E+03  0.46999998093E+01 0. -1.
       -5    1    3    3    0  502 -0.28944673804E+03 -0.65638032789E+03  0.30292967973E+02  0.71802110199E+03  0.46999998093E+01 0.  1.
</event>
<event>
 5   0  0.3070497E-05  0.1499947E+04  0.7818609E-02  0.8884488E-01
        2   -1    0    0  501    0  0.00000000000E+00  0.00000000000E+00  0.11781873674E+04  0.11781873674E+04  0.25500000920E-02 0.  1.
       -2   -1    0    0    0  501  0.00000000000E+00  0.00000000000E+00 -0.47739445662E+03  0.47739445663E+03  0.25500000920E-02 0. -1.
    10030    2    1    2    0    0  0.00000000000E+00  0.00000000000E+00  0.70079291079E+03  0.16555818240E+04  0.14999468232E+04 0.  0.
        4    1    3    3  502    0 -0.12803320062E+03  0.66151326090E+03  0.71391119135E+03  0.98166343359E+03  0.12699999809E+01 0.  1.
       -4    1    3    3    0  502  0.12803320062E+03 -0.66151326090E+03 -0.13118280554E+02  0.67391839046E+03  0.12699999809E+01 0. -1.
</event>
<event>
 5   0  0.3030702E-05  0.1500022E+04  0.7818609E-02  0.8884438E-01
        2   -1    0    0  501    0  0.00000000000E+00  0.00000000000E+00  0.63696949293E+03  0.63696949294E+03  0.25500000920E-02 0.  1.
       -2   -1    0    0    0  501  0.00000000000E+00  0.00000000000E+00 -0.88311398424E+03  0.88311398425E+03  0.25500000920E-02 0. -1.
    10030    2    1    2    0    0  0.00000000000E+00  0.00000000000E+00 -0.24614449131E+03  0.15200834772E+04  0.15000222222E+04 0.  0.
        5    1    3    3  502    0  0.14759129166E+03  0.12096495802E+03 -0.85808550427E+03  0.87906116573E+03  0.46999998093E+01 0. -1.
       -5    1    3    3    0  502 -0.14759129166E+03 -0.12096495802E+03  0.61194101297E+03  0.64102231146E+03  0.46999998093E+01 0.  1.
</event>
<event>
 5   0  0.3018308E-05  0.1499795E+04  0.7818609E-02  0.8884589E-01
       -2   -1    0    0    0  501  0.00000000000E+00  0.00000000000E+00  0.76371704545E+03  0.76371704546E+03  0.25500000920E-02 0.  1.
        2   -1    0    0  501    0  0.00000000000E+00  0.00000000000E+00 -0.73632780855E+03  0.73632780856E+03  0.25500000920E-02 0. -1.
    10030    2    1    2    0    0  0.00000000000E+00  0.00000000000E+00  0.27389236902E+02  0.15000448540E+04  0.14997947839E+04 0.  0.
        2    1    3    3  502    0 -0.22647058022E+03  0.71359522818E+03 -0.29196387162E+02  0.74923928248E+03  0.25500000920E-02 0. -1.
       -2    1    3    3    0  502  0.22647058022E+03 -0.71359522818E+03  0.56585624064E+02  0.75080557153E+03  0.25500000920E-02 0.  1.
</event>
<event>
 5   0  0.2969498E-05  0.1499974E+04  0.7818609E-02  0.8884470E-01
       -2   -1    0    0    0  501  0.00000000000E+00  0.00000000000E+00  0.39236183225E+03  0.39236183226E+03  0.25500000920E-02 0.  1.
        2   -1    0    0  501    0  0.00000000000E+00  0.00000000000E+00 -0.14335752199E+04  0.14335752199E+04  0.25500000920E-02 0. -1.
    10030    2    1    2    0    0  0.00000000000E+00  0.00000000000E+00 -0.10412133876E+04  0.18259370521E+04  0.14999735997E+04 0.  0.
        3    1    3    3  502    0 -0.25442462243E+03 -0.65947927475E+03 -0.82575034239E+03  0.10869721434E+04  0.10100000352E+00 0. -1.
       -3    1    3    3    0  502  0.25442462243E+03  0.65947927475E+03 -0.21546304524E+03  0.73896490876E+03  0.10100000352E+00 0.  1.
</event>
<event>
 5   0  0.2969498E-05  0.1501901E+04  0.7818609E-02  0.8883190E-01
       -2   -1    0    0    0  501  0.00000000000E+00  0.00000000000E+00  0.60074944012E+03  0.60074944013E+03  0.25500000920E-02 0. -1.
        2   -1    0    0  501    0  0.00000000000E+00  0.00000000000E+00 -0.93870476764E+03  0.93870476764E+03  0.25500000920E-02 0.  1.
    10030    2    1    2    0    0  0.00000000000E+00  0.00000000000E+00 -0.33795532752E+03  0.15394542078E+04  0.15019006140E+04 0.  0.
        3    1    3    3  502    0  0.15358577388E+03 -0.72239744176E+03 -0.30831677426E+03  0.80031612335E+03  0.10100000352E+00 0. -1.
       -3    1    3    3    0  502 -0.15358577388E+03  0.72239744176E+03 -0.29638553252E+02  0.73913808442E+03  0.10100000352E+00 0.  1.
</event>
<event>
 5   0  0.3018308E-05  0.1500216E+04  0.7818609E-02  0.8884309E-01
        2   -1    0    0  501    0  0.00000000000E+00  0.00000000000E+00  0.14972338080E+04  0.14972338080E+04  0.25500000920E-02 0.  1.
       -2   -1    0    0    0  501  0.00000000000E+00  0.00000000000E+00 -0.37580110794E+03  0.37580110795E+03  0.25500000920E-02 0. -1.
    10030    2    1    2    0    0  0.00000000000E+00  0.00000000000E+00  0.11214327001E+04  0.18730349160E+04  0.15002161496E+04 0.  0.
        2    1    3    3  502    0  0.67104480820E+03  0.72471596742E+02  0.96932234045E+03  0.11811600512E+04  0.25500000920E-02 0.  1.
       -2    1    3    3    0  502 -0.67104480820E+03 -0.72471596742E+02  0.15211035964E+03  0.69187486474E+03  0.25500000920E-02 0. -1.
</event>
<event>
 5   0  0.1116613E-05  0.1499924E+04  0.7818609E-02  0.8884504E-01
        3   -1    0    0  501    0  0.00000000000E+00  0.00000000000E+00  0.43820867179E+03  0.43820868343E+03  0.10100000352E+00 0. -1.
       -3   -1    0    0    0  501  0.00000000000E+00  0.00000000000E+00 -0.12835042607E+04  0.12835042647E+04  0.10100000352E+00 0.  1.
    10030    2    1    2    0    0  0.00000000000E+00  0.00000000000E+00 -0.84529558891E+03  0.17217129481E+04  0.14999236124E+04 0.  0.
        1    1    3    3  502    0 -0.54847950458E+03 -0.20078029714E+03 -0.96263382225E+03  0.11259690806E+04  0.50400001928E-02 0.  1.
       -1    1    3    3    0  502  0.54847950458E+03  0.20078029714E+03  0.11733823334E+03  0.59574386752E+03  0.50400001928E-02 0. -1.
</event>
<event>
 5   0  0.1116613E-05  0.1497891E+04  0.7818609E-02  0.8885856E-01
        4   -1    0    0  501    0  0.00000000000E+00  0.00000000000E+00  0.84464712396E+03  0.84464807874E+03  0.12699999809E+01 0.  1.
       -4   -1    0    0    0  501  0.00000000000E+00  0.00000000000E+00 -0.66408560710E+03  0.66408682148E+03  0.12699999809E+01 0. -1.
    10030    2    1    2    0    0  0.00000000000E+00  0.00000000000E+00  0.18056151686E+03  0.15087349002E+04  0.14978913638E+04 0.  0.
        1    1    3    3  502    0  0.65469062856E+03  0.36287958549E+03  0.11532481923E+03  0.75736465897E+03  0.50400001928E-02 0. -1.
       -1    1    3    3    0  502 -0.65469062856E+03 -0.36287958549E+03  0.65236697628E+02  0.75137024125E+03  0.50400001928E-02 0.  1.
</event>
<event>
 5   0  0.2969498E-05  0.1500026E+04  0.7818609E-02  0.8884436E-01
        2   -1    0    0  501    0  0.00000000000E+00  0.00000000000E+00  0.16968318989E+04  0.16968318989E+04  0.25500000920E-02 0. -1.
       -2   -1    0    0    0  501  0.00000000000E+00  0.00000000000E+00 -0.33151147017E+03  0.33151147018E+03  0.25500000920E-02 0.  1.
    10030    2    1    2    0    0  0.00000000000E+00  0.00000000000E+00  0.13653204288E+04  0.20283433691E+04  0.15000256497E+04 0.  0.
        3    1    3    3  502    0 -0.46482444827E+03  0.46033704549E+03  0.11786585588E+04  0.13480385646E+04  0.10100000352E+00 0. -1.
       -3    1    3    3    0  502  0.46482444827E+03 -0.46033704549E+03  0.18666186993E+03  0.68030480451E+03  0.10100000352E+00 0.  1.
</event>
<event>
 5   0  0.1643498E-05  0.1500747E+04  0.7818609E-02  0.8883956E-01
        1   -1    0    0  501    0  0.00000000000E+00  0.00000000000E+00  0.17501900501E+04  0.17501900501E+04  0.50400001928E-02 0.  1.
       -1   -1    0    0    0  501  0.00000000000E+00  0.00000000000E+00 -0.32171391747E+03  0.32171391751E+03  0.50400001928E-02 0. -1.
    10030    2    1    2    0    0  0.00000000000E+00  0.00000000000E+00  0.14284761326E+04  0.20719039676E+04  0.15007471438E+04 0.  0.
        4    1    3    3  502    0 -0.53766254269E+03 -0.13912637855E+03  0.17595792298E+02  0.55565131497E+03  0.12699999809E+01 0. -1.
       -4    1    3    3    0  502  0.53766254269E+03  0.13912637855E+03  0.14108803403E+04  0.15162526526E+04  0.12699999809E+01 0.  1.
</event>
<event>
 5   0  0.3093600E-05  0.1497700E+04  0.7818609E-02  0.8885984E-01
        2   -1    0    0  501    0  0.00000000000E+00  0.00000000000E+00  0.12895260191E+04  0.12895260191E+04  0.25500000920E-02 0.  1.
       -2   -1    0    0    0  501  0.00000000000E+00  0.00000000000E+00 -0.43487012757E+03  0.43487012758E+03  0.25500000920E-02 0. -1.
    10030    2    1    2    0    0  0.00000000000E+00  0.00000000000E+00  0.85465589155E+03  0.17243961467E+04  0.14977000293E+04 0.  0.
        1    1    3    3  502    0  0.58921040873E+03 -0.36158477179E+03  0.75876027417E+03  0.10264646154E+04  0.50400001928E-02 0. -1.
       -1    1    3    3    0  502 -0.58921040873E+03  0.36158477179E+03  0.95895617378E+02  0.69793153131E+03  0.50400001928E-02 0.  1.
</event>
<event>
 5   0  0.3018308E-05  0.1500167E+04  0.7818609E-02  0.8884342E-01
       -2   -1    0    0    0  501  0.00000000000E+00  0.00000000000E+00  0.48791487758E+03  0.48791487758E+03  0.25500000920E-02 0.  1.
        2   -1    0    0  501    0  0.00000000000E+00  0.00000000000E+00 -0.11531211682E+04  0.11531211682E+04  0.25500000920E-02 0. -1.
    10030    2    1    2    0    0  0.00000000000E+00  0.00000000000E+00 -0.66520629060E+03  0.16410360458E+04  0.15001666222E+04 0.  0.
        2    1    3    3  502    0  0.31777669777E+03 -0.62786349422E+03 -0.61666074612E+03  0.93566290556E+03  0.25500000920E-02 0. -1.
       -2    1    3    3    0  502 -0.31777669777E+03  0.62786349422E+03 -0.48545544479E+02  0.70537314020E+03  0.25500000920E-02 0.  1.
</event>
<event>
 5   0  0.1580078E-05  0.1500030E+04  0.7818609E-02  0.8884433E-01
       -1   -1    0    0    0  501  0.00000000000E+00  0.00000000000E+00  0.87772632867E+03  0.87772632868E+03  0.50400001928E-02 0. -1.
        1   -1    0    0  501    0  0.00000000000E+00  0.00000000000E+00 -0.64088627740E+03  0.64088627742E+03  0.50400001928E-02 0.  1.
    10030    2    1    2    0    0  0.00000000000E+00  0.00000000000E+00  0.23684005126E+03  0.15186126061E+04  0.15000303455E+04 0.  0.
        2    1    3    3  502    0  0.17285907990E+03 -0.50443082348E+03  0.65239303710E+03  0.84258375966E+03  0.25500000920E-02 0. -1.
       -2    1    3    3    0  502 -0.17285907990E+03  0.50443082348E+03 -0.41555298584E+03  0.67602884645E+03  0.25500000920E-02 0.  1.
</event>
<event>
 5   0  0.3030702E-05  0.1500659E+04  0.7818609E-02  0.8884015E-01
        2   -1    0    0  501    0  0.00000000000E+00  0.00000000000E+00  0.43811419757E+03  0.43811419758E+03  0.25500000920E-02 0. -1.
       -2   -1    0    0    0  501  0.00000000000E+00  0.00000000000E+00 -0.12850406605E+04  0.12850406605E+04  0.25500000920E-02 0.  1.
    10030    2    1    2    0    0  0.00000000000E+00  0.00000000000E+00 -0.84692646289E+03  0.17231548580E+04  0.15006592655E+04 0.  0.
        5    1    3    3  502    0 -0.16801877007E+02  0.33494570536E+03 -0.11941720962E+04  0.12403789800E+04  0.46999998093E+01 0.  1.
       -5    1    3    3    0  502  0.16801877007E+02 -0.33494570536E+03  0.34724563331E+03  0.48277587808E+03  0.46999998093E+01 0. -1.
</event>
<event>
 5   0  0.1588657E-05  0.1499912E+04  0.7818609E-02  0.8884512E-01
        1   -1    0    0  501    0  0.00000000000E+00  0.00000000000E+00  0.11092046099E+04  0.11092046099E+04  0.50400001928E-02 0. -1.
       -1   -1    0    0    0  501  0.00000000000E+00  0.00000000000E+00 -0.50706049949E+03  0.50706049951E+03  0.50400001928E-02 0.  1.
    10030    2    1    2    0    0  0.00000000000E+00  0.00000000000E+00  0.60214411044E+03  0.16162651094E+04  0.14999117888E+04 0.  0.
        3    1    3    3  502    0 -0.33175100273E+03 -0.55391035168E+03  0.71218917057E+03  0.96129539185E+03  0.10100000352E+00 0.  1.
       -3    1    3    3    0  502  0.33175100273E+03  0.55391035168E+03 -0.11004506013E+03  0.65496971760E+03  0.10100000352E+00 0. -1.
</event>
<event>
 5   0  0.1588657E-05  0.1499147E+04  0.7818609E-02  0.8885020E-01
       -1   -1    0    0    0  501  0.00000000000E+00  0.00000000000E+00  0.74763372123E+03  0.74763372125E+03  0.50400001928E-02 0. -1.
        1   -1    0    0  501    0  0.00000000000E+00  0.00000000000E+00 -0.75151853985E+03  0.75151853986E+03  0.50400001928E-02 0.  1.
    10030    2    1    2    0    0  0.00000000000E+00  0.00000000000E+00 -0.38848186170E+01  0.14991522611E+04  0.14991472277E+04 0.  0.
        3    1    3    3  502    0 -0.23558010008E+01  0.74685129747E+02 -0.74778482524E+03  0.75150886453E+03  0.10100000352E+00 0.  1.
       -3    1    3    3    0  502  0.23558010008E+01 -0.74685129747E+02  0.74390000662E+03  0.74764339658E+03  0.10100000352E+00 0. -1.
</event>
<event>
 5   0  0.1643498E-05  0.1500310E+04  0.7818609E-02  0.8884247E-01
        1   -1    0    0  501    0  0.00000000000E+00  0.00000000000E+00  0.10868220908E+04  0.10868220908E+04  0.50400001928E-02 0. -1.
       -1   -1    0    0    0  501  0.00000000000E+00  0.00000000000E+00 -0.51777767707E+03  0.51777767709E+03  0.50400001928E-02 0.  1.
    10030    2    1    2    0    0  0.00000000000E+00  0.00000000000E+00  0.56904441370E+03  0.16045997679E+04  0.15003095915E+04 0.  0.
        4    1    3    3  502    0  0.57246576870E+03  0.34589195273E+03  0.64779813807E+03  0.93112960424E+03  0.12699999809E+01 0. -1.
       -4    1    3    3    0  502 -0.57246576870E+03 -0.34589195273E+03 -0.78753724374E+02  0.67347016363E+03  0.12699999809E+01 0.  1.
</event>
<event>
 5   0  0.3070497E-05  0.1499410E+04  0.7818609E-02  0.8884845E-01
        2   -1    0    0  501    0  0.00000000000E+00  0.00000000000E+00  0.19392282487E+04  0.19392282487E+04  0.25500000920E-02 0.  1.
       -2   -1    0    0    0  501  0.00000000000E+00  0.00000000000E+00 -0.28983571914E+03  0.28983571915E+03  0.25500000920E-02 0. -1.
    10030    2    1    2    0    0  0.00000000000E+00  0.00000000000E+00  0.16493925296E+04  0.22290639679E+04  0.14994100361E+04 0.  0.
        4    1    3    3  502    0 -0.35409835605E+03  0.32566889620E+01 -0.15767058547E+03  0.38763111098E+03  0.12699999809E+01 0. -1.
       -4    1    3    3    0  502  0.35409835605E+03 -0.32566889620E+01  0.18070631151E+04  0.18414328569E+04  0.12699999809E+01 0.  1.
</event>
<event>
 5   0  0.3018308E-05  0.1500152E+04  0.7818609E-02  0.8884352E-01
       -2   -1    0    0    0  501  0.00000000000E+00  0.00000000000E+00  0.15433696315E+04  0.15433696315E+04  0.25500000920E-02 0.  1.
        2   -1    0    0  501    0  0.00000000000E+00  0.00000000000E+00 -0.36453621336E+03  0.36453621337E+03  0.25500000920E-02 0. -1.
    10030    2    1    2    0    0  0.00000000000E+00  0.00000000000E+00  0.11788334181E+04  0.19079058449E+04  0.15001521540E+04 0.  0.
        2    1    3    3  502    0 -0.22775057287E+03  0.32430195790E+03  0.13993618999E+04  0.14543919039E+04  0.25500000920E-02 0.  1.
       -2    1    3    3    0  502  0.22775057287E+03 -0.32430195790E+03 -0.22052848176E+03  0.45351394093E+03  0.25500000920E-02 0. -1.
</event>
<event>
 5   0  0.3070497E-05  0.1499905E+04  0.7818609E-02  0.8884516E-01
       -2   -1    0    0    0  501  0.00000000000E+00  0.00000000000E+00  0.13921531612E+04  0.13921531613E+04  0.25500000920E-02 0. -1.
        2   -1    0    0  501    0  0.00000000000E+00  0.00000000000E+00 -0.40399933460E+03  0.40399933461E+03  0.25500000920E-02 0.  1.
    10030    2    1    2    0    0  0.00000000000E+00  0.00000000000E+00  0.98815382665E+03  0.17961524959E+04  0.14999052648E+04 0.  0.
        4    1    3    3  502    0 -0.39947349384E+03  0.61354082462E+03  0.29944580102E+03  0.79099988395E+03  0.12699999809E+01 0.  1.
       -4    1    3    3    0  502  0.39947349384E+03 -0.61354082462E+03  0.68870802563E+03  0.10051526119E+04  0.12699999809E+01 0. -1.
</event>
<event>
 5   0  0.3093600E-05  0.1500761E+04  0.7818609E-02  0.8883947E-01
       -2   -1    0    0    0  501  0.00000000000E+00  0.00000000000E+00  0.64220015373E+03  0.64220015373E+03  0.25500000920E-02 0. -1.
        2   -1    0    0  501    0  0.00000000000E+00  0.00000000000E+00 -0.87678456237E+03  0.87678456237E+03  0.25500000920E-02 0.  1.
    10030    2    1    2    0    0  0.00000000000E+00  0.00000000000E+00 -0.23458440864E+03  0.15189847161E+04  0.15007613811E+04 0.  0.
        1    1    3    3  502    0  0.93580203613E+01  0.58429653433E+03  0.35914775875E+03  0.68591335110E+03  0.50400001928E-02 0. -1.
       -1    1    3    3    0  502 -0.93580203613E+01 -0.58429653433E+03 -0.59373216739E+03  0.83307136500E+03  0.50400001928E-02 0.  1.
</event>
<event>
 5   0  0.2969498E-05  0.1503024E+04  0.7818609E-02  0.8882444E-01
       -2   -1    0    0    0  501  0.00000000000E+00  0.00000000000E+00  0.63418413783E+03  0.63418413783E+03  0.25500000920E-02 0.  1.
        2   -1    0    0  501    0  0.00000000000E+00  0.00000000000E+00 -0.89054630174E+03  0.89054630174E+03  0.25500000920E-02 0. -1.
    10030    2    1    2    0    0  0.00000000000E+00  0.00000000000E+00 -0.25636216391E+03  0.15247304396E+04  0.15030240698E+04 0.  0.
        3    1    3    3  502    0  0.18478715688E+03 -0.48672745494E+03  0.42160558708E+03  0.66992625713E+03  0.10100000352E+00 0.  1.
       -3    1    3    3    0  502 -0.18478715688E+03  0.48672745494E+03 -0.67796775099E+03  0.85480418244E+03  0.10100000352E+00 0. -1.
</event>
<event>
 5   0  0.1576214E-05  0.1501153E+04  0.7818609E-02  0.8883686E-01
        1   -1    0    0  501    0  0.00000000000E+00  0.00000000000E+00  0.12845451825E+04  0.12845451825E+04  0.50400001928E-02 0. -1.
       -1   -1    0    0    0  501  0.00000000000E+00  0.00000000000E+00 -0.43857182716E+03  0.43857182719E+03  0.50400001928E-02 0.  1.
    10030    2    1    2    0    0  0.00000000000E+00  0.00000000000E+00  0.84597335533E+03  0.17231170097E+04  0.15011533270E+04 0.  0.
        1    1    3    3  502    0 -0.12383926081E+03  0.53380147306E+03 -0.16577276565E+03  0.57250396070E+03  0.50400001928E-02 0.  1.
       -1    1    3    3    0  502  0.12383926081E+03 -0.53380147306E+03  0.10117461210E+04  0.11506130490E+04  0.50400001928E-02 0. -1.
</event>
<event>
 5   0  0.3018308E-05  0.1499964E+04  0.7818609E-02  0.8884477E-01
        2   -1    0    0  501    0  0.00000000000E+00  0.00000000000E+00  0.73733606593E+03  0.73733606594E+03  0.25500000920E-02 0.  1.
       -2   -1    0    0    0  501  0.00000000000E+00  0.00000000000E+00 -0.76284506401E+03  0.76284506401E+03  0.25500000920E-02 0. -1.
    10030    2    1    2    0    0  0.00000000000E+00  0.00000000000E+00 -0.25508998073E+02  0.15001811299E+04  0.14999642375E+04 0.  0.
        2    1    3    3  502    0 -0.78861617859E+02  0.98450711967E+02 -0.75215936530E+03  0.76266336497E+03  0.25500000920E-02 0. -1.
       -2    1    3    3    0  502  0.78861617859E+02 -0.98450711967E+02  0.72665036723E+03  0.73751776498E+03  0.25500000920E-02 0.  1.
</event>
<event>
 5   0  0.1580078E-05  0.1499977E+04  0.7818609E-02  0.8884468E-01
        1   -1    0    0  501    0  0.00000000000E+00  0.00000000000E+00  0.79530538719E+03  0.79530538720E+03  0.50400001928E-02 0. -1.
       -1   -1    0    0    0  501  0.00000000000E+00  0.00000000000E+00 -0.70725412575E+03  0.70725412576E+03  0.50400001928E-02 0.  1.
    10030    2    1    2    0    0  0.00000000000E+00  0.00000000000E+00  0.88051261441E+02  0.15025595130E+04  0.14999773549E+04 0.  0.
        2    1    3    3  502    0  0.70939376989E+03  0.13111028340E+03 -0.16139710735E+03  0.73924180986E+03  0.25500000920E-02 0.  1.
       -2    1    3    3    0  502 -0.70939376989E+03 -0.13111028340E+03  0.24944836879E+03  0.76331770311E+03  0.25500000920E-02 0. -1.
</event>
<event>
 5   0  0.3070497E-05  0.1500325E+04  0.7818609E-02  0.8884237E-01
       -2   -1    0    0    0  501  0.00000000000E+00  0.00000000000E+00  0.48303710567E+03  0.48303710567E+03  0.25500000920E-02 0.  1.
        2   -1    0    0  501    0  0.00000000000E+00  0.00000000000E+00 -0.11650114913E+04  0.11650114913E+04  0.25500000920E-02 0. -1.
    10030    2    1    2    0    0  0.00000000000E+00  0.00000000000E+00 -0.68197438568E+03  0.16480485970E+04  0.15003250033E+04 0.  0.
        4    1    3    3  502    0 -0.17526796548E+02  0.60661472906E+03  0.14339994499E+03  0.62358141027E+03  0.12699999809E+01 0.  1.
       -4    1    3    3    0  502  0.17526796548E+02 -0.60661472906E+03 -0.82537433067E+03  0.10244671868E+04  0.12699999809E+01 0. -1.
</event>
<event>
 5   0  0.3070497E-05  0.1500994E+04  0.7818609E-02  0.8883792E-01
       -2   -1    0    0    0  501  0.00000000000E+00  0.00000000000E+00  0.10052903470E+04  0.10052903470E+04  0.25500000920E-02 0.  1.
        2   -1    0    0  501    0  0.00000000000E+00  0.00000000000E+00 -0.56028192685E+03  0.56028192686E+03  0.25500000920E-02 0. -1.
    10030    2    1    2    0    0  0.00000000000E+00  0.00000000000E+00  0.44500842011E+03  0.15655722738E+04  0.15009943540E+04 0.  0.
        4    1    3    3  502    0  0.11877906429E+03  0.46917557370E+03 -0.37576789442E+03  0.61272939251E+03  0.12699999809E+01 0. -1.
       -4    1    3    3    0  502 -0.11877906429E+03 -0.46917557370E+03  0.82077631453E+03  0.95284288131E+03  0.12699999809E+01 0.  1.
</event>
<event>
 5   0  0.1576214E-05  0.1499870E+04  0.7818609E-02  0.8884539E-01
        1   -1    0    0  501    0  0.00000000000E+00  0.00000000000E+00  0.16159369698E+04  0.16159369698E+04  0.50400001928E-02 0. -1.
       -1   -1    0    0    0  501  0.00000000000E+00  0.00000000000E+00 -0.34803500661E+03  0.34803500664E+03  0.50400001928E-02 0.  1.
    10030    2    1    2    0    0  0.00000000000E+00  0.00000000000E+00  0.12679019632E+04  0.19639719765E+04  0.14998701731E+04 0.  0.
        1    1    3    3  502    0  0.25305979564E+03  0.14016230425E+02 -0.29025560714E+03  0.38533625885E+03  0.50400001928E-02 0.  1.
       -1    1    3    3    0  502 -0.25305979564E+03 -0.14016230425E+02  0.15581575704E+04  0.15786357176E+04  0.50400001928E-02 0. -1.
</event>
<event>
 5   0  0.1588657E-05  0.1499388E+04  0.7818609E-02  0.8884860E-01
        1   -1    0    0  501    0  0.00000000000E+00  0.00000000000E+00  0.68587523257E+03  0.68587523259E+03  0.50400001928E-02 0. -1.
       -1   -1    0    0    0  501  0.00000000000E+00  0.00000000000E+00 -0.81945090965E+03  0.81945090967E+03  0.50400001928E-02 0.  1.
    10030    2    1    2    0    0  0.00000000000E+00  0.00000000000E+00 -0.13357567708E+03  0.15053261423E+04  0.14993879862E+04 0.  0.
        3    1    3    3  502    0 -0.66689361123E+03 -0.24512379441E+03 -0.30691768074E+03  0.77397108230E+03  0.10100000352E+00 0.  1.
       -3    1    3    3    0  502  0.66689361123E+03  0.24512379441E+03  0.17334200366E+03  0.73135505996E+03  0.10100000352E+00 0. -1.
</event>
<event>
 5   0  0.2969498E-05  0.1499696E+04  0.7818609E-02  0.8884655E-01
       -2   -1    0    0    0  501  0.00000000000E+00  0.00000000000E+00  0.36710085055E+03  0.36710085056E+03  0.25500000920E-02 0.  1.
        2   -1    0    0  501    0  0.00000000000E+00  0.00000000000E+00 -0.15316560137E+04  0.15316560137E+04  0.25500000920E-02 0. -1.
    10030    2    1    2    0    0  0.00000000000E+00  0.00000000000E+00 -0.11645551631E+04  0.18987568643E+04  0.14996962698E+04 0.  0.
        3    1    3    3  502    0  0.26718349712E+03 -0.53815309903E+03 -0.14259039728E+02  0.60099842724E+03  0.10100000352E+00 0.  1.
       -3    1    3    3    0  502 -0.26718349712E+03  0.53815309903E+03 -0.11502961234E+04  0.12977584370E+04  0.10100000352E+00 0. -1.
</event>
<event>
 5   0  0.1533777E-05  0.1503304E+04  0.7818609E-02  0.8882259E-01
        1   -1    0    0  501    0  0.00000000000E+00  0.00000000000E+00  0.84683270618E+03  0.84683270620E+03  0.50400001928E-02 0.  1.
       -1   -1    0    0    0  501  0.00000000000E+00  0.00000000000E+00 -0.66716918402E+03  0.66716918403E+03  0.50400001928E-02 0. -1.
    10030    2    1    2    0    0  0.00000000000E+00  0.00000000000E+00  0.17966352217E+03  0.15140018902E+04  0.15033039421E+04 0.  0.
        5    1    3    3  502    0 -0.24088887042E+03  0.41507524115E+03 -0.49276885897E+03  0.68786491557E+03  0.46999998093E+01 0. -1.
       -5    1    3    3    0  502  0.24088887042E+03 -0.41507524115E+03  0.67243238114E+03  0.82613697466E+03  0.46999998093E+01 0.  1.
</event>
<event>
 5   0  0.1643498E-05  0.1500012E+04  0.7818609E-02  0.8884445E-01
       -1   -1    0    0    0  501  0.00000000000E+00  0.00000000000E+00  0.47582984559E+03  0.47582984562E+03  0.50400001928E-02 0. -1.
        1   -1    0    0  501    0  0.00000000000E+00  0.00000000000E+00 -0.11821637290E+04  0.11821637290E+04  0.50400001928E-02 0.  1.
    10030    2    1    2    0    0  0.00000000000E+00  0.00000000000E+00 -0.70633388337E+03  0.16579935746E+04  0.15000117128E+04 0.  0.
        4    1    3    3  502    0  0.20063861399E+03  0.29828204659E+03 -0.10807324172E+04  0.11389522393E+04  0.12699999809E+01 0.  1.
       -4    1    3    3    0  502 -0.20063861399E+03 -0.29828204659E+03  0.37439853386E+03  0.51904133534E+03  0.12699999809E+01 0. -1.
</event>
<event>
 5   0  0.3070497E-05  0.1499921E+04  0.7818609E-02  0.8884505E-01
        2   -1    0    0  501    0  0.00000000000E+00  0.00000000000E+00  0.11594659652E+04  0.11594659652E+04  0.25500000920E-02 0. -1.
       -2   -1    0    0    0  501  0.00000000000E+00  0.00000000000E+00 -0.48508609995E+03  0.48508609996E+03  0.25500000920E-02 0.  1.
    10030    2    1    2    0    0  0.00000000000E+00  0.00000000000E+00  0.67437986523E+03  0.16445520651E+04  0.14999210954E+04 0.  0.
        4    1    3    3  502    0  0.35468183385E+01  0.48053680191E+02 -0.48338600003E+03  0.48578325828E+03  0.12699999809E+01 0.  1.
       -4    1    3    3    0  502 -0.35468183385E+01 -0.48053680191E+02  0.11577658653E+04  0.11587688069E+04  0.12699999809E+01 0. -1.
</event>
<event>
 5   0  0.3093600E-05  0.1489518E+04  0.7818609E-02  0.8891453E-01
        2   -1    0    0  501    0  0.00000000000E+00  0.00000000000E+00  0.39143998608E+03  0.39143998609E+03  0.25500000920E-02 0. -1.
       -2   -1    0    0    0  501  0.00000000000E+00  0.00000000000E+00 -0.14169892998E+04  0.14169892998E+04  0.25500000920E-02 0.  1.
    10030    2    1    2    0    0  0.00000000000E+00  0.00000000000E+00 -0.10255493137E+04  0.18084292858E+04  0.14895184078E+04 0.  0.
        1    1    3    3  502    0  0.63852863002E+03 -0.21409549006E+03 -0.12671540845E+03  0.68528277739E+03  0.50400001928E-02 0. -1.
       -1    1    3    3    0  502 -0.63852863002E+03  0.21409549006E+03 -0.89883390524E+03  0.11231465085E+04  0.50400001928E-02 0.  1.
</event>
<event>
 5   0  0.1580078E-05  0.1499341E+04  0.7818609E-02  0.8884891E-01
        1   -1    0    0  501    0  0.00000000000E+00  0.00000000000E+00  0.10267749495E+04  0.10267749495E+04  0.50400001928E-02 0.  1.
       -1   -1    0    0    0  501  0.00000000000E+00  0.00000000000E+00 -0.54735044152E+03  0.54735044154E+03  0.50400001928E-02 0. -1.
    10030    2    1    2    0    0  0.00000000000E+00  0.00000000000E+00  0.47942450800E+03  0.15741253911E+04  0.14993408178E+04 0.  0.
        2    1    3    3  502    0 -0.64171792362E+03  0.33555958890E+03  0.44330093037E+03  0.84906881115E+03  0.25500000920E-02 0.  1.
       -2    1    3    3    0  502  0.64171792362E+03 -0.33555958890E+03  0.36123577625E+02  0.72505657991E+03  0.25500000920E-02 0. -1.
</event>
<event>
 5   0  0.3018308E-05  0.1498144E+04  0.7818609E-02  0.8885688E-01
       -2   -1    0    0    0  501  0.00000000000E+00  0.00000000000E+00  0.99520677096E+03  0.99520677096E+03  0.25500000920E-02 0. -1.
        2   -1    0    0  501    0  0.00000000000E+00  0.00000000000E+00 -0.56381171231E+03  0.56381171231E+03  0.25500000920E-02 0.  1.
    10030    2    1    2    0    0  0.00000000000E+00  0.00000000000E+00  0.43139505865E+03  0.15590184833E+04  0.14981444972E+04 0.  0.
        2    1    3    3  502    0  0.82979410563E+02 -0.39388731802E+03 -0.44169626616E+03  0.59760220333E+03  0.25500000920E-02 0.  1.
       -2    1    3    3    0  502 -0.82979410563E+02  0.39388731802E+03  0.87309132481E+03  0.96141627994E+03  0.25500000920E-02 0. -1.
</event>
<event>
 5   0  0.3093600E-05  0.1500046E+04  0.7818609E-02  0.8884422E-01
       -2   -1    0    0    0  501  0.00000000000E+00  0.00000000000E+00  0.97277460225E+03  0.97277460226E+03  0.25500000920E-02 0. -1.
        2   -1    0    0  501    0  0.00000000000E+00  0.00000000000E+00 -0.57827869032E+03  0.57827869033E+03  0.25500000920E-02 0.  1.
    10030    2    1    2    0    0  0.00000000000E+00  0.00000000000E+00  0.39449591193E+03  0.15510532926E+04  0.15000464299E+04 0.  0.
        1    1    3    3  502    0 -0.17453631400E+03 -0.34099094950E+03  0.86399750533E+03  0.94510816407E+03  0.50400001928E-02 0. -1.
       -1    1    3    3    0  502  0.17453631400E+03  0.34099094950E+03 -0.46950159340E+03  0.60594512852E+03  0.50400001928E-02 0.  1.
</event>
<event>
 5   0  0.2969498E-05  0.1500666E+04  0.7818609E-02  0.8884010E-01
       -2   -1    0    0    0  501  0.00000000000E+00  0.00000000000E+00  0.68859061992E+03  0.68859061992E+03  0.25500000920E-02 0. -1.
        2   -1    0    0  501    0  0.00000000000E+00  0.00000000000E+00 -0.81761162265E+03  0.81761162266E+03  0.25500000920E-02 0.  1.
    10030    2    1    2    0    0  0.00000000000E+00  0.00000000000E+00 -0.12902100274E+03  0.15062022426E+04  0.15006661109E+04 0.  0.
        3    1    3    3  502    0 -0.41333689219E+03 -0.62597983766E+03 -0.81939477959E+02  0.75459408417E+03  0.10100000352E+00 0. -1.
       -3    1    3    3    0  502  0.41333689219E+03  0.62597983766E+03 -0.47081524778E+02  0.75160815841E+03  0.10100000352E+00 0.  1.
</event>
<event>
 5   0  0.3018308E-05  0.1499347E+04  0.7818609E-02  0.8884887E-01
       -2   -1    0    0    0  501  0.00000000000E+00  0.00000000000E+00  0.54068073305E+03  0.54068073306E+03  0.25500000920E-02 0.  1.
        2   -1    0    0  501    0  0.00000000000E+00  0.00000000000E+00 -0.10394501570E+04  0.10394501570E+04  0.25500000920E-02 0. -1.
    10030    2    1    2    0    0  0.00000000000E+00  0.00000000000E+00 -0.49876942397E+03  0.15801308901E+04  0.14993474219E+04 0.  0.
        2    1    3    3  502    0 -0.56442943619E+03  0.37038698375E+03  0.94127441439E+02  0.68163559283E+03  0.25500000920E-02 0.  1.
       -2    1    3    3    0  502  0.56442943619E+03 -0.37038698375E+03 -0.59289686540E+03  0.89849529725E+03  0.25500000920E-02 0. -1.
</event>
<event>
 5   0  0.1533777E-05  0.1498684E+04  0.7818609E-02  0.8885328E-01
        1   -1    0    0  501    0  0.00000000000E+00  0.00000000000E+00  0.13758563548E+04  0.13758563548E+04  0.50400001928E-02 0.  1.
       -1   -1    0    0    0  501  0.00000000000E+00  0.00000000000E+00 -0.40811938241E+03  0.40811938244E+03  0.50400001928E-02 0. -1.
    10030    2    1    2    0    0  0.00000000000E+00  0.00000000000E+00  0.96773697236E+03  0.17839757372E+04  0.14986842841E+04 0.  0.
        5    1    3    3  502    0  0.56490659038E+03 -0.76657154836E+02  0.10627510768E+04  0.12060090035E+04  0.46999998093E+01 0.  1.
       -5    1    3    3    0  502 -0.56490659038E+03  0.76657154836E+02 -0.95014104460E+02  0.57796673372E+03  0.46999998093E+01 0. -1.
</event>
<event>
 5   0  0.3070497E-05  0.1499617E+04  0.7818609E-02  0.8884707E-01
       -2   -1    0    0    0  501  0.00000000000E+00  0.00000000000E+00  0.48928514578E+03  0.48928514579E+03  0.25500000920E-02 0.  1.
        2   -1    0    0  501    0  0.00000000000E+00  0.00000000000E+00 -0.11490499770E+04  0.11490499770E+04  0.25500000920E-02 0. -1.
    10030    2    1    2    0    0  0.00000000000E+00  0.00000000000E+00 -0.65976483117E+03  0.16383351227E+04  0.14996173985E+04 0.  0.
        4    1    3    3  502    0  0.24007933635E+03 -0.71031990170E+03 -0.33464729123E+03  0.82108639796E+03  0.12699999809E+01 0.  1.
       -4    1    3    3    0  502 -0.24007933635E+03  0.71031990170E+03 -0.32511753994E+03  0.81724872478E+03  0.12699999809E+01 0. -1.
</event>
<event>
 5   0  0.1588657E-05  0.1500434E+04  0.7818609E-02  0.8884164E-01
       -1   -1    0    0    0  501  0.00000000000E+00  0.00000000000E+00  0.24220596160E+03  0.24220596166E+03  0.50400001928E-02 0. -1.
        1   -1    0    0  501    0  0.00000000000E+00  0.00000000000E+00 -0.23237479299E+04  0.23237479299E+04  0.50400001928E-02 0.  1.
    10030    2    1    2    0    0  0.00000000000E+00  0.00000000000E+00 -0.20815419683E+04  0.25659538916E+04  0.15004340732E+04 0.  0.
        3    1    3    3  502    0 -0.12222458961E+03  0.69224532215E+03 -0.59258626023E+03  0.91940248116E+03  0.10100000352E+00 0. -1.
       -3    1    3    3    0  502  0.12222458961E+03 -0.69224532215E+03 -0.14889557081E+04  0.16465514104E+04  0.10100000352E+00 0.  1.
</event>
<event>
 5   0  0.1576214E-05  0.1500212E+04  0.7818609E-02  0.8884312E-01
       -1   -1    0    0    0  501  0.00000000000E+00  0.00000000000E+00  0.94434332342E+03  0.94434332343E+03  0.50400001928E-02 0.  1.
        1   -1    0    0  501    0  0.00000000000E+00  0.00000000000E+00 -0.59582012783E+03  0.59582012785E+03  0.50400001928E-02 0. -1.
    10030    2    1    2    0    0  0.00000000000E+00  0.00000000000E+00  0.34852319559E+03  0.15401634513E+04  0.15002116647E+04 0.  0.
        1    1    3    3  502    0 -0.50379714810E+03 -0.18550648275E+03  0.71207752419E+03  0.89178395481E+03  0.50400001928E-02 0.  1.
       -1    1    3    3    0  502  0.50379714810E+03  0.18550648275E+03 -0.36355432860E+03  0.64837949647E+03  0.50400001928E-02 0. -1.
</event>
<event>
 5   0  0.2969498E-05  0.1500428E+04  0.7818609E-02  0.8884168E-01
        2   -1    0    0  501    0  0.00000000000E+00  0.00000000000E+00  0.67875376298E+03  0.67875376299E+03  0.25500000920E-02 0. -1.
       -2   -1    0    0    0  501  0.00000000000E+00  0.00000000000E+00 -0.82919752264E+03  0.82919752264E+03  0.25500000920E-02 0.  1.
    10030    2    1    2    0    0  0.00000000000E+00  0.00000000000E+00 -0.15044375966E+03  0.15079512856E+04  0.15004278573E+04 0.  0.
        3    1    3    3  502    0 -0.50356731128E+03 -0.18222552681E+03 -0.60324637702E+03  0.80665505713E+03  0.10100000352E+00 0.  1.
       -3    1    3    3    0  502  0.50356731128E+03  0.18222552681E+03  0.45280261736E+03  0.70129622850E+03  0.10100000352E+00 0. -1.
</event>
<event>
 5   0  0.1116613E-05  0.1499918E+04  0.7818609E-02  0.8884507E-01
       -3   -1    0    0    0  501  0.00000000000E+00  0.00000000000E+00  0.14174018963E+04  0.14174018999E+04  0.10100000352E+00 0. -1.
        3   -1    0    0  501    0  0.00000000000E+00  0.00000000000E+00 -0.39680958083E+03  0.39680959369E+03  0.10100000352E+00 0.  1.
    10030    2    1    2    0    0  0.00000000000E+00  0.00000000000E+00  0.10205923155E+04  0.18142114936E+04  0.14999182208E+04 0.  0.
        4    1    3    3  502    0 -0.50085355026E+03  0.52487889893E+03  0.74006079533E+03  0.10363608112E+04  0.12699999809E+01 0. -1.
       -4    1    3    3    0  502  0.50085355026E+03 -0.52487889893E+03  0.28053152012E+03  0.77785068235E+03  0.12699999809E+01 0.  1.
</event>
<event>
 5   0  0.1588657E-05  0.1500719E+04  0.7818609E-02  0.8883975E-01
       -1   -1    0    0    0  501  0.00000000000E+00  0.00000000000E+00  0.77750363630E+03  0.77750363632E+03  0.50400001928E-02 0.  1.
        1   -1    0    0  501    0  0.00000000000E+00  0.00000000000E+00 -0.72416313821E+03  0.72416313822E+03  0.50400001928E-02 0. -1.
    10030    2    1    2    0    0  0.00000000000E+00  0.00000000000E+00  0.53340498097E+02  0.15016667745E+04  0.15007191253E+04 0.  0.
        3    1    3    3  502    0  0.20837751996E+03  0.71819856954E+03 -0.35086524363E+02  0.74863973345E+03  0.10100000352E+00 0.  1.
       -3    1    3    3    0  502 -0.20837751996E+03 -0.71819856954E+03  0.88427022461E+02  0.75302704109E+03  0.10100000352E+00 0. -1.
</event>
<event>
 5   0  0.1643498E-05  0.1499834E+04  0.7818609E-02  0.8884563E-01
       -1   -1    0    0    0  501  0.00000000000E+00  0.00000000000E+00  0.10340020745E+04  0.10340020745E+04  0.50400001928E-02 0.  1.
        1   -1    0    0  501    0  0.00000000000E+00  0.00000000000E+00 -0.54388238963E+03  0.54388238966E+03  0.50400001928E-02 0. -1.
    10030    2    1    2    0    0  0.00000000000E+00  0.00000000000E+00  0.49011968482E+03  0.15778844641E+04  0.14998340164E+04 0.  0.
        4    1    3    3  502    0 -0.24172888663E+03  0.70105899323E+03  0.36248053935E+03  0.82541524151E+03  0.12699999809E+01 0. -1.
       -4    1    3    3    0  502  0.24172888663E+03 -0.70105899323E+03  0.12763914547E+03  0.75246922261E+03  0.12699999809E+01 0.  1.
</event>
<event>
 5   0  0.1533777E-05  0.1500709E+04  0.7818609E-02  0.8883981E-01
        1   -1    0    0  501    0  0.00000000000E+00  0.00000000000E+00  0.12864940390E+04  0.12864940390E+04  0.50400001928E-02 0. -1.
       -1   -1    0    0    0  501  0.00000000000E+00  0.00000000000E+00 -0.43764842535E+03  0.43764842538E+03  0.50400001928E-02 0.  1.
    10030    2    1    2    0    0  0.00000000000E+00  0.00000000000E+00  0.84884561367E+03  0.17241424644E+04  0.15007092862E+04 0.  0.
        5    1    3    3  502    0 -0.45482890330E+03 -0.26767508032E+02  0.11093589078E+04  0.11992852484E+04  0.46999998093E+01 0. -1.
       -5    1    3    3    0  502  0.45482890330E+03  0.26767508032E+02 -0.26051329413E+03  0.52485721599E+03  0.46999998093E+01 0.  1.
</event>
<event>
 5   0  0.1643498E-05  0.1502881E+04  0.7818609E-02  0.8882539E-01
        1   -1    0    0  501    0  0.00000000000E+00  0.00000000000E+00  0.11252584310E+04  0.11252584310E+04  0.50400001928E-02 0. -1.
       -1   -1    0    0    0  501  0.00000000000E+00  0.00000000000E+00 -0.50180741268E+03  0.50180741270E+03  0.50400001928E-02 0.  1.
    10030    2    1    2    0    0  0.00000000000E+00  0.00000000000E+00  0.62345101828E+03  0.16270658437E+04  0.15028812619E+04 0.  0.
        4    1    3    3  502    0  0.52770128362E+03 -0.31998831291E+03  0.77587032080E+03  0.99138162820E+03  0.12699999809E+01 0. -1.
       -4    1    3    3    0  502 -0.52770128362E+03  0.31998831291E+03 -0.15241930251E+03  0.63568421548E+03  0.12699999809E+01 0.  1.
</event>
<event>
 5   0  0.2969498E-05  0.1499318E+04  0.7818609E-02  0.8884906E-01
       -2   -1    0    0    0  501  0.00000000000E+00  0.00000000000E+00  0.73337733461E+03  0.73337733462E+03  0.25500000920E-02 0.  1.
        2   -1    0    0  501    0  0.00000000000E+00  0.00000000000E+00 -0.76630245304E+03  0.76630245304E+03  0.25500000920E-02 0. -1.
    10030    2    1    2    0    0  0.00000000000E+00  0.00000000000E+00 -0.32925118424E+02  0.14996797877E+04  0.14993183125E+04 0.  0.
        3    1    3    3  502    0 -0.11665218714E+03  0.46165268086E+03  0.56269163959E+03  0.73712469907E+03  0.10100000352E+00 0.  1.
       -3    1    3    3    0  502  0.11665218714E+03 -0.46165268086E+03 -0.59561675801E+03  0.76255508859E+03  0.10100000352E+00 0. -1.
</event>
<event>
 5   0  0.1576214E-05  0.1500191E+04  0.7818609E-02  0.8884326E-01
       -1   -1    0    0    0  501  0.00000000000E+00  0.00000000000E+00  0.68098165725E+03  0.68098165727E+03  0.50400001928E-02 0. -1.
        1   -1    0    0  501    0  0.00000000000E+00  0.00000000000E+00 -0.82622348852E+03  0.82622348853E+03  0.50400001928E-02 0.  1.
    10030    2    1    2    0    0  0.00000000000E+00  0.00000000000E+00 -0.14524183126E+03  0.15072051458E+04  0.15001907085E+04 0.  0.
        1    1    3    3  502    0 -0.31042268315E+03  0.59652269419E+03 -0.40650213673E+03  0.78577703841E+03  0.50400001928E-02 0.  1.
       -1    1    3    3    0  502  0.31042268315E+03 -0.59652269419E+03  0.26126030546E+03  0.72142810739E+03  0.50400001928E-02 0. -1.
</event>
<event>
 5   0  0.2969498E-05  0.1501344E+04  0.7818609E-02  0.8883560E-01
       -2   -1    0    0    0  501  0.00000000000E+00  0.00000000000E+00  0.38713680644E+03  0.38713680645E+03  0.25500000920E-02 0. -1.
        2   -1    0    0  501    0  0.00000000000E+00  0.00000000000E+00 -0.14555798051E+04  0.14555798051E+04  0.25500000920E-02 0.  1.
    10030    2    1    2    0    0  0.00000000000E+00  0.00000000000E+00 -0.10684429987E+04  0.18427166116E+04  0.15013440875E+04 0.  0.
        3    1    3    3  502    0 -0.15963439666E+03  0.72364989070E+03 -0.38716030258E+03  0.83608935826E+03  0.10100000352E+00 0. -1.
       -3    1    3    3    0  502  0.15963439666E+03 -0.72364989070E+03 -0.68128269611E+03  0.10066272533E+04  0.10100000352E+00 0.  1.
</event>
<event>
 5   0  0.3070497E-05  0.1500360E+04  0.7818609E-02  0.8884214E-01
       -2   -1    0    0    0  501  0.00000000000E+00  0.00000000000E+00  0.48093758694E+03  0.48093758695E+03  0.25500000920E-02 0. -1.
        2   -1    0    0  501    0  0.00000000000E+00  0.00000000000E+00 -0.11701519965E+04  0.11701519965E+04  0.25500000920E-02 0.  1.
    10030    2    1    2    0    0  0.00000000000E+00  0.00000000000E+00 -0.68921440955E+03  0.16510895834E+04  0.15003600602E+04 0.  0.
        4    1    3    3  502    0 -0.69983779932E+03  0.92217239428E+02 -0.65142875772E+02  0.70888798252E+03  0.12699999809E+01 0.  1.
       -4    1    3    3    0  502  0.69983779932E+03 -0.92217239428E+02 -0.62407153378E+03  0.94220160092E+03  0.12699999809E+01 0. -1.
</event>
<event>
 5   0  0.1643498E-05  0.1508916E+04  0.7818609E-02  0.8878545E-01
        1   -1    0    0  501    0  0.00000000000E+00  0.00000000000E+00  0.78257541801E+03  0.78257541803E+03  0.50400001928E-02 0. -1.
       -1   -1    0    0    0  501  0.00000000000E+00  0.00000000000E+00 -0.72735086758E+03  0.72735086759E+03  0.50400001928E-02 0.  1.
    10030    2    1    2    0    0  0.00000000000E+00  0.00000000000E+00  0.55224550434E+02  0.15099262856E+04  0.15089160470E+04 0.  0.
        4    1    3    3  502    0  0.51615382133E+03  0.52467637869E+02 -0.52051140486E+03  0.73491588348E+03  0.12699999809E+01 0.  1.
       -4    1    3    3    0  502 -0.51615382133E+03 -0.52467637869E+02  0.57573595530E+03  0.77501040214E+03  0.12699999809E+01 0. -1.
</event>
<event>
 5   0  0.1576214E-05  0.1500382E+04  0.7818609E-02  0.8884199E-01
       -1   -1    0    0    0  501  0.00000000000E+00  0.00000000000E+00  0.49779333690E+03  0.49779333693E+03  0.50400001928E-02 0.  1.
        1   -1    0    0  501    0  0.00000000000E+00  0.00000000000E+00 -0.11305632744E+04  0.11305632744E+04  0.50400001928E-02 0. -1.
    10030    2    1    2    0    0  0.00000000000E+00  0.00000000000E+00 -0.63276993748E+03  0.16283566113E+04  0.15003824379E+04 0.  0.
        1    1    3    3  502    0 -0.49496138134E+03 -0.29068596275E+03 -0.84059649243E+03  0.10178838642E+04  0.50400001928E-02 0. -1.
       -1    1    3    3    0  502  0.49496138134E+03  0.29068596275E+03  0.20782655496E+03  0.61047274708E+03  0.50400001928E-02 0.  1.
</event>
<event>
 5   0  0.3018308E-05  0.1499853E+04  0.7818609E-02  0.8884551E-01
       -2   -1    0    0    0  501  0.00000000000E+00  0.00000000000E+00  0.19681582132E+04  0.19681582132E+04  0.25500000920E-02 0. -1.
        2   -1    0    0  501    0  0.00000000000E+00  0.00000000000E+00 -0.28574426729E+03  0.28574426730E+03  0.25500000920E-02 0.  1.
    10030    2    1    2    0    0  0.00000000000E+00  0.00000000000E+00  0.16824139459E+04  0.22539024805E+04  0.14998532282E+04 0.  0.
        2    1    3    3  502    0 -0.26124486306E+03  0.29436638781E+03  0.18004851369E+04  0.18429995054E+04  0.25500000920E-02 0. -1.
       -2    1    3    3    0  502  0.26124486306E+03 -0.29436638781E+03 -0.11807119104E+03  0.41090297505E+03  0.25500000920E-02 0.  1.
</event>
<event>
 5   0  0.2969498E-05  0.1499584E+04  0.7818609E-02  0.8884730E-01
        2   -1    0    0  501    0  0.00000000000E+00  0.00000000000E+00  0.86685027653E+03  0.86685027653E+03  0.25500000920E-02 0.  1.
       -2   -1    0    0    0  501  0.00000000000E+00  0.00000000000E+00 -0.64854084124E+03  0.64854084124E+03  0.25500000920E-02 0. -1.
    10030    2    1    2    0    0  0.00000000000E+00  0.00000000000E+00  0.21830943529E+03  0.15153911178E+04  0.14995836857E+04 0.  0.
        3    1    3    3  502    0  0.31893414960E+03  0.38492321817E+03 -0.45557683594E+03  0.67633951482E+03  0.10100000352E+00 0. -1.
       -3    1    3    3    0  502 -0.31893414960E+03 -0.38492321817E+03  0.67388627123E+03  0.83905160295E+03  0.10100000352E+00 0.  1.
</event>
<event>
 5   0  0.1643498E-05  0.1500102E+04  0.7818609E-02  0.8884385E-01
        1   -1    0    0  501    0  0.00000000000E+00  0.00000000000E+00  0.14457260209E+04  0.14457260209E+04  0.50400001928E-02 0. -1.
       -1   -1    0    0    0  501  0.00000000000E+00  0.00000000000E+00 -0.38913067111E+03  0.38913067115E+03  0.50400001928E-02 0.  1.
    10030    2    1    2    0    0  0.00000000000E+00  0.00000000000E+00  0.10565953498E+04  0.18348566921E+04  0.15001017790E+04 0.  0.
        4    1    3    3  502    0 -0.22402618148E+02 -0.56238666464E+03 -0.78113420259E+02  0.56822878948E+03  0.12699999809E+01 0.  1.
       -4    1    3    3    0  502  0.22402618148E+02  0.56238666464E+03  0.11347087701E+04  0.12666279026E+04  0.12699999809E+01 0. -1.
</event>
<event>
 5   0  0.1580078E-05  0.1502856E+04  0.7818609E-02  0.8882556E-01
        1   -1    0    0  501    0  0.00000000000E+00  0.00000000000E+00  0.56086836368E+03  0.56086836370E+03  0.50400001928E-02 0.  1.
       -1   -1    0    0    0  501  0.00000000000E+00  0.00000000000E+00 -0.10067323259E+04  0.10067323260E+04  0.50400001928E-02 0. -1.
    10030    2    1    2    0    0  0.00000000000E+00  0.00000000000E+00 -0.44586396227E+03  0.15676006897E+04  0.15028563635E+04 0.  0.
        2    1    3    3  502    0  0.97165289019E+02 -0.60071371147E+03 -0.68277125465E+03  0.91458987679E+03  0.25500000920E-02 0. -1.
       -2    1    3    3    0  502 -0.97165289019E+02  0.60071371147E+03  0.23690729238E+03  0.65301081287E+03  0.25500000920E-02 0.  1.
</event>
<event>
 5   0  0.1576214E-05  0.1500309E+04  0.7818609E-02  0.8884248E-01
        1   -1    0    0  501    0  0.00000000000E+00  0.00000000000E+00  0.95569644941E+03  0.95569644943E+03  0.50400001928E-02 0.  1.
       -1   -1    0    0    0  501  0.00000000000E+00  0.00000000000E+00 -0.58881833084E+03  0.58881833086E+03  0.50400001928E-02 0. -1.
    10030    2    1    2    0    0  0.00000000000E+00  0.00000000000E+00  0.36687811858E+03  0.15445147803E+04  0.15003087524E+04 0.  0.
        1    1    3    3  502    0 -0.21079890437E+03 -0.22068582887E+03 -0.52202081064E+03  0.60468515768E+03  0.50400001928E-02 0. -1.
       -1    1    3    3    0  502  0.21079890437E+03  0.22068582887E+03  0.88889892922E+03  0.93982962261E+03  0.50400001928E-02 0.  1.
</event>
<event>
 5   0  0.3018308E-05  0.1498335E+04  0.7818609E-02  0.8885561E-01
       -2   -1    0    0    0  501  0.00000000000E+00  0.00000000000E+00  0.27129091694E+03  0.27129091695E+03  0.25500000920E-02 0. -1.
        2   -1    0    0  501    0  0.00000000000E+00  0.00000000000E+00 -0.20688205614E+04  0.20688205614E+04  0.25500000920E-02 0.  1.
    10030    2    1    2    0    0  0.00000000000E+00  0.00000000000E+00 -0.17975296445E+04  0.23401114784E+04  0.14983353791E+04 0.  0.
        2    1    3    3  502    0  0.51849859938E+03 -0.35495758346E+03 -0.15358914574E+04  0.16594572162E+04  0.25500000920E-02 0.  1.
       -2    1    3    3    0  502 -0.51849859938E+03  0.35495758346E+03 -0.26163818709E+03  0.68065426214E+03  0.25500000920E-02 0. -1.
</event>
<event>
 5   0  0.1533777E-05  0.1494972E+04  0.7818609E-02  0.8887803E-01
        1   -1    0    0  501    0  0.00000000000E+00  0.00000000000E+00  0.70921092216E+03  0.70921092218E+03  0.50400001928E-02 0. -1.
       -1   -1    0    0    0  501  0.00000000000E+00  0.00000000000E+00 -0.78782704276E+03  0.78782704278E+03  0.50400001928E-02 0.  1.
    10030    2    1    2    0    0  0.00000000000E+00  0.00000000000E+00 -0.78616120599E+02  0.14970379650E+04  0.14949722988E+04 0.  0.
        5    1    3    3  502    0 -0.17177756340E+03 -0.41365483694E+03  0.55992968329E+03  0.71705034386E+03  0.46999998093E+01 0. -1.
       -5    1    3    3    0  502  0.17177756340E+03  0.41365483694E+03 -0.63854580388E+03  0.77998762110E+03  0.46999998093E+01 0.  1.
</event>
<event>
 5   0  0.1588657E-05  0.1499545E+04  0.7818609E-02  0.8884756E-01
       -1   -1    0    0    0  501  0.00000000000E+00  0.00000000000E+00  0.68139640555E+03  0.68139640557E+03  0.50400001928E-02 0.  1.
        1   -1    0    0  501    0  0.00000000000E+00  0.00000000000E+00 -0.82500968931E+03  0.82500968932E+03  0.50400001928E-02 0. -1.
    10030    2    1    2    0    0  0.00000000000E+00  0.00000000000E+00 -0.14361328376E+03  0.15064060949E+04  0.14995447801E+04 0.  0.
        3    1    3    3  502    0 -0.62473403749E+03 -0.10895772041E+03  0.33001634470E+03  0.71489523736E+03  0.10100000352E+00 0.  1.
       -3    1    3    3    0  502  0.62473403749E+03  0.10895772041E+03 -0.47362962846E+03  0.79151085753E+03  0.10100000352E+00 0. -1.
</event>
<event>
 5   0  0.2969498E-05  0.1498917E+04  0.7818609E-02  0.8885173E-01
       -2   -1    0    0    0  501  0.00000000000E+00  0.00000000000E+00  0.25127347101E+03  0.25127347102E+03  0.25500000920E-02 0. -1.
        2   -1    0    0  501    0  0.00000000000E+00  0.00000000000E+00 -0.22353667109E+04  0.22353667109E+04  0.25500000920E-02 0.  1.
    10030    2    1    2    0    0  0.00000000000E+00  0.00000000000E+00 -0.19840932399E+04  0.24866401819E+04  0.14989174126E+04 0.  0.
        3    1    3    3  502    0  0.21595225023E+02  0.17010913619E+03 -0.22023863889E+04  0.22090516716E+04  0.10100000352E+00 0.  1.
       -3    1    3    3    0  502 -0.21595225023E+02 -0.17010913619E+03  0.21829314896E+03  0.27758851029E+03  0.10100000352E+00 0. -1.
</event>
<event>
 5   0  0.2969498E-05  0.1500072E+04  0.7818609E-02  0.8884405E-01
       -2   -1    0    0    0  501  0.00000000000E+00  0.00000000000E+00  0.82666136048E+03  0.82666136048E+03  0.25500000920E-02 0. -1.
        2   -1    0    0  501    0  0.00000000000E+00  0.00000000000E+00 -0.68051303130E+03  0.68051303130E+03  0.25500000920E-02 0.  1.
    10030    2    1    2    0    0  0.00000000000E+00  0.00000000000E+00  0.14614832918E+03  0.15071743918E+04  0.15000717693E+04 0.  0.
        3    1    3    3  502    0  0.41025046252E+03  0.55194337925E+03  0.37383560205E+03  0.78275155922E+03  0.10100000352E+00 0. -1.
       -3    1    3    3    0  502 -0.41025046252E+03 -0.55194337925E+03 -0.22768727287E+03  0.72442283256E+03  0.10100000352E+00 0.  1.
</event>
<event>
 5   0  0.1576214E-05  0.1500494E+04  0.7818609E-02  0.8884125E-01
       -1   -1    0    0    0  501  0.00000000000E+00  0.00000000000E+00  0.46843411629E+03  0.46843411632E+03  0.50400001928E-02 0.  1.
        1   -1    0    0  501    0  0.00000000000E+00  0.00000000000E+00 -0.12016001070E+04  0.12016001070E+04  0.50400001928E-02 0. -1.
    10030    2    1    2    0    0  0.00000000000E+00  0.00000000000E+00 -0.73316599070E+03  0.16700342233E+04  0.15004938977E+04 0.  0.
        1    1    3    3  502    0 -0.86843253636E+01 -0.74561965776E+03 -0.27449096653E+03  0.79458755483E+03  0.50400001928E-02 0. -1.
       -1    1    3    3    0  502  0.86843253636E+01  0.74561965776E+03 -0.45867502417E+03  0.87544666849E+03  0.50400001928E-02 0.  1.
</event>
<event>
 5   0  0.3093600E-05  0.1499325E+04  0.7818609E-02  0.8884902E-01
       -2   -1    0    0    0  501  0.00000000000E+00  0.00000000000E+00  0.61922069637E+03  0.61922069638E+03  0.25500000920E-02 0. -1.
        2   -1    0    0  501    0  0.00000000000E+00  0.00000000000E+00 -0.90758296721E+03  0.90758296722E+03  0.25500000920E-02 0.  1.
    10030    2    1    2    0    0  0.00000000000E+00  0.00000000000E+00 -0.28836227084E+03  0.15268036636E+04  0.14993253909E+04 0.  0.
        1    1    3    3  502    0  0.38352491005E+03  0.45353345488E+03  0.32159660612E+03  0.67543195691E+03  0.50400001928E-02 0. -1.
       -1    1    3    3    0  502 -0.38352491005E+03 -0.45353345488E+03 -0.60995887697E+03  0.85137170668E+03  0.50400001928E-02 0.  1.
</event>
<event>
 5   0  0.1580078E-05  0.1499888E+04  0.7818609E-02  0.8884527E-01
       -1   -1    0    0    0  501  0.00000000000E+00  0.00000000000E+00  0.35163102995E+03  0.35163102999E+03  0.50400001928E-02 0. -1.
        1   -1    0    0  501    0  0.00000000000E+00  0.00000000000E+00 -0.15994496386E+04  0.15994496386E+04  0.50400001928E-02 0.  1.
    10030    2    1    2    0    0  0.00000000000E+00  0.00000000000E+00 -0.12478186086E+04  0.19510806685E+04  0.14998881609E+04 0.  0.
        2    1    3    3  502    0  0.22830160233E+03  0.62618175331E+03 -0.10711161000E+04  0.12615525789E+04  0.25500000920E-02 0.  1.
       -2    1    3    3    0  502 -0.22830160233E+03 -0.62618175331E+03 -0.17670250863E+03  0.68952808961E+03  0.25500000920E-02 0. -1.
</event>
<event>
 5   0  0.1576214E-05  0.1498405E+04  0.7818609E-02  0.8885515E-01
        1   -1    0    0  501    0  0.00000000000E+00  0.00000000000E+00  0.12015803033E+04  0.12015803034E+04  0.50400001928E-02 0.  1.
       -1   -1    0    0    0  501  0.00000000000E+00  0.00000000000E+00 -0.46713818268E+03  0.46713818270E+03  0.50400001928E-02 0. -1.
    10030    2    1    2    0    0  0.00000000000E+00  0.00000000000E+00  0.73444212067E+03  0.16687184861E+04  0.14984045372E+04 0.  0.
        1    1    3    3  502    0  0.62874608072E+02 -0.66382131593E+03 -0.13208884754E+02  0.66692310687E+03  0.50400001928E-02 0. -1.
       -1    1    3    3    0  502 -0.62874608072E+02  0.66382131593E+03  0.74765100543E+03  0.10017953792E+04  0.50400001928E-02 0.  1.
</event>
<event>
 5   0  0.1116613E-05  0.1500069E+04  0.7818609E-02  0.8884407E-01
        4   -1    0    0  501    0  0.00000000000E+00  0.00000000000E+00  0.45902494913E+03  0.45902670601E+03  0.12699999809E+01 0. -1.
       -4   -1    0    0    0  501  0.00000000000E+00  0.00000000000E+00 -0.12255325460E+04  0.12255332040E+04  0.12699999809E+01 0.  1.
    10030    2    1    2    0    0  0.00000000000E+00  0.00000000000E+00 -0.76650759686E+03  0.16845599100E+04  0.15000693966E+04 0.  0.
        5    1    3    3  502    0  0.59694846358E+03  0.45152053796E+03 -0.43724715251E+03  0.86684798364E+03  0.46999998093E+01 0. -1.
       -5    1    3    3    0  502 -0.59694846358E+03 -0.45152053796E+03 -0.32926044435E+03  0.81771192640E+03  0.46999998093E+01 0.  1.
</event>
<event>
 5   0  0.2969498E-05  0.1500523E+04  0.7818609E-02  0.8884105E-01
        2   -1    0    0  501    0  0.00000000000E+00  0.00000000000E+00  0.72431629071E+03  0.72431629071E+03  0.25500000920E-02 0.  1.
       -2   -1    0    0    0  501  0.00000000000E+00  0.00000000000E+00 -0.77713595587E+03  0.77713595587E+03  0.25500000920E-02 0. -1.
    10030    2    1    2    0    0  0.00000000000E+00  0.00000000000E+00 -0.52819665160E+02  0.15014522466E+04  0.15005228861E+04 0.  0.
        3    1    3    3  502    0  0.11872616460E+03  0.88122778796E+02  0.70959362331E+03  0.72483422018E+03  0.10100000352E+00 0.  1.
       -3    1    3    3    0  502 -0.11872616460E+03 -0.88122778796E+02 -0.76241328847E+03  0.77661802641E+03  0.10100000352E+00 0. -1.
</event>
<event>
 5   0  0.1580078E-05  0.1499298E+04  0.7818609E-02  0.8884920E-01
        1   -1    0    0  501    0  0.00000000000E+00  0.00000000000E+00  0.15648784634E+04  0.15648784634E+04  0.50400001928E-02 0. -1.
       -1   -1    0    0    0  501  0.00000000000E+00  0.00000000000E+00 -0.35911662778E+03  0.35911662782E+03  0.50400001928E-02 0.  1.
    10030    2    1    2    0    0  0.00000000000E+00  0.00000000000E+00  0.12057618357E+04  0.19239950913E+04  0.14992983382E+04 0.  0.
        2    1    3    3  502    0  0.39102614698E+03  0.48808402894E+03  0.72462215786E+02  0.62958576831E+03  0.25500000920E-02 0.  1.
       -2    1    3    3    0  502 -0.39102614698E+03 -0.48808402894E+03  0.11332996199E+04  0.12944093229E+04  0.25500000920E-02 0. -1.
</event>
<event>
 5   0  0.1580078E-05  0.1500589E+04  0.7818609E-02  0.8884062E-01
        1   -1    0    0  501    0  0.00000000000E+00  0.00000000000E+00  0.11848158453E+04  0.11848158453E+04  0.50400001928E-02 0. -1.
       -1   -1    0    0    0  501  0.00000000000E+00  0.00000000000E+00 -0.47512992920E+03  0.47512992923E+03  0.50400001928E-02 0.  1.
    10030    2    1    2    0    0  0.00000000000E+00  0.00000000000E+00  0.70968591606E+03  0.16599457745E+04  0.15005885095E+04 0.  0.
        2    1    3    3  502    0 -0.59955650474E+03  0.39170156745E+03  0.60230321796E+03  0.93577095846E+03  0.25500000920E-02 0.  1.
       -2    1    3    3    0  502  0.59955650474E+03 -0.39170156745E+03  0.10738269810E+03  0.72417481604E+03  0.25500000920E-02 0. -1.
</event>
<event>
 5   0  0.3018308E-05  0.1499854E+04  0.7818609E-02  0.8884550E-01
       -2   -1    0    0    0  501  0.00000000000E+00  0.00000000000E+00  0.37042221624E+03  0.37042221625E+03  0.25500000920E-02 0.  1.
        2   -1    0    0  501    0  0.00000000000E+00  0.00000000000E+00 -0.15182426083E+04  0.15182426083E+04  0.25500000920E-02 0. -1.
    10030    2    1    2    0    0  0.00000000000E+00  0.00000000000E+00 -0.11478203921E+04  0.18886648246E+04  0.14998543820E+04 0.  0.
        2    1    3    3  502    0  0.18378815018E+02  0.36640525672E+03 -0.13975290630E+04  0.14448799518E+04  0.25500000920E-02 0. -1.
       -2    1    3    3    0  502 -0.18378815018E+02 -0.36640525672E+03  0.24970867093E+03  0.44378487282E+03  0.25500000920E-02 0.  1.
</event>
<event>
 5   0  0.1588657E-05  0.1499490E+04  0.7818609E-02  0.8884792E-01
        1   -1    0    0  501    0  0.00000000000E+00  0.00000000000E+00  0.11946190912E+04  0.11946190912E+04  0.50400001928E-02 0. -1.
       -1   -1    0    0    0  501  0.00000000000E+00  0.00000000000E+00 -0.47054132488E+03  0.47054132490E+03  0.50400001928E-02 0.  1.
    10030    2    1    2    0    0  0.00000000000E+00  0.00000000000E+00  0.72407776630E+03  0.16651604161E+04  0.14994901132E+04 0.  0.
        3    1    3    3  502    0 -0.53459473644E+03  0.40639545705E+02 -0.21995935586E+03  0.57950429967E+03  0.10100000352E+00 0.  1.
       -3    1    3    3    0  502  0.53459473644E+03 -0.40639545705E+02  0.94403712216E+03  0.10856561164E+04  0.10100000352E+00 0. -1.
</event>
<event>
 5   0  0.3030702E-05  0.1500080E+04  0.7818609E-02  0.8884400E-01
       -2   -1    0    0    0  501  0.00000000000E+00  0.00000000000E+00  0.60670467019E+03  0.60670467020E+03  0.25500000920E-02 0.  1.
        2   -1    0    0  501    0  0.00000000000E+00  0.00000000000E+00 -0.92723819211E+03  0.92723819211E+03  0.25500000920E-02 0. -1.
    10030    2    1    2    0    0  0.00000000000E+00  0.00000000000E+00 -0.32053352192E+03  0.15339428623E+04  0.15000796533E+04 0.  0.
        5    1    3    3  502    0  0.69276254565E+03 -0.15219933008E+03  0.89067528276E+02  0.71487040456E+03  0.46999998093E+01 0.  1.
       -5    1    3    3    0  502 -0.69276254565E+03  0.15219933008E+03 -0.40960105019E+03  0.81907245775E+03  0.46999998093E+01 0. -1.
</event>
<event>
 5   0  0.1588657E-05  0.1500331E+04  0.7818609E-02  0.8884233E-01
        1   -1    0    0  501    0  0.00000000000E+00  0.00000000000E+00  0.16465186232E+04  0.16465186232E+04  0.50400001928E-02 0. -1.
       -1   -1    0    0    0  501  0.00000000000E+00  0.00000000000E+00 -0.34178072084E+03  0.34178072088E+03  0.50400001928E-02 0.  1.
    10030    2    1    2    0    0  0.00000000000E+00  0.00000000000E+00  0.13047379024E+04  0.19882993441E+04  0.15003310594E+04 0.  0.
        3    1    3    3  502    0 -0.50296800073E+03 -0.19102331769E+03 -0.40418257421E+02  0.53953717518E+03  0.10100000352E+00 0.  1.
       -3    1    3    3    0  502  0.50296800073E+03  0.19102331769E+03  0.13451561598E+04  0.14487621689E+04  0.10100000352E+00 0. -1.
</event>
<event>
 5   0  0.3018308E-05  0.1499955E+04  0.7818609E-02  0.8884483E-01
       -2   -1    0    0    0  501  0.00000000000E+00  0.00000000000E+00  0.46590628346E+03  0.46590628347E+03  0.25500000920E-02 0.  1.
        2   -1    0    0  501    0  0.00000000000E+00  0.00000000000E+00 -0.12072513845E+04  0.12072513845E+04  0.25500000920E-02 0. -1.
    10030    2    1    2    0    0  0.00000000000E+00  0.00000000000E+00 -0.74134510100E+03  0.16731576679E+04  0.14999546736E+04 0.  0.
        2    1    3    3  502    0  0.40199694668E+03  0.22092413707E+02  0.33514582385E+03  0.52384381559E+03  0.25500000920E-02 0.  1.
       -2    1    3    3    0  502 -0.40199694668E+03 -0.22092413707E+02 -0.10764909249E+04  0.11493138523E+04  0.25500000920E-02 0. -1.
</event>
<event>
 5   0  0.3018308E-05  0.1499713E+04  0.7818609E-02  0.8884644E-01
       -2   -1    0    0    0  501  0.00000000000E+00  0.00000000000E+00  0.44575725244E+03  0.44575725245E+03  0.25500000920E-02 0. -1.
        2   -1    0    0  501    0  0.00000000000E+00  0.00000000000E+00 -0.12614143480E+04  0.12614143480E+04  0.25500000920E-02 0.  1.
    10030    2    1    2    0    0  0.00000000000E+00  0.00000000000E+00 -0.81565709560E+03  0.17071716005E+04  0.14997127645E+04 0.  0.
        2    1    3    3  502    0 -0.40080973792E+03  0.63217548357E+03 -0.35704430186E+03  0.82932196494E+03  0.25500000920E-02 0. -1.
       -2    1    3    3    0  502  0.40080973792E+03 -0.63217548357E+03 -0.45861279374E+03  0.87784963555E+03  0.25500000920E-02 0.  1.
</event>
<event>
 5   0  0.1576214E-05  0.1500832E+04  0.7818609E-02  0.8883900E-01
       -1   -1    0    0    0  501  0.00000000000E+00  0.00000000000E+00  0.72542871979E+03  0.72542871981E+03  0.50400001928E-02 0.  1.
        1   -1    0    0  501    0  0.00000000000E+00  0.00000000000E+00 -0.77626425206E+03  0.77626425208E+03  0.50400001928E-02 0. -1.
    10030    2    1    2    0    0  0.00000000000E+00  0.00000000000E+00 -0.50835532272E+02  0.15016929719E+04  0.15008322793E+04 0.  0.
        1    1    3    3  502    0  0.66938310359E+03  0.24963548740E+03  0.20435008636E+03  0.74306835067E+03  0.50400001928E-02 0. -1.
       -1    1    3    3    0  502 -0.66938310359E+03 -0.24963548740E+03 -0.25518561863E+03  0.75862462122E+03  0.50400001928E-02 0.  1.
</event>
<event>
 5   0  0.2969498E-05  0.1499598E+04  0.7818609E-02  0.8884720E-01
        2   -1    0    0  501    0  0.00000000000E+00  0.00000000000E+00  0.12182372787E+04  0.12182372787E+04  0.25500000920E-02 0. -1.
       -2   -1    0    0    0  501  0.00000000000E+00  0.00000000000E+00 -0.46148516780E+03  0.46148516781E+03  0.25500000920E-02 0.  1.
    10030    2    1    2    0    0  0.00000000000E+00  0.00000000000E+00  0.75675211092E+03  0.16797224465E+04  0.14995978594E+04 0.  0.
        3    1    3    3  502    0  0.54235216001E+03  0.11031694471E+03  0.94498470854E+03  0.10951309526E+04  0.10100000352E+00 0. -1.
       -3    1    3    3    0  502 -0.54235216001E+03 -0.11031694471E+03 -0.18823259763E+03  0.58459149393E+03  0.10100000352E+00 0.  1.
</event>
<event>
 5   0  0.3018308E-05  0.1500007E+04  0.7818609E-02  0.8884448E-01
       -2   -1    0    0    0  501  0.00000000000E+00  0.00000000000E+00  0.57816366527E+03  0.57816366528E+03  0.25500000920E-02 0.  1.
        2   -1    0    0  501    0  0.00000000000E+00  0.00000000000E+00 -0.97291759705E+03  0.97291759705E+03  0.25500000920E-02 0. -1.
    10030    2    1    2    0    0  0.00000000000E+00  0.00000000000E+00 -0.39475393178E+03  0.15510812623E+04  0.15000074719E+04 0.  0.
        2    1    3    3  502    0  0.29826025466E+03 -0.22485384722E+03  0.47514229541E+03  0.60438285301E+03  0.25500000920E-02 0.  1.
       -2    1    3    3    0  502 -0.29826025466E+03  0.22485384722E+03 -0.86989622719E+03  0.94669840932E+03  0.25500000920E-02 0. -1.
</event>
<event>
 5   0  0.1588657E-05  0.1500069E+04  0.7818609E-02  0.8884407E-01
       -1   -1    0    0    0  501  0.00000000000E+00  0.00000000000E+00  0.60351148213E+03  0.60351148215E+03  0.50400001928E-02 0.  1.
        1   -1    0    0  501    0  0.00000000000E+00  0.00000000000E+00 -0.93213116546E+03  0.93213116547E+03  0.50400001928E-02 0. -1.
    10030    2    1    2    0    0  0.00000000000E+00  0.00000000000E+00 -0.32861968332E+03  0.15356426476E+04  0.15000691467E+04 0.  0.
        3    1    3    3  502    0 -0.30325850621E+03  0.78675451726E+02  0.53331712991E+03  0.61853271501E+03  0.10100000352E+00 0.  1.
       -3    1    3    3    0  502  0.30325850621E+03 -0.78675451726E+02 -0.86193681323E+03  0.91710993261E+03  0.10100000352E+00 0. -1.
</event>
<event>
 5   0  0.1588657E-05  0.1500272E+04  0.7818609E-02  0.8884272E-01
       -1   -1    0    0    0  501  0.00000000000E+00  0.00000000000E+00  0.50996265308E+03  0.50996265311E+03  0.50400001928E-02 0.  1.
        1   -1    0    0  501    0  0.00000000000E+00  0.00000000000E+00 -0.11034223941E+04  0.11034223941E+04  0.50400001928E-02 0. -1.
    10030    2    1    2    0    0  0.00000000000E+00  0.00000000000E+00 -0.59345974104E+03  0.16133850472E+04  0.15002722574E+04 0.  0.
        3    1    3    3  502    0  0.39695692208E+02  0.56997209307E+03 -0.81944286168E+03  0.99896473843E+03  0.10100000352E+00 0. -1.
       -3    1    3    3    0  502 -0.39695692208E+02 -0.56997209307E+03  0.22598312064E+03  0.61442030881E+03  0.10100000352E+00 0.  1.
</event>
<event>
 5   0  0.1643498E-05  0.1500466E+04  0.7818609E-02  0.8884143E-01
        1   -1    0    0  501    0  0.00000000000E+00  0.00000000000E+00  0.85069725923E+03  0.85069725925E+03  0.50400001928E-02 0.  1.
       -1   -1    0    0    0  501  0.00000000000E+00  0.00000000000E+00 -0.66163324040E+03  0.66163324042E+03  0.50400001928E-02 0. -1.
    10030    2    1    2    0    0  0.00000000000E+00  0.00000000000E+00  0.18906401884E+03  0.15123304997E+04  0.15004660399E+04 0.  0.
        4    1    3    3  502    0 -0.88319959458E+02  0.31594820611E+03  0.77457012084E+03  0.84118022396E+03  0.12699999809E+01 0.  1.
       -4    1    3    3    0  502  0.88319959458E+02 -0.31594820611E+03 -0.58550610201E+03  0.67115027570E+03  0.12699999809E+01 0. -1.
</event>
<event>
 5   0  0.2969498E-05  0.1498873E+04  0.7818609E-02  0.8885202E-01
       -2   -1    0    0    0  501  0.00000000000E+00  0.00000000000E+00  0.37716388384E+03  0.37716388385E+03  0.25500000920E-02 0. -1.
        2   -1    0    0  501    0  0.00000000000E+00  0.00000000000E+00 -0.14891546490E+04  0.14891546490E+04  0.25500000920E-02 0.  1.
    10030    2    1    2    0    0  0.00000000000E+00  0.00000000000E+00 -0.11119907651E+04  0.18663185328E+04  0.14988733783E+04 0.  0.
        3    1    3    3  502    0 -0.58755054177E+03  0.35245437716E+03 -0.93410963968E+03  0.11584474767E+04  0.10100000352E+00 0.  1.
       -3    1    3    3    0  502  0.58755054177E+03 -0.35245437716E+03 -0.17788112543E+03  0.70787105612E+03  0.10100000352E+00 0. -1.
</event>
<event>
 5   0  0.3018308E-05  0.1500144E+04  0.7818609E-02  0.8884357E-01
       -2   -1    0    0    0  501  0.00000000000E+00  0.00000000000E+00  0.12088155656E+04  0.12088155656E+04  0.25500000920E-02 0.  1.
        2   -1    0    0  501    0  0.00000000000E+00  0.00000000000E+00 -0.46542115244E+03  0.46542115245E+03  0.25500000920E-02 0. -1.
    10030    2    1    2    0    0  0.00000000000E+00  0.00000000000E+00  0.74339441311E+03  0.16742367180E+04  0.15001444379E+04 0.  0.
        2    1    3    3  502    0 -0.66545437856E+03  0.75689447110E+02  0.74860165396E+03  0.10044714325E+04  0.25500000920E-02 0.  1.
       -2    1    3    3    0  502  0.66545437856E+03 -0.75689447110E+02 -0.52072408433E+01  0.66976528554E+03  0.25500000920E-02 0. -1.
</event>
<event>
 5   0  0.3070497E-05  0.1507227E+04  0.7818609E-02  0.8879661E-01
        2   -1    0    0  501    0  0.00000000000E+00  0.00000000000E+00  0.96094356622E+03  0.96094356622E+03  0.25500000920E-02 0.  1.
       -2   -1    0    0    0  501  0.00000000000E+00  0.00000000000E+00 -0.59101622245E+03  0.59101622245E+03  0.25500000920E-02 0. -1.
    10030    2    1    2    0    0  0.00000000000E+00  0.00000000000E+00  0.36992734377E+03  0.15519597887E+04  0.15072269059E+04 0.  0.
        4    1    3    3  502    0 -0.18272917939E+03  0.70706496760E+03 -0.65699009716E+01  0.73032567934E+03  0.12699999809E+01 0. -1.
       -4    1    3    3    0  502  0.18272917939E+03 -0.70706496760E+03  0.37649724474E+03  0.82163410933E+03  0.12699999809E+01 0.  1.
</event>
<event>
 5   0  0.1580078E-05  0.1501773E+04  0.7818609E-02  0.8883275E-01
       -1   -1    0    0    0  501  0.00000000000E+00  0.00000000000E+00  0.24034139739E+03  0.24034139744E+03  0.50400001928E-02 0.  1.
        1   -1    0    0  501    0  0.00000000000E+00  0.00000000000E+00 -0.23459560585E+04  0.23459560585E+04  0.50400001928E-02 0. -1.
    10030    2    1    2    0    0  0.00000000000E+00  0.00000000000E+00 -0.21056146611E+04  0.25862974559E+04  0.15017727623E+04 0.  0.
        2    1    3    3  502    0 -0.55812036052E+03 -0.31679839525E+03 -0.17241655655E+04  0.18397299957E+04  0.25500000920E-02 0. -1.
       -2    1    3    3    0  502  0.55812036052E+03  0.31679839525E+03 -0.38144909561E+03  0.74656746018E+03  0.25500000920E-02 0.  1.
</event>
<event>
 5   0  0.1116613E-05  0.1500413E+04  0.7818609E-02  0.8884178E-01
       -3   -1    0    0    0  501  0.00000000000E+00  0.00000000000E+00  0.28805052753E+03  0.28805054523E+03  0.10100000352E+00 0. -1.
        3   -1    0    0  501    0  0.00000000000E+00  0.00000000000E+00 -0.19538588749E+04  0.19538588775E+04  0.10100000352E+00 0.  1.
    10030    2    1    2    0    0  0.00000000000E+00  0.00000000000E+00 -0.16658083474E+04  0.22419094228E+04  0.15004134129E+04 0.  0.
        1    1    3    3  502    0  0.15568646771E+03  0.69659484467E+03 -0.48785378012E+03  0.86457154976E+03  0.50400001928E-02 0. -1.
       -1    1    3    3    0  502 -0.15568646771E+03 -0.69659484467E+03 -0.11779545673E+04  0.13773378730E+04  0.50400001928E-02 0.  1.
</event>
<event>
 5   0  0.2969498E-05  0.1500241E+04  0.7818609E-02  0.8884293E-01
       -2   -1    0    0    0  501  0.00000000000E+00  0.00000000000E+00  0.65372290099E+03  0.65372290100E+03  0.25500000920E-02 0.  1.
        2   -1    0    0  501    0  0.00000000000E+00  0.00000000000E+00 -0.86073265260E+03  0.86073265261E+03  0.25500000920E-02 0. -1.
    10030    2    1    2    0    0  0.00000000000E+00  0.00000000000E+00 -0.20700975161E+03  0.15144555536E+04  0.15002408429E+04 0.  0.
        3    1    3    3  502    0  0.54431518750E+03  0.27498454120E+03  0.33742323931E+03  0.69695765572E+03  0.10100000352E+00 0.  1.
       -3    1    3    3    0  502 -0.54431518750E+03 -0.27498454120E+03 -0.54443299092E+03  0.81749789788E+03  0.10100000352E+00 0. -1.
</event>
<event>
 5   0  0.3018308E-05  0.1497983E+04  0.7818609E-02  0.8885795E-01
        2   -1    0    0  501    0  0.00000000000E+00  0.00000000000E+00  0.21534149590E+04  0.21534149590E+04  0.25500000920E-02 0.  1.
       -2   -1    0    0    0  501  0.00000000000E+00  0.00000000000E+00 -0.26051101675E+03  0.26051101677E+03  0.25500000920E-02 0. -1.
    10030    2    1    2    0    0  0.00000000000E+00  0.00000000000E+00  0.18929039422E+04  0.24139259757E+04  0.14979830713E+04 0.  0.
        2    1    3    3  502    0 -0.10054722335E+03 -0.73828231131E+03  0.82353930797E+03  0.11105798067E+04  0.25500000920E-02 0. -1.
       -2    1    3    3    0  502  0.10054722335E+03  0.73828231131E+03  0.10693646342E+04  0.13033461690E+04  0.25500000920E-02 0.  1.
</event>
<event>
 5   0  0.1576214E-05  0.1500155E+04  0.7818609E-02  0.8884350E-01
        1   -1    0    0  501    0  0.00000000000E+00  0.00000000000E+00  0.10167134240E+04  0.10167134240E+04  0.50400001928E-02 0. -1.
       -1   -1    0    0    0  501  0.00000000000E+00  0.00000000000E+00 -0.55336732770E+03  0.55336732772E+03  0.50400001928E-02 0.  1.
    10030    2    1    2    0    0  0.00000000000E+00  0.00000000000E+00  0.46334609627E+03  0.15700807517E+04  0.15001546460E+04 0.  0.
        1    1    3    3  502    0 -0.37261059210E+03  0.33254696447E+02 -0.44876316865E+03  0.58423703216E+03  0.50400001928E-02 0.  1.
       -1    1    3    3    0  502  0.37261059210E+03 -0.33254696447E+02  0.91210926492E+03  0.98584371955E+03  0.50400001928E-02 0. -1.
</event>
<event>
 5   0  0.1588657E-05  0.1497198E+04  0.7818609E-02  0.8886318E-01
        1   -1    0    0  501    0  0.00000000000E+00  0.00000000000E+00  0.96401237897E+03  0.96401237898E+03  0.50400001928E-02 0.  1.
       -1   -1    0    0    0  501  0.00000000000E+00  0.00000000000E+00 -0.58132112488E+03  0.58132112491E+03  0.50400001928E-02 0. -1.
    10030    2    1    2    0    0  0.00000000000E+00  0.00000000000E+00  0.38269125409E+03  0.15453335039E+04  0.14971983978E+04 0.  0.
        3    1    3    3  502    0 -0.56365418502E+03  0.83773337807E+02 -0.30972763178E+03  0.64857939260E+03  0.10100000352E+00 0. -1.
       -3    1    3    3    0  502  0.56365418502E+03 -0.83773337807E+02  0.69241888586E+03  0.89675411129E+03  0.10100000352E+00 0.  1.
</event>
<event>
 5   0  0.1643498E-05  0.1499854E+04  0.7818609E-02  0.8884550E-01
       -1   -1    0    0    0  501  0.00000000000E+00  0.00000000000E+00  0.91452149722E+03  0.91452149723E+03  0.50400001928E-02 0.  1.
        1   -1    0    0  501    0  0.00000000000E+00  0.00000000000E+00 -0.61495600174E+03  0.61495600176E+03  0.50400001928E-02 0. -1.
    10030    2    1    2    0    0  0.00000000000E+00  0.00000000000E+00  0.29956549548E+03  0.15294774990E+04  0.14998539708E+04 0.  0.
        4    1    3    3  502    0  0.20330955335E+03 -0.44376519211E+03 -0.43078301179E+03  0.65102836832E+03  0.12699999809E+01 0. -1.
       -4    1    3    3    0  502 -0.20330955335E+03  0.44376519211E+03  0.73034850727E+03  0.87844913067E+03  0.12699999809E+01 0.  1.
</event>
<event>
 5   0  0.1116613E-05  0.1499633E+04  0.7818609E-02  0.8884697E-01
       -3   -1    0    0    0  501  0.00000000000E+00  0.00000000000E+00  0.21293041580E+03  0.21293043975E+03  0.10100000352E+00 0.  1.
        3   -1    0    0  501    0  0.00000000000E+00  0.00000000000E+00 -0.26404142035E+04  0.26404142055E+04  0.10100000352E+00 0. -1.
    10030    2    1    2    0    0  0.00000000000E+00  0.00000000000E+00 -0.24274837877E+04  0.28533446452E+04  0.14996326632E+04 0.  0.
        5    1    3    3  502    0 -0.49093383348E+03 -0.45525645711E+03 -0.57152086623E+03  0.88030259635E+03  0.46999998093E+01 0.  1.
       -5    1    3    3    0  502  0.49093383348E+03  0.45525645711E+03 -0.18559629215E+04  0.19730420489E+04  0.46999998093E+01 0. -1.
</event>
<event>
 5   0  0.1588657E-05  0.1500238E+04  0.7818609E-02  0.8884294E-01
        1   -1    0    0  501    0  0.00000000000E+00  0.00000000000E+00  0.21819571311E+04  0.21819571311E+04  0.50400001928E-02 0.  1.
       -1   -1    0    0    0  501  0.00000000000E+00  0.00000000000E+00 -0.25787803909E+03  0.25787803914E+03  0.50400001928E-02 0. -1.
    10030    2    1    2    0    0  0.00000000000E+00  0.00000000000E+00  0.19240790920E+04  0.24398351702E+04  0.15002384163E+04 0.  0.
        3    1    3    3  502    0 -0.40878310486E+03  0.24169062697E+03  0.17720470777E+02  0.47521785664E+03  0.10100000352E+00 0. -1.
       -3    1    3    3    0  502  0.40878310486E+03 -0.24169062697E+03  0.19063586212E+04  0.19646173136E+04  0.10100000352E+00 0.  1.
</event>
<event>
 5   0  0.2969498E-05  0.1501154E+04  0.7818609E-02  0.8883686E-01
        2   -1    0    0  501    0  0.00000000000E+00  0.00000000000E+00  0.16911817082E+04  0.16911817082E+04  0.25500000920E-02 0.  1.
       -2   -1    0    0    0  501  0.00000000000E+00  0.00000000000E+00 -0.33311951118E+03  0.33311951119E+03  0.25500000920E-02 0. -1.
    10030    2    1    2    0    0  0.00000000000E+00  0.00000000000E+00  0.13580621971E+04  0.20243012194E+04  0.15011537216E+04 0.  0.
        3    1    3    3  502    0 -0.53739599029E+03  0.32470714902E+03  0.12336166493E+04  0.13842106887E+04  0.10100000352E+00 0.  1.
       -3    1    3    3    0  502  0.53739599029E+03 -0.32470714902E+03  0.12444554775E+03  0.64009053075E+03  0.10100000352E+00 0. -1.
</event>
<event>
 5   0  0.1580078E-05  0.1499489E+04  0.7818609E-02  0.8884793E-01
        1   -1    0    0  501    0  0.00000000000E+00  0.00000000000E+00  0.13376875588E+04  0.13376875588E+04  0.50400001928E-02 0. -1.
       -1   -1    0    0    0  501  0.00000000000E+00  0.00000000000E+00 -0.42021509561E+03  0.42021509564E+03  0.50400001928E-02 0.  1.
    10030    2    1    2    0    0  0.00000000000E+00  0.00000000000E+00  0.91747246323E+03  0.17579026545E+04  0.14994885868E+04 0.  0.
        2    1    3    3  502    0  0.83946059561E+02 -0.52780019970E+03  0.10751842876E+04  0.12006836569E+04  0.25500000920E-02 0. -1.
       -2    1    3    3    0  502 -0.83946059561E+02  0.52780019970E+03 -0.15771182434E+03  0.55721899757E+03  0.25500000920E-02 0.  1.
</event>
<event>
 5   0  0.3093600E-05  0.1500199E+04  0.7818609E-02  0.8884321E-01
       -2   -1    0    0    0  501  0.00000000000E+00  0.00000000000E+00  0.11637745616E+04  0.11637745616E+04  0.25500000920E-02 0.  1.
        2   -1    0    0  501    0  0.00000000000E+00  0.00000000000E+00 -0.48346915049E+03  0.48346915050E+03  0.25500000920E-02 0. -1.
    10030    2    1    2    0    0  0.00000000000E+00  0.00000000000E+00  0.68030541112E+03  0.16472437121E+04  0.15001987851E+04 0.  0.
        1    1    3    3  502    0 -0.18876088758E+03 -0.49293709376E+03 -0.24503105109E+03  0.58194318203E+03  0.50400001928E-02 0. -1.
       -1    1    3    3    0  502  0.18876088758E+03  0.49293709376E+03  0.92533646221E+03  0.10653005301E+04  0.50400001928E-02 0.  1.
</event>
<event>
 5   0  0.1580078E-05  0.1499818E+04  0.7818609E-02  0.8884574E-01
        1   -1    0    0  501    0  0.00000000000E+00  0.00000000000E+00  0.11641139671E+04  0.11641139671E+04  0.50400001928E-02 0.  1.
       -1   -1    0    0    0  501  0.00000000000E+00  0.00000000000E+00 -0.48308264922E+03  0.48308264925E+03  0.50400001928E-02 0. -1.
    10030    2    1    2    0    0  0.00000000000E+00  0.00000000000E+00  0.68103131790E+03  0.16471966164E+04  0.14998176679E+04 0.  0.
        2    1    3    3  502    0  0.28854149074E+03  0.22442482704E+03  0.10596404550E+04  0.11209195282E+04  0.25500000920E-02 0.  1.
       -2    1    3    3    0  502 -0.28854149074E+03 -0.22442482704E+03 -0.37860913707E+03  0.52627708819E+03  0.25500000920E-02 0. -1.
</event>
<event>
 5   0  0.1588657E-05  0.1501524E+04  0.7818609E-02  0.8883440E-01
       -1   -1    0    0    0  501  0.00000000000E+00  0.00000000000E+00  0.45048188727E+03  0.45048188730E+03  0.50400001928E-02 0.  1.
        1   -1    0    0  501    0  0.00000000000E+00  0.00000000000E+00 -0.12512020636E+04  0.12512020636E+04  0.50400001928E-02 0. -1.
    10030    2    1    2    0    0  0.00000000000E+00  0.00000000000E+00 -0.80072017632E+03  0.17016839509E+04  0.15015243814E+04 0.  0.
        3    1    3    3  502    0  0.73939547199E+03 -0.55825602225E+02 -0.26712237623E+03  0.78814753438E+03  0.10100000352E+00 0.  1.
       -3    1    3    3    0  502 -0.73939547199E+03  0.55825602225E+02 -0.53359780009E+03  0.91353641653E+03  0.10100000352E+00 0. -1.
</event>
<event>
 5   0  0.3093600E-05  0.1499669E+04  0.7818609E-02  0.8884673E-01
       -2   -1    0    0    0  501  0.00000000000E+00  0.00000000000E+00  0.44946438794E+03  0.44946438795E+03  0.25500000920E-02 0. -1.
        2   -1    0    0  501    0  0.00000000000E+00  0.00000000000E+00 -0.12509366478E+04  0.12509366478E+04  0.25500000920E-02 0.  1.
    10030    2    1    2    0    0  0.00000000000E+00  0.00000000000E+00 -0.80147225987E+03  0.17004010358E+04  0.14996685964E+04 0.  0.
        1    1    3    3  502    0  0.20741732963E+03  0.40222208152E+03 -0.10786302160E+04  0.11697212037E+04  0.50400001928E-02 0.  1.
       -1    1    3    3    0  502 -0.20741732963E+03 -0.40222208152E+03  0.27715795612E+03  0.53067983207E+03  0.50400001928E-02 0. -1.
</event>
<event>
 5   0  0.1643498E-05  0.1497245E+04  0.7818609E-02  0.8886287E-01
       -1   -1    0    0    0  501  0.00000000000E+00  0.00000000000E+00  0.48270816267E+03  0.48270816269E+03  0.50400001928E-02 0. -1.
        1   -1    0    0  501    0  0.00000000000E+00  0.00000000000E+00 -0.11610243604E+04  0.11610243605E+04  0.50400001928E-02 0.  1.
    10030    2    1    2    0    0  0.00000000000E+00  0.00000000000E+00 -0.67831619778E+03  0.16437325232E+04  0.14972453852E+04 0.  0.
        4    1    3    3  502    0  0.20082967786E+03  0.64638507900E+03 -0.69027416843E+03  0.96676070998E+03  0.12699999809E+01 0.  1.
       -4    1    3    3    0  502 -0.20082967786E+03 -0.64638507900E+03  0.11957970651E+02  0.67697181317E+03  0.12699999809E+01 0. -1.
</event>
<event>
 5   0  0.3018308E-05  0.1500179E+04  0.7818609E-02  0.8884334E-01
       -2   -1    0    0    0  501  0.00000000000E+00  0.00000000000E+00  0.88622706516E+03  0.88622706517E+03  0.25500000920E-02 0.  1.
        2   -1    0    0  501    0  0.00000000000E+00  0.00000000000E+00 -0.63486501407E+03  0.63486501407E+03  0.25500000920E-02 0. -1.
    10030    2    1    2    0    0  0.00000000000E+00  0.00000000000E+00  0.25136205110E+03  0.15210920792E+04  0.15001794002E+04 0.  0.
        2    1    3    3  502    0 -0.70637180472E+03 -0.20088356816E+03 -0.29154050536E+02  0.73495938196E+03  0.25500000920E-02 0. -1.
       -2    1    3    3    0  502  0.70637180472E+03  0.20088356816E+03  0.28051610163E+03  0.78613269728E+03  0.25500000920E-02 0.  1.
</event>
<event>
 5   0  0.1533777E-05  0.1499797E+04  0.7818609E-02  0.8884588E-01
       -1   -1    0    0    0  501  0.00000000000E+00  0.00000000000E+00  0.11534336022E+04  0.11534336022E+04  0.50400001928E-02 0. -1.
        1   -1    0    0  501    0  0.00000000000E+00  0.00000000000E+00 -0.48754218595E+03  0.48754218597E+03  0.50400001928E-02 0.  1.
    10030    2    1    2    0    0  0.00000000000E+00  0.00000000000E+00  0.66589141624E+03  0.16409757882E+04  0.14997967059E+04 0.  0.
        5    1    3    3  502    0  0.30825950441E+03  0.15994478958E+03 -0.39423594395E+03  0.52540491745E+03  0.46999998093E+01 0.  1.
       -5    1    3    3    0  502 -0.30825950441E+03 -0.15994478958E+03  0.10601273602E+04  0.11155708707E+04  0.46999998093E+01 0. -1.
</event>
<event>
 5   0  0.2969498E-05  0.1500505E+04  0.7818609E-02  0.8884117E-01
       -2   -1    0    0    0  501  0.00000000000E+00  0.00000000000E+00  0.82257813580E+03  0.82257813580E+03  0.25500000920E-02 0. -1.
        2   -1    0    0  501    0  0.00000000000E+00  0.00000000000E+00 -0.68428641409E+03  0.68428641409E+03  0.25500000920E-02 0.  1.
    10030    2    1    2    0    0  0.00000000000E+00  0.00000000000E+00  0.13829172171E+03  0.15068645499E+04  0.15005053054E+04 0.  0.
        3    1    3    3  502    0 -0.23691329711E+03 -0.63124195702E+03 -0.26131517323E+03  0.72310438292E+03  0.10100000352E+00 0.  1.
       -3    1    3    3    0  502  0.23691329711E+03  0.63124195702E+03  0.39960689494E+03  0.78376016697E+03  0.10100000352E+00 0. -1.
</event>
<event>
 5   0  0.1580078E-05  0.1500138E+04  0.7818609E-02  0.8884361E-01
       -1   -1    0    0    0  501  0.00000000000E+00  0.00000000000E+00  0.58293376585E+03  0.58293376587E+03  0.50400001928E-02 0. -1.
        1   -1    0    0  501    0  0.00000000000E+00  0.00000000000E+00 -0.96512369893E+03  0.96512369894E+03  0.50400001928E-02 0.  1.
    10030    2    1    2    0    0  0.00000000000E+00  0.00000000000E+00 -0.38218993308E+03  0.15480574648E+04  0.15001375835E+04 0.  0.
        2    1    3    3  502    0  0.64519204803E+03 -0.25821223361E+02  0.20275573366E+03  0.67679347068E+03  0.25500000920E-02 0. -1.
       -2    1    3    3    0  502 -0.64519204803E+03  0.25821223361E+02 -0.58494566674E+03  0.87126399413E+03  0.25500000920E-02 0.  1.
</event>
<event>
 5   0  0.3018308E-05  0.1500956E+04  0.7818609E-02  0.8883817E-01
       -2   -1    0    0    0  501  0.00000000000E+00  0.00000000000E+00  0.91165433865E+03  0.91165433866E+03  0.25500000920E-02 0. -1.
        2   -1    0    0  501    0  0.00000000000E+00  0.00000000000E+00 -0.61779714672E+03  0.61779714672E+03  0.25500000920E-02 0.  1.
    10030    2    1    2    0    0  0.00000000000E+00  0.00000000000E+00  0.29385719194E+03  0.15294514854E+04  0.15009562941E+04 0.  0.
        2    1    3    3  502    0  0.37978198185E+02 -0.60082909373E+03 -0.30966240717E+03  0.67699981524E+03  0.25500000920E-02 0.  1.
       -2    1    3    3    0  502 -0.37978198185E+02  0.60082909373E+03  0.60351959911E+03  0.85245167014E+03  0.25500000920E-02 0. -1.
</event>
<event>
 5   0  0.3093600E-05  0.1500148E+04  0.7818609E-02  0.8884354E-01
       -2   -1    0    0    0  501  0.00000000000E+00  0.00000000000E+00  0.33321001662E+03  0.33321001663E+03  0.25500000920E-02 0. -1.
        2   -1    0    0  501    0  0.00000000000E+00  0.00000000000E+00 -0.16884586953E+04  0.16884586953E+04  0.25500000920E-02 0.  1.
    10030    2    1    2    0    0  0.00000000000E+00  0.00000000000E+00 -0.13552486786E+04  0.20216687119E+04  0.15001484592E+04 0.  0.
        1    1    3    3  502    0  0.36263061295E+02  0.39595960176E+03  0.17949566992E+03  0.43625418209E+03  0.50400001928E-02 0. -1.
       -1    1    3    3    0  502 -0.36263061295E+02 -0.39595960176E+03 -0.15347443486E+04  0.15854145298E+04  0.50400001928E-02 0.  1.
</event>
<event>
 5   0  0.1588657E-05  0.1499982E+04  0.7818609E-02  0.8884465E-01
       -1   -1    0    0    0  501  0.00000000000E+00  0.00000000000E+00  0.73839374057E+03  0.73839374058E+03  0.50400001928E-02 0. -1.
        1   -1    0    0  501    0  0.00000000000E+00  0.00000000000E+00 -0.76177058882E+03  0.76177058884E+03  0.50400001928E-02 0.  1.
    10030    2    1    2    0    0  0.00000000000E+00  0.00000000000E+00 -0.23376848251E+02  0.15001643294E+04  0.14999821793E+04 0.  0.
        3    1    3    3  502    0  0.40130224241E+03 -0.62835842096E+03  0.69616155027E+02  0.74881520697E+03  0.10100000352E+00 0.  1.
       -3    1    3    3    0  502 -0.40130224241E+03  0.62835842096E+03 -0.92993003278E+02  0.75134912245E+03  0.10100000352E+00 0. -1.
</event>
<event>
 5   0  0.1643498E-05  0.1500138E+04  0.7818609E-02  0.8884361E-01
       -1   -1    0    0    0  501  0.00000000000E+00  0.00000000000E+00  0.52350431075E+03  0.52350431078E+03  0.50400001928E-02 0.  1.
        1   -1    0    0  501    0  0.00000000000E+00  0.00000000000E+00 -0.10746874083E+04  0.10746874083E+04  0.50400001928E-02 0. -1.
    10030    2    1    2    0    0  0.00000000000E+00  0.00000000000E+00 -0.55118309750E+03  0.15981917190E+04  0.15001379816E+04 0.  0.
        4    1    3    3  502    0  0.38649169973E+03 -0.61612058473E+03 -0.80244878608E+02  0.73172485425E+03  0.12699999809E+01 0. -1.
       -4    1    3    3    0  502 -0.38649169973E+03  0.61612058473E+03 -0.47093821889E+03  0.86646686480E+03  0.12699999809E+01 0.  1.
</event>
<event>
 5   0  0.3018308E-05  0.1500043E+04  0.7818609E-02  0.8884424E-01
        2   -1    0    0  501    0  0.00000000000E+00  0.00000000000E+00  0.70744142137E+03  0.70744142137E+03  0.25500000920E-02 0. -1.
       -2   -1    0    0    0  501  0.00000000000E+00  0.00000000000E+00 -0.79516483139E+03  0.79516483140E+03  0.25500000920E-02 0.  1.
    10030    2    1    2    0    0  0.00000000000E+00  0.00000000000E+00 -0.87723410025E+02  0.15026062528E+04  0.15000433841E+04 0.  0.
        2    1    3    3  502    0  0.36622523531E+03 -0.59465687773E+03 -0.31781536894E+03  0.76729677046E+03  0.25500000920E-02 0.  1.
       -2    1    3    3    0  502 -0.36622523531E+03  0.59465687773E+03  0.23009195892E+03  0.73530948231E+03  0.25500000920E-02 0. -1.
</event>
<event>
 5   0  0.3070497E-05  0.1499285E+04  0.7818609E-02  0.8884929E-01
       -2   -1    0    0    0  501  0.00000000000E+00  0.00000000000E+00  0.26705527540E+03  0.26705527542E+03  0.25500000920E-02 0.  1.
        2   -1    0    0  501    0  0.00000000000E+00  0.00000000000E+00 -0.21042977963E+04  0.21042977963E+04  0.25500000920E-02 0. -1.
    10030    2    1    2    0    0  0.00000000000E+00  0.00000000000E+00 -0.18372425209E+04  0.23713530718E+04  0.14992849330E+04 0.  0.
        4    1    3    3  502    0 -0.71890774652E+03 -0.36951622362E+02 -0.58772443597E+03  0.92930909602E+03  0.12699999809E+01 0. -1.
       -4    1    3    3    0  502  0.71890774652E+03  0.36951622362E+02 -0.12495180850E+04  0.14420439757E+04  0.12699999809E+01 0.  1.
</event>
<event>
 5   0  0.2969498E-05  0.1499514E+04  0.7818609E-02  0.8884776E-01
       -2   -1    0    0    0  501  0.00000000000E+00  0.00000000000E+00  0.40768681841E+03  0.40768681842E+03  0.25500000920E-02 0.  1.
        2   -1    0    0  501    0  0.00000000000E+00  0.00000000000E+00 -0.13788421590E+04  0.13788421590E+04  0.25500000920E-02 0. -1.
    10030    2    1    2    0    0  0.00000000000E+00  0.00000000000E+00 -0.97115534062E+03  0.17865289774E+04  0.14995142852E+04 0.  0.
        3    1    3    3  502    0 -0.42638312191E+03 -0.36600139898E+03  0.10579167589E+03  0.57179671177E+03  0.10100000352E+00 0.  1.
       -3    1    3    3    0  502  0.42638312191E+03  0.36600139898E+03 -0.10769470165E+04  0.12147322657E+04  0.10100000352E+00 0. -1.
</event>
<event>
 5   0  0.3030702E-05  0.1500205E+04  0.7818609E-02  0.8884317E-01
       -2   -1    0    0    0  501  0.00000000000E+00  0.00000000000E+00  0.51517631560E+03  0.51517631560E+03  0.25500000920E-02 0.  1.
        2   -1    0    0  501    0  0.00000000000E+00  0.00000000000E+00 -0.10921578648E+04  0.10921578648E+04  0.25500000920E-02 0. -1.
    10030    2    1    2    0    0  0.00000000000E+00  0.00000000000E+00 -0.57698154920E+03  0.16073341804E+04  0.15002051391E+04 0.  0.
        5    1    3    3  502    0  0.70964918462E+03 -0.13505482851E+03 -0.50487838926E+03  0.88134332123E+03  0.46999998093E+01 0.  1.
       -5    1    3    3    0  502 -0.70964918462E+03  0.13505482851E+03 -0.72103159936E+02  0.72599085917E+03  0.46999998093E+01 0. -1.
</event>
<event>
 5   0  0.1643498E-05  0.1500340E+04  0.7818609E-02  0.8884227E-01
        1   -1    0    0  501    0  0.00000000000E+00  0.00000000000E+00  0.44628711646E+03  0.44628711649E+03  0.50400001928E-02 0.  1.
       -1   -1    0    0    0  501  0.00000000000E+00  0.00000000000E+00 -0.12609704671E+04  0.12609704671E+04  0.50400001928E-02 0. -1.
    10030    2    1    2    0    0  0.00000000000E+00  0.00000000000E+00 -0.81468335065E+03  0.17072575836E+04  0.15003397932E+04 0.  0.
        4    1    3    3  502    0 -0.50118561752E+03 -0.19943175811E+03  0.18589600088E+03  0.57054271128E+03  0.12699999809E+01 0.  1.
       -4    1    3    3    0  502  0.50118561752E+03  0.19943175811E+03 -0.10005793515E+04  0.11367148723E+04  0.12699999809E+01 0. -1.
</event>
<event>
 5   0  0.1533777E-05  0.1501658E+04  0.7818609E-02  0.8883351E-01
       -1   -1    0    0    0  501  0.00000000000E+00  0.00000000000E+00  0.12349808730E+04  0.12349808730E+04  0.50400001928E-02 0. -1.
        1   -1    0    0  501    0  0.00000000000E+00  0.00000000000E+00 -0.45647984762E+03  0.45647984764E+03  0.50400001928E-02 0.  1.
    10030    2    1    2    0    0  0.00000000000E+00  0.00000000000E+00  0.77850102534E+03  0.16914607206E+04  0.15016575918E+04 0.  0.
        5    1    3    3  502    0 -0.80676773513E+02 -0.19657904784E+03 -0.42188717594E+03  0.47240125217E+03  0.46999998093E+01 0.  1.
       -5    1    3    3    0  502  0.80676773513E+02  0.19657904784E+03  0.12003882013E+04  0.12190594684E+04  0.46999998093E+01 0. -1.
</event>
<event>
 5   0  0.1576214E-05  0.1500363E+04  0.7818609E-02  0.8884212E-01
        1   -1    0    0  501    0  0.00000000000E+00  0.00000000000E+00  0.57707788043E+03  0.57707788045E+03  0.50400001928E-02 0.  1.
       -1   -1    0    0    0  501  0.00000000000E+00  0.00000000000E+00 -0.97521040188E+03  0.97521040189E+03  0.50400001928E-02 0. -1.
    10030    2    1    2    0    0  0.00000000000E+00  0.00000000000E+00 -0.39813252145E+03  0.15522882823E+04  0.15003630917E+04 0.  0.
        1    1    3    3  502    0 -0.23340055311E+03 -0.71252456915E+03 -0.17361254146E+03  0.76961574465E+03  0.50400001928E-02 0.  1.
       -1    1    3    3    0  502  0.23340055311E+03  0.71252456915E+03 -0.22451997999E+03  0.78267253770E+03  0.50400001928E-02 0. -1.
</event>
<event>
 5   0  0.3070497E-05  0.1502384E+04  0.7818609E-02  0.8882869E-01
        2   -1    0    0  501    0  0.00000000000E+00  0.00000000000E+00  0.11001088980E+04  0.11001088980E+04  0.25500000920E-02 0. -1.
       -2   -1    0    0    0  501  0.00000000000E+00  0.00000000000E+00 -0.51293947038E+03  0.51293947039E+03  0.25500000920E-02 0.  1.
    10030    2    1    2    0    0  0.00000000000E+00  0.00000000000E+00  0.58716942759E+03  0.16130483684E+04  0.15023838065E+04 0.  0.
        4    1    3    3  502    0 -0.18572509917E+02 -0.40671202642E+03 -0.38420651521E+03  0.55979984797E+03  0.12699999809E+01 0.  1.
       -4    1    3    3    0  502  0.18572509917E+02  0.40671202642E+03  0.97137594280E+03  0.10532485204E+04  0.12699999809E+01 0. -1.
</event>
<event>
 5   0  0.3070497E-05  0.1500964E+04  0.7818609E-02  0.8883812E-01
        2   -1    0    0  501    0  0.00000000000E+00  0.00000000000E+00  0.74428307786E+03  0.74428307786E+03  0.25500000920E-02 0.  1.
       -2   -1    0    0    0  501  0.00000000000E+00  0.00000000000E+00 -0.75673289657E+03  0.75673289657E+03  0.25500000920E-02 0. -1.
    10030    2    1    2    0    0  0.00000000000E+00  0.00000000000E+00 -0.12449818715E+02  0.15010159744E+04  0.15009643425E+04 0.  0.
        4    1    3    3  502    0 -0.29079105118E+03 -0.67995444266E+03  0.12154644913E+03  0.74944821818E+03  0.12699999809E+01 0.  1.
       -4    1    3    3    0  502  0.29079105118E+03  0.67995444266E+03 -0.13399626785E+03  0.75156775625E+03  0.12699999809E+01 0. -1.
</event>
<event>
 5   0  0.1116613E-05  0.1499795E+04  0.7818609E-02  0.8884589E-01
        3   -1    0    0  501    0  0.00000000000E+00  0.00000000000E+00  0.80605848924E+03  0.80605849557E+03  0.10100000352E+00 0.  1.
       -3   -1    0    0    0  501  0.00000000000E+00  0.00000000000E+00 -0.69764909943E+03  0.69764910674E+03  0.10100000352E+00 0. -1.
    10030    2    1    2    0    0  0.00000000000E+00  0.00000000000E+00  0.10840938981E+03  0.15037076023E+04  0.14997946384E+04 0.  0.
        2    1    3    3  502    0 -0.40822626916E+03  0.18453599880E+03 -0.54873252102E+03  0.70838520688E+03  0.25500000920E-02 0. -1.
       -2    1    3    3    0  502  0.40822626916E+03 -0.18453599880E+03  0.65714191083E+03  0.79532239543E+03  0.25500000920E-02 0.  1.
</event>
<event>
 5   0  0.3018308E-05  0.1498299E+04  0.7818609E-02  0.8885585E-01
        2   -1    0    0  501    0  0.00000000000E+00  0.00000000000E+00  0.23679050618E+04  0.23679050618E+04  0.25500000920E-02 0.  1.
       -2   -1    0    0    0  501  0.00000000000E+00  0.00000000000E+00 -0.23701329418E+03  0.23701329419E+03  0.25500000920E-02 0. -1.
    10030    2    1    2    0    0  0.00000000000E+00  0.00000000000E+00  0.21308917676E+04  0.26049183560E+04  0.14982990076E+04 0.  0.
        2    1    3    3  502    0 -0.49190626612E+03 -0.24765362490E+02  0.84046705649E+02  0.49964882324E+03  0.25500000920E-02 0. -1.
       -2    1    3    3    0  502  0.49190626612E+03  0.24765362490E+02  0.20468450620E+04  0.21052695328E+04  0.25500000920E-02 0.  1.
</event>
<event>
 5   0  0.1580078E-05  0.1499695E+04  0.7818609E-02  0.8884656E-01
       -1   -1    0    0    0  501  0.00000000000E+00  0.00000000000E+00  0.94878505822E+03  0.94878505824E+03  0.50400001928E-02 0.  1.
        1   -1    0    0  501    0  0.00000000000E+00  0.00000000000E+00 -0.59262245661E+03  0.59262245663E+03  0.50400001928E-02 0. -1.
    10030    2    1    2    0    0  0.00000000000E+00  0.00000000000E+00  0.35616260162E+03  0.15414075149E+04  0.14996950784E+04 0.  0.
        2    1    3    3  502    0  0.15839979534E+03  0.30726376585E+03 -0.50583587200E+03  0.61267564533E+03  0.25500000920E-02 0. -1.
       -2    1    3    3    0  502 -0.15839979534E+03 -0.30726376585E+03  0.86199847362E+03  0.92873186954E+03  0.25500000920E-02 0.  1.
</event>
<event>
 5   0  0.1588657E-05  0.1500354E+04  0.7818609E-02  0.8884218E-01
       -1   -1    0    0    0  501  0.00000000000E+00  0.00000000000E+00  0.24004716683E+03  0.24004716688E+03  0.50400001928E-02 0. -1.
        1   -1    0    0  501    0  0.00000000000E+00  0.00000000000E+00 -0.23443950884E+04  0.23443950884E+04  0.50400001928E-02 0.  1.
    10030    2    1    2    0    0  0.00000000000E+00  0.00000000000E+00 -0.21043479216E+04  0.25844422553E+04  0.15003538236E+04 0.  0.
        3    1    3    3  502    0  0.35244319803E+03  0.56545529080E+03 -0.16459172564E+04  0.17756687525E+04  0.10100000352E+00 0.  1.
       -3    1    3    3    0  502 -0.35244319803E+03 -0.56545529080E+03 -0.45843066518E+03  0.80877350273E+03  0.10100000352E+00 0. -1.
</event>
<event>
 5   0  0.3030702E-05  0.1500077E+04  0.7818609E-02  0.8884402E-01
       -2   -1    0    0    0  501  0.00000000000E+00  0.00000000000E+00  0.10887862027E+04  0.10887862027E+04  0.25500000920E-02 0. -1.
        2   -1    0    0  501    0  0.00000000000E+00  0.00000000000E+00 -0.51668330868E+03  0.51668330869E+03  0.25500000920E-02 0.  1.
    10030    2    1    2    0    0  0.00000000000E+00  0.00000000000E+00  0.57210289402E+03  0.16054695114E+04  0.15000768749E+04 0.  0.
        5    1    3    3  502    0 -0.59428901335E+03  0.37976300819E+03  0.12902371246E+02  0.70539913167E+03  0.46999998093E+01 0.  1.
       -5    1    3    3    0  502  0.59428901335E+03 -0.37976300819E+03  0.55920052278E+03  0.90007037972E+03  0.46999998093E+01 0. -1.
</event>
<event>
 5   0  0.3093600E-05  0.1499846E+04  0.7818609E-02  0.8884555E-01
       -2   -1    0    0    0  501  0.00000000000E+00  0.00000000000E+00  0.19955826255E+04  0.19955826255E+04  0.25500000920E-02 0. -1.
        2   -1    0    0  501    0  0.00000000000E+00  0.00000000000E+00 -0.28181468516E+03  0.28181468518E+03  0.25500000920E-02 0.  1.
    10030    2    1    2    0    0  0.00000000000E+00  0.00000000000E+00  0.17137679404E+04  0.22773973107E+04  0.14998459779E+04 0.  0.
        1    1    3    3  502    0  0.46206610160E+03  0.22181554745E+03  0.16881098236E+04  0.17642057692E+04  0.50400001928E-02 0. -1.
       -1    1    3    3    0  502 -0.46206610160E+03 -0.22181554745E+03  0.25658116757E+02  0.51319154155E+03  0.50400001928E-02 0.  1.
</event>
<event>
 5   0  0.1643498E-05  0.1498195E+04  0.7818609E-02  0.8885654E-01
       -1   -1    0    0    0  501  0.00000000000E+00  0.00000000000E+00  0.34224403830E+03  0.34224403833E+03  0.50400001928E-02 0. -1.
        1   -1    0    0  501    0  0.00000000000E+00  0.00000000000E+00 -0.16396102874E+04  0.16396102874E+04  0.50400001928E-02 0.  1.
    10030    2    1    2    0    0  0.00000000000E+00  0.00000000000E+00 -0.12973662491E+04  0.19818543257E+04  0.14981947084E+04 0.  0.
        4    1    3    3  502    0  0.28464500446E+03 -0.10586240315E+03 -0.15545217047E+04  0.15839093946E+04  0.12699999809E+01 0.  1.
       -4    1    3    3    0  502 -0.28464500446E+03  0.10586240315E+03  0.25715545562E+03  0.39794493114E+03  0.12699999809E+01 0. -1.
</event>
<event>
 5   0  0.1643498E-05  0.1500081E+04  0.7818609E-02  0.8884399E-01
       -1   -1    0    0    0  501  0.00000000000E+00  0.00000000000E+00  0.67729974317E+03  0.67729974319E+03  0.50400001928E-02 0. -1.
        1   -1    0    0  501    0  0.00000000000E+00  0.00000000000E+00 -0.83059333533E+03  0.83059333534E+03  0.50400001928E-02 0.  1.
    10030    2    1    2    0    0  0.00000000000E+00  0.00000000000E+00 -0.15329359216E+03  0.15078930785E+04  0.15000808681E+04 0.  0.
        4    1    3    3  502    0  0.51802597055E+03 -0.50012736758E+03 -0.28769436918E+03  0.77540180095E+03  0.12699999809E+01 0.  1.
       -4    1    3    3    0  502 -0.51802597055E+03  0.50012736758E+03  0.13440077702E+03  0.73249127758E+03  0.12699999809E+01 0. -1.
</event>
<event>
 5   0  0.1533777E-05  0.1499991E+04  0.7818609E-02  0.8884459E-01
       -1   -1    0    0    0  501  0.00000000000E+00  0.00000000000E+00  0.68417935962E+03  0.68417935964E+03  0.50400001928E-02 0.  1.
        1   -1    0    0  501    0  0.00000000000E+00  0.00000000000E+00 -0.82214341868E+03  0.82214341870E+03  0.50400001928E-02 0. -1.
    10030    2    1    2    0    0  0.00000000000E+00  0.00000000000E+00 -0.13796405906E+03  0.15063227783E+04  0.14999914103E+04 0.  0.
        5    1    3    3  502    0 -0.29435809122E+03 -0.58029896123E+03  0.30552358215E+03  0.71886043119E+03  0.46999998093E+01 0. -1.
       -5    1    3    3    0  502  0.29435809122E+03  0.58029896123E+03 -0.44348764121E+03  0.78746234715E+03  0.46999998093E+01 0.  1.
</event>
<event>
 5   0  0.3070497E-05  0.1494656E+04  0.7818609E-02  0.8888015E-01
       -2   -1    0    0    0  501  0.00000000000E+00  0.00000000000E+00  0.29206279597E+03  0.29206279598E+03  0.25500000920E-02 0.  1.
        2   -1    0    0  501    0  0.00000000000E+00  0.00000000000E+00 -0.19122558372E+04  0.19122558372E+04  0.25500000920E-02 0. -1.
    10030    2    1    2    0    0  0.00000000000E+00  0.00000000000E+00 -0.16201930413E+04  0.22043186332E+04  0.14946555275E+04 0.  0.
        4    1    3    3  502    0 -0.66957246763E+03  0.24013047482E+03 -0.11480390507E+04  0.13505499654E+04  0.12699999809E+01 0. -1.
       -4    1    3    3    0  502  0.66957246763E+03 -0.24013047482E+03 -0.47215399060E+03  0.85376866778E+03  0.12699999809E+01 0.  1.
</event>
<event>
 5   0  0.1533777E-05  0.1505343E+04  0.7818609E-02  0.8880907E-01
        1   -1    0    0  501    0  0.00000000000E+00  0.00000000000E+00  0.11391997470E+04  0.11391997470E+04  0.50400001928E-02 0. -1.
       -1   -1    0    0    0  501  0.00000000000E+00  0.00000000000E+00 -0.49729172664E+03  0.49729172667E+03  0.50400001928E-02 0.  1.
    10030    2    1    2    0    0  0.00000000000E+00  0.00000000000E+00  0.64190802039E+03  0.16364914737E+04  0.15053432954E+04 0.  0.
        5    1    3    3  502    0  0.18683942483E+03 -0.59730127473E+03 -0.13358086742E+03  0.63995603100E+03  0.46999998093E+01 0.  1.
       -5    1    3    3    0  502 -0.18683942483E+03  0.59730127473E+03  0.77548888781E+03  0.99653544271E+03  0.46999998093E+01 0. -1.
</event>
<event>
 5   0  0.2969498E-05  0.1499929E+04  0.7818609E-02  0.8884500E-01
       -2   -1    0    0    0  501  0.00000000000E+00  0.00000000000E+00  0.33810553535E+03  0.33810553536E+03  0.25500000920E-02 0. -1.
        2   -1    0    0  501    0  0.00000000000E+00  0.00000000000E+00 -0.16635247463E+04  0.16635247463E+04  0.25500000920E-02 0.  1.
    10030    2    1    2    0    0  0.00000000000E+00  0.00000000000E+00 -0.13254192110E+04  0.20016302817E+04  0.14999292316E+04 0.  0.
        3    1    3    3  502    0  0.37298995174E+03 -0.55725204035E+03 -0.21452274181E+03  0.70403931533E+03  0.10100000352E+00 0.  1.
       -3    1    3    3    0  502 -0.37298995174E+03  0.55725204035E+03 -0.11108964692E+04  0.12975909664E+04  0.10100000352E+00 0. -1.
</event>
<event>
 5   0  0.2969498E-05  0.1499605E+04  0.7818609E-02  0.8884716E-01
       -2   -1    0    0    0  501  0.00000000000E+00  0.00000000000E+00  0.38638377114E+03  0.38638377115E+03  0.25500000920E-02 0. -1.
        2   -1    0    0  501    0  0.00000000000E+00  0.00000000000E+00 -0.14550400016E+04  0.14550400016E+04  0.25500000920E-02 0.  1.
    10030    2    1    2    0    0  0.00000000000E+00  0.00000000000E+00 -0.10686562304E+04  0.18414237727E+04  0.14996050720E+04 0.  0.
        3    1    3    3  502    0  0.42906589018E+03  0.20036706980E+03 -0.12481815713E+04  0.13349912906E+04  0.10100000352E+00 0.  1.
       -3    1    3    3    0  502 -0.42906589018E+03 -0.20036706980E+03  0.17952534086E+03  0.50643248216E+03  0.10100000352E+00 0. -1.
</event>
<event>
 5   0  0.1116613E-05  0.1500104E+04  0.7818609E-02  0.8884384E-01
       -3   -1    0    0    0  501  0.00000000000E+00  0.00000000000E+00  0.69512609621E+03  0.69512610355E+03  0.10100000352E+00 0. -1.
        3   -1    0    0  501    0  0.00000000000E+00  0.00000000000E+00 -0.80931805162E+03  0.80931805792E+03  0.10100000352E+00 0.  1.
    10030    2    1    2    0    0  0.00000000000E+00  0.00000000000E+00 -0.11419195541E+03  0.15044441615E+04  0.15001041405E+04 0.  0.
        4    1    3    3  502    0  0.14891668142E+03 -0.22815457684E+03 -0.75793519302E+03  0.80541794036E+03  0.12699999809E+01 0.  1.
       -4    1    3    3    0  502 -0.14891668142E+03  0.22815457684E+03  0.64374323760E+03  0.69902622111E+03  0.12699999809E+01 0. -1.
</event>
<event>
 5   0  0.1533777E-05  0.1498563E+04  0.7818609E-02  0.8885409E-01
       -1   -1    0    0    0  501  0.00000000000E+00  0.00000000000E+00  0.80702368985E+03  0.80702368987E+03  0.50400001928E-02 0. -1.
        1   -1    0    0  501    0  0.00000000000E+00  0.00000000000E+00 -0.69567079681E+03  0.69567079683E+03  0.50400001928E-02 0.  1.
    10030    2    1    2    0    0  0.00000000000E+00  0.00000000000E+00  0.11135289304E+03  0.15026944867E+04  0.14985630629E+04 0.  0.
        5    1    3    3  502    0 -0.27901500078E+03  0.62098530031E+03  0.36947465752E+03  0.77460036562E+03  0.46999998093E+01 0. -1.
       -5    1    3    3    0  502  0.27901500078E+03 -0.62098530031E+03 -0.25812176448E+03  0.72809412109E+03  0.46999998093E+01 0.  1.
</event>
<event>
 5   0  0.2969498E-05  0.1499743E+04  0.7818609E-02  0.8884624E-01
       -2   -1    0    0    0  501  0.00000000000E+00  0.00000000000E+00  0.17609952849E+03  0.17609952851E+03  0.25500000920E-02 0.  1.
        2   -1    0    0  501    0  0.00000000000E+00  0.00000000000E+00 -0.31931203335E+04  0.31931203335E+04  0.25500000920E-02 0. -1.
    10030    2    1    2    0    0  0.00000000000E+00  0.00000000000E+00 -0.30170208050E+04  0.33692198620E+04  0.14997426248E+04 0.  0.
        3    1    3    3  502    0 -0.31120990460E+03 -0.66822955038E+03 -0.11994620657E+04  0.14078677474E+04  0.10100000352E+00 0.  1.
       -3    1    3    3    0  502  0.31120990460E+03  0.66822955038E+03 -0.18175587393E+04  0.19613521147E+04  0.10100000352E+00 0. -1.
</event>
<event>
 5   0  0.1116613E-05  0.1499270E+04  0.7818609E-02  0.8884938E-01
       -3   -1    0    0    0  501  0.00000000000E+00  0.00000000000E+00  0.51466409616E+03  0.51466410607E+03  0.10100000352E+00 0.  1.
        3   -1    0    0  501    0  0.00000000000E+00  0.00000000000E+00 -0.10918830176E+04  0.10918830222E+04  0.10100000352E+00 0. -1.
    10030    2    1    2    0    0  0.00000000000E+00  0.00000000000E+00 -0.57721892140E+03  0.16065471283E+04  0.14992704867E+04 0.  0.
        1    1    3    3  502    0 -0.73185146504E+03 -0.14333804547E+03 -0.20699797568E+03  0.77395124143E+03  0.50400001928E-02 0.  1.
       -1    1    3    3    0  502  0.73185146504E+03  0.14333804547E+03 -0.37022094572E+03  0.83259588687E+03  0.50400001928E-02 0. -1.
</event>
<event>
 5   0  0.3018308E-05  0.1499916E+04  0.7818609E-02  0.8884509E-01
       -2   -1    0    0    0  501  0.00000000000E+00  0.00000000000E+00  0.48230286931E+03  0.48230286931E+03  0.25500000920E-02 0. -1.
        2   -1    0    0  501    0  0.00000000000E+00  0.00000000000E+00 -0.11661486763E+04  0.11661486763E+04  0.25500000920E-02 0.  1.
    10030    2    1    2    0    0  0.00000000000E+00  0.00000000000E+00 -0.68384580701E+03  0.16484515456E+04  0.14999158011E+04 0.  0.
        2    1    3    3  502    0 -0.26145998188E+03  0.30370414208E+02 -0.11137148094E+04  0.11443969420E+04  0.25500000920E-02 0.  1.
       -2    1    3    3    0  502  0.26145998188E+03 -0.30370414208E+02  0.42986900241E+03  0.50405460361E+03  0.25500000920E-02 0. -1.
</event>
<event>
 5   0  0.3093600E-05  0.1499941E+04  0.7818609E-02  0.8884492E-01
       -2   -1    0    0    0  501  0.00000000000E+00  0.00000000000E+00  0.50490931466E+03  0.50490931467E+03  0.25500000920E-02 0. -1.
        2   -1    0    0  501    0  0.00000000000E+00  0.00000000000E+00 -0.11139742546E+04  0.11139742546E+04  0.25500000920E-02 0.  1.
    10030    2    1    2    0    0  0.00000000000E+00  0.00000000000E+00 -0.60906493992E+03  0.16188835692E+04  0.14999413021E+04 0.  0.
        1    1    3    3  502    0 -0.59618958495E+03  0.21701725206E+03  0.12707534974E+03  0.64706000760E+03  0.50400001928E-02 0.  1.
       -1    1    3    3    0  502  0.59618958495E+03 -0.21701725206E+03 -0.73614028965E+03  0.97182356165E+03  0.50400001928E-02 0. -1.
</event>
<event>
 5   0  0.1576214E-05  0.1500181E+04  0.7818609E-02  0.8884333E-01
       -1   -1    0    0    0  501  0.00000000000E+00  0.00000000000E+00  0.14978528391E+04  0.14978528391E+04  0.50400001928E-02 0.  1.
        1   -1    0    0  501    0  0.00000000000E+00  0.00000000000E+00 -0.37562800701E+03  0.37562800704E+03  0.50400001928E-02 0. -1.
    10030    2    1    2    0    0  0.00000000000E+00  0.00000000000E+00  0.11222248321E+04  0.18734808462E+04  0.15001806248E+04 0.  0.
        1    1    3    3  502    0 -0.12254748680E+03 -0.63211423072E+02  0.14818888165E+04  0.14882903060E+04  0.50400001928E-02 0.  1.
       -1    1    3    3    0  502  0.12254748680E+03  0.63211423072E+02 -0.35966398439E+03  0.38519054015E+03  0.50400001928E-02 0. -1.
</event>
<event>
 5   0  0.3070497E-05  0.1501708E+04  0.7818609E-02  0.8883318E-01
       -2   -1    0    0    0  501  0.00000000000E+00  0.00000000000E+00  0.69701424187E+03  0.69701424188E+03  0.25500000920E-02 0. -1.
        2   -1    0    0  501    0  0.00000000000E+00  0.00000000000E+00 -0.80885202695E+03  0.80885202696E+03  0.25500000920E-02 0.  1.
    10030    2    1    2    0    0  0.00000000000E+00  0.00000000000E+00 -0.11183778508E+03  0.15058662688E+04  0.15017075379E+04 0.  0.
        4    1    3    3  502    0 -0.23554048913E+03 -0.69447813353E+03  0.10577457503E+03  0.74092447226E+03  0.12699999809E+01 0. -1.
       -4    1    3    3    0  502  0.23554048913E+03  0.69447813353E+03 -0.21761236011E+03  0.76494179657E+03  0.12699999809E+01 0.  1.
</event>
<event>
 5   0  0.3070497E-05  0.1492945E+04  0.7818609E-02  0.8889158E-01
        2   -1    0    0  501    0  0.00000000000E+00  0.00000000000E+00  0.94188344475E+03  0.94188344476E+03  0.25500000920E-02 0.  1.
       -2   -1    0    0    0  501  0.00000000000E+00  0.00000000000E+00 -0.59160348890E+03  0.59160348891E+03  0.25500000920E-02 0. -1.
    10030    2    1    2    0    0  0.00000000000E+00  0.00000000000E+00  0.35027995585E+03  0.15334869337E+04  0.14929454539E+04 0.  0.
        4    1    3    3  502    0  0.48536592238E+03 -0.50502605940E+03  0.44019486734E+03  0.82728745513E+03  0.12699999809E+01 0.  1.
       -4    1    3    3    0  502 -0.48536592238E+03  0.50502605940E+03 -0.89914911483E+02  0.70619947854E+03  0.12699999809E+01 0. -1.
</event>
<event>
 5   0  0.3030702E-05  0.1500989E+04  0.7818609E-02  0.8883796E-01
        2   -1    0    0  501    0  0.00000000000E+00  0.00000000000E+00  0.57103561770E+03  0.57103561771E+03  0.25500000920E-02 0.  1.
       -2   -1    0    0    0  501  0.00000000000E+00  0.00000000000E+00 -0.98635119053E+03  0.98635119053E+03  0.25500000920E-02 0. -1.
    10030    2    1    2    0    0  0.00000000000E+00  0.00000000000E+00 -0.41531557283E+03  0.15573868082E+04  0.15009885561E+04 0.  0.
        5    1    3    3  502    0  0.18561025582E+03 -0.36029994335E+03 -0.86301732856E+03  0.95346117679E+03  0.46999998093E+01 0. -1.
       -5    1    3    3    0  502 -0.18561025582E+03  0.36029994335E+03  0.44770175573E+03  0.60392563145E+03  0.46999998093E+01 0.  1.
</event>
<event>
 5   0  0.1643498E-05  0.1499760E+04  0.7818609E-02  0.8884613E-01
        1   -1    0    0  501    0  0.00000000000E+00  0.00000000000E+00  0.13956731930E+04  0.13956731930E+04  0.50400001928E-02 0. -1.
       -1   -1    0    0    0  501  0.00000000000E+00  0.00000000000E+00 -0.40290208534E+03  0.40290208538E+03  0.50400001928E-02 0.  1.
    10030    2    1    2    0    0  0.00000000000E+00  0.00000000000E+00  0.99277110769E+03  0.17985752784E+04  0.14997595007E+04 0.  0.
        4    1    3    3  502    0 -0.32260137931E+03  0.55180830571E+03  0.26144904633E+02  0.63972589842E+03  0.12699999809E+01 0.  1.
       -4    1    3    3    0  502  0.32260137931E+03 -0.55180830571E+03  0.96662620306E+03  0.11588493800E+04  0.12699999809E+01 0. -1.
</event>
<event>
 5   0  0.1580078E-05  0.1500010E+04  0.7818609E-02  0.8884446E-01
       -1   -1    0    0    0  501  0.00000000000E+00  0.00000000000E+00  0.54284111890E+03  0.54284111892E+03  0.50400001928E-02 0. -1.
        1   -1    0    0  501    0  0.00000000000E+00  0.00000000000E+00 -0.10362287249E+04  0.10362287249E+04  0.50400001928E-02 0.  1.
    10030    2    1    2    0    0  0.00000000000E+00  0.00000000000E+00 -0.49338760604E+03  0.15790698439E+04  0.15000100806E+04 0.  0.
        2    1    3    3  502    0  0.56430475935E+03 -0.19126926705E+01 -0.76676051966E+03  0.95203214984E+03  0.25500000920E-02 0.  1.
       -2    1    3    3    0  502 -0.56430475935E+03  0.19126926705E+01  0.27337291362E+03  0.62703769403E+03  0.25500000920E-02 0. -1.
</event>
<event>
 5   0  0.2969498E-05  0.1499617E+04  0.7818609E-02  0.8884708E-01
       -2   -1    0    0    0  501  0.00000000000E+00  0.00000000000E+00  0.28529776928E+03  0.28529776929E+03  0.25500000920E-02 0.  1.
        2   -1    0    0  501    0  0.00000000000E+00  0.00000000000E+00 -0.19706164040E+04  0.19706164040E+04  0.25500000920E-02 0. -1.
    10030    2    1    2    0    0  0.00000000000E+00  0.00000000000E+00 -0.16853186347E+04  0.22559141733E+04  0.14996165699E+04 0.  0.
        3    1    3    3  502    0 -0.13615098856E+03  0.64579262986E+02 -0.19476027156E+04  0.19534236409E+04  0.10100000352E+00 0. -1.
       -3    1    3    3    0  502  0.13615098856E+03 -0.64579262986E+02  0.26228408088E+03  0.30249053237E+03  0.10100000352E+00 0.  1.
</event>
<event>
 5   0  0.3093600E-05  0.1499988E+04  0.7818609E-02  0.8884461E-01
        2   -1    0    0  501    0  0.00000000000E+00  0.00000000000E+00  0.27026498423E+04  0.27026498423E+04  0.25500000920E-02 0. -1.
       -2   -1    0    0    0  501  0.00000000000E+00  0.00000000000E+00 -0.20812561641E+03  0.20812561642E+03  0.25500000920E-02 0.  1.
    10030    2    1    2    0    0  0.00000000000E+00  0.00000000000E+00  0.24945242259E+04  0.29107754587E+04  0.14999875525E+04 0.  0.
        1    1    3    3  502    0 -0.30934436133E+03 -0.51941577695E+03  0.38595397448E+03  0.71724971500E+03  0.50400001928E-02 0.  1.
       -1    1    3    3    0  502  0.30934436133E+03  0.51941577695E+03  0.21085702514E+04  0.21935257437E+04  0.50400001928E-02 0. -1.
</event>
<event>
 5   0  0.3070497E-05  0.1500171E+04  0.7818609E-02  0.8884340E-01
        2   -1    0    0  501    0  0.00000000000E+00  0.00000000000E+00  0.69660893798E+03  0.69660893798E+03  0.25500000920E-02 0. -1.
       -2   -1    0    0    0  501  0.00000000000E+00  0.00000000000E+00 -0.80766678649E+03  0.80766678649E+03  0.25500000920E-02 0.  1.
    10030    2    1    2    0    0  0.00000000000E+00  0.00000000000E+00 -0.11105784851E+03  0.15042757245E+04  0.15001705268E+04 0.  0.
        4    1    3    3  502    0 -0.10470633328E+03 -0.72853129082E+03  0.89452456632E+02  0.74143415947E+03  0.12699999809E+01 0.  1.
       -4    1    3    3    0  502  0.10470633328E+03  0.72853129082E+03 -0.20051030514E+03  0.76284156500E+03  0.12699999809E+01 0. -1.
</event>
<event>
 5   0  0.1588657E-05  0.1500496E+04  0.7818609E-02  0.8884123E-01
        1   -1    0    0  501    0  0.00000000000E+00  0.00000000000E+00  0.77214093457E+03  0.77214093458E+03  0.50400001928E-02 0. -1.
       -1   -1    0    0    0  501  0.00000000000E+00  0.00000000000E+00 -0.72897602932E+03  0.72897602934E+03  0.50400001928E-02 0.  1.
    10030    2    1    2    0    0  0.00000000000E+00  0.00000000000E+00  0.43164905243E+02  0.15011169639E+04  0.15004962280E+04 0.  0.
        3    1    3    3  502    0 -0.20807050662E+03 -0.22065340988E+03 -0.66491637692E+03  0.73081807689E+03  0.10100000352E+00 0.  1.
       -3    1    3    3    0  502  0.20807050662E+03  0.22065340988E+03  0.70808128216E+03  0.77029888703E+03  0.10100000352E+00 0. -1.
</event>
<event>
 5   0  0.1576214E-05  0.1499892E+04  0.7818609E-02  0.8884525E-01
       -1   -1    0    0    0  501  0.00000000000E+00  0.00000000000E+00  0.10746579663E+04  0.10746579663E+04  0.50400001928E-02 0.  1.
        1   -1    0    0  501    0  0.00000000000E+00  0.00000000000E+00 -0.52334682283E+03  0.52334682286E+03  0.50400001928E-02 0. -1.
    10030    2    1    2    0    0  0.00000000000E+00  0.00000000000E+00  0.55131114347E+03  0.15980047892E+04  0.14998917725E+04 0.  0.
        1    1    3    3  502    0  0.29920062854E+03 -0.76422172855E+02  0.10037761643E+04  0.10502037672E+04  0.50400001928E-02 0.  1.
       -1    1    3    3    0  502 -0.29920062854E+03  0.76422172855E+02 -0.45246502080E+03  0.54780102199E+03  0.50400001928E-02 0. -1.
</event>
<event>
 5   0  0.1580078E-05  0.1500297E+04  0.7818609E-02  0.8884256E-01
       -1   -1    0    0    0  501  0.00000000000E+00  0.00000000000E+00  0.29416073093E+03  0.29416073097E+03  0.50400001928E-02 0. -1.
        1   -1    0    0  501    0  0.00000000000E+00  0.00000000000E+00 -0.19129760382E+04  0.19129760382E+04  0.50400001928E-02 0.  1.
    10030    2    1    2    0    0  0.00000000000E+00  0.00000000000E+00 -0.16188153073E+04  0.22071367692E+04  0.15002965436E+04 0.  0.
        2    1    3    3  502    0  0.22551095446E+02 -0.74051550533E+03 -0.63627163090E+03  0.97658248696E+03  0.25500000920E-02 0. -1.
       -2    1    3    3    0  502 -0.22551095446E+02  0.74051550533E+03 -0.98254367640E+03  0.12305542823E+04  0.25500000920E-02 0.  1.
</event>
<event>
 5   0  0.3093600E-05  0.1500090E+04  0.7818609E-02  0.8884393E-01
       -2   -1    0    0    0  501  0.00000000000E+00  0.00000000000E+00  0.40748231183E+03  0.40748231184E+03  0.25500000920E-02 0. -1.
        2   -1    0    0  501    0  0.00000000000E+00  0.00000000000E+00 -0.13805929583E+04  0.13805929583E+04  0.25500000920E-02 0.  1.
    10030    2    1    2    0    0  0.00000000000E+00  0.00000000000E+00 -0.97311064644E+03  0.17880752701E+04  0.15000896111E+04 0.  0.
        1    1    3    3  502    0 -0.74969024119E+03 -0.22033564458E+02 -0.47844683322E+03  0.88962481302E+03  0.50400001928E-02 0.  1.
       -1    1    3    3    0  502  0.74969024119E+03  0.22033564458E+02 -0.49466381322E+03  0.89845045708E+03  0.50400001928E-02 0. -1.
</event>
<event>
 5   0  0.3070497E-05  0.1507736E+04  0.7818609E-02  0.8879325E-01
        2   -1    0    0  501    0  0.00000000000E+00  0.00000000000E+00  0.52823490303E+03  0.52823490304E+03  0.25500000920E-02 0.  1.
       -2   -1    0    0    0  501  0.00000000000E+00  0.00000000000E+00 -0.10758798712E+04  0.10758798712E+04  0.25500000920E-02 0. -1.
    10030    2    1    2    0    0  0.00000000000E+00  0.00000000000E+00 -0.54764496820E+03  0.16041147743E+04  0.15077364484E+04 0.  0.
        4    1    3    3  502    0 -0.32665029365E+03  0.21966920293E+03  0.41020665730E+03  0.56852975969E+03  0.12699999809E+01 0.  1.
       -4    1    3    3    0  502  0.32665029365E+03 -0.21966920293E+03 -0.95785162551E+03  0.10355850146E+04  0.12699999809E+01 0. -1.
</event>
<event>
 5   0  0.1533777E-05  0.1496016E+04  0.7818609E-02  0.8887106E-01
       -1   -1    0    0    0  501  0.00000000000E+00  0.00000000000E+00  0.77410036893E+03  0.77410036895E+03  0.50400001928E-02 0. -1.
        1   -1    0    0  501    0  0.00000000000E+00  0.00000000000E+00 -0.72279542667E+03  0.72279542669E+03  0.50400001928E-02 0.  1.
    10030    2    1    2    0    0  0.00000000000E+00  0.00000000000E+00  0.51304942262E+02  0.14968957956E+04  0.14960163187E+04 0.  0.
        5    1    3    3  502    0  0.18492900037E+02  0.30248087125E+03  0.70990934211E+03  0.77190027130E+03  0.46999998093E+01 0. -1.
       -5    1    3    3    0  502 -0.18492900037E+02 -0.30248087125E+03 -0.65860439985E+03  0.72499552434E+03  0.46999998093E+01 0.  1.
</event>
<event>
 5   0  0.3093600E-05  0.1499742E+04  0.7818609E-02  0.8884625E-01
       -2   -1    0    0    0  501  0.00000000000E+00  0.00000000000E+00  0.55536418984E+03  0.55536418984E+03  0.25500000920E-02 0.  1.
        2   -1    0    0  501    0  0.00000000000E+00  0.00000000000E+00 -0.10124998638E+04  0.10124998638E+04  0.25500000920E-02 0. -1.
    10030    2    1    2    0    0  0.00000000000E+00  0.00000000000E+00 -0.45713567399E+03  0.15678640537E+04  0.14997415332E+04 0.  0.
        1    1    3    3  502    0 -0.66207479351E+03 -0.29488307987E+02 -0.59535123973E+03  0.89087355511E+03  0.50400001928E-02 0. -1.
       -1    1    3    3    0  502  0.66207479351E+03  0.29488307987E+02  0.13821556574E+03  0.67699049857E+03  0.50400001928E-02 0.  1.
</event>
<event>
 5   0  0.1588657E-05  0.1505847E+04  0.7818609E-02  0.8880574E-01
       -1   -1    0    0    0  501  0.00000000000E+00  0.00000000000E+00  0.22099580059E+03  0.22099580065E+03  0.50400001928E-02 0. -1.
        1   -1    0    0  501    0  0.00000000000E+00  0.00000000000E+00 -0.25651784991E+04  0.25651784991E+04  0.50400001928E-02 0.  1.
    10030    2    1    2    0    0  0.00000000000E+00  0.00000000000E+00 -0.23441826985E+04  0.27861742998E+04  0.15058468397E+04 0.  0.
        3    1    3    3  502    0  0.25298235159E+03 -0.69169301731E+03 -0.88275321284E+03  0.11496488792E+04  0.10100000352E+00 0.  1.
       -3    1    3    3    0  502 -0.25298235159E+03  0.69169301731E+03 -0.14614294857E+04  0.16365254206E+04  0.10100000352E+00 0. -1.
</event>
<event>
 5   0  0.1533777E-05  0.1500304E+04  0.7818609E-02  0.8884251E-01
        1   -1    0    0  501    0  0.00000000000E+00  0.00000000000E+00  0.13032802770E+04  0.13032802770E+04  0.50400001928E-02 0. -1.
       -1   -1    0    0    0  501  0.00000000000E+00  0.00000000000E+00 -0.43177800134E+03  0.43177800137E+03  0.50400001928E-02 0.  1.
    10030    2    1    2    0    0  0.00000000000E+00  0.00000000000E+00  0.87150227570E+03  0.17350582784E+04  0.15003036403E+04 0.  0.
        5    1    3    3  502    0 -0.24632603257E+03 -0.66920714057E+03  0.70496554256E+03  0.10027528197E+04  0.46999998093E+01 0. -1.
       -5    1    3    3    0  502  0.24632603257E+03  0.66920714057E+03  0.16653673314E+03  0.73230545867E+03  0.46999998093E+01 0.  1.
</event>
<event>
 5   0  0.1533777E-05  0.1499990E+04  0.7818609E-02  0.8884459E-01
       -1   -1    0    0    0  501  0.00000000000E+00  0.00000000000E+00  0.73554832027E+03  0.73554832029E+03  0.50400001928E-02 0. -1.
        1   -1    0    0  501    0  0.00000000000E+00  0.00000000000E+00 -0.76472576580E+03  0.76472576582E+03  0.50400001928E-02 0.  1.
    10030    2    1    2    0    0  0.00000000000E+00  0.00000000000E+00 -0.29177445532E+02  0.15002740861E+04  0.14999903367E+04 0.  0.
        5    1    3    3  502    0 -0.73648484408E+03  0.12160090054E+03 -0.87224481649E+02  0.75154966887E+03  0.46999998093E+01 0. -1.
       -5    1    3    3    0  502  0.73648484408E+03 -0.12160090054E+03  0.58047036117E+02  0.74872441724E+03  0.46999998093E+01 0.  1.
</event>
<event>
 5   0  0.1116613E-05  0.1500097E+04  0.7818609E-02  0.8884388E-01
       -4   -1    0    0    0  501  0.00000000000E+00  0.00000000000E+00  0.83153680058E+03  0.83153777041E+03  0.12699999809E+01 0. -1.
        4   -1    0    0  501    0  0.00000000000E+00  0.00000000000E+00 -0.67654387458E+03  0.67654506659E+03  0.12699999809E+01 0.  1.
    10030    2    1    2    0    0  0.00000000000E+00  0.00000000000E+00  0.15499292601E+03  0.15080828370E+04  0.15000970089E+04 0.  0.
        1    1    3    3  502    0 -0.40710947897E+03 -0.42364655320E+02  0.70936439583E+03  0.81898152481E+03  0.50400001928E-02 0. -1.
       -1    1    3    3    0  502  0.40710947897E+03  0.42364655320E+02 -0.55437146982E+03  0.68910131219E+03  0.50400001928E-02 0.  1.
</event>
<event>
 5   0  0.3030702E-05  0.1499946E+04  0.7818609E-02  0.8884489E-01
        2   -1    0    0  501    0  0.00000000000E+00  0.00000000000E+00  0.14139266017E+04  0.14139266017E+04  0.25500000920E-02 0. -1.
       -2   -1    0    0    0  501  0.00000000000E+00  0.00000000000E+00 -0.39779990201E+03  0.39779990202E+03  0.25500000920E-02 0.  1.
    10030    2    1    2    0    0  0.00000000000E+00  0.00000000000E+00  0.10161266996E+04  0.18117265037E+04  0.14999464838E+04 0.  0.
        5    1    3    3  502    0 -0.48024149523E+03  0.28154658769E+03 -0.98924118439E+02  0.56542766645E+03  0.46999998093E+01 0. -1.
       -5    1    3    3    0  502  0.48024149523E+03 -0.28154658769E+03  0.11150508181E+04  0.12462988372E+04  0.46999998093E+01 0.  1.
</event>
<event>
 5   0  0.3070497E-05  0.1500088E+04  0.7818609E-02  0.8884395E-01
       -2   -1    0    0    0  501  0.00000000000E+00  0.00000000000E+00  0.51716409585E+03  0.51716409586E+03  0.25500000920E-02 0.  1.
        2   -1    0    0  501    0  0.00000000000E+00  0.00000000000E+00 -0.10877895245E+04  0.10877895245E+04  0.25500000920E-02 0. -1.
    10030    2    1    2    0    0  0.00000000000E+00  0.00000000000E+00 -0.57062542867E+03  0.16049536204E+04  0.15000875787E+04 0.  0.
        4    1    3    3  502    0  0.69856240343E+03 -0.12332845592E+03 -0.24631261301E+02  0.70979409089E+03  0.12699999809E+01 0.  1.
       -4    1    3    3    0  502 -0.69856240343E+03  0.12332845592E+03 -0.54599416737E+03  0.89515952949E+03  0.12699999809E+01 0. -1.
</event>
<event>
 5   0  0.1576214E-05  0.1499126E+04  0.7818609E-02  0.8885034E-01
       -1   -1    0    0    0  501  0.00000000000E+00  0.00000000000E+00  0.68530690727E+03  0.68530690729E+03  0.50400001928E-02 0.  1.
        1   -1    0    0  501    0  0.00000000000E+00  0.00000000000E+00 -0.81984398003E+03  0.81984398004E+03  0.50400001928E-02 0. -1.
    10030    2    1    2    0    0  0.00000000000E+00  0.00000000000E+00 -0.13453707276E+03  0.15051508873E+04  0.14991260686E+04 0.  0.
        1    1    3    3  502    0  0.19141197161E+03  0.31947973700E+03  0.58583698843E+03  0.69419797051E+03  0.50400001928E-02 0.  1.
       -1    1    3    3    0  502 -0.19141197161E+03 -0.31947973700E+03 -0.72037406119E+03  0.81095291681E+03  0.50400001928E-02 0. -1.
</event>
<event>
 5   0  0.3030702E-05  0.1500046E+04  0.7818609E-02  0.8884422E-01
        2   -1    0    0  501    0  0.00000000000E+00  0.00000000000E+00  0.12186315867E+04  0.12186315867E+04  0.25500000920E-02 0. -1.
       -2   -1    0    0    0  501  0.00000000000E+00  0.00000000000E+00 -0.46161174625E+03  0.46161174626E+03  0.25500000920E-02 0.  1.
    10030    2    1    2    0    0  0.00000000000E+00  0.00000000000E+00  0.75701984041E+03  0.16802433329E+04  0.15000462056E+04 0.  0.
        5    1    3    3  502    0 -0.20501061695E+03  0.53362685929E+03  0.92234961909E+03  0.10851441784E+04  0.46999998093E+01 0. -1.
       -5    1    3    3    0  502  0.20501061695E+03 -0.53362685929E+03 -0.16532977868E+03  0.59509915455E+03  0.46999998093E+01 0.  1.
</event>
<event>
 5   0  0.1533777E-05  0.1501151E+04  0.7818609E-02  0.8883688E-01
        1   -1    0    0  501    0  0.00000000000E+00  0.00000000000E+00  0.68318149032E+03  0.68318149034E+03  0.50400001928E-02 0. -1.
       -1   -1    0    0    0  501  0.00000000000E+00  0.00000000000E+00 -0.82461770500E+03  0.82461770502E+03  0.50400001928E-02 0.  1.
    10030    2    1    2    0    0  0.00000000000E+00  0.00000000000E+00 -0.14143621468E+03  0.15077991954E+04  0.15011509620E+04 0.  0.
        5    1    3    3  502    0 -0.34286441879E+03  0.81337543072E+02 -0.73635180737E+03  0.81633809160E+03  0.46999998093E+01 0.  1.
       -5    1    3    3    0  502  0.34286441879E+03 -0.81337543072E+02  0.59491559269E+03  0.69146110375E+03  0.46999998093E+01 0. -1.
</event>
<event>
 5   0  0.2969498E-05  0.1499542E+04  0.7818609E-02  0.8884757E-01
       -2   -1    0    0    0  501  0.00000000000E+00  0.00000000000E+00  0.53243278044E+03  0.53243278045E+03  0.25500000920E-02 0.  1.
        2   -1    0    0  501    0  0.00000000000E+00  0.00000000000E+00 -0.10558265373E+04  0.10558265373E+04  0.25500000920E-02 0. -1.
    10030    2    1    2    0    0  0.00000000000E+00  0.00000000000E+00 -0.52339375688E+03  0.15882593178E+04  0.14995421420E+04 0.  0.
        3    1    3    3  502    0 -0.15570067845E+02  0.60260007502E+03 -0.73393074755E+03  0.94974924576E+03  0.10100000352E+00 0. -1.
       -3    1    3    3    0  502  0.15570067845E+02 -0.60260007502E+03  0.21053699067E+03  0.63851007202E+03  0.10100000352E+00 0.  1.
</event>
<event>
 5   0  0.3030702E-05  0.1500186E+04  0.7818609E-02  0.8884329E-01
        2   -1    0    0  501    0  0.00000000000E+00  0.00000000000E+00  0.11658682973E+04  0.11658682973E+04  0.25500000920E-02 0.  1.
       -2   -1    0    0    0  501  0.00000000000E+00  0.00000000000E+00 -0.48259297045E+03  0.48259297045E+03  0.25500000920E-02 0. -1.
    10030    2    1    2    0    0  0.00000000000E+00  0.00000000000E+00  0.68327532689E+03  0.16484612678E+04  0.15001864481E+04 0.  0.
        5    1    3    3  502    0  0.20481984115E+03  0.46050167846E+03  0.95206621957E+03  0.10772488754E+04  0.46999998093E+01 0.  1.
       -5    1    3    3    0  502 -0.20481984115E+03 -0.46050167846E+03 -0.26879089268E+03  0.57121239236E+03  0.46999998093E+01 0. -1.
</event>
<event>
 5   0  0.1643498E-05  0.1500808E+04  0.7818609E-02  0.8883916E-01
        1   -1    0    0  501    0  0.00000000000E+00  0.00000000000E+00  0.58736127114E+03  0.58736127116E+03  0.50400001928E-02 0. -1.
       -1   -1    0    0    0  501  0.00000000000E+00  0.00000000000E+00 -0.95870526776E+03  0.95870526777E+03  0.50400001928E-02 0.  1.
    10030    2    1    2    0    0  0.00000000000E+00  0.00000000000E+00 -0.37134399662E+03  0.15460665389E+04  0.15008082419E+04 0.  0.
        4    1    3    3  502    0  0.49657793023E+03 -0.18108661236E+03  0.36304705406E+03  0.64123847228E+03  0.12699999809E+01 0. -1.
       -4    1    3    3    0  502 -0.49657793023E+03  0.18108661236E+03 -0.73439105068E+03  0.90482806665E+03  0.12699999809E+01 0.  1.
</event>
<event>
 5   0  0.2969498E-05  0.1499957E+04  0.7818609E-02  0.8884481E-01
       -2   -1    0    0    0  501  0.00000000000E+00  0.00000000000E+00  0.57933940818E+03  0.57933940818E+03  0.25500000920E-02 0.  1.
        2   -1    0    0  501    0  0.00000000000E+00  0.00000000000E+00 -0.97087781465E+03  0.97087781465E+03  0.25500000920E-02 0. -1.
    10030    2    1    2    0    0  0.00000000000E+00  0.00000000000E+00 -0.39153840647E+03  0.15502172228E+04  0.14999570375E+04 0.  0.
        3    1    3    3  502    0 -0.19941466199E+03 -0.72217598022E+03 -0.16051742894E+03  0.76620506982E+03  0.10100000352E+00 0. -1.
       -3    1    3    3    0  502  0.19941466199E+03  0.72217598022E+03 -0.23102097753E+03  0.78401215302E+03  0.10100000352E+00 0.  1.
</event>
<event>
 5   0  0.3018308E-05  0.1500139E+04  0.7818609E-02  0.8884360E-01
       -2   -1    0    0    0  501  0.00000000000E+00  0.00000000000E+00  0.52114473828E+03  0.52114473829E+03  0.25500000920E-02 0.  1.
        2   -1    0    0  501    0  0.00000000000E+00  0.00000000000E+00 -0.10795553000E+04  0.10795553000E+04  0.25500000920E-02 0. -1.
    10030    2    1    2    0    0  0.00000000000E+00  0.00000000000E+00 -0.55841056173E+03  0.16007000383E+04  0.15001394126E+04 0.  0.
        2    1    3    3  502    0  0.52621132513E+03  0.62658151732E+02 -0.84561870934E+03  0.99794559183E+03  0.25500000920E-02 0. -1.
       -2    1    3    3    0  502 -0.52621132513E+03 -0.62658151732E+02  0.28720814761E+03  0.60275444646E+03  0.25500000920E-02 0.  1.
</event>
<event>
 5   0  0.3070497E-05  0.1499645E+04  0.7818609E-02  0.8884689E-01
       -2   -1    0    0    0  501  0.00000000000E+00  0.00000000000E+00  0.65632480518E+03  0.65632480518E+03  0.25500000920E-02 0. -1.
        2   -1    0    0  501    0  0.00000000000E+00  0.00000000000E+00 -0.85663898691E+03  0.85663898691E+03  0.25500000920E-02 0.  1.
    10030    2    1    2    0    0  0.00000000000E+00  0.00000000000E+00 -0.20031418173E+03  0.15129637921E+04  0.14996445128E+04 0.  0.
        4    1    3    3  502    0 -0.37379262189E+03  0.18563919326E+02  0.55535691064E+03  0.66969280598E+03  0.12699999809E+01 0. -1.
       -4    1    3    3    0  502  0.37379262189E+03 -0.18563919326E+02 -0.75567109237E+03  0.84327098612E+03  0.12699999809E+01 0.  1.
</event>
<event>
 5   0  0.3030702E-05  0.1499941E+04  0.7818609E-02  0.8884492E-01
       -2   -1    0    0    0  501  0.00000000000E+00  0.00000000000E+00  0.40547677542E+03  0.40547677542E+03  0.25500000920E-02 0. -1.
        2   -1    0    0  501    0  0.00000000000E+00  0.00000000000E+00 -0.13871471249E+04  0.13871471249E+04  0.25500000920E-02 0.  1.
    10030    2    1    2    0    0  0.00000000000E+00  0.00000000000E+00 -0.98167034950E+03  0.17926239003E+04  0.14999412565E+04 0.  0.
        5    1    3    3  502    0  0.48208257921E+03 -0.56792773402E+03 -0.59425585505E+03  0.95294681672E+03  0.46999998093E+01 0. -1.
       -5    1    3    3    0  502 -0.48208257921E+03  0.56792773402E+03 -0.38741449444E+03  0.83967708361E+03  0.46999998093E+01 0.  1.
</event>
<event>
 5   0  0.3093600E-05  0.1500136E+04  0.7818609E-02  0.8884363E-01
        2   -1    0    0  501    0  0.00000000000E+00  0.00000000000E+00  0.53927514243E+03  0.53927514244E+03  0.25500000920E-02 0.  1.
       -2   -1    0    0    0  501  0.00000000000E+00  0.00000000000E+00 -0.10432553784E+04  0.10432553784E+04  0.25500000920E-02 0. -1.
    10030    2    1    2    0    0  0.00000000000E+00  0.00000000000E+00 -0.50398023596E+03  0.15825305208E+04  0.15001355842E+04 0.  0.
        1    1    3    3  502    0  0.54418091913E+02 -0.39438132651E+03  0.41861677487E+03  0.57770058305E+03  0.50400001928E-02 0.  1.
       -1    1    3    3    0  502 -0.54418091913E+02  0.39438132651E+03 -0.92259701083E+03  0.10048299378E+04  0.50400001928E-02 0. -1.
</event>
<event>
 5   0  0.3093600E-05  0.1497965E+04  0.7818609E-02  0.8885807E-01
        2   -1    0    0  501    0  0.00000000000E+00  0.00000000000E+00  0.16015227375E+04  0.16015227375E+04  0.25500000920E-02 0. -1.
       -2   -1    0    0    0  501  0.00000000000E+00  0.00000000000E+00 -0.35027575248E+03  0.35027575249E+03  0.25500000920E-02 0.  1.
    10030    2    1    2    0    0  0.00000000000E+00  0.00000000000E+00  0.12512469850E+04  0.19517984900E+04  0.14979647285E+04 0.  0.
        1    1    3    3  502    0 -0.44697491683E+03 -0.13677328221E+03 -0.13689727999E+03  0.48706711273E+03  0.50400001928E-02 0.  1.
       -1    1    3    3    0  502  0.44697491683E+03  0.13677328221E+03  0.13881442650E+04  0.14647313772E+04  0.50400001928E-02 0. -1.
</event>
<event>
 5   0  0.1576214E-05  0.1499937E+04  0.7818609E-02  0.8884495E-01
        1   -1    0    0  501    0  0.00000000000E+00  0.00000000000E+00  0.14777277635E+04  0.14777277635E+04  0.50400001928E-02 0.  1.
       -1   -1    0    0    0  501  0.00000000000E+00  0.00000000000E+00 -0.38062013078E+03  0.38062013081E+03  0.50400001928E-02 0. -1.
    10030    2    1    2    0    0  0.00000000000E+00  0.00000000000E+00  0.10971076327E+04  0.18583478943E+04  0.14999372448E+04 0.  0.
        1    1    3    3  502    0  0.69986773110E+03  0.16694672323E+03  0.28641437502E+03  0.77441542061E+03  0.50400001928E-02 0. -1.
       -1    1    3    3    0  502 -0.69986773110E+03 -0.16694672323E+03  0.81069325766E+03  0.10839324737E+04  0.50400001928E-02 0.  1.
</event>
<event>
 5   0  0.1580078E-05  0.1500627E+04  0.7818609E-02  0.8884036E-01
       -1   -1    0    0    0  501  0.00000000000E+00  0.00000000000E+00  0.59504151292E+03  0.59504151294E+03  0.50400001928E-02 0. -1.
        1   -1    0    0  501    0  0.00000000000E+00  0.00000000000E+00 -0.94610234108E+03  0.94610234110E+03  0.50400001928E-02 0.  1.
    10030    2    1    2    0    0  0.00000000000E+00  0.00000000000E+00 -0.35106082816E+03  0.15411438540E+04  0.15006267603E+04 0.  0.
        2    1    3    3  502    0  0.65487798744E+02  0.49520248846E+03  0.39945760284E+03  0.63959403753E+03  0.25500000920E-02 0. -1.
       -2    1    3    3    0  502 -0.65487798744E+02 -0.49520248846E+03 -0.75051843101E+03  0.90154981651E+03  0.25500000920E-02 0.  1.
</event>
<event>
 5   0  0.3093600E-05  0.1501089E+04  0.7818609E-02  0.8883729E-01
       -2   -1    0    0    0  501  0.00000000000E+00  0.00000000000E+00  0.34377134622E+03  0.34377134623E+03  0.25500000920E-02 0.  1.
        2   -1    0    0  501    0  0.00000000000E+00  0.00000000000E+00 -0.16386385532E+04  0.16386385532E+04  0.25500000920E-02 0. -1.
    10030    2    1    2    0    0  0.00000000000E+00  0.00000000000E+00 -0.12948672070E+04  0.19824098994E+04  0.15010889133E+04 0.  0.
        1    1    3    3  502    0  0.22574967023E+03  0.67315915478E+03 -0.32607674102E+03  0.78130160779E+03  0.50400001928E-02 0.  1.
       -1    1    3    3    0  502 -0.22574967023E+03 -0.67315915478E+03 -0.96879046598E+03  0.12011082917E+04  0.50400001928E-02 0. -1.
</event>
<event>
 5   0  0.1533777E-05  0.1500122E+04  0.7818609E-02  0.8884372E-01
       -1   -1    0    0    0  501  0.00000000000E+00  0.00000000000E+00  0.71175241904E+03  0.71175241906E+03  0.50400001928E-02 0.  1.
        1   -1    0    0  501    0  0.00000000000E+00  0.00000000000E+00 -0.79043113438E+03  0.79043113439E+03  0.50400001928E-02 0. -1.
    10030    2    1    2    0    0  0.00000000000E+00  0.00000000000E+00 -0.78678715333E+02  0.15021835535E+04  0.15001216911E+04 0.  0.
        5    1    3    3  502    0  0.59088844166E+03 -0.29553141001E+03 -0.39490657135E+03  0.76971504785E+03  0.46999998093E+01 0. -1.
       -5    1    3    3    0  502 -0.59088844166E+03  0.29553141001E+03  0.31622785601E+03  0.73246850561E+03  0.46999998093E+01 0.  1.
</event>
<event>
 5   0  0.3030702E-05  0.1498098E+04  0.7818609E-02  0.8885719E-01
       -2   -1    0    0    0  501  0.00000000000E+00  0.00000000000E+00  0.34144561383E+03  0.34144561384E+03  0.25500000920E-02 0. -1.
        2   -1    0    0  501    0  0.00000000000E+00  0.00000000000E+00 -0.16432323122E+04  0.16432323122E+04  0.25500000920E-02 0.  1.
    10030    2    1    2    0    0  0.00000000000E+00  0.00000000000E+00 -0.13017866983E+04  0.19846779260E+04  0.14980980816E+04 0.  0.
        5    1    3    3  502    0 -0.38191004024E+03  0.61128855912E+03 -0.92085135693E+03  0.11694093778E+04  0.46999998093E+01 0.  1.
       -5    1    3    3    0  502  0.38191004024E+03 -0.61128855912E+03 -0.38093534140E+03  0.81526854819E+03  0.46999998093E+01 0. -1.
</event>
<event>
 5   0  0.1588657E-05  0.1500010E+04  0.7818609E-02  0.8884446E-01
       -1   -1    0    0    0  501  0.00000000000E+00  0.00000000000E+00  0.33345182779E+03  0.33345182783E+03  0.50400001928E-02 0. -1.
        1   -1    0    0  501    0  0.00000000000E+00  0.00000000000E+00 -0.16869222779E+04  0.16869222779E+04  0.50400001928E-02 0.  1.
    10030    2    1    2    0    0  0.00000000000E+00  0.00000000000E+00 -0.13534704501E+04  0.20203741057E+04  0.15000097559E+04 0.  0.
        3    1    3    3  502    0  0.50691634610E+03 -0.21063202669E+02 -0.14207103826E+04  0.15085840519E+04  0.10100000352E+00 0.  1.
       -3    1    3    3    0  502 -0.50691634610E+03  0.21063202669E+02  0.67239932447E+02  0.51179005380E+03  0.10100000352E+00 0. -1.
</event>
<event>
 5   0  0.3018308E-05  0.1499315E+04  0.7818609E-02  0.8884908E-01
       -2   -1    0    0    0  501  0.00000000000E+00  0.00000000000E+00  0.66051112303E+03  0.66051112304E+03  0.25500000920E-02 0.  1.
        2   -1    0    0  501    0  0.00000000000E+00  0.00000000000E+00 -0.85083573656E+03  0.85083573656E+03  0.25500000920E-02 0. -1.
    10030    2    1    2    0    0  0.00000000000E+00  0.00000000000E+00 -0.19032461352E+03  0.15113468596E+04  0.14993151342E+04 0.  0.
        2    1    3    3  502    0 -0.79071780595E+02 -0.58989466594E+03  0.36430067198E+03  0.69781304302E+03  0.25500000920E-02 0.  1.
       -2    1    3    3    0  502  0.79071780595E+02  0.58989466594E+03 -0.55462528550E+03  0.81353381658E+03  0.25500000920E-02 0. -1.
</event>
<event>
 5   0  0.1643498E-05  0.1500159E+04  0.7818609E-02  0.8884347E-01
        1   -1    0    0  501    0  0.00000000000E+00  0.00000000000E+00  0.15966091069E+04  0.15966091069E+04  0.50400001928E-02 0. -1.
       -1   -1    0    0    0  501  0.00000000000E+00  0.00000000000E+00 -0.35238378763E+03  0.35238378767E+03  0.50400001928E-02 0.  1.
    10030    2    1    2    0    0  0.00000000000E+00  0.00000000000E+00  0.12442253192E+04  0.19489928945E+04  0.15001588776E+04 0.  0.
        4    1    3    3  502    0  0.35277439790E+03  0.20252696848E+03 -0.19663601970E+03  0.45181222418E+03  0.12699999809E+01 0.  1.
       -4    1    3    3    0  502 -0.35277439790E+03 -0.20252696848E+03  0.14408613389E+04  0.14971806704E+04  0.12699999809E+01 0. -1.
</event>
<event>
 5   0  0.1533777E-05  0.1498799E+04  0.7818609E-02  0.8885252E-01
       -1   -1    0    0    0  501  0.00000000000E+00  0.00000000000E+00  0.62704308642E+03  0.62704308644E+03  0.50400001928E-02 0.  1.
        1   -1    0    0  501    0  0.00000000000E+00  0.00000000000E+00 -0.89563159940E+03  0.89563159942E+03  0.50400001928E-02 0. -1.
    10030    2    1    2    0    0  0.00000000000E+00  0.00000000000E+00 -0.26858851298E+03  0.15226746859E+04  0.14987989891E+04 0.  0.
        5    1    3    3  502    0  0.61721287170E+03  0.42242641763E+03 -0.86841465535E+02  0.75296702281E+03  0.46999998093E+01 0. -1.
       -5    1    3    3    0  502 -0.61721287170E+03 -0.42242641763E+03 -0.18174704745E+03  0.76970766305E+03  0.46999998093E+01 0.  1.
</event>
<event>
 5   0  0.1576214E-05  0.1499763E+04  0.7818609E-02  0.8884610E-01
        1   -1    0    0  501    0  0.00000000000E+00  0.00000000000E+00  0.78667854566E+03  0.78667854568E+03  0.50400001928E-02 0. -1.
       -1   -1    0    0    0  501  0.00000000000E+00  0.00000000000E+00 -0.71480606500E+03  0.71480606502E+03  0.50400001928E-02 0.  1.
    10030    2    1    2    0    0  0.00000000000E+00  0.00000000000E+00  0.71872480662E+02  0.15014846107E+04  0.14997634422E+04 0.  0.
        1    1    3    3  502    0 -0.60152865666E+02  0.71419787824E+03 -0.18482899985E+03  0.74017480080E+03  0.50400001928E-02 0.  1.
       -1    1    3    3    0  502  0.60152865666E+02 -0.71419787824E+03  0.25670148051E+03  0.76130980990E+03  0.50400001928E-02 0. -1.
</event>
<event>
 5   0  0.1580078E-05  0.1497643E+04  0.7818609E-02  0.8886022E-01
       -1   -1    0    0    0  501  0.00000000000E+00  0.00000000000E+00  0.10666824837E+04  0.10666824837E+04  0.50400001928E-02 0.  1.
        1   -1    0    0  501    0  0.00000000000E+00  0.00000000000E+00 -0.52567999930E+03  0.52567999932E+03  0.50400001928E-02 0. -1.
    10030    2    1    2    0    0  0.00000000000E+00  0.00000000000E+00  0.54100248442E+03  0.15923624831E+04  0.14976430113E+04 0.  0.
        2    1    3    3  502    0 -0.18972416108E+03  0.17063587821E+03  0.10190305809E+04  0.10504928296E+04  0.25500000920E-02 0.  1.
       -2    1    3    3    0  502  0.18972416108E+03 -0.17063587821E+03 -0.47802809651E+03  0.54186965342E+03  0.25500000920E-02 0. -1.
</event>
<event>
 5   0  0.2969498E-05  0.1499868E+04  0.7818609E-02  0.8884541E-01
        2   -1    0    0  501    0  0.00000000000E+00  0.00000000000E+00  0.18973515879E+04  0.18973515879E+04  0.25500000920E-02 0.  1.
       -2   -1    0    0    0  501  0.00000000000E+00  0.00000000000E+00 -0.29641350924E+03  0.29641350925E+03  0.25500000920E-02 0. -1.
    10030    2    1    2    0    0  0.00000000000E+00  0.00000000000E+00  0.16009380786E+04  0.21937650971E+04  0.14998675174E+04 0.  0.
        3    1    3    3  502    0 -0.64514174351E+02 -0.23686269384E+03 -0.23597845146E+03  0.34051703948E+03  0.10100000352E+00 0. -1.
       -3    1    3    3    0  502  0.64514174351E+02  0.23686269384E+03  0.18369165301E+04  0.18532480576E+04  0.10100000352E+00 0.  1.
</event>
<event>
 5   0  0.3093600E-05  0.1500633E+04  0.7818609E-02  0.8884032E-01
       -2   -1    0    0    0  501  0.00000000000E+00  0.00000000000E+00  0.48185926517E+03  0.48185926518E+03  0.25500000920E-02 0. -1.
        2   -1    0    0  501    0  0.00000000000E+00  0.00000000000E+00 -0.11683394153E+04  0.11683394153E+04  0.25500000920E-02 0.  1.
    10030    2    1    2    0    0  0.00000000000E+00  0.00000000000E+00 -0.68648015015E+03  0.16501986805E+04  0.15006334291E+04 0.  0.
        1    1    3    3  502    0 -0.31527659867E+02  0.21868174654E+02 -0.11672598695E+04  0.11678903259E+04  0.50400001928E-02 0.  1.
       -1    1    3    3    0  502  0.31527659867E+02 -0.21868174654E+02  0.48077971932E+03  0.48230835462E+03  0.50400001928E-02 0. -1.
</event>
<event>
 5   0  0.1580078E-05  0.1499956E+04  0.7818609E-02  0.8884483E-01
        1   -1    0    0  501    0  0.00000000000E+00  0.00000000000E+00  0.10589830611E+04  0.10589830611E+04  0.50400001928E-02 0. -1.
       -1   -1    0    0    0  501  0.00000000000E+00  0.00000000000E+00 -0.53113845777E+03  0.53113845780E+03  0.50400001928E-02 0.  1.
    10030    2    1    2    0    0  0.00000000000E+00  0.00000000000E+00  0.52784460331E+03  0.15901215189E+04  0.14999555059E+04 0.  0.
        2    1    3    3  502    0 -0.72617078356E+03 -0.17079809381E+03  0.34583706265E+03  0.82225255832E+03  0.25500000920E-02 0.  1.
       -2    1    3    3    0  502  0.72617078356E+03  0.17079809381E+03  0.18200754066E+03  0.76786896057E+03  0.25500000920E-02 0. -1.
</event>
<event>
 5   0  0.1643498E-05  0.1500160E+04  0.7818609E-02  0.8884347E-01
       -1   -1    0    0    0  501  0.00000000000E+00  0.00000000000E+00  0.90099380715E+03  0.90099380716E+03  0.50400001928E-02 0. -1.
        1   -1    0    0  501    0  0.00000000000E+00  0.00000000000E+00 -0.62444372403E+03  0.62444372405E+03  0.50400001928E-02 0.  1.
    10030    2    1    2    0    0  0.00000000000E+00  0.00000000000E+00  0.27655008312E+03  0.15254375312E+04  0.15001598959E+04 0.  0.
        4    1    3    3  502    0 -0.59671391545E+03  0.45047349893E+03  0.19949283177E+03  0.77381707978E+03  0.12699999809E+01 0.  1.
       -4    1    3    3    0  502  0.59671391545E+03 -0.45047349893E+03  0.77057251348E+02  0.75162045143E+03  0.12699999809E+01 0. -1.
</event>
<event>
 5   0  0.1588657E-05  0.1500476E+04  0.7818609E-02  0.8884137E-01
        1   -1    0    0  501    0  0.00000000000E+00  0.00000000000E+00  0.14581102826E+04  0.14581102826E+04  0.50400001928E-02 0. -1.
       -1   -1    0    0    0  501  0.00000000000E+00  0.00000000000E+00 -0.38601809666E+03  0.38601809669E+03  0.50400001928E-02 0.  1.
    10030    2    1    2    0    0  0.00000000000E+00  0.00000000000E+00  0.10720921859E+04  0.18441283793E+04  0.15004758659E+04 0.  0.
        3    1    3    3  502    0  0.52162424811E+03 -0.43267541987E+03  0.93155112668E+03  0.11519927895E+04  0.10100000352E+00 0. -1.
       -3    1    3    3    0  502 -0.52162424811E+03  0.43267541987E+03  0.14054105927E+03  0.69213558983E+03  0.10100000352E+00 0.  1.
</event>
<event>
 5   0  0.1643498E-05  0.1499587E+04  0.7818609E-02  0.8884727E-01
        1   -1    0    0  501    0  0.00000000000E+00  0.00000000000E+00  0.11478138653E+04  0.11478138653E+04  0.50400001928E-02 0.  1.
       -1   -1    0    0    0  501  0.00000000000E+00  0.00000000000E+00 -0.48979237720E+03  0.48979237723E+03  0.50400001928E-02 0. -1.
    10030    2    1    2    0    0  0.00000000000E+00  0.00000000000E+00  0.65802148809E+03  0.16376062425E+04  0.14995872521E+04 0.  0.
        4    1    3    3  502    0  0.51077336808E+03  0.41210095594E+03  0.72497389554E+03  0.97790868364E+03  0.12699999809E+01 0.  1.
       -4    1    3    3    0  502 -0.51077336808E+03 -0.41210095594E+03 -0.66952407457E+02  0.65969755888E+03  0.12699999809E+01 0. -1.
</event>
<event>
 5   0  0.3018308E-05  0.1499975E+04  0.7818609E-02  0.8884469E-01
        2   -1    0    0  501    0  0.00000000000E+00  0.00000000000E+00  0.10012980889E+04  0.10012980889E+04  0.25500000920E-02 0.  1.
       -2   -1    0    0    0  501  0.00000000000E+00  0.00000000000E+00 -0.56175212837E+03  0.56175212837E+03  0.25500000920E-02 0. -1.
    10030    2    1    2    0    0  0.00000000000E+00  0.00000000000E+00  0.43954596055E+03  0.15630502173E+04  0.14999751099E+04 0.  0.
        2    1    3    3  502    0 -0.38572503094E+03 -0.64143054342E+03  0.17018635030E+03  0.76758083311E+03  0.25500000920E-02 0. -1.
       -2    1    3    3    0  502  0.38572503094E+03  0.64143054342E+03  0.26935961025E+03  0.79546938418E+03  0.25500000920E-02 0.  1.
</event>
<event>
 5   0  0.3093600E-05  0.1501304E+04  0.7818609E-02  0.8883586E-01
       -2   -1    0    0    0  501  0.00000000000E+00  0.00000000000E+00  0.63154698680E+03  0.63154698681E+03  0.25500000920E-02 0. -1.
        2   -1    0    0  501    0  0.00000000000E+00  0.00000000000E+00 -0.89221956170E+03  0.89221956170E+03  0.25500000920E-02 0.  1.
    10030    2    1    2    0    0  0.00000000000E+00  0.00000000000E+00 -0.26067257489E+03  0.15237665485E+04  0.15013042007E+04 0.  0.
        1    1    3    3  502    0  0.34352758964E+03  0.58669247830E+03 -0.45331002581E+03  0.81713477986E+03  0.50400001928E-02 0.  1.
       -1    1    3    3    0  502 -0.34352758964E+03 -0.58669247830E+03  0.19263745092E+03  0.70663176865E+03  0.50400001928E-02 0. -1.
</event>
<event>
 5   0  0.1576214E-05  0.1498322E+04  0.7818609E-02  0.8885569E-01
       -1   -1    0    0    0  501  0.00000000000E+00  0.00000000000E+00  0.62536708949E+03  0.62536708951E+03  0.50400001928E-02 0. -1.
        1   -1    0    0  501    0  0.00000000000E+00  0.00000000000E+00 -0.89746050457E+03  0.89746050459E+03  0.50400001928E-02 0.  1.
    10030    2    1    2    0    0  0.00000000000E+00  0.00000000000E+00 -0.27209341509E+03  0.15228275941E+04  0.14983220798E+04 0.  0.
        1    1    3    3  502    0 -0.46927654161E+03 -0.57533214492E+03 -0.34336430299E+02  0.74324056667E+03  0.50400001928E-02 0. -1.
       -1    1    3    3    0  502  0.46927654161E+03  0.57533214492E+03 -0.23775698479E+03  0.77958702742E+03  0.50400001928E-02 0.  1.
</event>
<event>
 5   0  0.3018308E-05  0.1498800E+04  0.7818609E-02  0.8885252E-01
       -2   -1    0    0    0  501  0.00000000000E+00  0.00000000000E+00  0.10721449633E+04  0.10721449633E+04  0.25500000920E-02 0.  1.
        2   -1    0    0  501    0  0.00000000000E+00  0.00000000000E+00 -0.52380978294E+03  0.52380978295E+03  0.25500000920E-02 0. -1.
    10030    2    1    2    0    0  0.00000000000E+00  0.00000000000E+00  0.54833518039E+03  0.15959547463E+04  0.14987995470E+04 0.  0.
        2    1    3    3  502    0 -0.30958930957E+03  0.22243788615E+03  0.96118483175E+03  0.10340214865E+04  0.25500000920E-02 0.  1.
       -2    1    3    3    0  502  0.30958930957E+03 -0.22243788615E+03 -0.41284965136E+03  0.56193325977E+03  0.25500000920E-02 0. -1.
</event>
<event>
 5   0  0.1588657E-05  0.1500441E+04  0.7818609E-02  0.8884160E-01
       -1   -1    0    0    0  501  0.00000000000E+00  0.00000000000E+00  0.42906141175E+03  0.42906141178E+03  0.50400001928E-02 0.  1.
        1   -1    0    0  501    0  0.00000000000E+00  0.00000000000E+00 -0.13117714932E+04  0.13117714932E+04  0.50400001928E-02 0. -1.
    10030    2    1    2    0    0  0.00000000000E+00  0.00000000000E+00 -0.88271008145E+03  0.17408329050E+04  0.15004406403E+04 0.  0.
        3    1    3    3  502    0  0.30676241411E+03  0.58239257067E+03 -0.85894559219E+03  0.10821607208E+04  0.10100000352E+00 0. -1.
       -3    1    3    3    0  502 -0.30676241411E+03 -0.58239257067E+03 -0.23764489256E+02  0.65867218420E+03  0.10100000352E+00 0.  1.
</event>
<event>
 5   0  0.3093600E-05  0.1501430E+04  0.7818609E-02  0.8883503E-01
        2   -1    0    0  501    0  0.00000000000E+00  0.00000000000E+00  0.74228114888E+03  0.74228114889E+03  0.25500000920E-02 0.  1.
       -2   -1    0    0    0  501  0.00000000000E+00  0.00000000000E+00 -0.75924419458E+03  0.75924419458E+03  0.25500000920E-02 0. -1.
    10030    2    1    2    0    0  0.00000000000E+00  0.00000000000E+00 -0.16963045694E+02  0.15015253435E+04  0.15014295229E+04 0.  0.
        1    1    3    3  502    0 -0.66756961541E+03  0.15876052574E+03 -0.31299817586E+03  0.75420286002E+03  0.50400001928E-02 0. -1.
       -1    1    3    3    0  502  0.66756961541E+03 -0.15876052574E+03  0.29603513016E+03  0.74732248345E+03  0.50400001928E-02 0.  1.
</event>
<event>
 5   0  0.1588657E-05  0.1499861E+04  0.7818609E-02  0.8884546E-01
       -1   -1    0    0    0  501  0.00000000000E+00  0.00000000000E+00  0.32088215735E+03  0.32088215739E+03  0.50400001928E-02 0. -1.
        1   -1    0    0  501    0  0.00000000000E+00  0.00000000000E+00 -0.17526539773E+04  0.17526539773E+04  0.50400001928E-02 0.  1.
    10030    2    1    2    0    0  0.00000000000E+00  0.00000000000E+00 -0.14317718199E+04  0.20735361347E+04  0.14998605127E+04 0.  0.
        3    1    3    3  502    0 -0.52825120419E+03 -0.51724244859E+03 -0.88969631114E+03  0.11567837402E+04  0.10100000352E+00 0. -1.
       -3    1    3    3    0  502  0.52825120419E+03  0.51724244859E+03 -0.54207550880E+03  0.91675239449E+03  0.10100000352E+00 0.  1.
</event>
<event>
 5   0  0.3030702E-05  0.1500202E+04  0.7818609E-02  0.8884318E-01
        2   -1    0    0  501    0  0.00000000000E+00  0.00000000000E+00  0.31542146480E+03  0.31542146481E+03  0.25500000920E-02 0. -1.
       -2   -1    0    0    0  501  0.00000000000E+00  0.00000000000E+00 -0.17838092469E+04  0.17838092469E+04  0.25500000920E-02 0.  1.
    10030    2    1    2    0    0  0.00000000000E+00  0.00000000000E+00 -0.14683877821E+04  0.20992307117E+04  0.15002022871E+04 0.  0.
        5    1    3    3  502    0 -0.21599770565E+03 -0.43033442659E+02  0.26913601873E+03  0.34779760294E+03  0.46999998093E+01 0. -1.
       -5    1    3    3    0  502  0.21599770565E+03  0.43033442659E+02 -0.17375238008E+04  0.17514331088E+04  0.46999998093E+01 0.  1.
</event>
<event>
 5   0  0.3093600E-05  0.1497731E+04  0.7818609E-02  0.8885963E-01
       -2   -1    0    0    0  501  0.00000000000E+00  0.00000000000E+00  0.43223844184E+03  0.43223844185E+03  0.25500000920E-02 0.  1.
        2   -1    0    0  501    0  0.00000000000E+00  0.00000000000E+00 -0.12974306940E+04  0.12974306940E+04  0.25500000920E-02 0. -1.
    10030    2    1    2    0    0  0.00000000000E+00  0.00000000000E+00 -0.86519225218E+03  0.17296691359E+04  0.14977308458E+04 0.  0.
        1    1    3    3  502    0 -0.12944780152E+03  0.51260642106E+03  0.17989054082E+03  0.55846457625E+03  0.50400001928E-02 0.  1.
       -1    1    3    3    0  502  0.12944780152E+03 -0.51260642106E+03 -0.10450827930E+04  0.11712045596E+04  0.50400001928E-02 0. -1.
</event>
<event>
 5   0  0.1580078E-05  0.1499647E+04  0.7818609E-02  0.8884688E-01
        1   -1    0    0  501    0  0.00000000000E+00  0.00000000000E+00  0.83378866504E+03  0.83378866506E+03  0.50400001928E-02 0.  1.
       -1   -1    0    0    0  501  0.00000000000E+00  0.00000000000E+00 -0.67431369983E+03  0.67431369985E+03  0.50400001928E-02 0. -1.
    10030    2    1    2    0    0  0.00000000000E+00  0.00000000000E+00  0.15947496521E+03  0.15081023649E+04  0.14996467846E+04 0.  0.
        2    1    3    3  502    0 -0.51567268958E+03  0.63024416612E+02  0.62347520960E+03  0.81154897379E+03  0.25500000920E-02 0.  1.
       -2    1    3    3    0  502  0.51567268958E+03 -0.63024416612E+02 -0.46400024439E+03  0.69655339111E+03  0.25500000920E-02 0. -1.
</event>
<event>
 5   0  0.3018308E-05  0.1499474E+04  0.7818609E-02  0.8884802E-01
        2   -1    0    0  501    0  0.00000000000E+00  0.00000000000E+00  0.67273583066E+03  0.67273583066E+03  0.25500000920E-02 0. -1.
       -2   -1    0    0    0  501  0.00000000000E+00  0.00000000000E+00 -0.83555218753E+03  0.83555218754E+03  0.25500000920E-02 0.  1.
    10030    2    1    2    0    0  0.00000000000E+00  0.00000000000E+00 -0.16281635688E+03  0.15082880182E+04  0.14994744345E+04 0.  0.
        2    1    3    3  502    0 -0.33165986997E+02 -0.38133927287E+03  0.56704080177E+03  0.68414537535E+03  0.25500000920E-02 0. -1.
       -2    1    3    3    0  502  0.33165986997E+02  0.38133927287E+03 -0.72985715865E+03  0.82414264285E+03  0.25500000920E-02 0.  1.
</event>
<event>
 5   0  0.3093600E-05  0.1499986E+04  0.7818609E-02  0.8884462E-01
       -2   -1    0    0    0  501  0.00000000000E+00  0.00000000000E+00  0.80954780263E+03  0.80954780264E+03  0.25500000920E-02 0.  1.
        2   -1    0    0  501    0  0.00000000000E+00  0.00000000000E+00 -0.69481906734E+03  0.69481906735E+03  0.25500000920E-02 0. -1.
    10030    2    1    2    0    0  0.00000000000E+00  0.00000000000E+00  0.11472873529E+03  0.15043668700E+04  0.14999856655E+04 0.  0.
        1    1    3    3  502    0  0.41275902250E+03 -0.43582475710E+03 -0.39358883210E+03  0.71779203000E+03  0.50400001928E-02 0. -1.
       -1    1    3    3    0  502 -0.41275902250E+03  0.43582475710E+03  0.50831756739E+03  0.78657483998E+03  0.50400001928E-02 0.  1.
</event>
<event>
 5   0  0.1580078E-05  0.1500281E+04  0.7818609E-02  0.8884266E-01
        1   -1    0    0  501    0  0.00000000000E+00  0.00000000000E+00  0.15651404657E+04  0.15651404657E+04  0.50400001928E-02 0.  1.
       -1   -1    0    0    0  501  0.00000000000E+00  0.00000000000E+00 -0.35952735177E+03  0.35952735181E+03  0.50400001928E-02 0. -1.
    10030    2    1    2    0    0  0.00000000000E+00  0.00000000000E+00  0.12056131139E+04  0.19246678175E+04  0.15002810494E+04 0.  0.
        2    1    3    3  502    0  0.29455502795E+03 -0.12621701800E+03  0.14729088108E+04  0.15073664999E+04  0.25500000920E-02 0.  1.
       -2    1    3    3    0  502 -0.29455502795E+03  0.12621701800E+03 -0.26729569685E+03  0.41730131762E+03  0.25500000920E-02 0. -1.
</event>
<event>
 5   0  0.1643498E-05  0.1498329E+04  0.7818609E-02  0.8885565E-01
       -1   -1    0    0    0  501  0.00000000000E+00  0.00000000000E+00  0.71631963970E+03  0.71631963972E+03  0.50400001928E-02 0.  1.
        1   -1    0    0  501    0  0.00000000000E+00  0.00000000000E+00 -0.78351495748E+03  0.78351495749E+03  0.50400001928E-02 0. -1.
    10030    2    1    2    0    0  0.00000000000E+00  0.00000000000E+00 -0.67195317777E+02  0.14998345972E+04  0.14983286049E+04 0.  0.
        4    1    3    3  502    0  0.52543634099E+03 -0.24472923227E+03  0.44150534596E+03  0.72863181990E+03  0.12699999809E+01 0.  1.
       -4    1    3    3    0  502 -0.52543634099E+03  0.24472923227E+03 -0.50870066374E+03  0.77120277732E+03  0.12699999809E+01 0. -1.
</event>
<event>
 5   0  0.3030702E-05  0.1500177E+04  0.7818609E-02  0.8884335E-01
        2   -1    0    0  501    0  0.00000000000E+00  0.00000000000E+00  0.19885602823E+04  0.19885602823E+04  0.25500000920E-02 0.  1.
       -2   -1    0    0    0  501  0.00000000000E+00  0.00000000000E+00 -0.28293463463E+03  0.28293463464E+03  0.25500000920E-02 0. -1.
    10030    2    1    2    0    0  0.00000000000E+00  0.00000000000E+00  0.17056256477E+04  0.22714949169E+04  0.15001767588E+04 0.  0.
        5    1    3    3  502    0  0.56385237884E+03  0.14595639457E+03  0.15684440066E+04  0.16731023477E+04  0.46999998093E+01 0.  1.
       -5    1    3    3    0  502 -0.56385237884E+03 -0.14595639457E+03  0.13718164111E+03  0.59839256922E+03  0.46999998093E+01 0. -1.
</event>
<event>
 5   0  0.1588657E-05  0.1501414E+04  0.7818609E-02  0.8883513E-01
        1   -1    0    0  501    0  0.00000000000E+00  0.00000000000E+00  0.49285870169E+03  0.49285870171E+03  0.50400001928E-02 0.  1.
       -1   -1    0    0    0  501  0.00000000000E+00  0.00000000000E+00 -0.11434540748E+04  0.11434540748E+04  0.50400001928E-02 0. -1.
    10030    2    1    2    0    0  0.00000000000E+00  0.00000000000E+00 -0.65059537310E+03  0.16363127765E+04  0.15014143875E+04 0.  0.
        3    1    3    3  502    0  0.64383066604E+03  0.20780091919E+03 -0.67989551062E+03  0.95914392252E+03  0.10100000352E+00 0. -1.
       -3    1    3    3    0  502 -0.64383066604E+03 -0.20780091919E+03  0.29300137512E+02  0.67716885399E+03  0.10100000352E+00 0.  1.
</event>
<event>
 5   0  0.1588657E-05  0.1501256E+04  0.7818609E-02  0.8883618E-01
       -1   -1    0    0    0  501  0.00000000000E+00  0.00000000000E+00  0.33919553099E+03  0.33919553103E+03  0.50400001928E-02 0.  1.
        1   -1    0    0  501    0  0.00000000000E+00  0.00000000000E+00 -0.16611147946E+04  0.16611147946E+04  0.50400001928E-02 0. -1.
    10030    2    1    2    0    0  0.00000000000E+00  0.00000000000E+00 -0.13219192636E+04  0.20003103256E+04  0.15012564269E+04 0.  0.
        3    1    3    3  502    0 -0.47281005872E+03  0.57360011142E+03 -0.79991725959E+03  0.10919862965E+04  0.10100000352E+00 0.  1.
       -3    1    3    3    0  502  0.47281005872E+03 -0.57360011142E+03 -0.52200200403E+03  0.90832402911E+03  0.10100000352E+00 0. -1.
</event>
<event>
 5   0  0.2969498E-05  0.1499731E+04  0.7818609E-02  0.8884632E-01
        2   -1    0    0  501    0  0.00000000000E+00  0.00000000000E+00  0.48300265967E+03  0.48300265968E+03  0.25500000920E-02 0. -1.
       -2   -1    0    0    0  501  0.00000000000E+00  0.00000000000E+00 -0.11641716246E+04  0.11641716246E+04  0.25500000920E-02 0.  1.
    10030    2    1    2    0    0  0.00000000000E+00  0.00000000000E+00 -0.68116896489E+03  0.16471742842E+04  0.14997306305E+04 0.  0.
        3    1    3    3  502    0 -0.54271422678E+03 -0.49053372827E+03 -0.15965952087E+03  0.74876781670E+03  0.10100000352E+00 0.  1.
       -3    1    3    3    0  502  0.54271422678E+03  0.49053372827E+03 -0.52150944402E+03  0.89840646754E+03  0.10100000352E+00 0. -1.
</event>
<event>
 5   0  0.3030702E-05  0.1500118E+04  0.7818609E-02  0.8884374E-01
       -2   -1    0    0    0  501  0.00000000000E+00  0.00000000000E+00  0.41709330554E+03  0.41709330555E+03  0.25500000920E-02 0.  1.
        2   -1    0    0  501    0  0.00000000000E+00  0.00000000000E+00 -0.13488313591E+04  0.13488313591E+04  0.25500000920E-02 0. -1.
    10030    2    1    2    0    0  0.00000000000E+00  0.00000000000E+00 -0.93173805352E+03  0.17659246646E+04  0.15001180356E+04 0.  0.
        5    1    3    3  502    0  0.25018516111E+03 -0.47304734697E+03 -0.10845383796E+04  0.12093849653E+04  0.46999998093E+01 0. -1.
       -5    1    3    3    0  502 -0.25018516111E+03  0.47304734697E+03  0.15280032609E+03  0.55653969937E+03  0.46999998093E+01 0.  1.
</event>
<event>
 5   0  0.1533777E-05  0.1499526E+04  0.7818609E-02  0.8884768E-01
        1   -1    0    0  501    0  0.00000000000E+00  0.00000000000E+00  0.11835729337E+04  0.11835729337E+04  0.50400001928E-02 0. -1.
       -1   -1    0    0    0  501  0.00000000000E+00  0.00000000000E+00 -0.47495548587E+03  0.47495548590E+03  0.50400001928E-02 0.  1.
    10030    2    1    2    0    0  0.00000000000E+00  0.00000000000E+00  0.70861744785E+03  0.16585284196E+04  0.14995258688E+04 0.  0.
        5    1    3    3  502    0 -0.50500454768E+03 -0.11700697340E+03 -0.24479303699E+03  0.57329394377E+03  0.46999998093E+01 0.  1.
       -5    1    3    3    0  502  0.50500454768E+03  0.11700697340E+03  0.95341048484E+03  0.10852344759E+04  0.46999998093E+01 0. -1.
</event>
<event>
 5   0  0.1580078E-05  0.1500041E+04  0.7818609E-02  0.8884426E-01
       -1   -1    0    0    0  501  0.00000000000E+00  0.00000000000E+00  0.64723713851E+03  0.64723713853E+03  0.50400001928E-02 0. -1.
        1   -1    0    0  501    0  0.00000000000E+00  0.00000000000E+00 -0.86912600114E+03  0.86912600115E+03  0.50400001928E-02 0.  1.
    10030    2    1    2    0    0  0.00000000000E+00  0.00000000000E+00 -0.22188886263E+03  0.15163631397E+04  0.15000408341E+04 0.  0.
        2    1    3    3  502    0 -0.24238530109E+03 -0.18880683513E+03  0.58070223551E+03  0.65697316651E+03  0.25500000920E-02 0. -1.
       -2    1    3    3    0  502  0.24238530109E+03  0.18880683513E+03 -0.80259109814E+03  0.85938997318E+03  0.25500000920E-02 0.  1.
</event>
<event>
 5   0  0.3070497E-05  0.1499483E+04  0.7818609E-02  0.8884797E-01
        2   -1    0    0  501    0  0.00000000000E+00  0.00000000000E+00  0.13300331670E+04  0.13300331670E+04  0.25500000920E-02 0. -1.
       -2   -1    0    0    0  501  0.00000000000E+00  0.00000000000E+00 -0.42263026444E+03  0.42263026445E+03  0.25500000920E-02 0.  1.
    10030    2    1    2    0    0  0.00000000000E+00  0.00000000000E+00  0.90740290260E+03  0.17526634315E+04  0.14994829364E+04 0.  0.
        4    1    3    3  502    0 -0.62642282054E+02 -0.54225300035E+03 -0.14703072551E+03  0.56531585776E+03  0.12699999809E+01 0.  1.
       -4    1    3    3    0  502  0.62642282054E+02  0.54225300035E+03  0.10544336281E+04  0.11873475737E+04  0.12699999809E+01 0. -1.
</event>
<event>
 5   0  0.3030702E-05  0.1500429E+04  0.7818609E-02  0.8884168E-01
        2   -1    0    0  501    0  0.00000000000E+00  0.00000000000E+00  0.18129039205E+04  0.18129039205E+04  0.25500000920E-02 0. -1.
       -2   -1    0    0    0  501  0.00000000000E+00  0.00000000000E+00 -0.31045328492E+03  0.31045328494E+03  0.25500000920E-02 0.  1.
    10030    2    1    2    0    0  0.00000000000E+00  0.00000000000E+00  0.15024506356E+04  0.21233572054E+04  0.15004292418E+04 0.  0.
        5    1    3    3  502    0 -0.94250133653E+01  0.26260653011E+03 -0.24317349407E+03  0.35805929502E+03  0.46999998093E+01 0.  1.
       -5    1    3    3    0  502  0.94250133653E+01 -0.26260653011E+03  0.17456241296E+04  0.17652979104E+04  0.46999998093E+01 0. -1.
</event>
<event>
 5   0  0.1576214E-05  0.1499373E+04  0.7818609E-02  0.8884870E-01
        1   -1    0    0  501    0  0.00000000000E+00  0.00000000000E+00  0.82913907698E+03  0.82913907699E+03  0.50400001928E-02 0. -1.
       -1   -1    0    0    0  501  0.00000000000E+00  0.00000000000E+00 -0.67784780673E+03  0.67784780675E+03  0.50400001928E-02 0.  1.
    10030    2    1    2    0    0  0.00000000000E+00  0.00000000000E+00  0.15129127025E+03  0.15069868837E+04  0.14993733422E+04 0.  0.
        1    1    3    3  502    0  0.37812848449E+03 -0.11813083488E+03  0.71534751169E+03  0.81771517500E+03  0.50400001928E-02 0. -1.
       -1    1    3    3    0  502 -0.37812848449E+03  0.11813083488E+03 -0.56405624144E+03  0.68927170873E+03  0.50400001928E-02 0.  1.
</event>
<event>
 5   0  0.3018308E-05  0.1500366E+04  0.7818609E-02  0.8884210E-01
        2   -1    0    0  501    0  0.00000000000E+00  0.00000000000E+00  0.83766519161E+03  0.83766519162E+03  0.25500000920E-02 0.  1.
       -2   -1    0    0    0  501  0.00000000000E+00  0.00000000000E+00 -0.67183670624E+03  0.67183670624E+03  0.25500000920E-02 0. -1.
    10030    2    1    2    0    0  0.00000000000E+00  0.00000000000E+00  0.16582848537E+03  0.15095018979E+04  0.15003655865E+04 0.  0.
        2    1    3    3  502    0 -0.66313946129E+03  0.27528444451E+03  0.30158251836E+03  0.77877306444E+03  0.25500000920E-02 0. -1.
       -2    1    3    3    0  502  0.66313946129E+03 -0.27528444451E+03 -0.13575403298E+03  0.73072883342E+03  0.25500000920E-02 0.  1.
</event>
<event>
 5   0  0.1580078E-05  0.1499791E+04  0.7818609E-02  0.8884592E-01
       -1   -1    0    0    0  501  0.00000000000E+00  0.00000000000E+00  0.67331919854E+03  0.67331919856E+03  0.50400001928E-02 0.  1.
        1   -1    0    0  501    0  0.00000000000E+00  0.00000000000E+00 -0.83518055806E+03  0.83518055808E+03  0.50400001928E-02 0. -1.
    10030    2    1    2    0    0  0.00000000000E+00  0.00000000000E+00 -0.16186135952E+03  0.15084997566E+04  0.14997907908E+04 0.  0.
        2    1    3    3  502    0  0.66913082596E+03 -0.20805764239E+03 -0.34953770348E+03  0.78307129366E+03  0.25500000920E-02 0. -1.
       -2    1    3    3    0  502 -0.66913082596E+03  0.20805764239E+03  0.18767634396E+03  0.72542846297E+03  0.25500000920E-02 0.  1.
</event>
<event>
 5   0  0.3093600E-05  0.1500476E+04  0.7818609E-02  0.8884137E-01
        2   -1    0    0  501    0  0.00000000000E+00  0.00000000000E+00  0.53609991931E+03  0.53609991932E+03  0.25500000920E-02 0.  1.
       -2   -1    0    0    0  501  0.00000000000E+00  0.00000000000E+00 -0.10499105408E+04  0.10499105408E+04  0.25500000920E-02 0. -1.
    10030    2    1    2    0    0  0.00000000000E+00  0.00000000000E+00 -0.51381062146E+03  0.15860104601E+04  0.15004758661E+04 0.  0.
        1    1    3    3  502    0 -0.52399733648E+03  0.38815642827E+02  0.30913747814E+03  0.60962762666E+03  0.50400001928E-02 0.  1.
       -1    1    3    3    0  502  0.52399733648E+03 -0.38815642827E+02 -0.82294809960E+03  0.97638283344E+03  0.50400001928E-02 0. -1.
</event>
<event>
 5   0  0.1588657E-05  0.1498858E+04  0.7818609E-02  0.8885213E-01
       -1   -1    0    0    0  501  0.00000000000E+00  0.00000000000E+00  0.75144809064E+03  0.75144809066E+03  0.50400001928E-02 0.  1.
        1   -1    0    0  501    0  0.00000000000E+00  0.00000000000E+00 -0.74741490960E+03  0.74741490962E+03  0.50400001928E-02 0. -1.
    10030    2    1    2    0    0  0.00000000000E+00  0.00000000000E+00  0.40331810429E+01  0.14988630003E+04  0.14988575740E+04 0.  0.
        3    1    3    3  502    0 -0.19987167986E+02 -0.43381521158E+03 -0.60876247999E+03  0.74778799932E+03  0.10100000352E+00 0. -1.
       -3    1    3    3    0  502  0.19987167986E+02  0.43381521158E+03  0.61279566104E+03  0.75107500096E+03  0.10100000352E+00 0.  1.
</event>
<event>
 5   0  0.1588657E-05  0.1499462E+04  0.7818609E-02  0.8884810E-01
        1   -1    0    0  501    0  0.00000000000E+00  0.00000000000E+00  0.76947293164E+03  0.76947293165E+03  0.50400001928E-02 0. -1.
       -1   -1    0    0    0  501  0.00000000000E+00  0.00000000000E+00 -0.73049606182E+03  0.73049606184E+03  0.50400001928E-02 0.  1.
    10030    2    1    2    0    0  0.00000000000E+00  0.00000000000E+00  0.38976869816E+02  0.14999689935E+04  0.14994624987E+04 0.  0.
        3    1    3    3  502    0 -0.70023546321E+03 -0.30458461142E+02  0.28573527394E+03  0.75690295201E+03  0.10100000352E+00 0. -1.
       -3    1    3    3    0  502  0.70023546321E+03  0.30458461142E+02 -0.24675840413E+03  0.74306604148E+03  0.10100000352E+00 0.  1.
</event>
<event>
 5   0  0.3070497E-05  0.1499473E+04  0.7818609E-02  0.8884803E-01
        2   -1    0    0  501    0  0.00000000000E+00  0.00000000000E+00  0.25797682699E+04  0.25797682699E+04  0.25500000920E-02 0.  1.
       -2   -1    0    0    0  501  0.00000000000E+00  0.00000000000E+00 -0.21788979823E+03  0.21788979824E+03  0.25500000920E-02 0. -1.
    10030    2    1    2    0    0  0.00000000000E+00  0.00000000000E+00  0.23618784717E+04  0.27976580681E+04  0.14994734914E+04 0.  0.
        4    1    3    3  502    0 -0.66442656456E+03 -0.15342716057E+03  0.59954899053E+03  0.90799953648E+03  0.12699999809E+01 0. -1.
       -4    1    3    3    0  502  0.66442656456E+03  0.15342716057E+03  0.17623294811E+04  0.18896585316E+04  0.12699999809E+01 0.  1.
</event>
<event>
 5   0  0.3093600E-05  0.1499228E+04  0.7818609E-02  0.8884966E-01
       -2   -1    0    0    0  501  0.00000000000E+00  0.00000000000E+00  0.70760993301E+03  0.70760993301E+03  0.25500000920E-02 0.  1.
        2   -1    0    0  501    0  0.00000000000E+00  0.00000000000E+00 -0.79411137623E+03  0.79411137623E+03  0.25500000920E-02 0. -1.
    10030    2    1    2    0    0  0.00000000000E+00  0.00000000000E+00 -0.86501443224E+02  0.15017213092E+04  0.14992279316E+04 0.  0.
        1    1    3    3  502    0 -0.22017976778E+03 -0.66339853166E+03 -0.31452275808E+03  0.76648633864E+03  0.50400001928E-02 0.  1.
       -1    1    3    3    0  502  0.22017976778E+03  0.66339853166E+03  0.22802131486E+03  0.73523497060E+03  0.50400001928E-02 0. -1.
</event>
<event>
 5   0  0.1116613E-05  0.1500063E+04  0.7818609E-02  0.8884411E-01
       -4   -1    0    0    0  501  0.00000000000E+00  0.00000000000E+00  0.51782035884E+03  0.51782191623E+03  0.12699999809E+01 0. -1.
        4   -1    0    0  501    0  0.00000000000E+00  0.00000000000E+00 -0.10863722026E+04  0.10863729450E+04  0.12699999809E+01 0.  1.
    10030    2    1    2    0    0  0.00000000000E+00  0.00000000000E+00 -0.56855184380E+03  0.16041948612E+04  0.15000633165E+04 0.  0.
        5    1    3    3  502    0  0.61870935266E+03 -0.41032270011E+03 -0.39825510857E+03  0.84249344377E+03  0.46999998093E+01 0.  1.
       -5    1    3    3    0  502 -0.61870935266E+03  0.41032270011E+03 -0.17029673523E+03  0.76170141744E+03  0.46999998093E+01 0. -1.
</event>
<event>
 5   0  0.1643498E-05  0.1499754E+04  0.7818609E-02  0.8884617E-01
        1   -1    0    0  501    0  0.00000000000E+00  0.00000000000E+00  0.12559305295E+04  0.12559305295E+04  0.50400001928E-02 0. -1.
       -1   -1    0    0    0  501  0.00000000000E+00  0.00000000000E+00 -0.44772811300E+03  0.44772811303E+03  0.50400001928E-02 0.  1.
    10030    2    1    2    0    0  0.00000000000E+00  0.00000000000E+00  0.80820241651E+03  0.17036586426E+04  0.14997538546E+04 0.  0.
        4    1    3    3  502    0  0.37101538520E+03 -0.73833750476E+02 -0.33139152682E+03  0.50291728517E+03  0.12699999809E+01 0.  1.
       -4    1    3    3    0  502 -0.37101538520E+03  0.73833750476E+02  0.11395939433E+04  0.12007413574E+04  0.12699999809E+01 0. -1.
</event>
<event>
 5   0  0.1533777E-05  0.1495769E+04  0.7818609E-02  0.8887271E-01
       -1   -1    0    0    0  501  0.00000000000E+00  0.00000000000E+00  0.58051203265E+03  0.58051203267E+03  0.50400001928E-02 0.  1.
        1   -1    0    0  501    0  0.00000000000E+00  0.00000000000E+00 -0.96351347310E+03  0.96351347311E+03  0.50400001928E-02 0. -1.
    10030    2    1    2    0    0  0.00000000000E+00  0.00000000000E+00 -0.38300144045E+03  0.15440255058E+04  0.14957689190E+04 0.  0.
        5    1    3    3  502    0 -0.25886340170E+03  0.60285928595E+03 -0.56205188151E+03  0.86392938769E+03  0.46999998093E+01 0. -1.
       -5    1    3    3    0  502  0.25886340170E+03 -0.60285928595E+03  0.17905044106E+03  0.68009611809E+03  0.46999998093E+01 0.  1.
</event>
<event>
 5   0  0.3018308E-05  0.1499843E+04  0.7818609E-02  0.8884557E-01
        2   -1    0    0  501    0  0.00000000000E+00  0.00000000000E+00  0.15273117667E+04  0.15273117667E+04  0.25500000920E-02 0. -1.
       -2   -1    0    0    0  501  0.00000000000E+00  0.00000000000E+00 -0.36821704563E+03  0.36821704564E+03  0.25500000920E-02 0.  1.
    10030    2    1    2    0    0  0.00000000000E+00  0.00000000000E+00  0.11590947211E+04  0.18955288124E+04  0.14998429605E+04 0.  0.
        2    1    3    3  502    0  0.43340807932E+03 -0.60891953133E+02 -0.19006689797E+03  0.47715387338E+03  0.25500000920E-02 0.  1.
       -2    1    3    3    0  502 -0.43340807932E+03  0.60891953133E+02  0.13491616191E+04  0.14183749390E+04  0.25500000920E-02 0. -1.
</event>
<event>
 5   0  0.1643498E-05  0.1499855E+04  0.7818609E-02  0.8884549E-01
       -1   -1    0    0    0  501  0.00000000000E+00  0.00000000000E+00  0.29117838812E+03  0.29117838816E+03  0.50400001928E-02 0. -1.
        1   -1    0    0  501    0  0.00000000000E+00  0.00000000000E+00 -0.19314322649E+04  0.19314322649E+04  0.50400001928E-02 0.  1.
    10030    2    1    2    0    0  0.00000000000E+00  0.00000000000E+00 -0.16402538768E+04  0.22226106531E+04  0.14998551046E+04 0.  0.
        4    1    3    3  502    0 -0.28011229044E+03  0.63084355517E+03 -0.38564626782E+03  0.79066500058E+03  0.12699999809E+01 0. -1.
       -4    1    3    3    0  502  0.28011229044E+03 -0.63084355517E+03 -0.12546076090E+04  0.14319456525E+04  0.12699999809E+01 0.  1.
</event>
<event>
 5   0  0.3030702E-05  0.1499861E+04  0.7818609E-02  0.8884545E-01
       -2   -1    0    0    0  501  0.00000000000E+00  0.00000000000E+00  0.85792075818E+03  0.85792075819E+03  0.25500000920E-02 0. -1.
        2   -1    0    0  501    0  0.00000000000E+00  0.00000000000E+00 -0.65553362848E+03  0.65553362848E+03  0.25500000920E-02 0.  1.
    10030    2    1    2    0    0  0.00000000000E+00  0.00000000000E+00  0.20238712971E+03  0.15134543867E+04  0.14998612037E+04 0.  0.
        5    1    3    3  502    0  0.59572166028E+03  0.22236614429E+02  0.56028400482E+03  0.81811919645E+03  0.46999998093E+01 0. -1.
       -5    1    3    3    0  502 -0.59572166028E+03 -0.22236614429E+02 -0.35789687511E+03  0.69533519022E+03  0.46999998093E+01 0.  1.
</event>
<event>
 5   0  0.1533777E-05  0.1499336E+04  0.7818609E-02  0.8884895E-01
       -1   -1    0    0    0  501  0.00000000000E+00  0.00000000000E+00  0.76775601348E+03  0.76775601350E+03  0.50400001928E-02 0.  1.
        1   -1    0    0  501    0  0.00000000000E+00  0.00000000000E+00 -0.73200571855E+03  0.73200571857E+03  0.50400001928E-02 0. -1.
    10030    2    1    2    0    0  0.00000000000E+00  0.00000000000E+00  0.35750294932E+02  0.14997617321E+04  0.14993355760E+04 0.  0.
        5    1    3    3  502    0 -0.43948935305E+03 -0.29337405679E+03 -0.51402825970E+03  0.73720171623E+03  0.46999998093E+01 0.  1.
       -5    1    3    3    0  502  0.43948935305E+03  0.29337405679E+03  0.54977855463E+03  0.76256001585E+03  0.46999998093E+01 0. -1.
</event>
<event>
 5   0  0.1576214E-05  0.1499967E+04  0.7818609E-02  0.8884475E-01
       -1   -1    0    0    0  501  0.00000000000E+00  0.00000000000E+00  0.42696786668E+03  0.42696786671E+03  0.50400001928E-02 0. -1.
        1   -1    0    0  501    0  0.00000000000E+00  0.00000000000E+00 -0.13173708388E+04  0.13173708389E+04  0.50400001928E-02 0.  1.
    10030    2    1    2    0    0  0.00000000000E+00  0.00000000000E+00 -0.89040297216E+03  0.17443387056E+04  0.14999666886E+04 0.  0.
        1    1    3    3  502    0  0.50695711028E+03  0.44871724322E+03 -0.69951085528E+02  0.68062164998E+03  0.50400001928E-02 0. -1.
       -1    1    3    3    0  502 -0.50695711028E+03 -0.44871724322E+03 -0.82045188664E+03  0.10637170556E+04  0.50400001928E-02 0.  1.
</event>
<event>
 5   0  0.3018308E-05  0.1500382E+04  0.7818609E-02  0.8884199E-01
       -2   -1    0    0    0  501  0.00000000000E+00  0.00000000000E+00  0.49970300151E+03  0.49970300152E+03  0.25500000920E-02 0.  1.
        2   -1    0    0  501    0  0.00000000000E+00  0.00000000000E+00 -0.11262422471E+04  0.11262422471E+04  0.25500000920E-02 0. -1.
    10030    2    1    2    0    0  0.00000000000E+00  0.00000000000E+00 -0.62653924557E+03  0.16259452486E+04  0.15003821264E+04 0.  0.
        2    1    3    3  502    0  0.37253359879E+03 -0.42652375679E+03 -0.84646457929E+03  0.10184331502E+04  0.25500000920E-02 0. -1.
       -2    1    3    3    0  502 -0.37253359879E+03  0.42652375679E+03  0.21992533373E+03  0.60751209845E+03  0.25500000920E-02 0.  1.
</event>
<event>
 5   0  0.1533777E-05  0.1499912E+04  0.7818609E-02  0.8884511E-01
       -1   -1    0    0    0  501  0.00000000000E+00  0.00000000000E+00  0.11037830431E+04  0.11037830431E+04  0.50400001928E-02 0.  1.
        1   -1    0    0  501    0  0.00000000000E+00  0.00000000000E+00 -0.50955121579E+03  0.50955121581E+03  0.50400001928E-02 0. -1.
    10030    2    1    2    0    0  0.00000000000E+00  0.00000000000E+00  0.59423182734E+03  0.16133342590E+04  0.14999119862E+04 0.  0.
        5    1    3    3  502    0  0.69999042810E+03  0.24293204434E+03  0.17256066794E+03  0.76079028104E+03  0.46999998093E+01 0. -1.
       -5    1    3    3    0  502 -0.69999042810E+03 -0.24293204434E+03  0.42167115939E+03  0.85254397791E+03  0.46999998093E+01 0.  1.
</event>
<event>
 5   0  0.3093600E-05  0.1500187E+04  0.7818609E-02  0.8884328E-01
        2   -1    0    0  501    0  0.00000000000E+00  0.00000000000E+00  0.82256745669E+03  0.82256745670E+03  0.25500000920E-02 0. -1.
       -2   -1    0    0    0  501  0.00000000000E+00  0.00000000000E+00 -0.68400516844E+03  0.68400516844E+03  0.25500000920E-02 0.  1.
    10030    2    1    2    0    0  0.00000000000E+00  0.00000000000E+00  0.13856228825E+03  0.15065726251E+04  0.15001871774E+04 0.  0.
        1    1    3    3  502    0  0.51398585407E+03  0.23130990063E+03 -0.42775443617E+03  0.70757302520E+03  0.50400001928E-02 0.  1.
       -1    1    3    3    0  502 -0.51398585407E+03 -0.23130990063E+03  0.56631672442E+03  0.79899959993E+03  0.50400001928E-02 0. -1.
</event>
<event>
 5   0  0.1576214E-05  0.1500806E+04  0.7818609E-02  0.8883917E-01
        1   -1    0    0  501    0  0.00000000000E+00  0.00000000000E+00  0.21093874792E+04  0.21093874792E+04  0.50400001928E-02 0. -1.
       -1   -1    0    0    0  501  0.00000000000E+00  0.00000000000E+00 -0.26695178683E+03  0.26695178688E+03  0.50400001928E-02 0.  1.
    10030    2    1    2    0    0  0.00000000000E+00  0.00000000000E+00  0.18424356923E+04  0.23763392661E+04  0.15008061257E+04 0.  0.
        1    1    3    3  502    0  0.14794358995E+03 -0.12602745331E+03  0.20688476683E+04  0.20779559426E+04  0.50400001928E-02 0. -1.
       -1    1    3    3    0  502 -0.14794358995E+03  0.12602745331E+03 -0.22641197598E+03  0.29838332341E+03  0.50400001928E-02 0.  1.
</event>
<event>
 5   0  0.1580078E-05  0.1499501E+04  0.7818609E-02  0.8884785E-01
       -1   -1    0    0    0  501  0.00000000000E+00  0.00000000000E+00  0.41686985269E+03  0.41686985272E+03  0.50400001928E-02 0. -1.
        1   -1    0    0  501    0  0.00000000000E+00  0.00000000000E+00 -0.13484440488E+04  0.13484440488E+04  0.50400001928E-02 0.  1.
    10030    2    1    2    0    0  0.00000000000E+00  0.00000000000E+00 -0.93157419610E+03  0.17653139015E+04  0.14995008130E+04 0.  0.
        2    1    3    3  502    0 -0.15393957576E+03  0.37961078696E+02 -0.13284819707E+04  0.13379098561E+04  0.25500000920E-02 0.  1.
       -2    1    3    3    0  502  0.15393957576E+03 -0.37961078696E+02  0.39690777463E+03  0.42740404543E+03  0.25500000920E-02 0. -1.
</event>
<event>
 5   0  0.3070497E-05  0.1500046E+04  0.7818609E-02  0.8884422E-01
       -2   -1    0    0    0  501  0.00000000000E+00  0.00000000000E+00  0.77781240995E+03  0.77781240996E+03  0.25500000920E-02 0.  1.
        2   -1    0    0  501    0  0.00000000000E+00  0.00000000000E+00 -0.72322637483E+03  0.72322637484E+03  0.25500000920E-02 0. -1.
    10030    2    1    2    0    0  0.00000000000E+00  0.00000000000E+00  0.54586035124E+02  0.15010387848E+04  0.15000459320E+04 0.  0.
        4    1    3    3  502    0  0.14143684694E+03 -0.65208923502E+03  0.37002239195E+03  0.76298291956E+03  0.12699999809E+01 0.  1.
       -4    1    3    3    0  502 -0.14143684694E+03  0.65208923502E+03 -0.31543635683E+03  0.73805586523E+03  0.12699999809E+01 0. -1.
</event>
<event>
 5   0  0.3018308E-05  0.1500849E+04  0.7818609E-02  0.8883888E-01
       -2   -1    0    0    0  501  0.00000000000E+00  0.00000000000E+00  0.30948814072E+03  0.30948814073E+03  0.25500000920E-02 0.  1.
        2   -1    0    0  501    0  0.00000000000E+00  0.00000000000E+00 -0.18195756987E+04  0.18195756987E+04  0.25500000920E-02 0. -1.
    10030    2    1    2    0    0  0.00000000000E+00  0.00000000000E+00 -0.15100875579E+04  0.21290638394E+04  0.15008492261E+04 0.  0.
        2    1    3    3  502    0  0.50225767333E+02  0.35902403431E+03 -0.16871186482E+04  0.17256274853E+04  0.25500000920E-02 0. -1.
       -2    1    3    3    0  502 -0.50225767333E+02 -0.35902403431E+03  0.17703109023E+03  0.40343635413E+03  0.25500000920E-02 0.  1.
</event>
<event>
 5   0  0.3070497E-05  0.1499422E+04  0.7818609E-02  0.8884837E-01
       -2   -1    0    0    0  501  0.00000000000E+00  0.00000000000E+00  0.85881398649E+03  0.85881398650E+03  0.25500000920E-02 0.  1.
        2   -1    0    0  501    0  0.00000000000E+00  0.00000000000E+00 -0.65446831676E+03  0.65446831677E+03  0.25500000920E-02 0. -1.
    10030    2    1    2    0    0  0.00000000000E+00  0.00000000000E+00  0.20434566973E+03  0.15132823033E+04  0.14994219475E+04 0.  0.
        4    1    3    3  502    0  0.34074861788E+03 -0.59803055440E+03  0.40209789378E+03  0.79714145148E+03  0.12699999809E+01 0.  1.
       -4    1    3    3    0  502 -0.34074861788E+03  0.59803055440E+03 -0.19775222405E+03  0.71614085179E+03  0.12699999809E+01 0. -1.
</event>
<event>
 5   0  0.1580078E-05  0.1496379E+04  0.7818609E-02  0.8886865E-01
       -1   -1    0    0    0  501  0.00000000000E+00  0.00000000000E+00  0.65090182452E+03  0.65090182454E+03  0.50400001928E-02 0. -1.
        1   -1    0    0  501    0  0.00000000000E+00  0.00000000000E+00 -0.86001817582E+03  0.86001817583E+03  0.50400001928E-02 0.  1.
    10030    2    1    2    0    0  0.00000000000E+00  0.00000000000E+00 -0.20911635129E+03  0.15109200004E+04  0.14963788288E+04 0.  0.
        2    1    3    3  502    0 -0.16500333231E+03 -0.40711546380E+03 -0.71609893970E+03  0.84009927508E+03  0.25500000920E-02 0.  1.
       -2    1    3    3    0  502  0.16500333231E+03  0.40711546380E+03  0.50698258840E+03  0.67082072530E+03  0.25500000920E-02 0. -1.
</event>
<event>
 5   0  0.3093600E-05  0.1499636E+04  0.7818609E-02  0.8884695E-01
        2   -1    0    0  501    0  0.00000000000E+00  0.00000000000E+00  0.19901739641E+04  0.19901739641E+04  0.25500000920E-02 0.  1.
       -2   -1    0    0    0  501  0.00000000000E+00  0.00000000000E+00 -0.28250160971E+03  0.28250160972E+03  0.25500000920E-02 0. -1.
    10030    2    1    2    0    0  0.00000000000E+00  0.00000000000E+00  0.17076723544E+04  0.22726755739E+04  0.14996364206E+04 0.  0.
        1    1    3    3  502    0  0.53783866164E+02 -0.63503101291E+02 -0.27548139016E+03  0.28777655305E+03  0.50400001928E-02 0. -1.
       -1    1    3    3    0  502 -0.53783866164E+02  0.63503101291E+02  0.19831537446E+04  0.19848990208E+04  0.50400001928E-02 0.  1.
</event>
<event>
 5   0  0.1643498E-05  0.1499836E+04  0.7818609E-02  0.8884562E-01
        1   -1    0    0  501    0  0.00000000000E+00  0.00000000000E+00  0.13948226584E+04  0.13948226585E+04  0.50400001928E-02 0. -1.
       -1   -1    0    0    0  501  0.00000000000E+00  0.00000000000E+00 -0.40318878398E+03  0.40318878401E+03  0.50400001928E-02 0.  1.
    10030    2    1    2    0    0  0.00000000000E+00  0.00000000000E+00  0.99163387446E+03  0.17980114425E+04  0.14998357931E+04 0.  0.
        4    1    3    3  502    0  0.11475136286E+03 -0.43213778567E+03 -0.22592402661E+03  0.50095331098E+03  0.12699999809E+01 0.  1.
       -4    1    3    3    0  502 -0.11475136286E+03  0.43213778567E+03  0.12175579011E+04  0.12970581315E+04  0.12699999809E+01 0. -1.
</event>
<event>
 5   0  0.1580078E-05  0.1499994E+04  0.7818609E-02  0.8884457E-01
        1   -1    0    0  501    0  0.00000000000E+00  0.00000000000E+00  0.11427147289E+04  0.11427147289E+04  0.50400001928E-02 0.  1.
       -1   -1    0    0    0  501  0.00000000000E+00  0.00000000000E+00 -0.49224457524E+03  0.49224457527E+03  0.50400001928E-02 0. -1.
    10030    2    1    2    0    0  0.00000000000E+00  0.00000000000E+00  0.65047015366E+03  0.16349593042E+04  0.14999935018E+04 0.  0.
        2    1    3    3  502    0  0.55837343894E+03  0.44855741568E+03  0.56776543667E+03  0.91397059228E+03  0.25500000920E-02 0.  1.
       -2    1    3    3    0  502 -0.55837343894E+03 -0.44855741568E+03  0.82704716994E+02  0.72098871191E+03  0.25500000920E-02 0. -1.
</event>
<event>
 5   0  0.1576214E-05  0.1499933E+04  0.7818609E-02  0.8884498E-01
        1   -1    0    0  501    0  0.00000000000E+00  0.00000000000E+00  0.15107969165E+04  0.15107969165E+04  0.50400001928E-02 0.  1.
       -1   -1    0    0    0  501  0.00000000000E+00  0.00000000000E+00 -0.37228665495E+03  0.37228665499E+03  0.50400001928E-02 0. -1.
    10030    2    1    2    0    0  0.00000000000E+00  0.00000000000E+00  0.11385102616E+04  0.18830835715E+04  0.14999327057E+04 0.  0.
        1    1    3    3  502    0 -0.53245839827E+02 -0.74783007667E+03  0.54528344265E+03  0.92704852941E+03  0.50400001928E-02 0.  1.
       -1    1    3    3    0  502  0.53245839827E+02  0.74783007667E+03  0.59322681894E+03  0.95603504213E+03  0.50400001928E-02 0. -1.
</event>
<event>
 5   0  0.3093600E-05  0.1500087E+04  0.7818609E-02  0.8884395E-01
       -2   -1    0    0    0  501  0.00000000000E+00  0.00000000000E+00  0.84603853726E+03  0.84603853726E+03  0.25500000920E-02 0. -1.
        2   -1    0    0  501    0  0.00000000000E+00  0.00000000000E+00 -0.66494041869E+03  0.66494041869E+03  0.25500000920E-02 0.  1.
    10030    2    1    2    0    0  0.00000000000E+00  0.00000000000E+00  0.18109811857E+03  0.15109789560E+04  0.15000869564E+04 0.  0.
        1    1    3    3  502    0 -0.17707173736E+03  0.41634594600E+03 -0.51201431423E+03  0.68326935020E+03  0.50400001928E-02 0.  1.
       -1    1    3    3    0  502  0.17707173736E+03 -0.41634594600E+03  0.69311243280E+03  0.82770960575E+03  0.50400001928E-02 0. -1.
</event>
<event>
 5   0  0.1588657E-05  0.1499949E+04  0.7818609E-02  0.8884487E-01
       -1   -1    0    0    0  501  0.00000000000E+00  0.00000000000E+00  0.50583262570E+03  0.50583262572E+03  0.50400001928E-02 0.  1.
        1   -1    0    0  501    0  0.00000000000E+00  0.00000000000E+00 -0.11119518329E+04  0.11119518329E+04  0.50400001928E-02 0. -1.
    10030    2    1    2    0    0  0.00000000000E+00  0.00000000000E+00 -0.60611920716E+03  0.16177844586E+04  0.14999486862E+04 0.  0.
        3    1    3    3  502    0 -0.29283454326E+03 -0.67034973074E+03 -0.12471956170E+03  0.74207534018E+03  0.10100000352E+00 0.  1.
       -3    1    3    3    0  502  0.29283454326E+03  0.67034973074E+03 -0.48139964546E+03  0.87570911842E+03  0.10100000352E+00 0. -1.
</event>
<event>
 5   0  0.1533777E-05  0.1500008E+04  0.7818609E-02  0.8884448E-01
        1   -1    0    0  501    0  0.00000000000E+00  0.00000000000E+00  0.95165140206E+03  0.95165140208E+03  0.50400001928E-02 0. -1.
       -1   -1    0    0    0  501  0.00000000000E+00  0.00000000000E+00 -0.59108385052E+03  0.59108385054E+03  0.50400001928E-02 0.  1.
    10030    2    1    2    0    0  0.00000000000E+00  0.00000000000E+00  0.36056755155E+03  0.15427352526E+04  0.15000077001E+04 0.  0.
        5    1    3    3  502    0 -0.62614552335E+03  0.88759115328E+02 -0.23437205748E+03  0.67445440787E+03  0.46999998093E+01 0.  1.
       -5    1    3    3    0  502  0.62614552335E+03 -0.88759115328E+02  0.59493960903E+03  0.86828084475E+03  0.46999998093E+01 0. -1.
</event>
<event>
 5   0  0.1588657E-05  0.1500076E+04  0.7818609E-02  0.8884403E-01
       -1   -1    0    0    0  501  0.00000000000E+00  0.00000000000E+00  0.37411435182E+03  0.37411435186E+03  0.50400001928E-02 0. -1.
        1   -1    0    0  501    0  0.00000000000E+00  0.00000000000E+00 -0.15037025827E+04  0.15037025827E+04  0.50400001928E-02 0.  1.
    10030    2    1    2    0    0  0.00000000000E+00  0.00000000000E+00 -0.11295882308E+04  0.18778169345E+04  0.15000756209E+04 0.  0.
        3    1    3    3  502    0  0.37762809363E+03 -0.59164236002E+03 -0.23380080587E+03  0.73980165335E+03  0.10100000352E+00 0. -1.
       -3    1    3    3    0  502 -0.37762809363E+03  0.59164236002E+03 -0.89578742498E+03  0.11380152812E+04  0.10100000352E+00 0.  1.
</event>
<event>
 5   0  0.3018308E-05  0.1500183E+04  0.7818609E-02  0.8884331E-01
       -2   -1    0    0    0  501  0.00000000000E+00  0.00000000000E+00  0.11678442793E+04  0.11678442793E+04  0.25500000920E-02 0. -1.
        2   -1    0    0  501    0  0.00000000000E+00  0.00000000000E+00 -0.48177448378E+03  0.48177448378E+03  0.25500000920E-02 0.  1.
    10030    2    1    2    0    0  0.00000000000E+00  0.00000000000E+00  0.68606979552E+03  0.16496187631E+04  0.15001834218E+04 0.  0.
        2    1    3    3  502    0 -0.18065792465E+03 -0.54241587846E+03 -0.19091141549E+03  0.60274326169E+03  0.25500000920E-02 0.  1.
       -2    1    3    3    0  502  0.18065792465E+03  0.54241587846E+03  0.87698121101E+03  0.10468755014E+04  0.25500000920E-02 0. -1.
</event>
<event>
 5   0  0.3018308E-05  0.1500637E+04  0.7818609E-02  0.8884029E-01
       -2   -1    0    0    0  501  0.00000000000E+00  0.00000000000E+00  0.31693999158E+03  0.31693999159E+03  0.25500000920E-02 0.  1.
        2   -1    0    0  501    0  0.00000000000E+00  0.00000000000E+00 -0.17762919647E+04  0.17762919647E+04  0.25500000920E-02 0. -1.
    10030    2    1    2    0    0  0.00000000000E+00  0.00000000000E+00 -0.14593519731E+04  0.20932319563E+04  0.15006371451E+04 0.  0.
        2    1    3    3  502    0 -0.53042770272E+03  0.28176782267E+02  0.95271248636E+01  0.53126099517E+03  0.25500000920E-02 0.  1.
       -2    1    3    3    0  502  0.53042770272E+03 -0.28176782267E+02 -0.14688790980E+04  0.15619709611E+04  0.25500000920E-02 0. -1.
</event>
<event>
 5   0  0.3070497E-05  0.1493330E+04  0.7818609E-02  0.8888900E-01
        2   -1    0    0  501    0  0.00000000000E+00  0.00000000000E+00  0.54041829182E+03  0.54041829183E+03  0.25500000920E-02 0.  1.
       -2   -1    0    0    0  501  0.00000000000E+00  0.00000000000E+00 -0.10316244005E+04  0.10316244005E+04  0.25500000920E-02 0. -1.
    10030    2    1    2    0    0  0.00000000000E+00  0.00000000000E+00 -0.49120610866E+03  0.15720426923E+04  0.14933300992E+04 0.  0.
        4    1    3    3  502    0  0.32792641414E+03 -0.97079117630E+01 -0.95168558084E+03  0.10066464296E+04  0.12699999809E+01 0. -1.
       -4    1    3    3    0  502 -0.32792641414E+03  0.97079117630E+01  0.46047947218E+03  0.56539626267E+03  0.12699999809E+01 0.  1.
</event>
<event>
 5   0  0.1116613E-05  0.1500158E+04  0.7818609E-02  0.8884348E-01
       -3   -1    0    0    0  501  0.00000000000E+00  0.00000000000E+00  0.64393970300E+03  0.64393971092E+03  0.10100000352E+00 0. -1.
        3   -1    0    0  501    0  0.00000000000E+00  0.00000000000E+00 -0.87371354227E+03  0.87371354811E+03  0.10100000352E+00 0.  1.
    10030    2    1    2    0    0  0.00000000000E+00  0.00000000000E+00 -0.22977383927E+03  0.15176532590E+04  0.15001584574E+04 0.  0.
        4    1    3    3  502    0  0.70490984336E+02 -0.55827538892E+02  0.63846613178E+03  0.64476841370E+03  0.12699999809E+01 0. -1.
       -4    1    3    3    0  502 -0.70490984336E+02  0.55827538892E+02 -0.86823997105E+03  0.87288484533E+03  0.12699999809E+01 0.  1.
</event>
<event>
 5   0  0.1588657E-05  0.1500103E+04  0.7818609E-02  0.8884384E-01
       -1   -1    0    0    0  501  0.00000000000E+00  0.00000000000E+00  0.13752460834E+04  0.13752460834E+04  0.50400001928E-02 0. -1.
        1   -1    0    0  501    0  0.00000000000E+00  0.00000000000E+00 -0.40907400395E+03  0.40907400398E+03  0.50400001928E-02 0.  1.
    10030    2    1    2    0    0  0.00000000000E+00  0.00000000000E+00  0.96617207943E+03  0.17843200874E+04  0.15001032255E+04 0.  0.
        3    1    3    3  502    0 -0.64430056011E+03 -0.65576245747E+02  0.33043780102E+02  0.64847155479E+03  0.10100000352E+00 0.  1.
       -3    1    3    3    0  502  0.64430056011E+03  0.65576245747E+02  0.93312829933E+03  0.11358485326E+04  0.10100000352E+00 0. -1.
</event>
<event>
 5   0  0.1643498E-05  0.1501532E+04  0.7818609E-02  0.8883435E-01
        1   -1    0    0  501    0  0.00000000000E+00  0.00000000000E+00  0.79930749467E+03  0.79930749469E+03  0.50400001928E-02 0.  1.
       -1   -1    0    0    0  501  0.00000000000E+00  0.00000000000E+00 -0.70517233474E+03  0.70517233476E+03  0.50400001928E-02 0. -1.
    10030    2    1    2    0    0  0.00000000000E+00  0.00000000000E+00  0.94135159932E+02  0.15044798295E+04  0.15015319274E+04 0.  0.
        4    1    3    3  502    0  0.22901421324E+03  0.47254833067E+03  0.58468271667E+03  0.78587844273E+03  0.12699999809E+01 0.  1.
       -4    1    3    3    0  502 -0.22901421324E+03 -0.47254833067E+03 -0.49054755674E+03  0.71860138672E+03  0.12699999809E+01 0. -1.
</event>
<event>
 5   0  0.3030702E-05  0.1504514E+04  0.7818609E-02  0.8881457E-01
        2   -1    0    0  501    0  0.00000000000E+00  0.00000000000E+00  0.90705618277E+03  0.90705618277E+03  0.25500000920E-02 0.  1.
       -2   -1    0    0    0  501  0.00000000000E+00  0.00000000000E+00 -0.62387608610E+03  0.62387608611E+03  0.25500000920E-02 0. -1.
    10030    2    1    2    0    0  0.00000000000E+00  0.00000000000E+00  0.28318009666E+03  0.15309322689E+04  0.15045140892E+04 0.  0.
        5    1    3    3  502    0  0.54500423446E+03  0.50270069400E+03  0.12352136876E+02  0.74156069786E+03  0.46999998093E+01 0. -1.
       -5    1    3    3    0  502 -0.54500423446E+03 -0.50270069400E+03  0.27082795979E+03  0.78937157102E+03  0.46999998093E+01 0.  1.
</event>
<event>
 5   0  0.1533777E-05  0.1508192E+04  0.7818609E-02  0.8879023E-01
        1   -1    0    0  501    0  0.00000000000E+00  0.00000000000E+00  0.88826119079E+03  0.88826119080E+03  0.50400001928E-02 0.  1.
       -1   -1    0    0    0  501  0.00000000000E+00  0.00000000000E+00 -0.64019584913E+03  0.64019584915E+03  0.50400001928E-02 0. -1.
    10030    2    1    2    0    0  0.00000000000E+00  0.00000000000E+00  0.24806534166E+03  0.15284570400E+04  0.15081924643E+04 0.  0.
        5    1    3    3  502    0 -0.95515168578E+01  0.75172367903E+03  0.18363889366E+03  0.77390248375E+03  0.46999998093E+01 0. -1.
       -5    1    3    3    0  502  0.95515168578E+01 -0.75172367903E+03  0.64426447998E+02  0.75455455621E+03  0.46999998093E+01 0.  1.
</event>
<event>
 5   0  0.1580078E-05  0.1500291E+04  0.7818609E-02  0.8884259E-01
        1   -1    0    0  501    0  0.00000000000E+00  0.00000000000E+00  0.24358174460E+04  0.24358174460E+04  0.50400001928E-02 0.  1.
       -1   -1    0    0    0  501  0.00000000000E+00  0.00000000000E+00 -0.23101825924E+03  0.23101825929E+03  0.50400001928E-02 0. -1.
    10030    2    1    2    0    0  0.00000000000E+00  0.00000000000E+00  0.22047991867E+04  0.26668357053E+04  0.15002910468E+04 0.  0.
        2    1    3    3  502    0 -0.11938700268E+03 -0.47463409273E+03  0.21129268680E+04  0.21688685363E+04  0.25500000920E-02 0.  1.
       -2    1    3    3    0  502  0.11938700268E+03  0.47463409273E+03  0.91872318741E+02  0.49796716894E+03  0.25500000920E-02 0. -1.
</event>
<event>
 5   0  0.3030702E-05  0.1494992E+04  0.7818609E-02  0.8887790E-01
       -2   -1    0    0    0  501  0.00000000000E+00  0.00000000000E+00  0.17253800461E+04  0.17253800461E+04  0.25500000920E-02 0.  1.
        2   -1    0    0  501    0  0.00000000000E+00  0.00000000000E+00 -0.32384206097E+03  0.32384206098E+03  0.25500000920E-02 0. -1.
    10030    2    1    2    0    0  0.00000000000E+00  0.00000000000E+00  0.14015379851E+04  0.20492221071E+04  0.14949924817E+04 0.  0.
        5    1    3    3  502    0  0.31425246485E+03 -0.12892308342E+03  0.16134620257E+04  0.16488352166E+04  0.46999998093E+01 0.  1.
       -5    1    3    3    0  502 -0.31425246485E+03  0.12892308342E+03 -0.21192404057E+03  0.40038689049E+03  0.46999998093E+01 0. -1.
</event>
<event>
 5   0  0.1588657E-05  0.1499809E+04  0.7818609E-02  0.8884580E-01
        1   -1    0    0  501    0  0.00000000000E+00  0.00000000000E+00  0.11667012968E+04  0.11667012968E+04  0.50400001928E-02 0.  1.
       -1   -1    0    0    0  501  0.00000000000E+00  0.00000000000E+00 -0.48200554097E+03  0.48200554100E+03  0.50400001928E-02 0. -1.
    10030    2    1    2    0    0  0.00000000000E+00  0.00000000000E+00  0.68469575584E+03  0.16487068378E+04  0.14998086408E+04 0.  0.
        3    1    3    3  502    0  0.16909547548E+03  0.30863527563E+01 -0.46076765675E+03  0.49082547724E+03  0.10100000352E+00 0. -1.
       -3    1    3    3    0  502 -0.16909547548E+03 -0.30863527563E+01  0.11454634126E+04  0.11578813606E+04  0.10100000352E+00 0.  1.
</event>
<event>
 5   0  0.1588657E-05  0.1498948E+04  0.7818609E-02  0.8885153E-01
        1   -1    0    0  501    0  0.00000000000E+00  0.00000000000E+00  0.70934414168E+03  0.70934414170E+03  0.50400001928E-02 0.  1.
       -1   -1    0    0    0  501  0.00000000000E+00  0.00000000000E+00 -0.79187452327E+03  0.79187452328E+03  0.50400001928E-02 0. -1.
    10030    2    1    2    0    0  0.00000000000E+00  0.00000000000E+00 -0.82530381585E+02  0.15012186650E+04  0.14989483701E+04 0.  0.
        3    1    3    3  502    0  0.55831212822E+03  0.43293109962E+03 -0.29178355974E+03  0.76438172759E+03  0.10100000352E+00 0.  1.
       -3    1    3    3    0  502 -0.55831212822E+03 -0.43293109962E+03  0.20925317815E+03  0.73683693739E+03  0.10100000352E+00 0. -1.
</event>
<event>
 5   0  0.1588657E-05  0.1500480E+04  0.7818609E-02  0.8884134E-01
       -1   -1    0    0    0  501  0.00000000000E+00  0.00000000000E+00  0.12492472900E+04  0.12492472900E+04  0.50400001928E-02 0.  1.
        1   -1    0    0  501    0  0.00000000000E+00  0.00000000000E+00 -0.45055960057E+03  0.45055960060E+03  0.50400001928E-02 0. -1.
    10030    2    1    2    0    0  0.00000000000E+00  0.00000000000E+00  0.79868768943E+03  0.16998068906E+04  0.15004804031E+04 0.  0.
        3    1    3    3  502    0  0.64840338098E+03  0.78140507467E+02  0.81761791213E+03  0.10464377401E+04  0.10100000352E+00 0.  1.
       -3    1    3    3    0  502 -0.64840338098E+03 -0.78140507467E+02 -0.18930222695E+02  0.65336915057E+03  0.10100000352E+00 0. -1.
</event>
<event>
 5   0  0.1116613E-05  0.1500678E+04  0.7818609E-02  0.8884002E-01
        4   -1    0    0  501    0  0.00000000000E+00  0.00000000000E+00  0.90452072262E+03  0.90452161419E+03  0.12699999809E+01 0.  1.
       -4   -1    0    0    0  501  0.00000000000E+00  0.00000000000E+00 -0.62243665024E+03  0.62243794588E+03  0.12699999809E+01 0. -1.
    10030    2    1    2    0    0  0.00000000000E+00  0.00000000000E+00  0.28208407237E+03  0.15269595601E+04  0.15006778716E+04 0.  0.
        5    1    3    3  502    0 -0.17211336073E+03 -0.24477049021E+03 -0.55908604402E+03  0.63414106982E+03  0.46999998093E+01 0. -1.
       -5    1    3    3    0  502  0.17211336073E+03  0.24477049021E+03  0.84117011639E+03  0.89281849025E+03  0.46999998093E+01 0.  1.
</event>
<event>
 5   0  0.1643498E-05  0.1499624E+04  0.7818609E-02  0.8884703E-01
        1   -1    0    0  501    0  0.00000000000E+00  0.00000000000E+00  0.11885754359E+04  0.11885754359E+04  0.50400001928E-02 0.  1.
       -1   -1    0    0    0  501  0.00000000000E+00  0.00000000000E+00 -0.47301868901E+03  0.47301868904E+03  0.50400001928E-02 0. -1.
    10030    2    1    2    0    0  0.00000000000E+00  0.00000000000E+00  0.71555674689E+03  0.16615941250E+04  0.14996244790E+04 0.  0.
        4    1    3    3  502    0  0.26588100547E+03 -0.68071526797E+03  0.54368196089E+03  0.91085546198E+03  0.12699999809E+01 0.  1.
       -4    1    3    3    0  502 -0.26588100547E+03  0.68071526797E+03  0.17187478601E+03  0.75073866298E+03  0.12699999809E+01 0. -1.
</event>
<event>
 5   0  0.1643498E-05  0.1500031E+04  0.7818609E-02  0.8884433E-01
       -1   -1    0    0    0  501  0.00000000000E+00  0.00000000000E+00  0.91884952999E+03  0.91884953001E+03  0.50400001928E-02 0. -1.
        1   -1    0    0  501    0  0.00000000000E+00  0.00000000000E+00 -0.61220359978E+03  0.61220359980E+03  0.50400001928E-02 0.  1.
    10030    2    1    2    0    0  0.00000000000E+00  0.00000000000E+00  0.30664593021E+03  0.15310531298E+04  0.15000306529E+04 0.  0.
        4    1    3    3  502    0  0.73948708642E+03 -0.72641928242E+02  0.49216600300E+02  0.74467569274E+03  0.12699999809E+01 0. -1.
       -4    1    3    3    0  502 -0.73948708642E+03  0.72641928242E+02  0.25742932992E+03  0.78637743706E+03  0.12699999809E+01 0.  1.
</event>
<event>
 5   0  0.2969498E-05  0.1499340E+04  0.7818609E-02  0.8884892E-01
       -2   -1    0    0    0  501  0.00000000000E+00  0.00000000000E+00  0.37874468078E+03  0.37874468079E+03  0.25500000920E-02 0.  1.
        2   -1    0    0  501    0  0.00000000000E+00  0.00000000000E+00 -0.14838621340E+04  0.14838621340E+04  0.25500000920E-02 0. -1.
    10030    2    1    2    0    0  0.00000000000E+00  0.00000000000E+00 -0.11051174532E+04  0.18626068148E+04  0.14993397083E+04 0.  0.
        3    1    3    3  502    0  0.57307418099E+03  0.43855465505E+03 -0.80490059998E+03  0.10810222886E+04  0.10100000352E+00 0.  1.
       -3    1    3    3    0  502 -0.57307418099E+03 -0.43855465505E+03 -0.30021685321E+03  0.78158452616E+03  0.10100000352E+00 0. -1.
</event>
<event>
 5   0  0.3070497E-05  0.1498249E+04  0.7818609E-02  0.8885618E-01
       -2   -1    0    0    0  501  0.00000000000E+00  0.00000000000E+00  0.55799989131E+03  0.55799989132E+03  0.25500000920E-02 0. -1.
        2   -1    0    0  501    0  0.00000000000E+00  0.00000000000E+00 -0.10057130583E+04  0.10057130583E+04  0.25500000920E-02 0.  1.
    10030    2    1    2    0    0  0.00000000000E+00  0.00000000000E+00 -0.44771316697E+03  0.15637129496E+04  0.14982493480E+04 0.  0.
        4    1    3    3  502    0 -0.70927305765E+03  0.22029737367E+03 -0.32604776470E+03  0.81111525749E+03  0.12699999809E+01 0. -1.
       -4    1    3    3    0  502  0.70927305765E+03 -0.22029737367E+03 -0.12166540227E+03  0.75259769211E+03  0.12699999809E+01 0.  1.
</event>
<event>
 5   0  0.3070497E-05  0.1500313E+04  0.7818609E-02  0.8884245E-01
       -2   -1    0    0    0  501  0.00000000000E+00  0.00000000000E+00  0.42948961269E+03  0.42948961270E+03  0.25500000920E-02 0. -1.
        2   -1    0    0  501    0  0.00000000000E+00  0.00000000000E+00 -0.13102402961E+04  0.13102402961E+04  0.25500000920E-02 0.  1.
    10030    2    1    2    0    0  0.00000000000E+00  0.00000000000E+00 -0.88075068344E+03  0.17397299088E+04  0.15003127638E+04 0.  0.
        4    1    3    3  502    0  0.34774154279E+03  0.60338422984E+03 -0.76367994548E+03  0.10335402176E+04  0.12699999809E+01 0.  1.
       -4    1    3    3    0  502 -0.34774154279E+03 -0.60338422984E+03 -0.11707073796E+03  0.70618969122E+03  0.12699999809E+01 0. -1.
</event>
<event>
 5   0  0.1533777E-05  0.1499988E+04  0.7818609E-02  0.8884461E-01
       -1   -1    0    0    0  501  0.00000000000E+00  0.00000000000E+00  0.98440460135E+03  0.98440460136E+03  0.50400001928E-02 0. -1.
        1   -1    0    0  501    0  0.00000000000E+00  0.00000000000E+00 -0.57140188416E+03  0.57140188418E+03  0.50400001928E-02 0.  1.
    10030    2    1    2    0    0  0.00000000000E+00  0.00000000000E+00  0.41300271719E+03  0.15558064855E+04  0.14999875253E+04 0.  0.
        5    1    3    3  502    0 -0.25634683565E+03 -0.69892990887E+03  0.30072138764E+03  0.80291479040E+03  0.46999998093E+01 0. -1.
       -5    1    3    3    0  502  0.25634683565E+03  0.69892990887E+03  0.11228132955E+03  0.75289169515E+03  0.46999998093E+01 0.  1.
</event>
<event>
 5   0  0.1588657E-05  0.1499598E+04  0.7818609E-02  0.8884720E-01
       -1   -1    0    0    0  501  0.00000000000E+00  0.00000000000E+00  0.46928023972E+03  0.46928023974E+03  0.50400001928E-02 0. -1.
        1   -1    0    0  501    0  0.00000000000E+00  0.00000000000E+00 -0.11980018551E+04  0.11980018551E+04  0.50400001928E-02 0.  1.
    10030    2    1    2    0    0  0.00000000000E+00  0.00000000000E+00 -0.72872161538E+03  0.16672820949E+04  0.14995980765E+04 0.  0.
        3    1    3    3  502    0  0.55074748720E+03  0.78350374591E+02  0.19458362488E+03  0.58934232253E+03  0.10100000352E+00 0. -1.
       -3    1    3    3    0  502 -0.55074748720E+03 -0.78350374591E+02 -0.92330524026E+03  0.10779397723E+04  0.10100000352E+00 0.  1.
</event>
<event>
 5   0  0.3070497E-05  0.1500556E+04  0.7818609E-02  0.8884083E-01
       -2   -1    0    0    0  501  0.00000000000E+00  0.00000000000E+00  0.32304529232E+03  0.32304529233E+03  0.25500000920E-02 0. -1.
        2   -1    0    0  501    0  0.00000000000E+00  0.00000000000E+00 -0.17425328890E+04  0.17425328890E+04  0.25500000920E-02 0.  1.
    10030    2    1    2    0    0  0.00000000000E+00  0.00000000000E+00 -0.14194875967E+04  0.20655781813E+04  0.15005559590E+04 0.  0.
        4    1    3    3  502    0 -0.26300940805E+03  0.61506911901E+03 -0.11774267544E+04  0.13541858605E+04  0.12699999809E+01 0.  1.
       -4    1    3    3    0  502  0.26300940805E+03 -0.61506911901E+03 -0.24206084226E+03  0.71139232083E+03  0.12699999809E+01 0. -1.
</event>
<event>
 5   0  0.3030702E-05  0.1500509E+04  0.7818609E-02  0.8884115E-01
        2   -1    0    0  501    0  0.00000000000E+00  0.00000000000E+00  0.12777545445E+04  0.12777545445E+04  0.25500000920E-02 0. -1.
       -2   -1    0    0    0  501  0.00000000000E+00  0.00000000000E+00 -0.44052417826E+03  0.44052417826E+03  0.25500000920E-02 0.  1.
    10030    2    1    2    0    0  0.00000000000E+00  0.00000000000E+00  0.83723036624E+03  0.17182787228E+04  0.15005089413E+04 0.  0.
        5    1    3    3  502    0 -0.74730655613E+03 -0.53708642550E+02  0.46308362345E+03  0.88080658457E+03  0.46999998093E+01 0. -1.
       -5    1    3    3    0  502  0.74730655613E+03  0.53708642550E+02  0.37414674279E+03  0.83747213820E+03  0.46999998093E+01 0.  1.
</event>
<event>
 5   0  0.1533777E-05  0.1500319E+04  0.7818609E-02  0.8884241E-01
       -1   -1    0    0    0  501  0.00000000000E+00  0.00000000000E+00  0.36131856283E+03  0.36131856286E+03  0.50400001928E-02 0.  1.
        1   -1    0    0  501    0  0.00000000000E+00  0.00000000000E+00 -0.15574597928E+04  0.15574597928E+04  0.50400001928E-02 0. -1.
    10030    2    1    2    0    0  0.00000000000E+00  0.00000000000E+00 -0.11961412300E+04  0.19187783557E+04  0.15003188115E+04 0.  0.
        5    1    3    3  502    0 -0.32632983022E+03 -0.39930808592E+03 -0.12947898405E+04  0.13937147939E+04  0.46999998093E+01 0. -1.
       -5    1    3    3    0  502  0.32632983022E+03  0.39930808592E+03  0.98648610540E+02  0.52506356180E+03  0.46999998093E+01 0.  1.
</event>
<event>
 5   0  0.1588657E-05  0.1499919E+04  0.7818609E-02  0.8884507E-01
        1   -1    0    0  501    0  0.00000000000E+00  0.00000000000E+00  0.60219081023E+03  0.60219081025E+03  0.50400001928E-02 0.  1.
       -1   -1    0    0    0  501  0.00000000000E+00  0.00000000000E+00 -0.93398845198E+03  0.93398845200E+03  0.50400001928E-02 0. -1.
    10030    2    1    2    0    0  0.00000000000E+00  0.00000000000E+00 -0.33179764175E+03  0.15361792622E+04  0.14999190147E+04 0.  0.
        3    1    3    3  502    0  0.16335535732E+03  0.68149257922E+03  0.10761941251E+03  0.70901273363E+03  0.10100000352E+00 0.  1.
       -3    1    3    3    0  502 -0.16335535732E+03 -0.68149257922E+03 -0.43941705426E+03  0.82716652862E+03  0.10100000352E+00 0. -1.
</event>
<event>
 5   0  0.3018308E-05  0.1499628E+04  0.7818609E-02  0.8884700E-01
       -2   -1    0    0    0  501  0.00000000000E+00  0.00000000000E+00  0.75908216323E+03  0.75908216324E+03  0.25500000920E-02 0.  1.
        2   -1    0    0  501    0  0.00000000000E+00  0.00000000000E+00 -0.74065917252E+03  0.74065917253E+03  0.25500000920E-02 0. -1.
    10030    2    1    2    0    0  0.00000000000E+00  0.00000000000E+00  0.18422990709E+02  0.14997413358E+04  0.14996281765E+04 0.  0.
        2    1    3    3  502    0 -0.31706472292E+03  0.40955526220E+03 -0.53300615468E+03  0.74321000548E+03  0.25500000920E-02 0. -1.
       -2    1    3    3    0  502  0.31706472292E+03 -0.40955526220E+03  0.55142914539E+03  0.75653133029E+03  0.25500000920E-02 0.  1.
</event>
<event>
 5   0  0.3030702E-05  0.1499997E+04  0.7818609E-02  0.8884455E-01
        2   -1    0    0  501    0  0.00000000000E+00  0.00000000000E+00  0.15829438487E+04  0.15829438487E+04  0.25500000920E-02 0.  1.
       -2   -1    0    0    0  501  0.00000000000E+00  0.00000000000E+00 -0.35534932796E+03  0.35534932797E+03  0.25500000920E-02 0. -1.
    10030    2    1    2    0    0  0.00000000000E+00  0.00000000000E+00  0.12275945207E+04  0.19382931767E+04  0.14999973771E+04 0.  0.
        5    1    3    3  502    0  0.29385258613E+03  0.40242043279E+03  0.13381019099E+04  0.14278761705E+04  0.46999998093E+01 0.  1.
       -5    1    3    3    0  502 -0.29385258613E+03 -0.40242043279E+03 -0.11050738916E+03  0.51041700614E+03  0.46999998093E+01 0. -1.
</event>
<event>
 5   0  0.3093600E-05  0.1500168E+04  0.7818609E-02  0.8884341E-01
       -2   -1    0    0    0  501  0.00000000000E+00  0.00000000000E+00  0.10055065064E+04  0.10055065064E+04  0.25500000920E-02 0.  1.
        2   -1    0    0  501    0  0.00000000000E+00  0.00000000000E+00 -0.55954480870E+03  0.55954480871E+03  0.25500000920E-02 0. -1.
    10030    2    1    2    0    0  0.00000000000E+00  0.00000000000E+00  0.44596169770E+03  0.15650513151E+04  0.15001679183E+04 0.  0.
        1    1    3    3  502    0 -0.39758276451E+03  0.45511252711E+03 -0.24056362501E+03  0.65043856333E+03  0.50400001928E-02 0. -1.
       -1    1    3    3    0  502  0.39758276451E+03 -0.45511252711E+03  0.68652532271E+03  0.91461275177E+03  0.50400001928E-02 0.  1.
</event>
<event>
 5   0  0.3070497E-05  0.1499893E+04  0.7818609E-02  0.8884524E-01
       -2   -1    0    0    0  501  0.00000000000E+00  0.00000000000E+00  0.44308799791E+03  0.44308799792E+03  0.25500000920E-02 0.  1.
        2   -1    0    0  501    0  0.00000000000E+00  0.00000000000E+00 -0.12693180059E+04  0.12693180059E+04  0.25500000920E-02 0. -1.
    10030    2    1    2    0    0  0.00000000000E+00  0.00000000000E+00 -0.82623000801E+03  0.17124060038E+04  0.14998927615E+04 0.  0.
        4    1    3    3  502    0  0.74714712169E+03  0.18553716173E+02 -0.34232221648E+03  0.82204572539E+03  0.12699999809E+01 0. -1.
       -4    1    3    3    0  502 -0.74714712169E+03 -0.18553716173E+02 -0.48390779153E+03  0.89036027845E+03  0.12699999809E+01 0.  1.
</event>
<event>
 5   0  0.3030702E-05  0.1500166E+04  0.7818609E-02  0.8884343E-01
       -2   -1    0    0    0  501  0.00000000000E+00  0.00000000000E+00  0.79756140441E+03  0.79756140442E+03  0.25500000920E-02 0.  1.
        2   -1    0    0  501    0  0.00000000000E+00  0.00000000000E+00 -0.70543090679E+03  0.70543090679E+03  0.25500000920E-02 0. -1.
    10030    2    1    2    0    0  0.00000000000E+00  0.00000000000E+00  0.92130497628E+02  0.15029923112E+04  0.15001659438E+04 0.  0.
        5    1    3    3  502    0  0.71187139171E+03  0.20117816784E+03  0.17026994543E+03  0.75910966129E+03  0.46999998093E+01 0.  1.
       -5    1    3    3    0  502 -0.71187139171E+03 -0.20117816784E+03 -0.78139447802E+02  0.74388264992E+03  0.46999998093E+01 0. -1.
</event>
<event>
 5   0  0.2969498E-05  0.1500041E+04  0.7818609E-02  0.8884426E-01
       -2   -1    0    0    0  501  0.00000000000E+00  0.00000000000E+00  0.33607965482E+03  0.33607965483E+03  0.25500000920E-02 0. -1.
        2   -1    0    0  501    0  0.00000000000E+00  0.00000000000E+00 -0.16738011452E+04  0.16738011452E+04  0.25500000920E-02 0.  1.
    10030    2    1    2    0    0  0.00000000000E+00  0.00000000000E+00 -0.13377214904E+04  0.20098808000E+04  0.15000406809E+04 0.  0.
        3    1    3    3  502    0  0.22672806036E+02 -0.73475662000E+03 -0.46945124855E+03  0.87221891273E+03  0.10100000352E+00 0. -1.
       -3    1    3    3    0  502 -0.22672806036E+02  0.73475662000E+03 -0.86827024180E+03  0.11376618873E+04  0.10100000352E+00 0.  1.
</event>
<event>
 5   0  0.1643498E-05  0.1502067E+04  0.7818609E-02  0.8883080E-01
        1   -1    0    0  501    0  0.00000000000E+00  0.00000000000E+00  0.89201607631E+03  0.89201607632E+03  0.50400001928E-02 0. -1.
       -1   -1    0    0    0  501  0.00000000000E+00  0.00000000000E+00 -0.63233310369E+03  0.63233310371E+03  0.50400001928E-02 0.  1.
    10030    2    1    2    0    0  0.00000000000E+00  0.00000000000E+00  0.25968297262E+03  0.15243491800E+04  0.15020669680E+04 0.  0.
        4    1    3    3  502    0 -0.43693419851E+03 -0.26760491299E+03  0.68710088698E+03  0.85710741747E+03  0.12699999809E+01 0. -1.
       -4    1    3    3    0  502  0.43693419851E+03  0.26760491299E+03 -0.42741791436E+03  0.66724176256E+03  0.12699999809E+01 0.  1.
</event>
<event>
 5   0  0.3030702E-05  0.1500104E+04  0.7818609E-02  0.8884383E-01
       -2   -1    0    0    0  501  0.00000000000E+00  0.00000000000E+00  0.35109698755E+03  0.35109698756E+03  0.25500000920E-02 0.  1.
        2   -1    0    0  501    0  0.00000000000E+00  0.00000000000E+00 -0.16023445250E+04  0.16023445250E+04  0.25500000920E-02 0. -1.
    10030    2    1    2    0    0  0.00000000000E+00  0.00000000000E+00 -0.12512475374E+04  0.19534415126E+04  0.15001044440E+04 0.  0.
        5    1    3    3  502    0 -0.13296161605E+03  0.45322605654E+03  0.13308572567E+03  0.49074081759E+03  0.46999998093E+01 0.  1.
       -5    1    3    3    0  502  0.13296161605E+03 -0.45322605654E+03 -0.13843332631E+04  0.14627006950E+04  0.46999998093E+01 0. -1.
</event>
<event>
 5   0  0.1533777E-05  0.1499704E+04  0.7818609E-02  0.8884650E-01
        1   -1    0    0  501    0  0.00000000000E+00  0.00000000000E+00  0.18415830777E+04  0.18415830777E+04  0.50400001928E-02 0.  1.
       -1   -1    0    0    0  501  0.00000000000E+00  0.00000000000E+00 -0.30532308782E+03  0.30532308786E+03  0.50400001928E-02 0. -1.
    10030    2    1    2    0    0  0.00000000000E+00  0.00000000000E+00  0.15362599899E+04  0.21469061656E+04  0.14997037465E+04 0.  0.
        5    1    3    3  502    0  0.54614830192E+02 -0.11017539764E+03 -0.29076909503E+03  0.31573747726E+03  0.46999998093E+01 0. -1.
       -5    1    3    3    0  502 -0.54614830192E+02  0.11017539764E+03  0.18270290849E+04  0.18311686883E+04  0.46999998093E+01 0.  1.
</event>
<event>
 5   0  0.1533777E-05  0.1499384E+04  0.7818609E-02  0.8884862E-01
        1   -1    0    0  501    0  0.00000000000E+00  0.00000000000E+00  0.97401833820E+03  0.97401833821E+03  0.50400001928E-02 0.  1.
       -1   -1    0    0    0  501  0.00000000000E+00  0.00000000000E+00 -0.57703066778E+03  0.57703066780E+03  0.50400001928E-02 0. -1.
    10030    2    1    2    0    0  0.00000000000E+00  0.00000000000E+00  0.39698767041E+03  0.15510490060E+04  0.14993844766E+04 0.  0.
        5    1    3    3  502    0  0.46763583400E+03 -0.54164696714E+03  0.42969362612E+03  0.83469959421E+03  0.46999998093E+01 0.  1.
       -5    1    3    3    0  502 -0.46763583400E+03  0.54164696714E+03 -0.32705955704E+02  0.71634941180E+03  0.46999998093E+01 0. -1.
</event>
<event>
 5   0  0.1533777E-05  0.1499979E+04  0.7818609E-02  0.8884467E-01
       -1   -1    0    0    0  501  0.00000000000E+00  0.00000000000E+00  0.87139659582E+03  0.87139659583E+03  0.50400001928E-02 0.  1.
        1   -1    0    0  501    0  0.00000000000E+00  0.00000000000E+00 -0.64549770862E+03  0.64549770864E+03  0.50400001928E-02 0. -1.
    10030    2    1    2    0    0  0.00000000000E+00  0.00000000000E+00  0.22589888720E+03  0.15168943045E+04  0.14999793411E+04 0.  0.
        5    1    3    3  502    0 -0.31481973894E+03  0.68069886679E+03  0.11297528595E+03  0.75845100073E+03  0.46999998093E+01 0.  1.
       -5    1    3    3    0  502  0.31481973894E+03 -0.68069886679E+03  0.11292360124E+03  0.75844330374E+03  0.46999998093E+01 0. -1.
</event>
<event>
 5   0  0.1576214E-05  0.1500530E+04  0.7818609E-02  0.8884100E-01
        1   -1    0    0  501    0  0.00000000000E+00  0.00000000000E+00  0.12375756742E+04  0.12375756742E+04  0.50400001928E-02 0. -1.
       -1   -1    0    0    0  501  0.00000000000E+00  0.00000000000E+00 -0.45483910159E+03  0.45483910162E+03  0.50400001928E-02 0.  1.
    10030    2    1    2    0    0  0.00000000000E+00  0.00000000000E+00  0.78273657265E+03  0.16924147759E+04  0.15005303167E+04 0.  0.
        1    1    3    3  502    0 -0.54544102236E+03 -0.48720564114E+03  0.58017435738E+03  0.93352960886E+03  0.50400001928E-02 0. -1.
       -1    1    3    3    0  502  0.54544102236E+03  0.48720564114E+03  0.20256221527E+03  0.75888516701E+03  0.50400001928E-02 0.  1.
</event>
<event>
 5   0  0.2969498E-05  0.1499894E+04  0.7818609E-02  0.8884523E-01
       -2   -1    0    0    0  501  0.00000000000E+00  0.00000000000E+00  0.67337837630E+03  0.67337837631E+03  0.25500000920E-02 0. -1.
        2   -1    0    0  501    0  0.00000000000E+00  0.00000000000E+00 -0.83522196797E+03  0.83522196797E+03  0.25500000920E-02 0.  1.
    10030    2    1    2    0    0  0.00000000000E+00  0.00000000000E+00 -0.16184359167E+03  0.15086003443E+04  0.14998938798E+04 0.  0.
        3    1    3    3  502    0 -0.52197381538E+03 -0.17679435473E+03  0.43066364281E+03  0.69941696523E+03  0.10100000352E+00 0. -1.
       -3    1    3    3    0  502  0.52197381538E+03  0.17679435473E+03 -0.59250723448E+03  0.80918337904E+03  0.10100000352E+00 0.  1.
</event>
<event>
 5   0  0.1116613E-05  0.1500083E+04  0.7818609E-02  0.8884397E-01
        4   -1    0    0  501    0  0.00000000000E+00  0.00000000000E+00  0.16454843994E+04  0.16454848895E+04  0.12699999809E+01 0. -1.
       -4   -1    0    0    0  501  0.00000000000E+00  0.00000000000E+00 -0.34188091462E+03  0.34188327348E+03  0.12699999809E+01 0.  1.
    10030    2    1    2    0    0  0.00000000000E+00  0.00000000000E+00  0.13036034847E+04  0.19873681629E+04  0.15000833876E+04 0.  0.
        3    1    3    3  502    0  0.44275832482E+03 -0.60437048403E+03  0.60470161965E+03  0.96278900865E+03  0.10100000352E+00 0. -1.
       -3    1    3    3    0  502 -0.44275832482E+03  0.60437048403E+03  0.69890186509E+03  0.10245791543E+04  0.10100000352E+00 0.  1.
</event>
<event>
 5   0  0.1643498E-05  0.1499683E+04  0.7818609E-02  0.8884663E-01
       -1   -1    0    0    0  501  0.00000000000E+00  0.00000000000E+00  0.62304094348E+03  0.62304094351E+03  0.50400001928E-02 0.  1.
        1   -1    0    0  501    0  0.00000000000E+00  0.00000000000E+00 -0.90244885837E+03  0.90244885838E+03  0.50400001928E-02 0. -1.
    10030    2    1    2    0    0  0.00000000000E+00  0.00000000000E+00 -0.27940791488E+03  0.15254898019E+04  0.14996834175E+04 0.  0.
        4    1    3    3  502    0  0.21569926477E+03  0.65552757535E+02 -0.86715883868E+03  0.89598515682E+03  0.12699999809E+01 0. -1.
       -4    1    3    3    0  502 -0.21569926477E+03 -0.65552757535E+02  0.58775092379E+03  0.62950464507E+03  0.12699999809E+01 0.  1.
</event>
<event>
 5   0  0.3018308E-05  0.1500216E+04  0.7818609E-02  0.8884309E-01
        2   -1    0    0  501    0  0.00000000000E+00  0.00000000000E+00  0.99710667387E+03  0.99710667387E+03  0.25500000920E-02 0.  1.
       -2   -1    0    0    0  501  0.00000000000E+00  0.00000000000E+00 -0.56429449297E+03  0.56429449297E+03  0.25500000920E-02 0. -1.
    10030    2    1    2    0    0  0.00000000000E+00  0.00000000000E+00  0.43281218090E+03  0.15614011668E+04  0.15002157244E+04 0.  0.
        2    1    3    3  502    0  0.12943535643E+03 -0.45787342068E+03 -0.38712345477E+03  0.61340537175E+03  0.25500000920E-02 0. -1.
       -2    1    3    3    0  502 -0.12943535643E+03  0.45787342068E+03  0.81993563567E+03  0.94799579509E+03  0.25500000920E-02 0.  1.
</event>
<event>
 5   0  0.3018308E-05  0.1500789E+04  0.7818609E-02  0.8883928E-01
       -2   -1    0    0    0  501  0.00000000000E+00  0.00000000000E+00  0.76557408049E+03  0.76557408049E+03  0.25500000920E-02 0.  1.
        2   -1    0    0  501    0  0.00000000000E+00  0.00000000000E+00 -0.73551624032E+03  0.73551624033E+03  0.25500000920E-02 0. -1.
    10030    2    1    2    0    0  0.00000000000E+00  0.00000000000E+00  0.30057840164E+02  0.15010903208E+04  0.15007893515E+04 0.  0.
        2    1    3    3  502    0 -0.44783396150E+03  0.94858543726E+01  0.61718530854E+03  0.76260274297E+03  0.25500000920E-02 0.  1.
       -2    1    3    3    0  502  0.44783396150E+03 -0.94858543726E+01 -0.58712746838E+03  0.73848757785E+03  0.25500000920E-02 0. -1.
</event>
<event>
 5   0  0.1576214E-05  0.1504965E+04  0.7818609E-02  0.8881158E-01
       -1   -1    0    0    0  501  0.00000000000E+00  0.00000000000E+00  0.28480092708E+03  0.28480092712E+03  0.50400001928E-02 0. -1.
        1   -1    0    0  501    0  0.00000000000E+00  0.00000000000E+00 -0.19881613203E+04  0.19881613203E+04  0.50400001928E-02 0.  1.
    10030    2    1    2    0    0  0.00000000000E+00  0.00000000000E+00 -0.17033603932E+04  0.22729622474E+04  0.15049653647E+04 0.  0.
        1    1    3    3  502    0  0.77987071986E+02  0.66546522403E+03 -0.33440390804E+03  0.74883370753E+03  0.50400001928E-02 0. -1.
       -1    1    3    3    0  502 -0.77987071986E+02 -0.66546522403E+03 -0.13689564851E+04  0.15241285399E+04  0.50400001928E-02 0.  1.
</event>
<event>
 5   0  0.3030702E-05  0.1498616E+04  0.7818609E-02  0.8885374E-01
        2   -1    0    0  501    0  0.00000000000E+00  0.00000000000E+00  0.11002915677E+04  0.11002915677E+04  0.25500000920E-02 0. -1.
       -2   -1    0    0    0  501  0.00000000000E+00  0.00000000000E+00 -0.51028498058E+03  0.51028498059E+03  0.25500000920E-02 0.  1.
    10030    2    1    2    0    0  0.00000000000E+00  0.00000000000E+00  0.59000658715E+03  0.16105765483E+04  0.14986157096E+04 0.  0.
        5    1    3    3  502    0  0.13318804647E+03  0.32799978470E+03 -0.41472599213E+03  0.54529134692E+03  0.46999998093E+01 0.  1.
       -5    1    3    3    0  502 -0.13318804647E+03 -0.32799978470E+03  0.10047325793E+04  0.10652852014E+04  0.46999998093E+01 0. -1.
</event>
<event>
 5   0  0.1588657E-05  0.1499951E+04  0.7818609E-02  0.8884485E-01
        1   -1    0    0  501    0  0.00000000000E+00  0.00000000000E+00  0.13007548898E+04  0.13007548898E+04  0.50400001928E-02 0.  1.
       -1   -1    0    0    0  501  0.00000000000E+00  0.00000000000E+00 -0.43241306162E+03  0.43241306164E+03  0.50400001928E-02 0. -1.
    10030    2    1    2    0    0  0.00000000000E+00  0.00000000000E+00  0.86834182820E+03  0.17331679515E+04  0.14999512050E+04 0.  0.
        3    1    3    3  502    0 -0.36127385442E+03  0.26912948368E+03 -0.25865061087E+03  0.51947052427E+03  0.10100000352E+00 0. -1.
       -3    1    3    3    0  502  0.36127385442E+03 -0.26912948368E+03  0.11269924391E+04  0.12136974272E+04  0.10100000352E+00 0.  1.
</event>
<event>
 5   0  0.3070497E-05  0.1505131E+04  0.7818609E-02  0.8881048E-01
        2   -1    0    0  501    0  0.00000000000E+00  0.00000000000E+00  0.62473131719E+03  0.62473131719E+03  0.25500000920E-02 0.  1.
       -2   -1    0    0    0  501  0.00000000000E+00  0.00000000000E+00 -0.90655737987E+03  0.90655737987E+03  0.25500000920E-02 0. -1.
    10030    2    1    2    0    0  0.00000000000E+00  0.00000000000E+00 -0.28182606268E+03  0.15312886971E+04  0.15051309392E+04 0.  0.
        4    1    3    3  502    0  0.47437830746E+03  0.27713067284E+02 -0.73462182112E+03  0.87491349610E+03  0.12699999809E+01 0.  1.
       -4    1    3    3    0  502 -0.47437830746E+03 -0.27713067284E+02  0.45279575844E+03  0.65637520097E+03  0.12699999809E+01 0. -1.
</event>
<event>
 5   0  0.1116613E-05  0.1499911E+04  0.7818609E-02  0.8884512E-01
       -3   -1    0    0    0  501  0.00000000000E+00  0.00000000000E+00  0.51487778489E+03  0.51487779480E+03  0.10100000352E+00 0. -1.
        3   -1    0    0  501    0  0.00000000000E+00  0.00000000000E+00 -0.10923627497E+04  0.10923627544E+04  0.10100000352E+00 0.  1.
    10030    2    1    2    0    0  0.00000000000E+00  0.00000000000E+00 -0.57748496481E+03  0.16072405492E+04  0.14999110968E+04 0.  0.
        3    1    3    3  502    0 -0.59721019985E+03  0.10471364450E+03  0.18421177593E+03  0.63368679862E+03  0.10100000352E+00 0. -1.
       -3    1    3    3    0  502  0.59721019985E+03 -0.10471364450E+03 -0.76169674074E+03  0.97355375055E+03  0.10100000352E+00 0.  1.
</event>
<event>
 5   0  0.1116613E-05  0.1499307E+04  0.7818609E-02  0.8884914E-01
       -4   -1    0    0    0  501  0.00000000000E+00  0.00000000000E+00  0.13740344922E+04  0.13740350791E+04  0.12699999809E+01 0. -1.
        4   -1    0    0  501    0  0.00000000000E+00  0.00000000000E+00 -0.40899843367E+03  0.40900040543E+03  0.12699999809E+01 0.  1.
    10030    2    1    2    0    0  0.00000000000E+00  0.00000000000E+00  0.96503605854E+03  0.17830354846E+04  0.14993068215E+04 0.  0.
        3    1    3    3  502    0  0.62433827520E+02  0.32436718435E+03 -0.31778667427E+03  0.45836713849E+03  0.10100000352E+00 0.  1.
       -3    1    3    3    0  502 -0.62433827520E+02 -0.32436718435E+03  0.12828227328E+04  0.13246683461E+04  0.10100000352E+00 0. -1.
</event>
<event>
 5   0  0.1576214E-05  0.1499089E+04  0.7818609E-02  0.8885059E-01
       -1   -1    0    0    0  501  0.00000000000E+00  0.00000000000E+00  0.50360406861E+03  0.50360406864E+03  0.50400001928E-02 0.  1.
        1   -1    0    0  501    0  0.00000000000E+00  0.00000000000E+00 -0.11155927847E+04  0.11155927847E+04  0.50400001928E-02 0. -1.
    10030    2    1    2    0    0  0.00000000000E+00  0.00000000000E+00 -0.61198871606E+03  0.16191968533E+04  0.14990891439E+04 0.  0.
        1    1    3    3  502    0  0.72809772781E+03 -0.10508021110E+03 -0.46120474873E+03  0.86826146540E+03  0.50400001928E-02 0. -1.
       -1    1    3    3    0  502 -0.72809772781E+03  0.10508021110E+03 -0.15078396733E+03  0.75093538793E+03  0.50400001928E-02 0.  1.
</event>
<event>
 5   0  0.1576214E-05  0.1500241E+04  0.7818609E-02  0.8884293E-01
        1   -1    0    0  501    0  0.00000000000E+00  0.00000000000E+00  0.10979501230E+04  0.10979501230E+04  0.50400001928E-02 0.  1.
       -1   -1    0    0    0  501  0.00000000000E+00  0.00000000000E+00 -0.51248308908E+03  0.51248308911E+03  0.50400001928E-02 0. -1.
    10030    2    1    2    0    0  0.00000000000E+00  0.00000000000E+00  0.58546703387E+03  0.16104332121E+04  0.15002411415E+04 0.  0.
        1    1    3    3  502    0 -0.58743700809E+03 -0.20726022375E+03 -0.15586288554E+03  0.64213104421E+03  0.50400001928E-02 0. -1.
       -1    1    3    3    0  502  0.58743700809E+03  0.20726022375E+03  0.74132991942E+03  0.96830216786E+03  0.50400001928E-02 0.  1.
</event>
<event>
 5   0  0.1588657E-05  0.1500205E+04  0.7818609E-02  0.8884317E-01
       -1   -1    0    0    0  501  0.00000000000E+00  0.00000000000E+00  0.56928468141E+03  0.56928468143E+03  0.50400001928E-02 0.  1.
        1   -1    0    0  501    0  0.00000000000E+00  0.00000000000E+00 -0.98835167387E+03  0.98835167388E+03  0.50400001928E-02 0. -1.
    10030    2    1    2    0    0  0.00000000000E+00  0.00000000000E+00 -0.41906699246E+03  0.15576363553E+04  0.15002046098E+04 0.  0.
        3    1    3    3  502    0 -0.31141288147E+03 -0.46068094218E+03 -0.73224310076E+03  0.91944813994E+03  0.10100000352E+00 0. -1.
       -3    1    3    3    0  502  0.31141288147E+03  0.46068094218E+03  0.31317610830E+03  0.63818821537E+03  0.10100000352E+00 0.  1.
</event>
<event>
 5   0  0.3070497E-05  0.1499923E+04  0.7818609E-02  0.8884504E-01
       -2   -1    0    0    0  501  0.00000000000E+00  0.00000000000E+00  0.52170385051E+03  0.52170385051E+03  0.25500000920E-02 0. -1.
        2   -1    0    0  501    0  0.00000000000E+00  0.00000000000E+00 -0.10780876610E+04  0.10780876610E+04  0.25500000920E-02 0.  1.
    10030    2    1    2    0    0  0.00000000000E+00  0.00000000000E+00 -0.55638381046E+03  0.15997915115E+04  0.14999233099E+04 0.  0.
        4    1    3    3  502    0  0.29566266617E+03 -0.10460200934E+03 -0.10047864063E+04  0.10525945695E+04  0.12699999809E+01 0.  1.
       -4    1    3    3    0  502 -0.29566266617E+03  0.10460200934E+03  0.44840259581E+03  0.54719694202E+03  0.12699999809E+01 0. -1.
</event>
<event>
 5   0  0.3093600E-05  0.1500333E+04  0.7818609E-02  0.8884232E-01
       -2   -1    0    0    0  501  0.00000000000E+00  0.00000000000E+00  0.31489957740E+03  0.31489957741E+03  0.25500000920E-02 0. -1.
        2   -1    0    0  501    0  0.00000000000E+00  0.00000000000E+00 -0.17870761610E+04  0.17870761610E+04  0.25500000920E-02 0.  1.
    10030    2    1    2    0    0  0.00000000000E+00  0.00000000000E+00 -0.14721765836E+04  0.21019757384E+04  0.15003326670E+04 0.  0.
        1    1    3    3  502    0  0.63637985329E+03  0.13777735754E+03 -0.21415442000E+03  0.68543711131E+03  0.50400001928E-02 0. -1.
       -1    1    3    3    0  502 -0.63637985329E+03 -0.13777735754E+03 -0.12580221636E+04  0.14165386271E+04  0.50400001928E-02 0.  1.
</event>
<event>
 5   0  0.1116613E-05  0.1501829E+04  0.7818609E-02  0.8883238E-01
        4   -1    0    0  501    0  0.00000000000E+00  0.00000000000E+00  0.16978367086E+04  0.16978371836E+04  0.12699999809E+01 0.  1.
       -4   -1    0    0    0  501  0.00000000000E+00  0.00000000000E+00 -0.33211067060E+03  0.33211309885E+03  0.12699999809E+01 0. -1.
    10030    2    1    2    0    0  0.00000000000E+00  0.00000000000E+00  0.13657260380E+04  0.20299502824E+04  0.15018290643E+04 0.  0.
        3    1    3    3  502    0 -0.39517189519E+03 -0.39737117930E+03  0.13584293836E+04  0.14694880337E+04  0.10100000352E+00 0.  1.
       -3    1    3    3    0  502  0.39517189519E+03  0.39737117930E+03  0.72966544422E+01  0.56046224873E+03  0.10100000352E+00 0. -1.
</event>
<event>
 5   0  0.1580078E-05  0.1501642E+04  0.7818609E-02  0.8883362E-01
       -1   -1    0    0    0  501  0.00000000000E+00  0.00000000000E+00  0.68716653441E+03  0.68716653442E+03  0.50400001928E-02 0. -1.
        1   -1    0    0  501    0  0.00000000000E+00  0.00000000000E+00 -0.82037193976E+03  0.82037193978E+03  0.50400001928E-02 0.  1.
    10030    2    1    2    0    0  0.00000000000E+00  0.00000000000E+00 -0.13320540535E+03  0.15075384742E+04  0.15016419584E+04 0.  0.
        2    1    3    3  502    0 -0.66173288419E+03 -0.10689694049E+03 -0.40618345722E+03  0.78377443619E+03  0.25500000920E-02 0.  1.
       -2    1    3    3    0  502  0.66173288419E+03  0.10689694049E+03  0.27297805186E+03  0.72376403801E+03  0.25500000920E-02 0. -1.
</event>
<event>
 5   0  0.1533777E-05  0.1505957E+04  0.7818609E-02  0.8880501E-01
       -1   -1    0    0    0  501  0.00000000000E+00  0.00000000000E+00  0.87997883158E+03  0.87997883160E+03  0.50400001928E-02 0. -1.
        1   -1    0    0  501    0  0.00000000000E+00  0.00000000000E+00 -0.64430709523E+03  0.64430709525E+03  0.50400001928E-02 0.  1.
    10030    2    1    2    0    0  0.00000000000E+00  0.00000000000E+00  0.23567173635E+03  0.15242859269E+04  0.15059569780E+04 0.  0.
        5    1    3    3  502    0 -0.10368989940E+03  0.87617894594E+00  0.87270246352E+03  0.87885382331E+03  0.46999998093E+01 0. -1.
       -5    1    3    3    0  502  0.10368989940E+03 -0.87617894594E+00 -0.63703072716E+03  0.64543210354E+03  0.46999998093E+01 0.  1.
</event>
<event>
 5   0  0.3070497E-05  0.1495563E+04  0.7818609E-02  0.8887409E-01
        2   -1    0    0  501    0  0.00000000000E+00  0.00000000000E+00  0.23611650382E+04  0.23611650382E+04  0.25500000920E-02 0.  1.
       -2   -1    0    0    0  501  0.00000000000E+00  0.00000000000E+00 -0.23682270640E+03  0.23682270641E+03  0.25500000920E-02 0. -1.
    10030    2    1    2    0    0  0.00000000000E+00  0.00000000000E+00  0.21243423318E+04  0.25979877446E+04  0.14955634318E+04 0.  0.
        4    1    3    3  502    0  0.55902113237E+03 -0.48494108786E+03  0.12484850874E+04  0.14513404533E+04  0.12699999809E+01 0.  1.
       -4    1    3    3    0  502 -0.55902113237E+03  0.48494108786E+03  0.87585724441E+03  0.11466472913E+04  0.12699999809E+01 0. -1.
</event>
<event>
 5   0  0.1588657E-05  0.1500091E+04  0.7818609E-02  0.8884393E-01
       -1   -1    0    0    0  501  0.00000000000E+00  0.00000000000E+00  0.19286209593E+03  0.19286209599E+03  0.50400001928E-02 0.  1.
        1   -1    0    0  501    0  0.00000000000E+00  0.00000000000E+00 -0.29169444128E+04  0.29169444128E+04  0.50400001928E-02 0. -1.
    10030    2    1    2    0    0  0.00000000000E+00  0.00000000000E+00 -0.27240823168E+04  0.31098065088E+04  0.15000906816E+04 0.  0.
        3    1    3    3  502    0 -0.15525314582E+03  0.52144659132E+03 -0.29172607140E+03  0.61734447258E+03  0.10100000352E+00 0.  1.
       -3    1    3    3    0  502  0.15525314582E+03 -0.52144659132E+03 -0.24323562454E+04  0.24924620362E+04  0.10100000352E+00 0. -1.
</event>
<event>
 5   0  0.3070497E-05  0.1510461E+04  0.7818609E-02  0.8877526E-01
       -2   -1    0    0    0  501  0.00000000000E+00  0.00000000000E+00  0.37449883887E+03  0.37449883888E+03  0.25500000920E-02 0.  1.
        2   -1    0    0  501    0  0.00000000000E+00  0.00000000000E+00 -0.15230310924E+04  0.15230310924E+04  0.25500000920E-02 0. -1.
    10030    2    1    2    0    0  0.00000000000E+00  0.00000000000E+00 -0.11485322536E+04  0.18975299313E+04  0.15104613543E+04 0.  0.
        4    1    3    3  502    0  0.22246811159E+03  0.71397748835E+03 -0.44181662735E+03  0.86859625814E+03  0.12699999809E+01 0.  1.
       -4    1    3    3    0  502 -0.22246811159E+03 -0.71397748835E+03 -0.70671562621E+03  0.10289336732E+04  0.12699999809E+01 0. -1.
</event>
<event>
 5   0  0.1588657E-05  0.1499694E+04  0.7818609E-02  0.8884656E-01
        1   -1    0    0  501    0  0.00000000000E+00  0.00000000000E+00  0.55058395628E+03  0.55058395631E+03  0.50400001928E-02 0.  1.
       -1   -1    0    0    0  501  0.00000000000E+00  0.00000000000E+00 -0.10212263186E+04  0.10212263186E+04  0.50400001928E-02 0. -1.
    10030    2    1    2    0    0  0.00000000000E+00  0.00000000000E+00 -0.47064236230E+03  0.15718102749E+04  0.14996944046E+04 0.  0.
        3    1    3    3  502    0 -0.52378347106E+03  0.38966037379E+03  0.15131709951E+03  0.67013521491E+03  0.10100000352E+00 0.  1.
       -3    1    3    3    0  502  0.52378347106E+03 -0.38966037379E+03 -0.62195946181E+03  0.90167505998E+03  0.10100000352E+00 0. -1.
</event>
<event>
 5   0  0.1588657E-05  0.1500069E+04  0.7818609E-02  0.8884407E-01
        1   -1    0    0  501    0  0.00000000000E+00  0.00000000000E+00  0.47173710041E+03  0.47173710044E+03  0.50400001928E-02 0.  1.
       -1   -1    0    0    0  501  0.00000000000E+00  0.00000000000E+00 -0.11925116601E+04  0.11925116601E+04  0.50400001928E-02 0. -1.
    10030    2    1    2    0    0  0.00000000000E+00  0.00000000000E+00 -0.72077455964E+03  0.16642487605E+04  0.15000693221E+04 0.  0.
        3    1    3    3  502    0 -0.39498889412E+03  0.40566202642E+03 -0.90613424987E+03  0.10684835961E+04  0.10100000352E+00 0. -1.
       -3    1    3    3    0  502  0.39498889412E+03 -0.40566202642E+03  0.18535969022E+03  0.59576516440E+03  0.10100000352E+00 0.  1.
</event>
<event>
 5   0  0.3093600E-05  0.1499289E+04  0.7818609E-02  0.8884926E-01
       -2   -1    0    0    0  501  0.00000000000E+00  0.00000000000E+00  0.85288092830E+03  0.85288092830E+03  0.25500000920E-02 0.  1.
        2   -1    0    0  501    0  0.00000000000E+00  0.00000000000E+00 -0.65890455117E+03  0.65890455117E+03  0.25500000920E-02 0. -1.
    10030    2    1    2    0    0  0.00000000000E+00  0.00000000000E+00  0.19397637713E+03  0.15117854795E+04  0.14992893320E+04 0.  0.
        1    1    3    3  502    0  0.53014667725E+03  0.23017734689E+03 -0.38441113779E+03  0.69412465257E+03  0.50400001928E-02 0. -1.
       -1    1    3    3    0  502 -0.53014667725E+03 -0.23017734689E+03  0.57838751492E+03  0.81766082691E+03  0.50400001928E-02 0.  1.
</event>
<event>
 5   0  0.3093600E-05  0.1500161E+04  0.7818609E-02  0.8884346E-01
        2   -1    0    0  501    0  0.00000000000E+00  0.00000000000E+00  0.99497691541E+03  0.99497691542E+03  0.25500000920E-02 0. -1.
       -2   -1    0    0    0  501  0.00000000000E+00  0.00000000000E+00 -0.56546114580E+03  0.56546114580E+03  0.25500000920E-02 0.  1.
    10030    2    1    2    0    0  0.00000000000E+00  0.00000000000E+00  0.42951576962E+03  0.15604380612E+04  0.15001610402E+04 0.  0.
        1    1    3    3  502    0 -0.28448105848E+03 -0.63752279985E+01 -0.50713828391E+03  0.58151470764E+03  0.50400001928E-02 0.  1.
       -1    1    3    3    0  502  0.28448105848E+03  0.63752279985E+01  0.93665405353E+03  0.97892335358E+03  0.50400001928E-02 0. -1.
</event>
<event>
 5   0  0.3070497E-05  0.1499148E+04  0.7818609E-02  0.8885020E-01
        2   -1    0    0  501    0  0.00000000000E+00  0.00000000000E+00  0.11751753911E+04  0.11751753911E+04  0.25500000920E-02 0. -1.
       -2   -1    0    0    0  501  0.00000000000E+00  0.00000000000E+00 -0.47810834315E+03  0.47810834315E+03  0.25500000920E-02 0.  1.
    10030    2    1    2    0    0  0.00000000000E+00  0.00000000000E+00  0.69706704791E+03  0.16532837342E+04  0.14991479702E+04 0.  0.
        4    1    3    3  502    0  0.38533947519E+03  0.43977667832E+02 -0.35885110674E+03  0.52839026876E+03  0.12699999809E+01 0.  1.
       -4    1    3    3    0  502 -0.38533947519E+03 -0.43977667832E+02  0.10559181546E+04  0.11248934655E+04  0.12699999809E+01 0. -1.
</event>
<event>
 5   0  0.3070497E-05  0.1499558E+04  0.7818609E-02  0.8884747E-01
       -2   -1    0    0    0  501  0.00000000000E+00  0.00000000000E+00  0.11988167069E+04  0.11988167069E+04  0.25500000920E-02 0.  1.
        2   -1    0    0  501    0  0.00000000000E+00  0.00000000000E+00 -0.46893624293E+03  0.46893624294E+03  0.25500000920E-02 0. -1.
    10030    2    1    2    0    0  0.00000000000E+00  0.00000000000E+00  0.72988046398E+03  0.16677529498E+04  0.14995580716E+04 0.  0.
        4    1    3    3  502    0  0.14724246658E+03  0.52970329987E+03 -0.20204592258E+03  0.58573893297E+03  0.12699999809E+01 0.  1.
       -4    1    3    3    0  502 -0.14724246658E+03 -0.52970329987E+03  0.93192638656E+03  0.10820140169E+04  0.12699999809E+01 0. -1.
</event>
<event>
 5   0  0.1576214E-05  0.1500114E+04  0.7818609E-02  0.8884377E-01
       -1   -1    0    0    0  501  0.00000000000E+00  0.00000000000E+00  0.46079673598E+03  0.46079673601E+03  0.50400001928E-02 0. -1.
        1   -1    0    0  501    0  0.00000000000E+00  0.00000000000E+00 -0.12208980670E+04  0.12208980670E+04  0.50400001928E-02 0.  1.
    10030    2    1    2    0    0  0.00000000000E+00  0.00000000000E+00 -0.76010133098E+03  0.16816948030E+04  0.15001144546E+04 0.  0.
        1    1    3    3  502    0  0.46022629825E+03  0.13241737793E+03 -0.10271984344E+04  0.11333486803E+04  0.50400001928E-02 0.  1.
       -1    1    3    3    0  502 -0.46022629825E+03 -0.13241737793E+03  0.26709710338E+03  0.54834612267E+03  0.50400001928E-02 0. -1.
</event>
<event>
 5   0  0.1588657E-05  0.1496392E+04  0.7818609E-02  0.8886856E-01
       -1   -1    0    0    0  501  0.00000000000E+00  0.00000000000E+00  0.90913176299E+03  0.90913176300E+03  0.50400001928E-02 0.  1.
        1   -1    0    0  501    0  0.00000000000E+00  0.00000000000E+00 -0.61574901699E+03  0.61574901701E+03  0.50400001928E-02 0. -1.
    10030    2    1    2    0    0  0.00000000000E+00  0.00000000000E+00  0.29338274600E+03  0.15248807800E+04  0.14963916458E+04 0.  0.
        3    1    3    3  502    0 -0.15535816581E+03  0.64527413158E+03 -0.20525644775E+03  0.69472662546E+03  0.10100000352E+00 0. -1.
       -3    1    3    3    0  502  0.15535816581E+03 -0.64527413158E+03  0.49863919375E+03  0.83015415455E+03  0.10100000352E+00 0.  1.
</event>
<event>
 5   0  0.3018308E-05  0.1498711E+04  0.7818609E-02  0.8885311E-01
        2   -1    0    0  501    0  0.00000000000E+00  0.00000000000E+00  0.98017208211E+03  0.98017208211E+03  0.25500000920E-02 0. -1.
       -2   -1    0    0    0  501  0.00000000000E+00  0.00000000000E+00 -0.57289275890E+03  0.57289275890E+03  0.25500000920E-02 0.  1.
    10030    2    1    2    0    0  0.00000000000E+00  0.00000000000E+00  0.40727932321E+03  0.15530648410E+04  0.14987107637E+04 0.  0.
        2    1    3    3  502    0  0.71791650292E+03  0.32690510158E+02  0.42361337926E+03  0.83421883803E+03  0.25500000920E-02 0. -1.
       -2    1    3    3    0  502 -0.71791650292E+03 -0.32690510158E+02 -0.16334056049E+02  0.71884600299E+03  0.25500000920E-02 0.  1.
</event>
<event>
 5   0  0.1580078E-05  0.1497750E+04  0.7818609E-02  0.8885951E-01
       -1   -1    0    0    0  501  0.00000000000E+00  0.00000000000E+00  0.60503766522E+03  0.60503766524E+03  0.50400001928E-02 0.  1.
        1   -1    0    0  501    0  0.00000000000E+00  0.00000000000E+00 -0.92690722853E+03  0.92690722854E+03  0.50400001928E-02 0. -1.
    10030    2    1    2    0    0  0.00000000000E+00  0.00000000000E+00 -0.32186956331E+03  0.15319448938E+04  0.14977500265E+04 0.  0.
        2    1    3    3  502    0 -0.27908298346E+03  0.13195000552E+03  0.53692948233E+03  0.61934754752E+03  0.25500000920E-02 0.  1.
       -2    1    3    3    0  502  0.27908298346E+03 -0.13195000552E+03 -0.85879904564E+03  0.91259734626E+03  0.25500000920E-02 0. -1.
</event>
<event>
 5   0  0.1643498E-05  0.1496032E+04  0.7818609E-02  0.8887096E-01
        1   -1    0    0  501    0  0.00000000000E+00  0.00000000000E+00  0.15041559963E+04  0.15041559963E+04  0.50400001928E-02 0.  1.
       -1   -1    0    0    0  501  0.00000000000E+00  0.00000000000E+00 -0.37198792726E+03  0.37198792729E+03  0.50400001928E-02 0. -1.
    10030    2    1    2    0    0  0.00000000000E+00  0.00000000000E+00  0.11321680690E+04  0.18761439236E+04  0.14960319132E+04 0.  0.
        4    1    3    3  502    0 -0.56616717337E+03  0.21672023849E+03  0.16554572644E+02  0.60645576652E+03  0.12699999809E+01 0. -1.
       -4    1    3    3    0  502  0.56616717337E+03 -0.21672023849E+03  0.11156134964E+04  0.12696881570E+04  0.12699999809E+01 0.  1.
</event>
<event>
 5   0  0.1643498E-05  0.1496109E+04  0.7818609E-02  0.8887045E-01
       -1   -1    0    0    0  501  0.00000000000E+00  0.00000000000E+00  0.57545829369E+03  0.57545829372E+03  0.50400001928E-02 0. -1.
        1   -1    0    0  501    0  0.00000000000E+00  0.00000000000E+00 -0.97241701079E+03  0.97241701080E+03  0.50400001928E-02 0.  1.
    10030    2    1    2    0    0  0.00000000000E+00  0.00000000000E+00 -0.39695871710E+03  0.15478753045E+04  0.14961088648E+04 0.  0.
        4    1    3    3  502    0 -0.56068625744E+03  0.43455419562E+03 -0.44413416658E+03  0.83693679512E+03  0.12699999809E+01 0.  1.
       -4    1    3    3    0  502  0.56068625744E+03 -0.43455419562E+03  0.47175449477E+02  0.71093850940E+03  0.12699999809E+01 0. -1.
</event>
<event>
 5   0  0.3018308E-05  0.1499901E+04  0.7818609E-02  0.8884519E-01
        2   -1    0    0  501    0  0.00000000000E+00  0.00000000000E+00  0.63854330247E+03  0.63854330248E+03  0.25500000920E-02 0. -1.
       -2   -1    0    0    0  501  0.00000000000E+00  0.00000000000E+00 -0.88079504281E+03  0.88079504282E+03  0.25500000920E-02 0.  1.
    10030    2    1    2    0    0  0.00000000000E+00  0.00000000000E+00 -0.24225174034E+03  0.15193383453E+04  0.14999010307E+04 0.  0.
        2    1    3    3  502    0  0.63168545410E+02 -0.66244964344E+03  0.22918223559E+03  0.70381410354E+03  0.25500000920E-02 0. -1.
       -2    1    3    3    0  502 -0.63168545410E+02  0.66244964344E+03 -0.47143397594E+03  0.81552424176E+03  0.25500000920E-02 0.  1.
</event>
<event>
 5   0  0.1576214E-05  0.1500107E+04  0.7818609E-02  0.8884382E-01
       -1   -1    0    0    0  501  0.00000000000E+00  0.00000000000E+00  0.79032320249E+03  0.79032320251E+03  0.50400001928E-02 0. -1.
        1   -1    0    0  501    0  0.00000000000E+00  0.00000000000E+00 -0.71183603746E+03  0.71183603747E+03  0.50400001928E-02 0.  1.
    10030    2    1    2    0    0  0.00000000000E+00  0.00000000000E+00  0.78487165036E+02  0.15021592400E+04  0.15001073786E+04 0.  0.
        1    1    3    3  502    0  0.11421242987E+03  0.13771014542E+03  0.76864361619E+03  0.78919045358E+03  0.50400001928E-02 0. -1.
       -1    1    3    3    0  502 -0.11421242987E+03 -0.13771014542E+03 -0.69015645115E+03  0.71296878640E+03  0.50400001928E-02 0.  1.
</event>
<event>
 5   0  0.3018308E-05  0.1499484E+04  0.7818609E-02  0.8884796E-01
        2   -1    0    0  501    0  0.00000000000E+00  0.00000000000E+00  0.11851572808E+04  0.11851572808E+04  0.25500000920E-02 0.  1.
       -2   -1    0    0    0  501  0.00000000000E+00  0.00000000000E+00 -0.47429431225E+03  0.47429431225E+03  0.25500000920E-02 0. -1.
    10030    2    1    2    0    0  0.00000000000E+00  0.00000000000E+00  0.71086296857E+03  0.16594515931E+04  0.14994843879E+04 0.  0.
        2    1    3    3  502    0 -0.70267986367E+03 -0.50257393313E+01  0.64471621927E+03  0.95364734166E+03  0.25500000920E-02 0.  1.
       -2    1    3    3    0  502  0.70267986367E+03  0.50257393313E+01  0.66146749303E+02  0.70580425141E+03  0.25500000920E-02 0. -1.
</event>
<event>
 5   0  0.3018308E-05  0.1500136E+04  0.7818609E-02  0.8884363E-01
        2   -1    0    0  501    0  0.00000000000E+00  0.00000000000E+00  0.91852825533E+03  0.91852825533E+03  0.25500000920E-02 0. -1.
       -2   -1    0    0    0  501  0.00000000000E+00  0.00000000000E+00 -0.61250360089E+03  0.61250360090E+03  0.25500000920E-02 0.  1.
    10030    2    1    2    0    0  0.00000000000E+00  0.00000000000E+00  0.30602465444E+03  0.15310318562E+04  0.15001358124E+04 0.  0.
        2    1    3    3  502    0  0.35146941614E+03 -0.51272440712E+03  0.58140088451E+03  0.85114279451E+03  0.25500000920E-02 0. -1.
       -2    1    3    3    0  502 -0.35146941614E+03  0.51272440712E+03 -0.27537623007E+03  0.67988906171E+03  0.25500000920E-02 0.  1.
</event>
<event>
 5   0  0.3018308E-05  0.1492474E+04  0.7818609E-02  0.8889473E-01
        2   -1    0    0  501    0  0.00000000000E+00  0.00000000000E+00  0.45919491843E+03  0.45919491844E+03  0.25500000920E-02 0. -1.
       -2   -1    0    0    0  501  0.00000000000E+00  0.00000000000E+00 -0.12127091751E+04  0.12127091751E+04  0.25500000920E-02 0.  1.
    10030    2    1    2    0    0  0.00000000000E+00  0.00000000000E+00 -0.75351425666E+03  0.16719040935E+04  0.14924743090E+04 0.  0.
        2    1    3    3  502    0  0.44163640485E+03  0.54500501366E+03 -0.91602135180E+02  0.70743489466E+03  0.25500000920E-02 0. -1.
       -2    1    3    3    0  502 -0.44163640485E+03 -0.54500501366E+03 -0.66191212148E+03  0.96446919887E+03  0.25500000920E-02 0.  1.
</event>
<event>
 5   0  0.3093600E-05  0.1500684E+04  0.7818609E-02  0.8883998E-01
       -2   -1    0    0    0  501  0.00000000000E+00  0.00000000000E+00  0.43614129725E+03  0.43614129726E+03  0.25500000920E-02 0. -1.
        2   -1    0    0  501    0  0.00000000000E+00  0.00000000000E+00 -0.12908955243E+04  0.12908955243E+04  0.25500000920E-02 0.  1.
    10030    2    1    2    0    0  0.00000000000E+00  0.00000000000E+00 -0.85475422708E+03  0.17270368216E+04  0.15006836424E+04 0.  0.
        1    1    3    3  502    0 -0.88998372431E+02  0.68850024407E+03 -0.75503041520E+03  0.10256823213E+04  0.50400001928E-02 0.  1.
       -1    1    3    3    0  502  0.88998372431E+02 -0.68850024407E+03 -0.99723811885E+02  0.70135450028E+03  0.50400001928E-02 0. -1.
</event>
<event>
 5   0  0.1580078E-05  0.1500177E+04  0.7818609E-02  0.8884335E-01
       -1   -1    0    0    0  501  0.00000000000E+00  0.00000000000E+00  0.82648739486E+03  0.82648739487E+03  0.50400001928E-02 0. -1.
        1   -1    0    0  501    0  0.00000000000E+00  0.00000000000E+00 -0.68075162424E+03  0.68075162426E+03  0.50400001928E-02 0.  1.
    10030    2    1    2    0    0  0.00000000000E+00  0.00000000000E+00  0.14573577062E+03  0.15072390191E+04  0.15001768382E+04 0.  0.
        2    1    3    3  502    0  0.93177058842E+02 -0.10177993205E+03 -0.66788953094E+03  0.68199526714E+03  0.25500000920E-02 0.  1.
       -2    1    3    3    0  502 -0.93177058842E+02  0.10177993205E+03  0.81362530156E+03  0.82524375199E+03  0.25500000920E-02 0. -1.
</event>
<event>
 5   0  0.3070497E-05  0.1500083E+04  0.7818609E-02  0.8884398E-01
        2   -1    0    0  501    0  0.00000000000E+00  0.00000000000E+00  0.12041000234E+04  0.12041000234E+04  0.25500000920E-02 0.  1.
       -2   -1    0    0    0  501  0.00000000000E+00  0.00000000000E+00 -0.46720566694E+03  0.46720566695E+03  0.25500000920E-02 0. -1.
    10030    2    1    2    0    0  0.00000000000E+00  0.00000000000E+00  0.73689435648E+03  0.16713056904E+04  0.15000831370E+04 0.  0.
        4    1    3    3  502    0 -0.71807945379E+03  0.13207274794E+03  0.55974062645E+03  0.91999592092E+03  0.12699999809E+01 0.  1.
       -4    1    3    3    0  502  0.71807945379E+03 -0.13207274794E+03  0.17715373003E+03  0.75130976945E+03  0.12699999809E+01 0. -1.
</event>
<event>
 5   0  0.3030702E-05  0.1499494E+04  0.7818609E-02  0.8884789E-01
       -2   -1    0    0    0  501  0.00000000000E+00  0.00000000000E+00  0.97272734579E+03  0.97272734579E+03  0.25500000920E-02 0. -1.
        2   -1    0    0  501    0  0.00000000000E+00  0.00000000000E+00 -0.57788129303E+03  0.57788129304E+03  0.25500000920E-02 0.  1.
    10030    2    1    2    0    0  0.00000000000E+00  0.00000000000E+00  0.39484605275E+03  0.15506086388E+04  0.14994944966E+04 0.  0.
        5    1    3    3  502    0  0.33732938642E+03  0.31391164641E+03 -0.41414795354E+03  0.61957425230E+03  0.46999998093E+01 0.  1.
       -5    1    3    3    0  502 -0.33732938642E+03 -0.31391164641E+03  0.80899400629E+03  0.93103438653E+03  0.46999998093E+01 0. -1.
</event>
<event>
 5   0  0.1588657E-05  0.1500104E+04  0.7818609E-02  0.8884384E-01
        1   -1    0    0  501    0  0.00000000000E+00  0.00000000000E+00  0.59804271395E+03  0.59804271397E+03  0.50400001928E-02 0.  1.
       -1   -1    0    0    0  501  0.00000000000E+00  0.00000000000E+00 -0.94069860132E+03  0.94069860133E+03  0.50400001928E-02 0. -1.
    10030    2    1    2    0    0  0.00000000000E+00  0.00000000000E+00 -0.34265588737E+03  0.15387413153E+04  0.15001039225E+04 0.  0.
        3    1    3    3  502    0 -0.22601598526E+03  0.34794114768E+03  0.46961118462E+03  0.62664259571E+03  0.10100000352E+00 0.  1.
       -3    1    3    3    0  502  0.22601598526E+03 -0.34794114768E+03 -0.81226707199E+03  0.91209871959E+03  0.10100000352E+00 0. -1.
</event>
<event>
 5   0  0.3030702E-05  0.1499884E+04  0.7818609E-02  0.8884530E-01
        2   -1    0    0  501    0  0.00000000000E+00  0.00000000000E+00  0.10718644197E+04  0.10718644197E+04  0.25500000920E-02 0. -1.
       -2   -1    0    0    0  501  0.00000000000E+00  0.00000000000E+00 -0.52470552431E+03  0.52470552432E+03  0.25500000920E-02 0.  1.
    10030    2    1    2    0    0  0.00000000000E+00  0.00000000000E+00  0.54715889540E+03  0.15965699440E+04  0.14998842387E+04 0.  0.
        5    1    3    3  502    0  0.61745612130E+03 -0.31497743494E+02 -0.17821785298E+03  0.64344996907E+03  0.46999998093E+01 0.  1.
       -5    1    3    3    0  502 -0.61745612130E+03  0.31497743494E+02  0.72537674838E+03  0.95311997496E+03  0.46999998093E+01 0. -1.
</event>
<event>
 5   0  0.1533777E-05  0.1499827E+04  0.7818609E-02  0.8884568E-01
       -1   -1    0    0    0  501  0.00000000000E+00  0.00000000000E+00  0.36241930220E+03  0.36241930224E+03  0.50400001928E-02 0.  1.
        1   -1    0    0  501    0  0.00000000000E+00  0.00000000000E+00 -0.15517115543E+04  0.15517115543E+04  0.50400001928E-02 0. -1.
    10030    2    1    2    0    0  0.00000000000E+00  0.00000000000E+00 -0.11892922521E+04  0.19141308566E+04  0.14998269484E+04 0.  0.
        5    1    3    3  502    0 -0.23691178353E+03  0.27139724015E+03  0.24472861453E+03  0.43554315504E+03  0.46999998093E+01 0.  1.
       -5    1    3    3    0  502  0.23691178353E+03 -0.27139724015E+03 -0.14340208667E+04  0.14785877015E+04  0.46999998093E+01 0. -1.
</event>
<event>
 5   0  0.3030702E-05  0.1499948E+04  0.7818609E-02  0.8884487E-01
       -2   -1    0    0    0  501  0.00000000000E+00  0.00000000000E+00  0.82099754007E+03  0.82099754007E+03  0.25500000920E-02 0. -1.
        2   -1    0    0  501    0  0.00000000000E+00  0.00000000000E+00 -0.68509500766E+03  0.68509500766E+03  0.25500000920E-02 0.  1.
    10030    2    1    2    0    0  0.00000000000E+00  0.00000000000E+00  0.13590253241E+03  0.15060925477E+04  0.14999484205E+04 0.  0.
        5    1    3    3  502    0  0.30980453600E+03  0.58848094949E+03 -0.28009598792E+03  0.72164016718E+03  0.46999998093E+01 0.  1.
       -5    1    3    3    0  502 -0.30980453600E+03 -0.58848094949E+03  0.41599852033E+03  0.78445238055E+03  0.46999998093E+01 0. -1.
</event>
<event>
 5   0  0.3018308E-05  0.1500407E+04  0.7818609E-02  0.8884182E-01
       -2   -1    0    0    0  501  0.00000000000E+00  0.00000000000E+00  0.12536058095E+04  0.12536058095E+04  0.25500000920E-02 0. -1.
        2   -1    0    0  501    0  0.00000000000E+00  0.00000000000E+00 -0.44894946187E+03  0.44894946188E+03  0.25500000920E-02 0.  1.
    10030    2    1    2    0    0  0.00000000000E+00  0.00000000000E+00  0.80465634765E+03  0.17025552714E+04  0.15004074828E+04 0.  0.
        2    1    3    3  502    0 -0.43365233675E+03  0.48717813981E+03  0.82295717781E+03  0.10500740001E+04  0.25500000920E-02 0.  1.
       -2    1    3    3    0  502  0.43365233675E+03 -0.48717813981E+03 -0.18300830157E+02  0.65248127135E+03  0.25500000920E-02 0. -1.
</event>
<event>
 5   0  0.1576214E-05  0.1500098E+04  0.7818609E-02  0.8884387E-01
       -1   -1    0    0    0  501  0.00000000000E+00  0.00000000000E+00  0.19723394241E+04  0.19723394241E+04  0.50400001928E-02 0.  1.
        1   -1    0    0  501    0  0.00000000000E+00  0.00000000000E+00 -0.28523174545E+03  0.28523174549E+03  0.50400001928E-02 0. -1.
    10030    2    1    2    0    0  0.00000000000E+00  0.00000000000E+00  0.16871076786E+04  0.22575711696E+04  0.15000984189E+04 0.  0.
        1    1    3    3  502    0  0.70538105952E+03  0.23183372499E+03  0.10032805999E+04  0.12481511437E+04  0.50400001928E-02 0. -1.
       -1    1    3    3    0  502 -0.70538105952E+03 -0.23183372499E+03  0.68382707871E+03  0.10094200259E+04  0.50400001928E-02 0.  1.
</event>
<event>
 5   0  0.1588657E-05  0.1499796E+04  0.7818609E-02  0.8884589E-01
       -1   -1    0    0    0  501  0.00000000000E+00  0.00000000000E+00  0.81560297398E+03  0.81560297400E+03  0.50400001928E-02 0.  1.
        1   -1    0    0  501    0  0.00000000000E+00  0.00000000000E+00 -0.68948620213E+03  0.68948620214E+03  0.50400001928E-02 0. -1.
    10030    2    1    2    0    0  0.00000000000E+00  0.00000000000E+00  0.12611677186E+03  0.15050891761E+04  0.14997959821E+04 0.  0.
        3    1    3    3  502    0 -0.74389621136E+03 -0.12367379612E+02  0.15726440712E+03  0.76043844544E+03  0.10100000352E+00 0.  1.
       -3    1    3    3    0  502  0.74389621136E+03  0.12367379612E+02 -0.31147635262E+02  0.74465073070E+03  0.10100000352E+00 0. -1.
</event>
<event>
 5   0  0.3070497E-05  0.1500614E+04  0.7818609E-02  0.8884045E-01
       -2   -1    0    0    0  501  0.00000000000E+00  0.00000000000E+00  0.36640359056E+03  0.36640359057E+03  0.25500000920E-02 0.  1.
        2   -1    0    0  501    0  0.00000000000E+00  0.00000000000E+00 -0.15364495952E+04  0.15364495952E+04  0.25500000920E-02 0. -1.
    10030    2    1    2    0    0  0.00000000000E+00  0.00000000000E+00 -0.11700460046E+04  0.19028531858E+04  0.15006140722E+04 0.  0.
        4    1    3    3  502    0  0.28926135420E+03  0.38886523887E+03  0.14128362956E+03  0.50482767547E+03  0.12699999809E+01 0.  1.
       -4    1    3    3    0  502 -0.28926135420E+03 -0.38886523887E+03 -0.13113296342E+04  0.13980255103E+04  0.12699999809E+01 0. -1.
</event>
<event>
 5   0  0.3070497E-05  0.1498919E+04  0.7818609E-02  0.8885172E-01
       -2   -1    0    0    0  501  0.00000000000E+00  0.00000000000E+00  0.68101231163E+03  0.68101231163E+03  0.25500000920E-02 0. -1.
        2   -1    0    0  501    0  0.00000000000E+00  0.00000000000E+00 -0.82478583801E+03  0.82478583802E+03  0.25500000920E-02 0.  1.
    10030    2    1    2    0    0  0.00000000000E+00  0.00000000000E+00 -0.14377352639E+03  0.15057981496E+04  0.14989186905E+04 0.  0.
        4    1    3    3  502    0  0.18801470565E+03  0.43331178907E+03 -0.65643281615E+03  0.80871150054E+03  0.12699999809E+01 0.  1.
       -4    1    3    3    0  502 -0.18801470565E+03 -0.43331178907E+03  0.51265928977E+03  0.69708664911E+03  0.12699999809E+01 0. -1.
</event>
<event>
 5   0  0.3093600E-05  0.1500293E+04  0.7818609E-02  0.8884258E-01
       -2   -1    0    0    0  501  0.00000000000E+00  0.00000000000E+00  0.47551850879E+03  0.47551850880E+03  0.25500000920E-02 0.  1.
        2   -1    0    0  501    0  0.00000000000E+00  0.00000000000E+00 -0.11833807981E+04  0.11833807982E+04  0.25500000920E-02 0. -1.
    10030    2    1    2    0    0  0.00000000000E+00  0.00000000000E+00 -0.70786228935E+03  0.16588993070E+04  0.15002926014E+04 0.  0.
        1    1    3    3  502    0 -0.52187076024E+03 -0.15036183655E+03 -0.92609219048E+03  0.10735942053E+04  0.50400001928E-02 0. -1.
       -1    1    3    3    0  502  0.52187076024E+03  0.15036183655E+03  0.21822990113E+03  0.58530510168E+03  0.50400001928E-02 0.  1.
</event>
<event>
 5   0  0.1116613E-05  0.1500059E+04  0.7818609E-02  0.8884414E-01
        4   -1    0    0  501    0  0.00000000000E+00  0.00000000000E+00  0.11336328391E+04  0.11336335505E+04  0.12699999809E+01 0.  1.
       -4   -1    0    0    0  501  0.00000000000E+00  0.00000000000E+00 -0.49622980589E+03  0.49623143104E+03  0.12699999809E+01 0. -1.
    10030    2    1    2    0    0  0.00000000000E+00  0.00000000000E+00  0.63740303324E+03  0.16298649816E+04  0.15000590759E+04 0.  0.
        4    1    3    3  502    0 -0.17017649071E+02 -0.12254610647E+03 -0.48506593534E+03  0.50059736627E+03  0.12699999809E+01 0. -1.
       -4    1    3    3    0  502  0.17017649071E+02  0.12254610647E+03  0.11224689686E+04  0.11292676153E+04  0.12699999809E+01 0.  1.
</event>
<event>
 5   0  0.1588657E-05  0.1497529E+04  0.7818609E-02  0.8886098E-01
        1   -1    0    0  501    0  0.00000000000E+00  0.00000000000E+00  0.23300117960E+04  0.23300117960E+04  0.50400001928E-02 0. -1.
       -1   -1    0    0    0  501  0.00000000000E+00  0.00000000000E+00 -0.24062039349E+03  0.24062039355E+03  0.50400001928E-02 0.  1.
    10030    2    1    2    0    0  0.00000000000E+00  0.00000000000E+00  0.20893914025E+04  0.25706321895E+04  0.14975291053E+04 0.  0.
        3    1    3    3  502    0  0.19198433188E+03  0.15354883191E+03 -0.16937005001E+03  0.29853216160E+03  0.10100000352E+00 0.  1.
       -3    1    3    3    0  502 -0.19198433188E+03 -0.15354883191E+03  0.22587614525E+04  0.22721000279E+04  0.10100000352E+00 0. -1.
</event>
<event>
 5   0  0.1576214E-05  0.1499960E+04  0.7818609E-02  0.8884480E-01
       -1   -1    0    0    0  501  0.00000000000E+00  0.00000000000E+00  0.84269538812E+03  0.84269538814E+03  0.50400001928E-02 0.  1.
        1   -1    0    0  501    0  0.00000000000E+00  0.00000000000E+00 -0.66746532261E+03  0.66746532263E+03  0.50400001928E-02 0. -1.
    10030    2    1    2    0    0  0.00000000000E+00  0.00000000000E+00  0.17523006551E+03  0.15101607108E+04  0.14999599316E+04 0.  0.
        1    1    3    3  502    0 -0.65547715239E+03 -0.23147373303E+03  0.37102462444E+03  0.78796551851E+03  0.50400001928E-02 0.  1.
       -1    1    3    3    0  502  0.65547715239E+03  0.23147373303E+03 -0.19579455893E+03  0.72219519226E+03  0.50400001928E-02 0. -1.
</event>
<event>
 5   0  0.3018308E-05  0.1502304E+04  0.7818609E-02  0.8882922E-01
       -2   -1    0    0    0  501  0.00000000000E+00  0.00000000000E+00  0.58630589353E+03  0.58630589354E+03  0.25500000920E-02 0. -1.
        2   -1    0    0  501    0  0.00000000000E+00  0.00000000000E+00 -0.96234641485E+03  0.96234641486E+03  0.25500000920E-02 0.  1.
    10030    2    1    2    0    0  0.00000000000E+00  0.00000000000E+00 -0.37604052132E+03  0.15486523084E+04  0.15023040633E+04 0.  0.
        2    1    3    3  502    0 -0.56715017927E+03  0.45764808632E+03 -0.37564733755E+03  0.81988536941E+03  0.25500000920E-02 0.  1.
       -2    1    3    3    0  502  0.56715017927E+03 -0.45764808632E+03 -0.39318376938E+00  0.72876693898E+03  0.25500000920E-02 0. -1.
</event>
<event>
 5   0  0.1533777E-05  0.1498666E+04  0.7818609E-02  0.8885340E-01
       -1   -1    0    0    0  501  0.00000000000E+00  0.00000000000E+00  0.62022902558E+03  0.62022902560E+03  0.50400001928E-02 0.  1.
        1   -1    0    0  501    0  0.00000000000E+00  0.00000000000E+00 -0.90531093027E+03  0.90531093028E+03  0.50400001928E-02 0. -1.
    10030    2    1    2    0    0  0.00000000000E+00  0.00000000000E+00 -0.28508190468E+03  0.15255399559E+04  0.14986662286E+04 0.  0.
        5    1    3    3  502    0  0.33507852659E+03  0.45599519523E+03  0.35745816568E+03  0.66933374879E+03  0.46999998093E+01 0.  1.
       -5    1    3    3    0  502 -0.33507852659E+03 -0.45599519523E+03 -0.64254007036E+03  0.85620620710E+03  0.46999998093E+01 0. -1.
</event>
<event>
 5   0  0.1588657E-05  0.1501157E+04  0.7818609E-02  0.8883684E-01
       -1   -1    0    0    0  501  0.00000000000E+00  0.00000000000E+00  0.57428155780E+03  0.57428155782E+03  0.50400001928E-02 0. -1.
        1   -1    0    0  501    0  0.00000000000E+00  0.00000000000E+00 -0.98099640617E+03  0.98099640619E+03  0.50400001928E-02 0.  1.
    10030    2    1    2    0    0  0.00000000000E+00  0.00000000000E+00 -0.40671484837E+03  0.15552779640E+04  0.15011570795E+04 0.  0.
        3    1    3    3  502    0  0.36109337203E+03 -0.55127328392E+03  0.16886892641E+03  0.68029947920E+03  0.10100000352E+00 0. -1.
       -3    1    3    3    0  502 -0.36109337203E+03  0.55127328392E+03 -0.57558377478E+03  0.87497848481E+03  0.10100000352E+00 0.  1.
</event>
<event>
 5   0  0.1580078E-05  0.1500299E+04  0.7818609E-02  0.8884254E-01
        1   -1    0    0  501    0  0.00000000000E+00  0.00000000000E+00  0.41724409061E+03  0.41724409064E+03  0.50400001928E-02 0. -1.
       -1   -1    0    0    0  501  0.00000000000E+00  0.00000000000E+00 -0.13486690423E+04  0.13486690423E+04  0.50400001928E-02 0.  1.
    10030    2    1    2    0    0  0.00000000000E+00  0.00000000000E+00 -0.93142495167E+03  0.17659131329E+04  0.15002988877E+04 0.  0.
        2    1    3    3  502    0  0.16403381646E+03  0.27431483993E+03 -0.12645135640E+04  0.13042815179E+04  0.25500000920E-02 0.  1.
       -2    1    3    3    0  502 -0.16403381646E+03 -0.27431483993E+03  0.33308861233E+03  0.46163161505E+03  0.25500000920E-02 0. -1.
</event>
<event>
 5   0  0.3018308E-05  0.1499927E+04  0.7818609E-02  0.8884502E-01
       -2   -1    0    0    0  501  0.00000000000E+00  0.00000000000E+00  0.53312046252E+03  0.53312046253E+03  0.25500000920E-02 0.  1.
        2   -1    0    0  501    0  0.00000000000E+00  0.00000000000E+00 -0.10550057135E+04  0.10550057135E+04  0.25500000920E-02 0. -1.
    10030    2    1    2    0    0  0.00000000000E+00  0.00000000000E+00 -0.52188525102E+03  0.15881261761E+04  0.14999268435E+04 0.  0.
        2    1    3    3  502    0  0.41958832778E+03  0.26234028968E+03  0.33572644640E+03  0.59798749086E+03  0.25500000920E-02 0.  1.
       -2    1    3    3    0  502 -0.41958832778E+03 -0.26234028968E+03 -0.85761169742E+03  0.99013868522E+03  0.25500000920E-02 0. -1.
</event>
<event>
 5   0  0.2969498E-05  0.1500953E+04  0.7818609E-02  0.8883820E-01
        2   -1    0    0  501    0  0.00000000000E+00  0.00000000000E+00  0.79802268576E+03  0.79802268576E+03  0.25500000920E-02 0.  1.
       -2   -1    0    0    0  501  0.00000000000E+00  0.00000000000E+00 -0.70576294237E+03  0.70576294238E+03  0.25500000920E-02 0. -1.
    10030    2    1    2    0    0  0.00000000000E+00  0.00000000000E+00  0.92259743385E+02  0.15037856281E+04  0.15009528158E+04 0.  0.
        3    1    3    3  502    0  0.21978729803E+03  0.15083786896E+03 -0.65673270225E+03  0.70877102896E+03  0.10100000352E+00 0. -1.
       -3    1    3    3    0  502 -0.21978729803E+03 -0.15083786896E+03  0.74899244564E+03  0.79501459918E+03  0.10100000352E+00 0.  1.
</event>
<event>
 5   0  0.1533777E-05  0.1499467E+04  0.7818609E-02  0.8884807E-01
       -1   -1    0    0    0  501  0.00000000000E+00  0.00000000000E+00  0.40100317910E+03  0.40100317914E+03  0.50400001928E-02 0. -1.
        1   -1    0    0  501    0  0.00000000000E+00  0.00000000000E+00 -0.14017359717E+04  0.14017359717E+04  0.50400001928E-02 0.  1.
    10030    2    1    2    0    0  0.00000000000E+00  0.00000000000E+00 -0.10007327926E+04  0.18027391508E+04  0.14994673467E+04 0.  0.
        5    1    3    3  502    0  0.53813700548E+03 -0.25126808969E+03  0.49723684765E+02  0.59600471843E+03  0.46999998093E+01 0. -1.
       -5    1    3    3    0  502 -0.53813700548E+03  0.25126808969E+03 -0.10504564774E+04  0.12067344324E+04  0.46999998093E+01 0.  1.
</event>
<event>
 5   0  0.1576214E-05  0.1499679E+04  0.7818609E-02  0.8884666E-01
        1   -1    0    0  501    0  0.00000000000E+00  0.00000000000E+00  0.24094203037E+04  0.24094203037E+04  0.50400001928E-02 0.  1.
       -1   -1    0    0    0  501  0.00000000000E+00  0.00000000000E+00 -0.23335871524E+03  0.23335871530E+03  0.50400001928E-02 0. -1.
    10030    2    1    2    0    0  0.00000000000E+00  0.00000000000E+00  0.21760615885E+04  0.26427790190E+04  0.14996789345E+04 0.  0.
        1    1    3    3  502    0  0.48697480507E+02  0.74306028536E+03  0.12431590234E+04  0.14491219375E+04  0.50400001928E-02 0.  1.
       -1    1    3    3    0  502 -0.48697480507E+02 -0.74306028536E+03  0.93290256511E+03  0.11936570815E+04  0.50400001928E-02 0. -1.
</event>
<event>
 5   0  0.1588657E-05  0.1500457E+04  0.7818609E-02  0.8884149E-01
       -1   -1    0    0    0  501  0.00000000000E+00  0.00000000000E+00  0.50492165581E+03  0.50492165583E+03  0.50400001928E-02 0.  1.
        1   -1    0    0  501    0  0.00000000000E+00  0.00000000000E+00 -0.11147124696E+04  0.11147124696E+04  0.50400001928E-02 0. -1.
    10030    2    1    2    0    0  0.00000000000E+00  0.00000000000E+00 -0.60979081381E+03  0.16196341255E+04  0.15004565518E+04 0.  0.
        3    1    3    3  502    0 -0.57232840213E+03 -0.24711534480E+03  0.14564976381E+03  0.64018720498E+03  0.10100000352E+00 0.  1.
       -3    1    3    3    0  502  0.57232840213E+03  0.24711534480E+03 -0.75544057763E+03  0.97944692048E+03  0.10100000352E+00 0. -1.
</event>
<event>
 5   0  0.3030702E-05  0.1499982E+04  0.7818609E-02  0.8884465E-01
       -2   -1    0    0    0  501  0.00000000000E+00  0.00000000000E+00  0.60814190724E+03  0.60814190725E+03  0.25500000920E-02 0. -1.
        2   -1    0    0  501    0  0.00000000000E+00  0.00000000000E+00 -0.92492697211E+03  0.92492697211E+03  0.25500000920E-02 0.  1.
    10030    2    1    2    0    0  0.00000000000E+00  0.00000000000E+00 -0.31678506487E+03  0.15330688794E+04  0.14999824704E+04 0.  0.
        5    1    3    3  502    0 -0.66707666457E+03 -0.32477930934E+03 -0.27031550659E+03  0.78966159796E+03  0.46999998093E+01 0. -1.
       -5    1    3    3    0  502  0.66707666457E+03  0.32477930934E+03 -0.46469558275E+02  0.74340728140E+03  0.46999998093E+01 0.  1.
</event>
<event>
 5   0  0.1116613E-05  0.1499978E+04  0.7818609E-02  0.8884468E-01
       -3   -1    0    0    0  501  0.00000000000E+00  0.00000000000E+00  0.43450274086E+03  0.43450275260E+03  0.10100000352E+00 0. -1.
        3   -1    0    0  501    0  0.00000000000E+00  0.00000000000E+00 -0.12945453584E+04  0.12945453624E+04  0.10100000352E+00 0.  1.
    10030    2    1    2    0    0  0.00000000000E+00  0.00000000000E+00 -0.86004261758E+03  0.17290481150E+04  0.14999780265E+04 0.  0.
        4    1    3    3  502    0  0.60278051837E+03  0.48851212432E+02  0.81284563271E+02  0.61019635152E+03  0.12699999809E+01 0. -1.
       -4    1    3    3    0  502 -0.60278051837E+03 -0.48851212432E+02 -0.94132718085E+03  0.11188517635E+04  0.12699999809E+01 0.  1.
</event>
<event>
 5   0  0.3018308E-05  0.1500238E+04  0.7818609E-02  0.8884295E-01
       -2   -1    0    0    0  501  0.00000000000E+00  0.00000000000E+00  0.40147471551E+03  0.40147471551E+03  0.25500000920E-02 0. -1.
        2   -1    0    0  501    0  0.00000000000E+00  0.00000000000E+00 -0.14015295666E+04  0.14015295666E+04  0.25500000920E-02 0.  1.
    10030    2    1    2    0    0  0.00000000000E+00  0.00000000000E+00 -0.10000548510E+04  0.18030042821E+04  0.15002382264E+04 0.  0.
        2    1    3    3  502    0 -0.73215027074E+03  0.58104369249E+02 -0.31674204555E+03  0.79984102176E+03  0.25500000920E-02 0. -1.
       -2    1    3    3    0  502  0.73215027074E+03 -0.58104369249E+02 -0.68331280550E+03  0.10031632603E+04  0.25500000920E-02 0.  1.
</event>
<event>
 5   0  0.3018308E-05  0.1500553E+04  0.7818609E-02  0.8884085E-01
       -2   -1    0    0    0  501  0.00000000000E+00  0.00000000000E+00  0.57171841079E+03  0.57171841079E+03  0.25500000920E-02 0.  1.
        2   -1    0    0  501    0  0.00000000000E+00  0.00000000000E+00 -0.98460120030E+03  0.98460120030E+03  0.25500000920E-02 0. -1.
    10030    2    1    2    0    0  0.00000000000E+00  0.00000000000E+00 -0.41288278951E+03  0.15563196111E+04  0.15005527428E+04 0.  0.
        2    1    3    3  502    0  0.16352273339E+02 -0.16657586647E+03 -0.96499051535E+03  0.97939859651E+03  0.25500000920E-02 0. -1.
       -2    1    3    3    0  502 -0.16352273339E+02  0.16657586647E+03  0.55210772583E+03  0.57692101458E+03  0.25500000920E-02 0.  1.
</event>
<event>
 5   0  0.3030702E-05  0.1499884E+04  0.7818609E-02  0.8884530E-01
       -2   -1    0    0    0  501  0.00000000000E+00  0.00000000000E+00  0.27554979499E+03  0.27554979500E+03  0.25500000920E-02 0. -1.
        2   -1    0    0  501    0  0.00000000000E+00  0.00000000000E+00 -0.20410563180E+04  0.20410563180E+04  0.25500000920E-02 0.  1.
    10030    2    1    2    0    0  0.00000000000E+00  0.00000000000E+00 -0.17655065230E+04  0.23166061130E+04  0.14998835288E+04 0.  0.
        5    1    3    3  502    0 -0.40729945271E+03  0.17373579401E+03 -0.18175585861E+04  0.18707266701E+04  0.46999998093E+01 0.  1.
       -5    1    3    3    0  502  0.40729945271E+03 -0.17373579401E+03  0.52052063128E+02  0.44587944287E+03  0.46999998093E+01 0. -1.
</event>
<event>
 5   0  0.3093600E-05  0.1499953E+04  0.7818609E-02  0.8884484E-01
        2   -1    0    0  501    0  0.00000000000E+00  0.00000000000E+00  0.57453928804E+03  0.57453928804E+03  0.25500000920E-02 0.  1.
       -2   -1    0    0    0  501  0.00000000000E+00  0.00000000000E+00 -0.97898339541E+03  0.97898339542E+03  0.25500000920E-02 0. -1.
    10030    2    1    2    0    0  0.00000000000E+00  0.00000000000E+00 -0.40444410737E+03  0.15535226835E+04  0.14999525633E+04 0.  0.
        1    1    3    3  502    0 -0.74468468880E+03  0.84229033721E+02 -0.23178271715E+03  0.78445716508E+03  0.50400001928E-02 0.  1.
       -1    1    3    3    0  502  0.74468468880E+03 -0.84229033721E+02 -0.17266139023E+03  0.76906551838E+03  0.50400001928E-02 0. -1.
</event>
<event>
 5   0  0.3018308E-05  0.1498781E+04  0.7818609E-02  0.8885264E-01
       -2   -1    0    0    0  501  0.00000000000E+00  0.00000000000E+00  0.75124587659E+03  0.75124587659E+03  0.25500000920E-02 0. -1.
        2   -1    0    0  501    0  0.00000000000E+00  0.00000000000E+00 -0.74753984438E+03  0.74753984439E+03  0.25500000920E-02 0.  1.
    10030    2    1    2    0    0  0.00000000000E+00  0.00000000000E+00  0.37060322058E+01  0.14987857210E+04  0.14987811390E+04 0.  0.
        2    1    3    3  502    0  0.13857668689E+03  0.15794328294E+03  0.72118590888E+03  0.75117154762E+03  0.25500000920E-02 0. -1.
       -2    1    3    3    0  502 -0.13857668689E+03 -0.15794328294E+03 -0.71747987667E+03  0.74761417336E+03  0.25500000920E-02 0.  1.
</event>
<event>
 5   0  0.3093600E-05  0.1504504E+04  0.7818609E-02  0.8881463E-01
       -2   -1    0    0    0  501  0.00000000000E+00  0.00000000000E+00  0.84428109626E+03  0.84428109627E+03  0.25500000920E-02 0.  1.
        2   -1    0    0  501    0  0.00000000000E+00  0.00000000000E+00 -0.67025447382E+03  0.67025447383E+03  0.25500000920E-02 0. -1.
    10030    2    1    2    0    0  0.00000000000E+00  0.00000000000E+00  0.17402662244E+03  0.15145355701E+04  0.15045041468E+04 0.  0.
        1    1    3    3  502    0 -0.52141052135E+03  0.54178912832E+03  0.64986132071E+02  0.75473676784E+03  0.50400001928E-02 0.  1.
       -1    1    3    3    0  502  0.52141052135E+03 -0.54178912832E+03  0.10904049037E+03  0.75979880225E+03  0.50400001928E-02 0. -1.
</event>
<event>
 5   0  0.1643498E-05  0.1498663E+04  0.7818609E-02  0.8885342E-01
       -1   -1    0    0    0  501  0.00000000000E+00  0.00000000000E+00  0.10801647796E+04  0.10801647796E+04  0.50400001928E-02 0.  1.
        1   -1    0    0  501    0  0.00000000000E+00  0.00000000000E+00 -0.51982618449E+03  0.51982618451E+03  0.50400001928E-02 0. -1.
    10030    2    1    2    0    0  0.00000000000E+00  0.00000000000E+00  0.56033859510E+03  0.15999909641E+04  0.14986633191E+04 0.  0.
        4    1    3    3  502    0 -0.42081314410E+03 -0.25715979344E+03 -0.32213938540E+03  0.58905879005E+03  0.12699999809E+01 0. -1.
       -4    1    3    3    0  502  0.42081314410E+03  0.25715979344E+03  0.88247798050E+03  0.10109321741E+04  0.12699999809E+01 0.  1.
</event>
<event>
 5   0  0.1643498E-05  0.1498901E+04  0.7818609E-02  0.8885184E-01
        1   -1    0    0  501    0  0.00000000000E+00  0.00000000000E+00  0.16326684172E+04  0.16326684172E+04  0.50400001928E-02 0. -1.
       -1   -1    0    0    0  501  0.00000000000E+00  0.00000000000E+00 -0.34402319119E+03  0.34402319123E+03  0.50400001928E-02 0.  1.
    10030    2    1    2    0    0  0.00000000000E+00  0.00000000000E+00  0.12886452260E+04  0.19766916085E+04  0.14989006626E+04 0.  0.
        4    1    3    3  502    0  0.33041768494E+03 -0.67243760900E+03  0.66813352267E+03  0.10038686177E+04  0.12699999809E+01 0. -1.
       -4    1    3    3    0  502 -0.33041768494E+03  0.67243760900E+03  0.62051170336E+03  0.97282299080E+03  0.12699999809E+01 0.  1.
</event>
<event>
 5   0  0.1643498E-05  0.1499359E+04  0.7818609E-02  0.8884879E-01
       -1   -1    0    0    0  501  0.00000000000E+00  0.00000000000E+00  0.49736985072E+03  0.49736985075E+03  0.50400001928E-02 0. -1.
        1   -1    0    0  501    0  0.00000000000E+00  0.00000000000E+00 -0.11299834397E+04  0.11299834397E+04  0.50400001928E-02 0.  1.
    10030    2    1    2    0    0  0.00000000000E+00  0.00000000000E+00 -0.63261358893E+03  0.16273532904E+04  0.14993594562E+04 0.  0.
        4    1    3    3  502    0 -0.45716683975E+03  0.60959051484E+02 -0.95777586665E+03  0.10630398624E+04  0.12699999809E+01 0.  1.
       -4    1    3    3    0  502  0.45716683975E+03 -0.60959051484E+02  0.32516227772E+03  0.56431342805E+03  0.12699999809E+01 0. -1.
</event>
<event>
 5   0  0.3070497E-05  0.1504430E+04  0.7818609E-02  0.8881513E-01
       -2   -1    0    0    0  501  0.00000000000E+00  0.00000000000E+00  0.38172840945E+03  0.38172840946E+03  0.25500000920E-02 0. -1.
        2   -1    0    0  501    0  0.00000000000E+00  0.00000000000E+00 -0.14822769383E+04  0.14822769383E+04  0.25500000920E-02 0.  1.
    10030    2    1    2    0    0  0.00000000000E+00  0.00000000000E+00 -0.11005485288E+04  0.18640053477E+04  0.15044297498E+04 0.  0.
        4    1    3    3  502    0  0.53107782215E+03  0.38822636335E+03 -0.98311495510E+02  0.66515421177E+03  0.12699999809E+01 0. -1.
       -4    1    3    3    0  502 -0.53107782215E+03 -0.38822636335E+03 -0.10022370333E+04  0.11988511360E+04  0.12699999809E+01 0.  1.
</event>
<event>
 5   0  0.1533777E-05  0.1499267E+04  0.7818609E-02  0.8884941E-01
       -1   -1    0    0    0  501  0.00000000000E+00  0.00000000000E+00  0.88266575372E+03  0.88266575373E+03  0.50400001928E-02 0. -1.
        1   -1    0    0  501    0  0.00000000000E+00  0.00000000000E+00 -0.63665100466E+03  0.63665100468E+03  0.50400001928E-02 0.  1.
    10030    2    1    2    0    0  0.00000000000E+00  0.00000000000E+00  0.24601474906E+03  0.15193167584E+04  0.14992665392E+04 0.  0.
        5    1    3    3  502    0  0.61717108545E+03  0.19160770985E+03  0.50797494111E+03  0.82199409607E+03  0.46999998093E+01 0. -1.
       -5    1    3    3    0  502 -0.61717108545E+03 -0.19160770985E+03 -0.26196019205E+03  0.69732266233E+03  0.46999998093E+01 0.  1.
</event>
<event>
 5   0  0.1580078E-05  0.1499805E+04  0.7818609E-02  0.8884582E-01
        1   -1    0    0  501    0  0.00000000000E+00  0.00000000000E+00  0.20096944993E+04  0.20096944993E+04  0.50400001928E-02 0.  1.
       -1   -1    0    0    0  501  0.00000000000E+00  0.00000000000E+00 -0.27982060560E+03  0.27982060565E+03  0.50400001928E-02 0. -1.
    10030    2    1    2    0    0  0.00000000000E+00  0.00000000000E+00  0.17298738937E+04  0.22895151049E+04  0.14998052299E+04 0.  0.
        2    1    3    3  502    0  0.53716096827E+03 -0.23696531642E+03  0.15771294995E+04  0.16828642029E+04  0.25500000920E-02 0.  1.
       -2    1    3    3    0  502 -0.53716096827E+03  0.23696531642E+03  0.15274439414E+03  0.60665090205E+03  0.25500000920E-02 0. -1.
</event>
<event>
 5   0  0.1643498E-05  0.1500237E+04  0.7818609E-02  0.8884295E-01
       -1   -1    0    0    0  501  0.00000000000E+00  0.00000000000E+00  0.11879513317E+04  0.11879513317E+04  0.50400001928E-02 0.  1.
        1   -1    0    0  501    0  0.00000000000E+00  0.00000000000E+00 -0.47365402027E+03  0.47365402029E+03  0.50400001928E-02 0. -1.
    10030    2    1    2    0    0  0.00000000000E+00  0.00000000000E+00  0.71429731142E+03  0.16616053520E+04  0.15002372135E+04 0.  0.
        4    1    3    3  502    0 -0.57912441151E+03  0.46006730405E+03  0.21868437504E+03  0.77127911747E+03  0.12699999809E+01 0.  1.
       -4    1    3    3    0  502  0.57912441151E+03 -0.46006730405E+03  0.49561293638E+03  0.89032623452E+03  0.12699999809E+01 0. -1.
</event>
<event>
 5   0  0.1643498E-05  0.1499603E+04  0.7818609E-02  0.8884717E-01
        1   -1    0    0  501    0  0.00000000000E+00  0.00000000000E+00  0.97193949527E+03  0.97193949529E+03  0.50400001928E-02 0.  1.
       -1   -1    0    0    0  501  0.00000000000E+00  0.00000000000E+00 -0.57843376095E+03  0.57843376097E+03  0.50400001928E-02 0. -1.
    10030    2    1    2    0    0  0.00000000000E+00  0.00000000000E+00  0.39350573433E+03  0.15503732563E+04  0.14996034378E+04 0.  0.
        4    1    3    3  502    0  0.91263624548E+02 -0.61124810291E+03 -0.24217658359E+03  0.66378038764E+03  0.12699999809E+01 0. -1.
       -4    1    3    3    0  502 -0.91263624548E+02  0.61124810291E+03  0.63568231792E+03  0.88659286862E+03  0.12699999809E+01 0.  1.
</event>
<event>
 5   0  0.2969498E-05  0.1498877E+04  0.7818609E-02  0.8885200E-01
        2   -1    0    0  501    0  0.00000000000E+00  0.00000000000E+00  0.83511526208E+03  0.83511526208E+03  0.25500000920E-02 0.  1.
       -2   -1    0    0    0  501  0.00000000000E+00  0.00000000000E+00 -0.67255172201E+03  0.67255172202E+03  0.25500000920E-02 0. -1.
    10030    2    1    2    0    0  0.00000000000E+00  0.00000000000E+00  0.16256354007E+03  0.15076669841E+04  0.14988771899E+04 0.  0.
        3    1    3    3  502    0 -0.57784999885E+03 -0.14640423648E+03 -0.37559919718E+03  0.70457049949E+03  0.10100000352E+00 0. -1.
       -3    1    3    3    0  502  0.57784999885E+03  0.14640423648E+03  0.53816273725E+03  0.80309648461E+03  0.10100000352E+00 0.  1.
</event>
<event>
 5   0  0.1580078E-05  0.1501863E+04  0.7818609E-02  0.8883215E-01
       -1   -1    0    0    0  501  0.00000000000E+00  0.00000000000E+00  0.44632073140E+03  0.44632073143E+03  0.50400001928E-02 0. -1.
        1   -1    0    0  501    0  0.00000000000E+00  0.00000000000E+00 -0.12634362825E+04  0.12634362825E+04  0.50400001928E-02 0.  1.
    10030    2    1    2    0    0  0.00000000000E+00  0.00000000000E+00 -0.81711555108E+03  0.17097570139E+04  0.15018625845E+04 0.  0.
        2    1    3    3  502    0  0.70408195554E+03  0.18972709676E+03 -0.20436989638E+03  0.75729441165E+03  0.25500000920E-02 0. -1.
       -2    1    3    3    0  502 -0.70408195554E+03 -0.18972709676E+03 -0.61274565470E+03  0.95246260227E+03  0.25500000920E-02 0.  1.
</event>
<event>
 5   0  0.2969498E-05  0.1500060E+04  0.7818609E-02  0.8884413E-01
        2   -1    0    0  501    0  0.00000000000E+00  0.00000000000E+00  0.12490269948E+04  0.12490269948E+04  0.25500000920E-02 0.  1.
       -2   -1    0    0    0  501  0.00000000000E+00  0.00000000000E+00 -0.45038682713E+03  0.45038682713E+03  0.25500000920E-02 0. -1.
    10030    2    1    2    0    0  0.00000000000E+00  0.00000000000E+00  0.79864016772E+03  0.16994138220E+04  0.15000604057E+04 0.  0.
        3    1    3    3  502    0  0.18164218144E+03  0.66609696611E+03  0.73129222002E+03  0.10057173418E+04  0.10100000352E+00 0.  1.
       -3    1    3    3    0  502 -0.18164218144E+03 -0.66609696611E+03  0.67347947695E+02  0.69369648017E+03  0.10100000352E+00 0. -1.
</event>
<event>
 5   0  0.1533777E-05  0.1500044E+04  0.7818609E-02  0.8884424E-01
       -1   -1    0    0    0  501  0.00000000000E+00  0.00000000000E+00  0.11547658866E+04  0.11547658866E+04  0.50400001928E-02 0. -1.
        1   -1    0    0  501    0  0.00000000000E+00  0.00000000000E+00 -0.48714008111E+03  0.48714008113E+03  0.50400001928E-02 0.  1.
    10030    2    1    2    0    0  0.00000000000E+00  0.00000000000E+00  0.66762580553E+03  0.16419059678E+04  0.15000436630E+04 0.  0.
        5    1    3    3  502    0 -0.49727123480E+03 -0.52176355558E+03  0.56077440109E+03  0.91323923908E+03  0.46999998093E+01 0. -1.
       -5    1    3    3    0  502  0.49727123480E+03  0.52176355558E+03  0.10685140444E+03  0.72866672870E+03  0.46999998093E+01 0.  1.
</event>
<event>
 5   0  0.2969498E-05  0.1499543E+04  0.7818609E-02  0.8884757E-01
       -2   -1    0    0    0  501  0.00000000000E+00  0.00000000000E+00  0.66880507501E+03  0.66880507501E+03  0.25500000920E-02 0. -1.
        2   -1    0    0  501    0  0.00000000000E+00  0.00000000000E+00 -0.84054013841E+03  0.84054013842E+03  0.25500000920E-02 0.  1.
    10030    2    1    2    0    0  0.00000000000E+00  0.00000000000E+00 -0.17173506341E+03  0.15093452134E+04  0.14995432776E+04 0.  0.
        3    1    3    3  502    0 -0.41920586466E+03  0.47273692427E+03 -0.49216902876E+03  0.80090206618E+03  0.10100000352E+00 0.  1.
       -3    1    3    3    0  502  0.41920586466E+03 -0.47273692427E+03  0.32043396536E+03  0.70844314725E+03  0.10100000352E+00 0. -1.
</event>
<event>
 5   0  0.1588657E-05  0.1499967E+04  0.7818609E-02  0.8884475E-01
       -1   -1    0    0    0  501  0.00000000000E+00  0.00000000000E+00  0.47233339458E+03  0.47233339461E+03  0.50400001928E-02 0.  1.
        1   -1    0    0  501    0  0.00000000000E+00  0.00000000000E+00 -0.11908437559E+04  0.11908437559E+04  0.50400001928E-02 0. -1.
    10030    2    1    2    0    0  0.00000000000E+00  0.00000000000E+00 -0.71851036128E+03  0.16631771505E+04  0.14999670312E+04 0.  0.
        3    1    3    3  502    0  0.31742223751E+03  0.10539986649E+02  0.39408846297E+03  0.50613604399E+03  0.10100000352E+00 0.  1.
       -3    1    3    3    0  502 -0.31742223751E+03 -0.10539986649E+02 -0.11125988242E+04  0.11570411065E+04  0.10100000352E+00 0. -1.
</event>
<event>
 5   0  0.1533777E-05  0.1496221E+04  0.7818609E-02  0.8886970E-01
        1   -1    0    0  501    0  0.00000000000E+00  0.00000000000E+00  0.63835816217E+03  0.63835816219E+03  0.50400001928E-02 0. -1.
       -1   -1    0    0    0  501  0.00000000000E+00  0.00000000000E+00 -0.87673241732E+03  0.87673241734E+03  0.50400001928E-02 0.  1.
    10030    2    1    2    0    0  0.00000000000E+00  0.00000000000E+00 -0.23837425515E+03  0.15150905795E+04  0.14962209659E+04 0.  0.
        5    1    3    3  502    0  0.36806982387E+03  0.28613869592E+03  0.47325244951E+03  0.66433479475E+03  0.46999998093E+01 0. -1.
       -5    1    3    3    0  502 -0.36806982387E+03 -0.28613869592E+03 -0.71162670466E+03  0.85075578478E+03  0.46999998093E+01 0.  1.
</event>
<event>
 5   0  0.3030702E-05  0.1493489E+04  0.7818609E-02  0.8888794E-01
       -2   -1    0    0    0  501  0.00000000000E+00  0.00000000000E+00  0.57195513335E+03  0.57195513335E+03  0.25500000920E-02 0.  1.
        2   -1    0    0  501    0  0.00000000000E+00  0.00000000000E+00 -0.97494936129E+03  0.97494936129E+03  0.25500000920E-02 0. -1.
    10030    2    1    2    0    0  0.00000000000E+00  0.00000000000E+00 -0.40299422794E+03  0.15469044946E+04  0.14934889246E+04 0.  0.
        5    1    3    3  502    0  0.36856433556E+03 -0.37664838130E+03  0.34648215763E+03  0.63069457595E+03  0.46999998093E+01 0.  1.
       -5    1    3    3    0  502 -0.36856433556E+03  0.37664838130E+03 -0.74947638557E+03  0.91620991869E+03  0.46999998093E+01 0. -1.
</event>
<event>
 5   0  0.1588657E-05  0.1499724E+04  0.7818609E-02  0.8884637E-01
        1   -1    0    0  501    0  0.00000000000E+00  0.00000000000E+00  0.45581725185E+03  0.45581725187E+03  0.50400001928E-02 0.  1.
       -1   -1    0    0    0  501  0.00000000000E+00  0.00000000000E+00 -0.12335925744E+04  0.12335925744E+04  0.50400001928E-02 0. -1.
    10030    2    1    2    0    0  0.00000000000E+00  0.00000000000E+00 -0.77777532252E+03  0.16894098262E+04  0.14997236774E+04 0.  0.
        3    1    3    3  502    0 -0.28956587600E+03 -0.67388152567E+03 -0.56458998487E+03  0.92559525086E+03  0.10100000352E+00 0. -1.
       -3    1    3    3    0  502  0.28956587600E+03  0.67388152567E+03 -0.21318533765E+03  0.76381457539E+03  0.10100000352E+00 0.  1.
</event>
<event>
 5   0  0.1580078E-05  0.1500928E+04  0.7818609E-02  0.8883836E-01
       -1   -1    0    0    0  501  0.00000000000E+00  0.00000000000E+00  0.74091839308E+03  0.74091839310E+03  0.50400001928E-02 0. -1.
        1   -1    0    0  501    0  0.00000000000E+00  0.00000000000E+00 -0.76013307626E+03  0.76013307628E+03  0.50400001928E-02 0.  1.
    10030    2    1    2    0    0  0.00000000000E+00  0.00000000000E+00 -0.19214683179E+02  0.15010514694E+04  0.15009284825E+04 0.  0.
        2    1    3    3  502    0  0.18081671572E+03  0.46971715280E+03 -0.56631055930E+03  0.75765198996E+03  0.25500000920E-02 0.  1.
       -2    1    3    3    0  502 -0.18081671572E+03 -0.46971715280E+03  0.54709587612E+03  0.74339947941E+03  0.25500000920E-02 0. -1.
</event>
<event>
 5   0  0.3018308E-05  0.1500033E+04  0.7818609E-02  0.8884431E-01
       -2   -1    0    0    0  501  0.00000000000E+00  0.00000000000E+00  0.95501601430E+03  0.95501601430E+03  0.25500000920E-02 0.  1.
        2   -1    0    0  501    0  0.00000000000E+00  0.00000000000E+00 -0.58902094814E+03  0.58902094815E+03  0.25500000920E-02 0. -1.
    10030    2    1    2    0    0  0.00000000000E+00  0.00000000000E+00  0.36599506616E+03  0.15440369625E+04  0.15000325840E+04 0.  0.
        2    1    3    3  502    0 -0.62114703080E+03  0.12541737070E+03  0.59597961422E+03  0.86991082952E+03  0.25500000920E-02 0.  1.
       -2    1    3    3    0  502  0.62114703080E+03 -0.12541737070E+03 -0.22998454806E+03  0.67412613293E+03  0.25500000920E-02 0. -1.
</event>
<event>
 5   0  0.3018308E-05  0.1500310E+04  0.7818609E-02  0.8884247E-01
       -2   -1    0    0    0  501  0.00000000000E+00  0.00000000000E+00  0.89096829225E+03  0.89096829226E+03  0.25500000920E-02 0. -1.
        2   -1    0    0  501    0  0.00000000000E+00  0.00000000000E+00 -0.63159657741E+03  0.63159657741E+03  0.25500000920E-02 0.  1.
    10030    2    1    2    0    0  0.00000000000E+00  0.00000000000E+00  0.25937171484E+03  0.15225648697E+04  0.15003099999E+04 0.  0.
        2    1    3    3  502    0  0.12315883617E+03 -0.24110727793E+03  0.83965725199E+03  0.88222736255E+03  0.25500000920E-02 0. -1.
       -2    1    3    3    0  502 -0.12315883617E+03  0.24110727793E+03 -0.58028553715E+03  0.64033750712E+03  0.25500000920E-02 0.  1.
</event>
<event>
 5   0  0.3070497E-05  0.1499947E+04  0.7818609E-02  0.8884488E-01
        2   -1    0    0  501    0  0.00000000000E+00  0.00000000000E+00  0.16402916220E+04  0.16402916220E+04  0.25500000920E-02 0.  1.
       -2   -1    0    0    0  501  0.00000000000E+00  0.00000000000E+00 -0.34290271837E+03  0.34290271838E+03  0.25500000920E-02 0. -1.
    10030    2    1    2    0    0  0.00000000000E+00  0.00000000000E+00  0.12973889037E+04  0.19831943404E+04  0.14999472739E+04 0.  0.
        4    1    3    3  502    0  0.24855054198E+03 -0.11282274653E+02  0.15841320644E+04  0.16035525161E+04  0.12699999809E+01 0.  1.
       -4    1    3    3    0  502 -0.24855054198E+03  0.11282274653E+02 -0.28674316071E+03  0.37964182430E+03  0.12699999809E+01 0. -1.
</event>
<event>
 5   0  0.3093600E-05  0.1499616E+04  0.7818609E-02  0.8884708E-01
        2   -1    0    0  501    0  0.00000000000E+00  0.00000000000E+00  0.16294164134E+04  0.16294164134E+04  0.25500000920E-02 0. -1.
       -2   -1    0    0    0  501  0.00000000000E+00  0.00000000000E+00 -0.34503899140E+03  0.34503899140E+03  0.25500000920E-02 0.  1.
    10030    2    1    2    0    0  0.00000000000E+00  0.00000000000E+00  0.12843774220E+04  0.19744554048E+04  0.14996162120E+04 0.  0.
        1    1    3    3  502    0  0.60930774111E+03  0.34777996447E+03  0.29382502577E+03  0.76061815180E+03  0.50400001928E-02 0.  1.
       -1    1    3    3    0  502 -0.60930774111E+03 -0.34777996447E+03  0.99055239622E+03  0.12138372530E+04  0.50400001928E-02 0. -1.
</event>
<event>
 5   0  0.1116613E-05  0.1500254E+04  0.7818609E-02  0.8884284E-01
        4   -1    0    0  501    0  0.00000000000E+00  0.00000000000E+00  0.73499513241E+03  0.73499622963E+03  0.12699999809E+01 0.  1.
       -4   -1    0    0    0  501  0.00000000000E+00  0.00000000000E+00 -0.76556796548E+03  0.76556901888E+03  0.12699999809E+01 0. -1.
    10030    2    1    2    0    0  0.00000000000E+00  0.00000000000E+00 -0.30572833066E+02  0.15005652485E+04  0.15002537675E+04 0.  0.
        5    1    3    3  502    0 -0.65508191865E+03  0.11796983305E+03  0.33064526107E+03  0.74323453925E+03  0.46999998093E+01 0.  1.
       -5    1    3    3    0  502  0.65508191865E+03 -0.11796983305E+03 -0.36121809414E+03  0.75733070926E+03  0.46999998093E+01 0. -1.
</event>
<event>
 5   0  0.3070497E-05  0.1499466E+04  0.7818609E-02  0.8884808E-01
       -2   -1    0    0    0  501  0.00000000000E+00  0.00000000000E+00  0.65489976685E+03  0.65489976686E+03  0.25500000920E-02 0.  1.
        2   -1    0    0  501    0  0.00000000000E+00  0.00000000000E+00 -0.85829845416E+03  0.85829845416E+03  0.25500000920E-02 0. -1.
    10030    2    1    2    0    0  0.00000000000E+00  0.00000000000E+00 -0.20339868730E+03  0.15131982210E+04  0.14994658483E+04 0.  0.
        4    1    3    3  502    0  0.44095699824E+03  0.60279471999E+03 -0.35576023364E+02  0.74771105053E+03  0.12699999809E+01 0. -1.
       -4    1    3    3    0  502 -0.44095699824E+03 -0.60279471999E+03 -0.16782266394E+03  0.76548717049E+03  0.12699999809E+01 0.  1.
</event>
<event>
 5   0  0.2969498E-05  0.1497668E+04  0.7818609E-02  0.8886005E-01
        2   -1    0    0  501    0  0.00000000000E+00  0.00000000000E+00  0.11652077573E+04  0.11652077573E+04  0.25500000920E-02 0. -1.
       -2   -1    0    0    0  501  0.00000000000E+00  0.00000000000E+00 -0.48124637383E+03  0.48124637384E+03  0.25500000920E-02 0.  1.
    10030    2    1    2    0    0  0.00000000000E+00  0.00000000000E+00  0.68396138349E+03  0.16464541312E+04  0.14976675305E+04 0.  0.
        3    1    3    3  502    0 -0.19357109746E+03 -0.60150030899E+03  0.78374747990E+03  0.10067435194E+04  0.10100000352E+00 0. -1.
       -3    1    3    3    0  502  0.19357109746E+03  0.60150030899E+03 -0.99786096416E+02  0.63971061171E+03  0.10100000352E+00 0.  1.
</event>
<event>
 5   0  0.1116613E-05  0.1500260E+04  0.7818609E-02  0.8884280E-01
        3   -1    0    0  501    0  0.00000000000E+00  0.00000000000E+00  0.80782119356E+03  0.80782119987E+03  0.10100000352E+00 0.  1.
       -3   -1    0    0    0  501  0.00000000000E+00  0.00000000000E+00 -0.69655852515E+03  0.69655853247E+03  0.10100000352E+00 0. -1.
    10030    2    1    2    0    0  0.00000000000E+00  0.00000000000E+00  0.11126266841E+03  0.15043797323E+04  0.15002596434E+04 0.  0.
        1    1    3    3  502    0 -0.29065380169E+03  0.30797055061E+03  0.67649992283E+03  0.79810878838E+03  0.50400001928E-02 0.  1.
       -1    1    3    3    0  502  0.29065380169E+03 -0.30797055061E+03 -0.56523725442E+03  0.70627094396E+03  0.50400001928E-02 0. -1.
</event>
<event>
 5   0  0.1116613E-05  0.1500071E+04  0.7818609E-02  0.8884406E-01
       -3   -1    0    0    0  501  0.00000000000E+00  0.00000000000E+00  0.40729374266E+03  0.40729375518E+03  0.10100000352E+00 0. -1.
        3   -1    0    0  501    0  0.00000000000E+00  0.00000000000E+00 -0.13811970359E+04  0.13811970396E+04  0.10100000352E+00 0.  1.
    10030    2    1    2    0    0  0.00000000000E+00  0.00000000000E+00 -0.97390329324E+03  0.17884907948E+04  0.15000705645E+04 0.  0.
        1    1    3    3  502    0  0.62553493062E+03  0.21025643762E+03 -0.61975636020E+02  0.66282931323E+03  0.50400001928E-02 0. -1.
       -1    1    3    3    0  502 -0.62553493062E+03 -0.21025643762E+03 -0.91192765722E+03  0.11256614815E+04  0.50400001928E-02 0.  1.
</event>
<event>
 5   0  0.1588657E-05  0.1500703E+04  0.7818609E-02  0.8883986E-01
       -1   -1    0    0    0  501  0.00000000000E+00  0.00000000000E+00  0.84970833668E+03  0.84970833669E+03  0.50400001928E-02 0.  1.
        1   -1    0    0  501    0  0.00000000000E+00  0.00000000000E+00 -0.66261223022E+03  0.66261223024E+03  0.50400001928E-02 0. -1.
    10030    2    1    2    0    0  0.00000000000E+00  0.00000000000E+00  0.18709610645E+03  0.15123205669E+04  0.15007026835E+04 0.  0.
        3    1    3    3  502    0  0.73885214849E+03  0.12452178461E+03  0.13409577035E+03  0.76117662733E+03  0.10100000352E+00 0. -1.
       -3    1    3    3    0  502 -0.73885214849E+03 -0.12452178461E+03  0.53000336103E+02  0.75114393960E+03  0.10100000352E+00 0.  1.
</event>
<event>
 5   0  0.3030702E-05  0.1500241E+04  0.7818609E-02  0.8884292E-01
       -2   -1    0    0    0  501  0.00000000000E+00  0.00000000000E+00  0.41964300888E+03  0.41964300889E+03  0.25500000920E-02 0.  1.
        2   -1    0    0  501    0  0.00000000000E+00  0.00000000000E+00 -0.13408564289E+04  0.13408564289E+04  0.25500000920E-02 0. -1.
    10030    2    1    2    0    0  0.00000000000E+00  0.00000000000E+00 -0.92121342006E+03  0.17604994378E+04  0.15002413490E+04 0.  0.
        5    1    3    3  502    0  0.11218690250E+01 -0.67971256122E+03 -0.83289419639E+03  0.10750559320E+04  0.46999998093E+01 0.  1.
       -5    1    3    3    0  502 -0.11218690250E+01  0.67971256122E+03 -0.88319223673E+02  0.68544350587E+03  0.46999998093E+01 0. -1.
</event>
<event>
 5   0  0.1643498E-05  0.1500994E+04  0.7818609E-02  0.8883792E-01
        1   -1    0    0  501    0  0.00000000000E+00  0.00000000000E+00  0.39332057666E+03  0.39332057669E+03  0.50400001928E-02 0.  1.
       -1   -1    0    0    0  501  0.00000000000E+00  0.00000000000E+00 -0.14320274841E+04  0.14320274841E+04  0.50400001928E-02 0. -1.
    10030    2    1    2    0    0  0.00000000000E+00  0.00000000000E+00 -0.10387069075E+04  0.18253480608E+04  0.15009941717E+04 0.  0.
        4    1    3    3  502    0 -0.26554132554E+03 -0.55309081690E+03  0.62780745014E+01  0.61356554208E+03  0.12699999809E+01 0.  1.
       -4    1    3    3    0  502  0.26554132554E+03  0.55309081690E+03 -0.10449849820E+04  0.12117825187E+04  0.12699999809E+01 0. -1.
</event>
<event>
 5   0  0.3093600E-05  0.1500646E+04  0.7818609E-02  0.8884024E-01
       -2   -1    0    0    0  501  0.00000000000E+00  0.00000000000E+00  0.71684202821E+03  0.71684202821E+03  0.25500000920E-02 0.  1.
        2   -1    0    0  501    0  0.00000000000E+00  0.00000000000E+00 -0.78536738827E+03  0.78536738828E+03  0.25500000920E-02 0. -1.
    10030    2    1    2    0    0  0.00000000000E+00  0.00000000000E+00 -0.68525360067E+02  0.15022094165E+04  0.15006456630E+04 0.  0.
        1    1    3    3  502    0 -0.74246999393E+03 -0.74404227207E+02  0.44474674334E+02  0.74751299493E+03  0.50400001928E-02 0.  1.
       -1    1    3    3    0  502  0.74246999393E+03  0.74404227207E+02 -0.11300003440E+03  0.75469642156E+03  0.50400001928E-02 0. -1.
</event>
<event>
 5   0  0.3018308E-05  0.1500173E+04  0.7818609E-02  0.8884338E-01
        2   -1    0    0  501    0  0.00000000000E+00  0.00000000000E+00  0.43831841783E+03  0.43831841784E+03  0.25500000920E-02 0.  1.
       -2   -1    0    0    0  501  0.00000000000E+00  0.00000000000E+00 -0.12836090052E+04  0.12836090052E+04  0.25500000920E-02 0. -1.
    10030    2    1    2    0    0  0.00000000000E+00  0.00000000000E+00 -0.84529058741E+03  0.17219274231E+04  0.15001726145E+04 0.  0.
        2    1    3    3  502    0 -0.41692143884E+03  0.46629702411E+03 -0.89781078708E+03  0.10942214631E+04  0.25500000920E-02 0. -1.
       -2    1    3    3    0  502  0.41692143884E+03 -0.46629702411E+03  0.52520199670E+02  0.62770596001E+03  0.25500000920E-02 0.  1.
</event>
<event>
 5   0  0.1533777E-05  0.1500117E+04  0.7818609E-02  0.8884375E-01
        1   -1    0    0  501    0  0.00000000000E+00  0.00000000000E+00  0.16987632657E+04  0.16987632657E+04  0.50400001928E-02 0.  1.
       -1   -1    0    0    0  501  0.00000000000E+00  0.00000000000E+00 -0.33117476731E+03  0.33117476735E+03  0.50400001928E-02 0. -1.
    10030    2    1    2    0    0  0.00000000000E+00  0.00000000000E+00  0.13675884984E+04  0.20299380331E+04  0.15001167012E+04 0.  0.
        5    1    3    3  502    0 -0.73676415757E+03 -0.34355870494E+02  0.49942440734E+03  0.89075730609E+03  0.46999998093E+01 0. -1.
       -5    1    3    3    0  502  0.73676415757E+03  0.34355870494E+02  0.86816409106E+03  0.11391807270E+04  0.46999998093E+01 0.  1.
</event>
<event>
 5   0  0.3070497E-05  0.1500205E+04  0.7818609E-02  0.8884317E-01
        2   -1    0    0  501    0  0.00000000000E+00  0.00000000000E+00  0.11308006725E+04  0.11308006725E+04  0.25500000920E-02 0. -1.
       -2   -1    0    0    0  501  0.00000000000E+00  0.00000000000E+00 -0.49757090352E+03  0.49757090353E+03  0.25500000920E-02 0.  1.
    10030    2    1    2    0    0  0.00000000000E+00  0.00000000000E+00  0.63322976897E+03  0.16283715760E+04  0.15002046691E+04 0.  0.
        4    1    3    3  502    0 -0.33811994779E+03  0.40698694323E+03  0.89372277977E+03  0.10386074769E+04  0.12699999809E+01 0. -1.
       -4    1    3    3    0  502  0.33811994779E+03 -0.40698694323E+03 -0.26049301080E+03  0.58976409914E+03  0.12699999809E+01 0.  1.
</event>
<event>
 5   0  0.3030702E-05  0.1499713E+04  0.7818609E-02  0.8884644E-01
       -2   -1    0    0    0  501  0.00000000000E+00  0.00000000000E+00  0.27371798004E+03  0.27371798005E+03  0.25500000920E-02 0. -1.
        2   -1    0    0  501    0  0.00000000000E+00  0.00000000000E+00 -0.20542474260E+04  0.20542474260E+04  0.25500000920E-02 0.  1.
    10030    2    1    2    0    0  0.00000000000E+00  0.00000000000E+00 -0.17805294460E+04  0.23279654061E+04  0.14997125804E+04 0.  0.
        5    1    3    3  502    0 -0.10349875556E+03  0.71277453209E+03 -0.12140277804E+04  0.14116108060E+04  0.46999998093E+01 0.  1.
       -5    1    3    3    0  502  0.10349875556E+03 -0.71277453209E+03 -0.56650166560E+03  0.91635460010E+03  0.46999998093E+01 0. -1.
</event>
<event>
 5   0  0.1643498E-05  0.1498155E+04  0.7818609E-02  0.8885681E-01
        1   -1    0    0  501    0  0.00000000000E+00  0.00000000000E+00  0.48979234842E+03  0.48979234844E+03  0.50400001928E-02 0. -1.
       -1   -1    0    0    0  501  0.00000000000E+00  0.00000000000E+00 -0.11456229477E+04  0.11456229477E+04  0.50400001928E-02 0.  1.
    10030    2    1    2    0    0  0.00000000000E+00  0.00000000000E+00 -0.65583059928E+03  0.16354152962E+04  0.14981553377E+04 0.  0.
        4    1    3    3  502    0 -0.53654181004E+03 -0.52153358900E+03 -0.36637598849E+03  0.83313106785E+03  0.12699999809E+01 0.  1.
       -4    1    3    3    0  502  0.53654181004E+03  0.52153358900E+03 -0.28945461079E+03  0.80228422830E+03  0.12699999809E+01 0. -1.
</event>
<event>
 5   0  0.2969498E-05  0.1499703E+04  0.7818609E-02  0.8884650E-01
        2   -1    0    0  501    0  0.00000000000E+00  0.00000000000E+00  0.10535899675E+04  0.10535899675E+04  0.25500000920E-02 0.  1.
       -2   -1    0    0    0  501  0.00000000000E+00  0.00000000000E+00 -0.53367783013E+03  0.53367783014E+03  0.25500000920E-02 0. -1.
    10030    2    1    2    0    0  0.00000000000E+00  0.00000000000E+00  0.51991213739E+03  0.15872677977E+04  0.14997034477E+04 0.  0.
        3    1    3    3  502    0 -0.23875483448E+03  0.60610120872E+03 -0.13309650851E+03  0.66488889070E+03  0.10100000352E+00 0. -1.
       -3    1    3    3    0  502  0.23875483448E+03 -0.60610120872E+03  0.65300864590E+03  0.92237890697E+03  0.10100000352E+00 0.  1.
</event>
<event>
 5   0  0.1533777E-05  0.1500230E+04  0.7818609E-02  0.8884300E-01
        1   -1    0    0  501    0  0.00000000000E+00  0.00000000000E+00  0.41575796717E+03  0.41575796720E+03  0.50400001928E-02 0. -1.
       -1   -1    0    0    0  501  0.00000000000E+00  0.00000000000E+00 -0.13533651215E+04  0.13533651215E+04  0.50400001928E-02 0.  1.
    10030    2    1    2    0    0  0.00000000000E+00  0.00000000000E+00 -0.93760715437E+03  0.17691230887E+04  0.15002297581E+04 0.  0.
        5    1    3    3  502    0  0.63274645746E+03  0.26046378199E+03 -0.83119679302E+03  0.10766241962E+04  0.46999998093E+01 0.  1.
       -5    1    3    3    0  502 -0.63274645746E+03 -0.26046378199E+03 -0.10641036135E+03  0.69249889253E+03  0.46999998093E+01 0. -1.
</event>
<event>
 5   0  0.1588657E-05  0.1500524E+04  0.7818609E-02  0.8884105E-01
       -1   -1    0    0    0  501  0.00000000000E+00  0.00000000000E+00  0.30398211652E+03  0.30398211656E+03  0.50400001928E-02 0. -1.
        1   -1    0    0  501    0  0.00000000000E+00  0.00000000000E+00 -0.18517301084E+04  0.18517301084E+04  0.50400001928E-02 0.  1.
    10030    2    1    2    0    0  0.00000000000E+00  0.00000000000E+00 -0.15477479918E+04  0.21557122249E+04  0.15005236921E+04 0.  0.
        3    1    3    3  502    0  0.50511353845E+03  0.40675146590E+03 -0.13158251206E+04  0.14669635987E+04  0.10100000352E+00 0.  1.
       -3    1    3    3    0  502 -0.50511353845E+03 -0.40675146590E+03 -0.23192287128E+03  0.68874862625E+03  0.10100000352E+00 0. -1.
</event>
<event>
 5   0  0.1588657E-05  0.1500136E+04  0.7818609E-02  0.8884362E-01
        1   -1    0    0  501    0  0.00000000000E+00  0.00000000000E+00  0.11822794878E+04  0.11822794878E+04  0.50400001928E-02 0.  1.
       -1   -1    0    0    0  501  0.00000000000E+00  0.00000000000E+00 -0.47586241565E+03  0.47586241568E+03  0.50400001928E-02 0. -1.
    10030    2    1    2    0    0  0.00000000000E+00  0.00000000000E+00  0.70641707213E+03  0.16581419035E+04  0.15001364912E+04 0.  0.
        3    1    3    3  502    0 -0.73150318127E+03 -0.13553209230E+03  0.45886135781E+03  0.87408215183E+03  0.10100000352E+00 0. -1.
       -3    1    3    3    0  502  0.73150318127E+03  0.13553209230E+03  0.24755571431E+03  0.78405975164E+03  0.10100000352E+00 0.  1.
</event>
<event>
 5   0  0.1576214E-05  0.1500247E+04  0.7818609E-02  0.8884289E-01
       -1   -1    0    0    0  501  0.00000000000E+00  0.00000000000E+00  0.38675755925E+03  0.38675755929E+03  0.50400001928E-02 0. -1.
        1   -1    0    0  501    0  0.00000000000E+00  0.00000000000E+00 -0.14548776465E+04  0.14548776465E+04  0.50400001928E-02 0.  1.
    10030    2    1    2    0    0  0.00000000000E+00  0.00000000000E+00 -0.10681200872E+04  0.18416352058E+04  0.15002465499E+04 0.  0.
        1    1    3    3  502    0  0.69869927937E+03  0.22263281739E+03 -0.34020398190E+03  0.80838406942E+03  0.50400001928E-02 0.  1.
       -1    1    3    3    0  502 -0.69869927937E+03 -0.22263281739E+03 -0.72791610533E+03  0.10332511364E+04  0.50400001928E-02 0. -1.
</event>
<event>
 5   0  0.2969498E-05  0.1500510E+04  0.7818609E-02  0.8884114E-01
        2   -1    0    0  501    0  0.00000000000E+00  0.00000000000E+00  0.17728291964E+04  0.17728291964E+04  0.25500000920E-02 0. -1.
       -2   -1    0    0    0  501  0.00000000000E+00  0.00000000000E+00 -0.31750517382E+03  0.31750517383E+03  0.25500000920E-02 0.  1.
    10030    2    1    2    0    0  0.00000000000E+00  0.00000000000E+00  0.14553240226E+04  0.20903343702E+04  0.15005098363E+04 0.  0.
        3    1    3    3  502    0  0.79553463933E+02  0.41415671419E+03  0.15920784394E+04  0.16469876456E+04  0.10100000352E+00 0. -1.
       -3    1    3    3    0  502 -0.79553463933E+02 -0.41415671419E+03 -0.13675441677E+03  0.44334672463E+03  0.10100000352E+00 0.  1.
</event>
<event>
 5   0  0.1116613E-05  0.1499423E+04  0.7818609E-02  0.8884837E-01
       -3   -1    0    0    0  501  0.00000000000E+00  0.00000000000E+00  0.92516531036E+03  0.92516531587E+03  0.10100000352E+00 0. -1.
        3   -1    0    0  501    0  0.00000000000E+00  0.00000000000E+00 -0.60753177783E+03  0.60753178622E+03  0.10100000352E+00 0.  1.
    10030    2    1    2    0    0  0.00000000000E+00  0.00000000000E+00  0.31763353253E+03  0.15326971021E+04  0.14994230043E+04 0.  0.
        2    1    3    3  502    0  0.48938160772E+03  0.18385639794E+03 -0.39048128125E+03  0.65251296083E+03  0.25500000920E-02 0.  1.
       -2    1    3    3    0  502 -0.48938160772E+03 -0.18385639794E+03  0.70811481378E+03  0.88018414127E+03  0.25500000920E-02 0. -1.
</event>
<event>
 5   0  0.2969498E-05  0.1499602E+04  0.7818609E-02  0.8884718E-01
       -2   -1    0    0    0  501  0.00000000000E+00  0.00000000000E+00  0.14582984307E+04  0.14582984307E+04  0.25500000920E-02 0.  1.
        2   -1    0    0  501    0  0.00000000000E+00  0.00000000000E+00 -0.38551865484E+03  0.38551865485E+03  0.25500000920E-02 0. -1.
    10030    2    1    2    0    0  0.00000000000E+00  0.00000000000E+00  0.10727797759E+04  0.18438170856E+04  0.14996016129E+04 0.  0.
        3    1    3    3  502    0 -0.30683225649E+02 -0.74717876068E+03  0.46922876589E+03  0.88283249016E+03  0.10100000352E+00 0.  1.
       -3    1    3    3    0  502  0.30683225649E+02  0.74717876068E+03  0.60355100997E+03  0.96098459539E+03  0.10100000352E+00 0. -1.
</event>
<event>
 5   0  0.3030702E-05  0.1499967E+04  0.7818609E-02  0.8884475E-01
        2   -1    0    0  501    0  0.00000000000E+00  0.00000000000E+00  0.83518913830E+03  0.83518913831E+03  0.25500000920E-02 0.  1.
       -2   -1    0    0    0  501  0.00000000000E+00  0.00000000000E+00 -0.67347006296E+03  0.67347006297E+03  0.25500000920E-02 0. -1.
    10030    2    1    2    0    0  0.00000000000E+00  0.00000000000E+00  0.16171907534E+03  0.15086592013E+04  0.14999665084E+04 0.  0.
        5    1    3    3  502    0  0.54137498747E+03  0.27209025333E+03  0.52538555137E+03  0.80198008117E+03  0.46999998093E+01 0.  1.
       -5    1    3    3    0  502 -0.54137498747E+03 -0.27209025333E+03 -0.36366647603E+03  0.70667912011E+03  0.46999998093E+01 0. -1.
</event>
<event>
 5   0  0.1580078E-05  0.1498046E+04  0.7818609E-02  0.8885754E-01
        1   -1    0    0  501    0  0.00000000000E+00  0.00000000000E+00  0.12856603267E+04  0.12856603267E+04  0.50400001928E-02 0.  1.
       -1   -1    0    0    0  501  0.00000000000E+00  0.00000000000E+00 -0.43637901614E+03  0.43637901616E+03  0.50400001928E-02 0. -1.
    10030    2    1    2    0    0  0.00000000000E+00  0.00000000000E+00  0.84928131058E+03  0.17220393429E+04  0.14980456448E+04 0.  0.
        2    1    3    3  502    0 -0.34352496521E+03 -0.31639953933E+03 -0.24851051601E+03  0.52903265190E+03  0.25500000920E-02 0. -1.
       -2    1    3    3    0  502  0.34352496521E+03  0.31639953933E+03  0.10977918266E+04  0.11930066910E+04  0.25500000920E-02 0.  1.
</event>
<event>
 5   0  0.1643498E-05  0.1500098E+04  0.7818609E-02  0.8884388E-01
       -1   -1    0    0    0  501  0.00000000000E+00  0.00000000000E+00  0.86591694767E+03  0.86591694768E+03  0.50400001928E-02 0. -1.
        1   -1    0    0  501    0  0.00000000000E+00  0.00000000000E+00 -0.64968520079E+03  0.64968520081E+03  0.50400001928E-02 0.  1.
    10030    2    1    2    0    0  0.00000000000E+00  0.00000000000E+00  0.21623174687E+03  0.15156021485E+04  0.15000978982E+04 0.  0.
        4    1    3    3  502    0  0.27259060071E+03 -0.29678068476E+03 -0.53102606646E+03  0.66661436123E+03  0.12699999809E+01 0.  1.
       -4    1    3    3    0  502 -0.27259060071E+03  0.29678068476E+03  0.74725781333E+03  0.84898778727E+03  0.12699999809E+01 0. -1.
</event>
<event>
 5   0  0.3018308E-05  0.1499046E+04  0.7818609E-02  0.8885087E-01
        2   -1    0    0  501    0  0.00000000000E+00  0.00000000000E+00  0.11991710266E+04  0.11991710266E+04  0.25500000920E-02 0.  1.
       -2   -1    0    0    0  501  0.00000000000E+00  0.00000000000E+00 -0.46847775592E+03  0.46847775593E+03  0.25500000920E-02 0. -1.
    10030    2    1    2    0    0  0.00000000000E+00  0.00000000000E+00  0.73069327064E+03  0.16676487825E+04  0.14990462988E+04 0.  0.
        2    1    3    3  502    0 -0.76562280179E+02 -0.74468465242E+03  0.32420110905E+03  0.81579615923E+03  0.25500000920E-02 0. -1.
       -2    1    3    3    0  502  0.76562280179E+02  0.74468465242E+03  0.40649216158E+03  0.85185262325E+03  0.25500000920E-02 0.  1.
</event>
<event>
 5   0  0.2969498E-05  0.1497556E+04  0.7818609E-02  0.8886080E-01
       -2   -1    0    0    0  501  0.00000000000E+00  0.00000000000E+00  0.47483862552E+03  0.47483862552E+03  0.25500000920E-02 0.  1.
        2   -1    0    0  501    0  0.00000000000E+00  0.00000000000E+00 -0.11807553460E+04  0.11807553460E+04  0.25500000920E-02 0. -1.
    10030    2    1    2    0    0  0.00000000000E+00  0.00000000000E+00 -0.70591672046E+03  0.16555939715E+04  0.14975556692E+04 0.  0.
        3    1    3    3  502    0 -0.18769552207E+03 -0.64660064628E+03  0.92548290881E+01  0.67335552781E+03  0.10100000352E+00 0.  1.
       -3    1    3    3    0  502  0.18769552207E+03  0.64660064628E+03 -0.71517154955E+03  0.98223844369E+03  0.10100000352E+00 0. -1.
</event>
<event>
 5   0  0.1576214E-05  0.1500738E+04  0.7818609E-02  0.8883962E-01
       -1   -1    0    0    0  501  0.00000000000E+00  0.00000000000E+00  0.66988708277E+03  0.66988708279E+03  0.50400001928E-02 0. -1.
        1   -1    0    0  501    0  0.00000000000E+00  0.00000000000E+00 -0.84051991415E+03  0.84051991417E+03  0.50400001928E-02 0.  1.
    10030    2    1    2    0    0  0.00000000000E+00  0.00000000000E+00 -0.17063283139E+03  0.15104069970E+04  0.15007377297E+04 0.  0.
        1    1    3    3  502    0  0.77255351614E+02  0.19978493130E+03  0.63846308782E+03  0.67343709629E+03  0.50400001928E-02 0. -1.
       -1    1    3    3    0  502 -0.77255351614E+02 -0.19978493130E+03 -0.80909591920E+03  0.83696990067E+03  0.50400001928E-02 0.  1.
</event>
<event>
 5   0  0.3030702E-05  0.1499803E+04  0.7818609E-02  0.8884584E-01
        2   -1    0    0  501    0  0.00000000000E+00  0.00000000000E+00  0.12845118370E+04  0.12845118370E+04  0.25500000920E-02 0.  1.
       -2   -1    0    0    0  501  0.00000000000E+00  0.00000000000E+00 -0.43779468953E+03  0.43779468954E+03  0.25500000920E-02 0. -1.
    10030    2    1    2    0    0  0.00000000000E+00  0.00000000000E+00  0.84671714747E+03  0.17223065265E+04  0.14998032683E+04 0.  0.
        5    1    3    3  502    0  0.12601357637E+03 -0.72282476813E+03  0.24554774204E+03  0.77373823123E+03  0.46999998093E+01 0. -1.
       -5    1    3    3    0  502 -0.12601357637E+03  0.72282476813E+03  0.60116940543E+03  0.94856829531E+03  0.46999998093E+01 0.  1.
</event>
<event>
 5   0  0.1643498E-05  0.1500003E+04  0.7818609E-02  0.8884451E-01
       -1   -1    0    0    0  501  0.00000000000E+00  0.00000000000E+00  0.62219241396E+03  0.62219241398E+03  0.50400001928E-02 0. -1.
        1   -1    0    0  501    0  0.00000000000E+00  0.00000000000E+00 -0.90406536194E+03  0.90406536195E+03  0.50400001928E-02 0.  1.
    10030    2    1    2    0    0  0.00000000000E+00  0.00000000000E+00 -0.28187294798E+03  0.15262577759E+04  0.15000034799E+04 0.  0.
        4    1    3    3  502    0  0.26664996442E+03  0.63653256735E+03  0.15784415462E+03  0.70794936462E+03  0.12699999809E+01 0.  1.
       -4    1    3    3    0  502 -0.26664996442E+03 -0.63653256735E+03 -0.43971710260E+03  0.81830841132E+03  0.12699999809E+01 0. -1.
</event>
<event>
 5   0  0.1533777E-05  0.1500803E+04  0.7818609E-02  0.8883919E-01
       -1   -1    0    0    0  501  0.00000000000E+00  0.00000000000E+00  0.11967563443E+04  0.11967563443E+04  0.50400001928E-02 0. -1.
        1   -1    0    0  501    0  0.00000000000E+00  0.00000000000E+00 -0.47052361952E+03  0.47052361955E+03  0.50400001928E-02 0.  1.
    10030    2    1    2    0    0  0.00000000000E+00  0.00000000000E+00  0.72623272478E+03  0.16672799639E+04  0.15008026210E+04 0.  0.
        5    1    3    3  502    0 -0.42207883341E+03 -0.57289711986E+03  0.98542534470E+02  0.71839708564E+03  0.46999998093E+01 0.  1.
       -5    1    3    3    0  502  0.42207883341E+03  0.57289711986E+03  0.62769019031E+03  0.94888287821E+03  0.46999998093E+01 0. -1.
</event>
<event>
 5   0  0.3018308E-05  0.1494701E+04  0.7818609E-02  0.8887984E-01
       -2   -1    0    0    0  501  0.00000000000E+00  0.00000000000E+00  0.90583051590E+03  0.90583051590E+03  0.25500000920E-02 0. -1.
        2   -1    0    0  501    0  0.00000000000E+00  0.00000000000E+00 -0.61659766640E+03  0.61659766640E+03  0.25500000920E-02 0.  1.
    10030    2    1    2    0    0  0.00000000000E+00  0.00000000000E+00  0.28923284950E+03  0.15224281823E+04  0.14947012842E+04 0.  0.
        2    1    3    3  502    0  0.24205096245E+03  0.58359124831E+03  0.55122792302E+03  0.83846266265E+03  0.25500000920E-02 0. -1.
       -2    1    3    3    0  502 -0.24205096245E+03 -0.58359124831E+03 -0.26199507351E+03  0.68396551966E+03  0.25500000920E-02 0.  1.
</event>
<event>
 5   0  0.1576214E-05  0.1499254E+04  0.7818609E-02  0.8884949E-01
       -1   -1    0    0    0  501  0.00000000000E+00  0.00000000000E+00  0.59258714433E+03  0.59258714435E+03  0.50400001928E-02 0. -1.
        1   -1    0    0  501    0  0.00000000000E+00  0.00000000000E+00 -0.94828391383E+03  0.94828391384E+03  0.50400001928E-02 0.  1.
    10030    2    1    2    0    0  0.00000000000E+00  0.00000000000E+00 -0.35569676950E+03  0.15408710582E+04  0.14992542900E+04 0.  0.
        1    1    3    3  502    0 -0.31801802094E+03  0.63244466400E+03 -0.43130938344E+03  0.82894481055E+03  0.50400001928E-02 0. -1.
       -1    1    3    3    0  502  0.31801802094E+03 -0.63244466400E+03  0.75612613944E+02  0.71192624764E+03  0.50400001928E-02 0.  1.
</event>
<event>
 5   0  0.1580078E-05  0.1499886E+04  0.7818609E-02  0.8884529E-01
       -1   -1    0    0    0  501  0.00000000000E+00  0.00000000000E+00  0.38808155814E+03  0.38808155818E+03  0.50400001928E-02 0.  1.
        1   -1    0    0  501    0  0.00000000000E+00  0.00000000000E+00 -0.14492173148E+04  0.14492173148E+04  0.50400001928E-02 0. -1.
    10030    2    1    2    0    0  0.00000000000E+00  0.00000000000E+00 -0.10611357567E+04  0.18372988730E+04  0.14998860139E+04 0.  0.
        2    1    3    3  502    0 -0.10146107561E+03 -0.44152868061E+03 -0.12626513696E+04  0.13414657681E+04  0.25500000920E-02 0. -1.
       -2    1    3    3    0  502  0.10146107561E+03  0.44152868061E+03  0.20151561296E+03  0.49583310493E+03  0.25500000920E-02 0.  1.
</event>
<event>
 5   0  0.3030702E-05  0.1499000E+04  0.7818609E-02  0.8885118E-01
        2   -1    0    0  501    0  0.00000000000E+00  0.00000000000E+00  0.69798918752E+03  0.69798918753E+03  0.25500000920E-02 0.  1.
       -2   -1    0    0    0  501  0.00000000000E+00  0.00000000000E+00 -0.80481192000E+03  0.80481192000E+03  0.25500000920E-02 0. -1.
    10030    2    1    2    0    0  0.00000000000E+00  0.00000000000E+00 -0.10682273248E+03  0.15028011075E+04  0.14989996907E+04 0.  0.
        5    1    3    3  502    0 -0.85298917737E+02 -0.70897706166E+02 -0.79652355416E+03  0.80422276294E+03  0.46999998093E+01 0. -1.
       -5    1    3    3    0  502  0.85298917737E+02  0.70897706166E+02  0.68970082168E+03  0.69857834459E+03  0.46999998093E+01 0.  1.
</event>
<event>
 5   0  0.3070497E-05  0.1499353E+04  0.7818609E-02  0.8884883E-01
       -2   -1    0    0    0  501  0.00000000000E+00  0.00000000000E+00  0.22992804429E+03  0.22992804430E+03  0.25500000920E-02 0.  1.
        2   -1    0    0  501    0  0.00000000000E+00  0.00000000000E+00 -0.24443076364E+04  0.24443076364E+04  0.25500000920E-02 0. -1.
    10030    2    1    2    0    0  0.00000000000E+00  0.00000000000E+00 -0.22143795921E+04  0.26742356807E+04  0.14993530265E+04 0.  0.
        4    1    3    3  502    0 -0.34967761702E+03  0.32053745945E+03 -0.71792025851E+02  0.47976494936E+03  0.12699999809E+01 0.  1.
       -4    1    3    3    0  502  0.34967761702E+03 -0.32053745945E+03 -0.21425875663E+04  0.21944707313E+04  0.12699999809E+01 0. -1.
</event>
<event>
 5   0  0.1580078E-05  0.1499694E+04  0.7818609E-02  0.8884656E-01
       -1   -1    0    0    0  501  0.00000000000E+00  0.00000000000E+00  0.19978005034E+03  0.19978005040E+03  0.50400001928E-02 0. -1.
        1   -1    0    0  501    0  0.00000000000E+00  0.00000000000E+00 -0.28144488075E+04  0.28144488075E+04  0.50400001928E-02 0.  1.
    10030    2    1    2    0    0  0.00000000000E+00  0.00000000000E+00 -0.26146687572E+04  0.30142288579E+04  0.14996942682E+04 0.  0.
        2    1    3    3  502    0  0.38514075068E+03  0.53617834556E+02 -0.25959618851E+04  0.26249240710E+04  0.25500000920E-02 0.  1.
       -2    1    3    3    0  502 -0.38514075068E+03 -0.53617834556E+02 -0.18706872114E+02  0.38930478688E+03  0.25500000920E-02 0. -1.
</event>
<event>
 5   0  0.1588657E-05  0.1500225E+04  0.7818609E-02  0.8884303E-01
       -1   -1    0    0    0  501  0.00000000000E+00  0.00000000000E+00  0.24029848737E+03  0.24029848742E+03  0.50400001928E-02 0.  1.
        1   -1    0    0  501    0  0.00000000000E+00  0.00000000000E+00 -0.23415424093E+04  0.23415424093E+04  0.50400001928E-02 0. -1.
    10030    2    1    2    0    0  0.00000000000E+00  0.00000000000E+00 -0.21012439219E+04  0.25818408967E+04  0.15002254486E+04 0.  0.
        3    1    3    3  502    0 -0.11230510217E+03  0.68601663139E+03 -0.15356721137E+04  0.16856809026E+04  0.10100000352E+00 0. -1.
       -3    1    3    3    0  502  0.11230510217E+03 -0.68601663139E+03 -0.56557180822E+03  0.89615999407E+03  0.10100000352E+00 0.  1.
</event>
<event>
 5   0  0.1580078E-05  0.1501992E+04  0.7818609E-02  0.8883129E-01
        1   -1    0    0  501    0  0.00000000000E+00  0.00000000000E+00  0.20410541337E+04  0.20410541337E+04  0.50400001928E-02 0.  1.
       -1   -1    0    0    0  501  0.00000000000E+00  0.00000000000E+00 -0.27632542392E+03  0.27632542396E+03  0.50400001928E-02 0. -1.
    10030    2    1    2    0    0  0.00000000000E+00  0.00000000000E+00  0.17647287098E+04  0.23173795577E+04  0.15019922088E+04 0.  0.
        2    1    3    3  502    0 -0.15553002396E+03 -0.73445446682E+03  0.91252724140E+03  0.11816593919E+04  0.25500000920E-02 0. -1.
       -2    1    3    3    0  502  0.15553002396E+03  0.73445446682E+03  0.85220146837E+03  0.11357201657E+04  0.25500000920E-02 0.  1.
</event>
<event>
 5   0  0.2969498E-05  0.1499641E+04  0.7818609E-02  0.8884691E-01
       -2   -1    0    0    0  501  0.00000000000E+00  0.00000000000E+00  0.99311787992E+03  0.99311787992E+03  0.25500000920E-02 0. -1.
        2   -1    0    0  501    0  0.00000000000E+00  0.00000000000E+00 -0.56612722608E+03  0.56612722609E+03  0.25500000920E-02 0.  1.
    10030    2    1    2    0    0  0.00000000000E+00  0.00000000000E+00  0.42699065384E+03  0.15592451060E+04  0.14996413845E+04 0.  0.
        3    1    3    3  502    0 -0.95129264815E+02  0.34738141261E+03  0.89728708722E+03  0.96687514703E+03  0.10100000352E+00 0. -1.
       -3    1    3    3    0  502  0.95129264815E+02 -0.34738141261E+03 -0.47029643338E+03  0.59236995898E+03  0.10100000352E+00 0.  1.
</event>
<event>
 5   0  0.1533777E-05  0.1500123E+04  0.7818609E-02  0.8884371E-01
       -1   -1    0    0    0  501  0.00000000000E+00  0.00000000000E+00  0.75020743652E+03  0.75020743654E+03  0.50400001928E-02 0.  1.
        1   -1    0    0  501    0  0.00000000000E+00  0.00000000000E+00 -0.74991579719E+03  0.74991579721E+03  0.50400001928E-02 0. -1.
    10030    2    1    2    0    0  0.00000000000E+00  0.00000000000E+00  0.29163933299E+00  0.15001232337E+04  0.15001232054E+04 0.  0.
        5    1    3    3  502    0 -0.51466608156E+03 -0.43228420312E+03 -0.33274983104E+03  0.74999689855E+03  0.46999998093E+01 0. -1.
       -5    1    3    3    0  502  0.51466608156E+03  0.43228420312E+03  0.33304147037E+03  0.75012633520E+03  0.46999998093E+01 0.  1.
</event>
<event>
 5   0  0.1643498E-05  0.1499712E+04  0.7818609E-02  0.8884644E-01
       -1   -1    0    0    0  501  0.00000000000E+00  0.00000000000E+00  0.94950276623E+03  0.94950276625E+03  0.50400001928E-02 0.  1.
        1   -1    0    0  501    0  0.00000000000E+00  0.00000000000E+00 -0.59218799774E+03  0.59218799776E+03  0.50400001928E-02 0. -1.
    10030    2    1    2    0    0  0.00000000000E+00  0.00000000000E+00  0.35731476849E+03  0.15416907640E+04  0.14997121617E+04 0.  0.
        4    1    3    3  502    0 -0.59243750999E+03 -0.27989850142E+03 -0.19618199820E+03  0.68396956340E+03  0.12699999809E+01 0. -1.
       -4    1    3    3    0  502  0.59243750999E+03  0.27989850142E+03  0.55349676669E+03  0.85772120061E+03  0.12699999809E+01 0.  1.
</event>
<event>
 5   0  0.1588657E-05  0.1500043E+04  0.7818609E-02  0.8884424E-01
       -1   -1    0    0    0  501  0.00000000000E+00  0.00000000000E+00  0.67739224922E+03  0.67739224923E+03  0.50400001928E-02 0.  1.
        1   -1    0    0  501    0  0.00000000000E+00  0.00000000000E+00 -0.83043781027E+03  0.83043781028E+03  0.50400001928E-02 0. -1.
    10030    2    1    2    0    0  0.00000000000E+00  0.00000000000E+00 -0.15304556105E+03  0.15078300595E+04  0.15000428476E+04 0.  0.
        3    1    3    3  502    0 -0.61950588875E+03 -0.41065199866E+02  0.34644451715E+03  0.71098362183E+03  0.10100000352E+00 0.  1.
       -3    1    3    3    0  502  0.61950588875E+03  0.41065199866E+02 -0.49949007820E+03  0.79684643769E+03  0.10100000352E+00 0. -1.
</event>
<event>
 5   0  0.3093600E-05  0.1500200E+04  0.7818609E-02  0.8884320E-01
       -2   -1    0    0    0  501  0.00000000000E+00  0.00000000000E+00  0.82817583891E+03  0.82817583892E+03  0.25500000920E-02 0.  1.
        2   -1    0    0  501    0  0.00000000000E+00  0.00000000000E+00 -0.67938428809E+03  0.67938428809E+03  0.25500000920E-02 0. -1.
    10030    2    1    2    0    0  0.00000000000E+00  0.00000000000E+00  0.14879155082E+03  0.15075601270E+04  0.15001995237E+04 0.  0.
        1    1    3    3  502    0 -0.92466412502E+02  0.26438836645E+03  0.77365353967E+03  0.82279465556E+03  0.50400001928E-02 0.  1.
       -1    1    3    3    0  502  0.92466412502E+02 -0.26438836645E+03 -0.62486198885E+03  0.68476547144E+03  0.50400001928E-02 0. -1.
</event>
<event>
 5   0  0.1576214E-05  0.1499178E+04  0.7818609E-02  0.8884999E-01
       -1   -1    0    0    0  501  0.00000000000E+00  0.00000000000E+00  0.75914506268E+03  0.75914506269E+03  0.50400001928E-02 0. -1.
        1   -1    0    0  501    0  0.00000000000E+00  0.00000000000E+00 -0.74015359543E+03  0.74015359544E+03  0.50400001928E-02 0.  1.
    10030    2    1    2    0    0  0.00000000000E+00  0.00000000000E+00  0.18991467251E+02  0.14992986581E+04  0.14991783718E+04 0.  0.
        1    1    3    3  502    0 -0.18221242727E+03 -0.23591865541E+03  0.69731902211E+03  0.75836191838E+03  0.50400001928E-02 0. -1.
       -1    1    3    3    0  502  0.18221242727E+03  0.23591865541E+03 -0.67832755486E+03  0.74093673976E+03  0.50400001928E-02 0.  1.
</event>
<event>
 5   0  0.2969498E-05  0.1500175E+04  0.7818609E-02  0.8884336E-01
       -2   -1    0    0    0  501  0.00000000000E+00  0.00000000000E+00  0.26974050727E+03  0.26974050728E+03  0.25500000920E-02 0. -1.
        2   -1    0    0  501    0  0.00000000000E+00  0.00000000000E+00 -0.20858245379E+04  0.20858245379E+04  0.25500000920E-02 0.  1.
    10030    2    1    2    0    0  0.00000000000E+00  0.00000000000E+00 -0.18160840306E+04  0.23555650452E+04  0.15001751484E+04 0.  0.
        3    1    3    3  502    0  0.54725462527E+03  0.51307282503E+02 -0.17094735270E+04  0.17956669546E+04  0.10100000352E+00 0.  1.
       -3    1    3    3    0  502 -0.54725462527E+03 -0.51307282503E+02 -0.10661050358E+03  0.55989809054E+03  0.10100000352E+00 0. -1.
</event>
<event>
 5   0  0.2969498E-05  0.1499875E+04  0.7818609E-02  0.8884536E-01
       -2   -1    0    0    0  501  0.00000000000E+00  0.00000000000E+00  0.15661019308E+04  0.15661019308E+04  0.25500000920E-02 0.  1.
        2   -1    0    0  501    0  0.00000000000E+00  0.00000000000E+00 -0.35911236596E+03  0.35911236597E+03  0.25500000920E-02 0. -1.
    10030    2    1    2    0    0  0.00000000000E+00  0.00000000000E+00  0.12069895648E+04  0.19252142968E+04  0.14998754211E+04 0.  0.
        3    1    3    3  502    0 -0.39639415112E+03  0.57910361679E+03  0.94289805076E+03  0.11753918778E+04  0.10100000352E+00 0. -1.
       -3    1    3    3    0  502  0.39639415112E+03 -0.57910361679E+03  0.26409151408E+03  0.74982241900E+03  0.10100000352E+00 0.  1.
</event>
<event>
 5   0  0.3070497E-05  0.1499516E+04  0.7818609E-02  0.8884775E-01
       -2   -1    0    0    0  501  0.00000000000E+00  0.00000000000E+00  0.31776267817E+03  0.31776267818E+03  0.25500000920E-02 0. -1.
        2   -1    0    0  501    0  0.00000000000E+00  0.00000000000E+00 -0.17690466363E+04  0.17690466363E+04  0.25500000920E-02 0.  1.
    10030    2    1    2    0    0  0.00000000000E+00  0.00000000000E+00 -0.14512839581E+04  0.20868093145E+04  0.14995159179E+04 0.  0.
        4    1    3    3  502    0  0.26807825911E+03 -0.11489229945E+03  0.23557707570E+03  0.37491914458E+03  0.12699999809E+01 0. -1.
       -4    1    3    3    0  502 -0.26807825911E+03  0.11489229945E+03 -0.16868610338E+04  0.17118901699E+04  0.12699999809E+01 0.  1.
</event>
<event>
 5   0  0.1588657E-05  0.1499718E+04  0.7818609E-02  0.8884641E-01
        1   -1    0    0  501    0  0.00000000000E+00  0.00000000000E+00  0.52261120262E+03  0.52261120264E+03  0.50400001928E-02 0.  1.
       -1   -1    0    0    0  501  0.00000000000E+00  0.00000000000E+00 -0.10759206696E+04  0.10759206696E+04  0.50400001928E-02 0. -1.
    10030    2    1    2    0    0  0.00000000000E+00  0.00000000000E+00 -0.55330946694E+03  0.15985318722E+04  0.14997175668E+04 0.  0.
        3    1    3    3  502    0 -0.16716664525E+03 -0.25910129465E+03  0.45190957841E+03  0.54708358176E+03  0.10100000352E+00 0.  1.
       -3    1    3    3    0  502  0.16716664525E+03  0.25910129465E+03 -0.10052190454E+04  0.10514482905E+04  0.10100000352E+00 0. -1.
</event>
<event>
 5   0  0.3070497E-05  0.1500295E+04  0.7818609E-02  0.8884257E-01
       -2   -1    0    0    0  501  0.00000000000E+00  0.00000000000E+00  0.31861012009E+03  0.31861012010E+03  0.25500000920E-02 0. -1.
        2   -1    0    0  501    0  0.00000000000E+00  0.00000000000E+00 -0.17661743421E+04  0.17661743421E+04  0.25500000920E-02 0.  1.
    10030    2    1    2    0    0  0.00000000000E+00  0.00000000000E+00 -0.14475642220E+04  0.20847844622E+04  0.15002946634E+04 0.  0.
        4    1    3    3  502    0  0.43475410763E+03 -0.46860950907E+03 -0.17826949565E+03  0.66361708242E+03  0.12699999809E+01 0. -1.
       -4    1    3    3    0  502 -0.43475410763E+03  0.46860950907E+03 -0.12692947264E+04  0.14211673798E+04  0.12699999809E+01 0.  1.
</event>
<event>
 5   0  0.1533777E-05  0.1499170E+04  0.7818609E-02  0.8885005E-01
       -1   -1    0    0    0  501  0.00000000000E+00  0.00000000000E+00  0.45671214667E+03  0.45671214670E+03  0.50400001928E-02 0. -1.
        1   -1    0    0  501    0  0.00000000000E+00  0.00000000000E+00 -0.12302664957E+04  0.12302664957E+04  0.50400001928E-02 0.  1.
    10030    2    1    2    0    0  0.00000000000E+00  0.00000000000E+00 -0.77355434898E+03  0.16869786424E+04  0.14991699733E+04 0.  0.
        5    1    3    3  502    0  0.27950881499E+03 -0.69550039026E+03 -0.39026221057E+03  0.84508736442E+03  0.46999998093E+01 0.  1.
       -5    1    3    3    0  502 -0.27950881499E+03  0.69550039026E+03 -0.38329213840E+03  0.84189127794E+03  0.46999998093E+01 0. -1.
</event>
<event>
 5   0  0.3093600E-05  0.1499459E+04  0.7818609E-02  0.8884813E-01
        2   -1    0    0  501    0  0.00000000000E+00  0.00000000000E+00  0.11776434393E+04  0.11776434393E+04  0.25500000920E-02 0. -1.
       -2   -1    0    0    0  501  0.00000000000E+00  0.00000000000E+00 -0.47730422301E+03  0.47730422302E+03  0.25500000920E-02 0.  1.
    10030    2    1    2    0    0  0.00000000000E+00  0.00000000000E+00  0.70033921631E+03  0.16549476623E+04  0.14994588181E+04 0.  0.
        1    1    3    3  502    0 -0.38779715133E+03 -0.52472949293E+03  0.75774090642E+03  0.99994947504E+03  0.50400001928E-02 0.  1.
       -1    1    3    3    0  502  0.38779715133E+03  0.52472949293E+03 -0.57401690108E+02  0.65499818731E+03  0.50400001928E-02 0. -1.
</event>
<event>
 5   0  0.1580078E-05  0.1499966E+04  0.7818609E-02  0.8884476E-01
        1   -1    0    0  501    0  0.00000000000E+00  0.00000000000E+00  0.13148163584E+04  0.13148163584E+04  0.50400001928E-02 0.  1.
       -1   -1    0    0    0  501  0.00000000000E+00  0.00000000000E+00 -0.42779701663E+03  0.42779701666E+03  0.50400001928E-02 0. -1.
    10030    2    1    2    0    0  0.00000000000E+00  0.00000000000E+00  0.88701934175E+03  0.17426133750E+04  0.14999660204E+04 0.  0.
        2    1    3    3  502    0 -0.66376787090E+03  0.33399713056E+03  0.56160300796E+03  0.93141817044E+03  0.25500000920E-02 0.  1.
       -2    1    3    3    0  502  0.66376787090E+03 -0.33399713056E+03  0.32541633379E+03  0.81119520460E+03  0.25500000920E-02 0. -1.
</event>
<event>
 5   0  0.3030702E-05  0.1498492E+04  0.7818609E-02  0.8885456E-01
       -2   -1    0    0    0  501  0.00000000000E+00  0.00000000000E+00  0.44538407972E+03  0.44538407973E+03  0.25500000920E-02 0.  1.
        2   -1    0    0  501    0  0.00000000000E+00  0.00000000000E+00 -0.12604171076E+04  0.12604171076E+04  0.25500000920E-02 0. -1.
    10030    2    1    2    0    0  0.00000000000E+00  0.00000000000E+00 -0.81503302791E+03  0.17058011874E+04  0.14984921936E+04 0.  0.
        5    1    3    3  502    0 -0.86627868495E+02  0.26053885839E+03 -0.12010685554E+04  0.12320603269E+04  0.46999998093E+01 0. -1.
       -5    1    3    3    0  502  0.86627868495E+02 -0.26053885839E+03  0.38603552753E+03  0.47374086044E+03  0.46999998093E+01 0.  1.
</event>
<event>
 5   0  0.1588657E-05  0.1500548E+04  0.7818609E-02  0.8884089E-01
       -1   -1    0    0    0  501  0.00000000000E+00  0.00000000000E+00  0.40302746872E+03  0.40302746875E+03  0.50400001928E-02 0. -1.
        1   -1    0    0  501    0  0.00000000000E+00  0.00000000000E+00 -0.13967062608E+04  0.13967062608E+04  0.50400001928E-02 0.  1.
    10030    2    1    2    0    0  0.00000000000E+00  0.00000000000E+00 -0.99367879211E+03  0.17997337296E+04  0.15005478851E+04 0.  0.
        3    1    3    3  502    0  0.33153057707E+03  0.69883703928E+02  0.30604497409E+03  0.45657397207E+03  0.10100000352E+00 0. -1.
       -3    1    3    3    0  502 -0.33153057707E+03 -0.69883703928E+02 -0.12997237662E+04  0.13431597575E+04  0.10100000352E+00 0.  1.
</event>
<event>
 5   0  0.1588657E-05  0.1500122E+04  0.7818609E-02  0.8884372E-01
       -1   -1    0    0    0  501  0.00000000000E+00  0.00000000000E+00  0.39583868892E+03  0.39583868896E+03  0.50400001928E-02 0. -1.
        1   -1    0    0  501    0  0.00000000000E+00  0.00000000000E+00 -0.14212637198E+04  0.14212637198E+04  0.50400001928E-02 0.  1.
    10030    2    1    2    0    0  0.00000000000E+00  0.00000000000E+00 -0.10254250309E+04  0.18171024088E+04  0.15001215517E+04 0.  0.
        3    1    3    3  502    0  0.28193469009E+03  0.38308906661E+03 -0.12152129134E+04  0.13049853782E+04  0.10100000352E+00 0.  1.
       -3    1    3    3    0  502 -0.28193469009E+03 -0.38308906661E+03  0.18978788246E+03  0.51211703054E+03  0.10100000352E+00 0. -1.
</event>
<event>
 5   0  0.1116613E-05  0.1500071E+04  0.7818609E-02  0.8884406E-01
        3   -1    0    0  501    0  0.00000000000E+00  0.00000000000E+00  0.85125653789E+03  0.85125654389E+03  0.10100000352E+00 0.  1.
       -3   -1    0    0    0  501  0.00000000000E+00  0.00000000000E+00 -0.66085046879E+03  0.66085047651E+03  0.10100000352E+00 0. -1.
    10030    2    1    2    0    0  0.00000000000E+00  0.00000000000E+00  0.19040606910E+03  0.15121070204E+04  0.15000710550E+04 0.  0.
        4    1    3    3  502    0  0.28134798039E+03  0.40182061008E+03  0.66714889982E+03  0.82807352100E+03  0.12699999809E+01 0.  1.
       -4    1    3    3    0  502 -0.28134798039E+03 -0.40182061008E+03 -0.47674283071E+03  0.68403349939E+03  0.12699999809E+01 0. -1.
</event>
<event>
 5   0  0.1588657E-05  0.1499502E+04  0.7818609E-02  0.8884784E-01
        1   -1    0    0  501    0  0.00000000000E+00  0.00000000000E+00  0.98683633896E+03  0.98683633897E+03  0.50400001928E-02 0. -1.
       -1   -1    0    0    0  501  0.00000000000E+00  0.00000000000E+00 -0.56962520522E+03  0.56962520524E+03  0.50400001928E-02 0.  1.
    10030    2    1    2    0    0  0.00000000000E+00  0.00000000000E+00  0.41721113374E+03  0.15564615442E+04  0.14995023870E+04 0.  0.
        3    1    3    3  502    0 -0.52389790959E+03  0.31657138966E+03  0.65799495073E+03  0.89869006327E+03  0.10100000352E+00 0. -1.
       -3    1    3    3    0  502  0.52389790959E+03 -0.31657138966E+03 -0.24078381699E+03  0.65777148095E+03  0.10100000352E+00 0.  1.
</event>
<event>
 5   0  0.1580078E-05  0.1500059E+04  0.7818609E-02  0.8884414E-01
       -1   -1    0    0    0  501  0.00000000000E+00  0.00000000000E+00  0.34518329658E+03  0.34518329662E+03  0.50400001928E-02 0.  1.
        1   -1    0    0  501    0  0.00000000000E+00  0.00000000000E+00 -0.16296964183E+04  0.16296964183E+04  0.50400001928E-02 0. -1.
    10030    2    1    2    0    0  0.00000000000E+00  0.00000000000E+00 -0.12845131217E+04  0.19748797149E+04  0.15000586417E+04 0.  0.
        2    1    3    3  502    0  0.37493114255E+03 -0.57970787366E+03 -0.10281369954E+04  0.12384265266E+04  0.25500000920E-02 0. -1.
       -2    1    3    3    0  502 -0.37493114255E+03  0.57970787366E+03 -0.25637612630E+03  0.73645318832E+03  0.25500000920E-02 0.  1.
</event>
<event>
 5   0  0.1533777E-05  0.1500323E+04  0.7818609E-02  0.8884238E-01
        1   -1    0    0  501    0  0.00000000000E+00  0.00000000000E+00  0.85739823847E+03  0.85739823849E+03  0.50400001928E-02 0.  1.
       -1   -1    0    0    0  501  0.00000000000E+00  0.00000000000E+00 -0.65633702318E+03  0.65633702320E+03  0.50400001928E-02 0. -1.
    10030    2    1    2    0    0  0.00000000000E+00  0.00000000000E+00  0.20106121530E+03  0.15137352617E+04  0.15003229086E+04 0.  0.
        5    1    3    3  502    0 -0.14701192869E+03  0.17829514552E+03  0.82057602726E+03  0.85250734460E+03  0.46999998093E+01 0.  1.
       -5    1    3    3    0  502  0.14701192869E+03 -0.17829514552E+03 -0.61951481196E+03  0.66122791708E+03  0.46999998093E+01 0. -1.
</event>
<event>
 5   0  0.3030702E-05  0.1499738E+04  0.7818609E-02  0.8884627E-01
       -2   -1    0    0    0  501  0.00000000000E+00  0.00000000000E+00  0.16132932596E+04  0.16132932596E+04  0.25500000920E-02 0. -1.
        2   -1    0    0  501    0  0.00000000000E+00  0.00000000000E+00 -0.34854370779E+03  0.34854370780E+03  0.25500000920E-02 0.  1.
    10030    2    1    2    0    0  0.00000000000E+00  0.00000000000E+00  0.12647495518E+04  0.19618369674E+04  0.14997375963E+04 0.  0.
        5    1    3    3  502    0  0.59078306059E+03  0.37981052072E+03  0.97599099401E+03  0.12024396728E+04  0.46999998093E+01 0.  1.
       -5    1    3    3    0  502 -0.59078306059E+03 -0.37981052072E+03  0.28875855776E+03  0.75939729458E+03  0.46999998093E+01 0. -1.
</event>
<event>
 5   0  0.1533777E-05  0.1502688E+04  0.7818609E-02  0.8882667E-01
        1   -1    0    0  501    0  0.00000000000E+00  0.00000000000E+00  0.11535405525E+04  0.11535405525E+04  0.50400001928E-02 0.  1.
       -1   -1    0    0    0  501  0.00000000000E+00  0.00000000000E+00 -0.48937854248E+03  0.48937854251E+03  0.50400001928E-02 0. -1.
    10030    2    1    2    0    0  0.00000000000E+00  0.00000000000E+00  0.66416200998E+03  0.16429190950E+04  0.15026882502E+04 0.  0.
        5    1    3    3  502    0 -0.33068394795E+02  0.70890983219E+03  0.62384791308E+02  0.71243288884E+03  0.46999998093E+01 0.  1.
       -5    1    3    3    0  502  0.33068394795E+02 -0.70890983219E+03  0.60177721867E+03  0.93048620614E+03  0.46999998093E+01 0. -1.
</event>
<event>
 5   0  0.3093600E-05  0.1499495E+04  0.7818609E-02  0.8884789E-01
        2   -1    0    0  501    0  0.00000000000E+00  0.00000000000E+00  0.13660010920E+04  0.13660010920E+04  0.25500000920E-02 0. -1.
       -2   -1    0    0    0  501  0.00000000000E+00  0.00000000000E+00 -0.41150867870E+03  0.41150867871E+03  0.25500000920E-02 0.  1.
    10030    2    1    2    0    0  0.00000000000E+00  0.00000000000E+00  0.95449241325E+03  0.17775097707E+04  0.14994949876E+04 0.  0.
        1    1    3    3  502    0 -0.22750264453E+03  0.71426340229E+03  0.49365640444E+03  0.89756688151E+03  0.50400001928E-02 0. -1.
       -1    1    3    3    0  502  0.22750264453E+03 -0.71426340229E+03  0.46083600882E+03  0.87994288915E+03  0.50400001928E-02 0.  1.
</event>
<event>
 5   0  0.1576214E-05  0.1500399E+04  0.7818609E-02  0.8884187E-01
       -1   -1    0    0    0  501  0.00000000000E+00  0.00000000000E+00  0.45473050579E+03  0.45473050582E+03  0.50400001928E-02 0. -1.
        1   -1    0    0  501    0  0.00000000000E+00  0.00000000000E+00 -0.12376552381E+04  0.12376552382E+04  0.50400001928E-02 0.  1.
    10030    2    1    2    0    0  0.00000000000E+00  0.00000000000E+00 -0.78292473235E+03  0.16923857440E+04  0.15003994034E+04 0.  0.
        1    1    3    3  502    0 -0.32778032718E+03  0.43781936018E+03  0.18773424462E+03  0.57824724959E+03  0.50400001928E-02 0. -1.
       -1    1    3    3    0  502  0.32778032718E+03 -0.43781936018E+03 -0.97065897697E+03  0.11141384944E+04  0.50400001928E-02 0.  1.
</event>
<event>
 5   0  0.3070497E-05  0.1499750E+04  0.7818609E-02  0.8884619E-01
        2   -1    0    0  501    0  0.00000000000E+00  0.00000000000E+00  0.41183746500E+03  0.41183746501E+03  0.25500000920E-02 0.  1.
       -2   -1    0    0    0  501  0.00000000000E+00  0.00000000000E+00 -0.13653745947E+04  0.13653745947E+04  0.25500000920E-02 0. -1.
    10030    2    1    2    0    0  0.00000000000E+00  0.00000000000E+00 -0.95353712967E+03  0.17772120597E+04  0.14997498616E+04 0.  0.
        4    1    3    3  502    0  0.11655020328E+03 -0.44907215417E+03 -0.11748777608E+04  0.12631663055E+04  0.12699999809E+01 0. -1.
       -4    1    3    3    0  502 -0.11655020328E+03  0.44907215417E+03  0.22134063114E+03  0.51404575422E+03  0.12699999809E+01 0.  1.
</event>
<event>
 5   0  0.2969498E-05  0.1502933E+04  0.7818609E-02  0.8882505E-01
        2   -1    0    0  501    0  0.00000000000E+00  0.00000000000E+00  0.13152877483E+04  0.13152877483E+04  0.25500000920E-02 0. -1.
       -2   -1    0    0    0  501  0.00000000000E+00  0.00000000000E+00 -0.42933713698E+03  0.42933713699E+03  0.25500000920E-02 0.  1.
    10030    2    1    2    0    0  0.00000000000E+00  0.00000000000E+00  0.88595061134E+03  0.17446248853E+04  0.15029329675E+04 0.  0.
        3    1    3    3  502    0  0.62010241198E+03 -0.35283574005E+03  0.71689238051E+03  0.10114122583E+04  0.10100000352E+00 0.  1.
       -3    1    3    3    0  502 -0.62010241198E+03  0.35283574005E+03  0.16905823082E+03  0.73321262701E+03  0.10100000352E+00 0. -1.
</event>
<event>
 5   0  0.1588657E-05  0.1500091E+04  0.7818609E-02  0.8884392E-01
       -1   -1    0    0    0  501  0.00000000000E+00  0.00000000000E+00  0.62107986981E+03  0.62107986983E+03  0.50400001928E-02 0.  1.
        1   -1    0    0  501    0  0.00000000000E+00  0.00000000000E+00 -0.90579079917E+03  0.90579079918E+03  0.50400001928E-02 0. -1.
    10030    2    1    2    0    0  0.00000000000E+00  0.00000000000E+00 -0.28471092936E+03  0.15268706690E+04  0.15000912394E+04 0.  0.
        3    1    3    3  502    0  0.64630888138E+03 -0.18688151256E+03  0.19511815562E+03  0.70050765502E+03  0.10100000352E+00 0.  1.
       -3    1    3    3    0  502 -0.64630888138E+03  0.18688151256E+03 -0.47982908499E+03  0.82636301399E+03  0.10100000352E+00 0. -1.
</event>
<event>
 5   0  0.1533777E-05  0.1501296E+04  0.7818609E-02  0.8883592E-01
        1   -1    0    0  501    0  0.00000000000E+00  0.00000000000E+00  0.12863785492E+04  0.12863785492E+04  0.50400001928E-02 0.  1.
       -1   -1    0    0    0  501  0.00000000000E+00  0.00000000000E+00 -0.43803003847E+03  0.43803003850E+03  0.50400001928E-02 0. -1.
    10030    2    1    2    0    0  0.00000000000E+00  0.00000000000E+00  0.84834851069E+03  0.17244085877E+04  0.15012960340E+04 0.  0.
        5    1    3    3  502    0  0.34996850751E+03  0.10922982857E+03  0.11765302074E+04  0.12323370199E+04  0.46999998093E+01 0.  1.
       -5    1    3    3    0  502 -0.34996850751E+03 -0.10922982857E+03 -0.32818169674E+03  0.49207156773E+03  0.46999998093E+01 0. -1.
</event>
<event>
 5   0  0.1116613E-05  0.1499963E+04  0.7818609E-02  0.8884478E-01
       -3   -1    0    0    0  501  0.00000000000E+00  0.00000000000E+00  0.53192343281E+03  0.53192344240E+03  0.10100000352E+00 0.  1.
        3   -1    0    0  501    0  0.00000000000E+00  0.00000000000E+00 -0.10574303089E+04  0.10574303137E+04  0.10100000352E+00 0. -1.
    10030    2    1    2    0    0  0.00000000000E+00  0.00000000000E+00 -0.52550687608E+03  0.15893537561E+04  0.14999626280E+04 0.  0.
        3    1    3    3  502    0  0.40327410425E+03 -0.13576945039E+03 -0.91714152248E+03  0.10110449690E+04  0.10100000352E+00 0. -1.
       -3    1    3    3    0  502 -0.40327410425E+03  0.13576945039E+03  0.39163464641E+03  0.57830878714E+03  0.10100000352E+00 0.  1.
</event>
<event>
 5   0  0.1643498E-05  0.1500235E+04  0.7818609E-02  0.8884297E-01
       -1   -1    0    0    0  501  0.00000000000E+00  0.00000000000E+00  0.47340921134E+03  0.47340921137E+03  0.50400001928E-02 0. -1.
        1   -1    0    0  501    0  0.00000000000E+00  0.00000000000E+00 -0.11885622103E+04  0.11885622103E+04  0.50400001928E-02 0.  1.
    10030    2    1    2    0    0  0.00000000000E+00  0.00000000000E+00 -0.71515299896E+03  0.16619714217E+04  0.15002350464E+04 0.  0.
        4    1    3    3  502    0 -0.55518638090E+03 -0.44750873853E+03 -0.99719738188E+02  0.72002890753E+03  0.12699999809E+01 0. -1.
       -4    1    3    3    0  502  0.55518638090E+03  0.44750873853E+03 -0.61543326077E+03  0.94194251415E+03  0.12699999809E+01 0.  1.
</event>
<event>
 5   0  0.3030702E-05  0.1499920E+04  0.7818609E-02  0.8884506E-01
        2   -1    0    0  501    0  0.00000000000E+00  0.00000000000E+00  0.14341951396E+04  0.14341951396E+04  0.25500000920E-02 0. -1.
       -2   -1    0    0    0  501  0.00000000000E+00  0.00000000000E+00 -0.39216434858E+03  0.39216434859E+03  0.25500000920E-02 0.  1.
    10030    2    1    2    0    0  0.00000000000E+00  0.00000000000E+00  0.10420307910E+04  0.18263594882E+04  0.14999202681E+04 0.  0.
        5    1    3    3  502    0  0.32823391928E+03 -0.28316961149E+03 -0.22413071435E+03  0.48803606603E+03  0.46999998093E+01 0.  1.
       -5    1    3    3    0  502 -0.32823391928E+03  0.28316961149E+03  0.12661615054E+04  0.13383234222E+04  0.46999998093E+01 0. -1.
</event>
<event>
 5   0  0.3018308E-05  0.1495164E+04  0.7818609E-02  0.8887675E-01
        2   -1    0    0  501    0  0.00000000000E+00  0.00000000000E+00  0.10387500770E+04  0.10387500770E+04  0.25500000920E-02 0.  1.
       -2   -1    0    0    0  501  0.00000000000E+00  0.00000000000E+00 -0.53803025471E+03  0.53803025472E+03  0.25500000920E-02 0. -1.
    10030    2    1    2    0    0  0.00000000000E+00  0.00000000000E+00  0.50071982232E+03  0.15767803318E+04  0.14951641629E+04 0.  0.
        2    1    3    3  502    0  0.33811797311E+03 -0.47949212487E+03  0.73894496908E+03  0.94354444987E+03  0.25500000920E-02 0.  1.
       -2    1    3    3    0  502 -0.33811797311E+03  0.47949212487E+03 -0.23822514675E+03  0.63323588189E+03  0.25500000920E-02 0. -1.
</event>
<event>
 5   0  0.2969498E-05  0.1502640E+04  0.7818609E-02  0.8882699E-01
        2   -1    0    0  501    0  0.00000000000E+00  0.00000000000E+00  0.11991290804E+04  0.11991290804E+04  0.25500000920E-02 0.  1.
       -2   -1    0    0    0  501  0.00000000000E+00  0.00000000000E+00 -0.47074334166E+03  0.47074334167E+03  0.25500000920E-02 0. -1.
    10030    2    1    2    0    0  0.00000000000E+00  0.00000000000E+00  0.72838573870E+03  0.16698724220E+04  0.15026403833E+04 0.  0.
        3    1    3    3  502    0  0.33351681073E+03 -0.64955649843E+03  0.56087874305E+03  0.92072910364E+03  0.10100000352E+00 0.  1.
       -3    1    3    3    0  502 -0.33351681073E+03  0.64955649843E+03  0.16750699565E+03  0.74914331839E+03  0.10100000352E+00 0. -1.
</event>
<event>
 5   0  0.3018308E-05  0.1500658E+04  0.7818609E-02  0.8884016E-01
       -2   -1    0    0    0  501  0.00000000000E+00  0.00000000000E+00  0.13207797649E+04  0.13207797649E+04  0.25500000920E-02 0.  1.
        2   -1    0    0  501    0  0.00000000000E+00  0.00000000000E+00 -0.42625824167E+03  0.42625824168E+03  0.25500000920E-02 0. -1.
    10030    2    1    2    0    0  0.00000000000E+00  0.00000000000E+00  0.89452152322E+03  0.17470380066E+04  0.15006575362E+04 0.  0.
        2    1    3    3  502    0  0.14523929179E+03  0.18760431769E+03 -0.38143989107E+03  0.44920621367E+03  0.25500000920E-02 0. -1.
       -2    1    3    3    0  502 -0.14523929179E+03 -0.18760431769E+03  0.12759614143E+04  0.12978317929E+04  0.25500000920E-02 0.  1.
</event>
<event>
 5   0  0.2969498E-05  0.1500325E+04  0.7818609E-02  0.8884237E-01
        2   -1    0    0  501    0  0.00000000000E+00  0.00000000000E+00  0.98143828074E+03  0.98143828074E+03  0.25500000920E-02 0. -1.
       -2   -1    0    0    0  501  0.00000000000E+00  0.00000000000E+00 -0.57338663174E+03  0.57338663174E+03  0.25500000920E-02 0.  1.
    10030    2    1    2    0    0  0.00000000000E+00  0.00000000000E+00  0.40805164900E+03  0.15548249125E+04  0.15003247516E+04 0.  0.
        3    1    3    3  502    0  0.21293135861E+03  0.12527465546E+03  0.93807072945E+03  0.97005680577E+03  0.10100000352E+00 0. -1.
       -3    1    3    3    0  502 -0.21293135861E+03 -0.12527465546E+03 -0.53001908045E+03  0.58476810671E+03  0.10100000352E+00 0.  1.
</event>
<event>
 5   0  0.3030702E-05  0.1500051E+04  0.7818609E-02  0.8884419E-01
       -2   -1    0    0    0  501  0.00000000000E+00  0.00000000000E+00  0.67129407507E+03  0.67129407507E+03  0.25500000920E-02 0.  1.
        2   -1    0    0  501    0  0.00000000000E+00  0.00000000000E+00 -0.83799116669E+03  0.83799116669E+03  0.25500000920E-02 0. -1.
    10030    2    1    2    0    0  0.00000000000E+00  0.00000000000E+00 -0.16669709162E+03  0.15092852418E+04  0.15000513393E+04 0.  0.
        5    1    3    3  502    0  0.61171426011E+03 -0.91199373142E+02 -0.51022990363E+03  0.80179068730E+03  0.46999998093E+01 0. -1.
       -5    1    3    3    0  502 -0.61171426011E+03  0.91199373142E+02  0.34353281201E+03  0.70749455447E+03  0.46999998093E+01 0.  1.
</event>
<event>
 5   0  0.3070497E-05  0.1502672E+04  0.7818609E-02  0.8882678E-01
        2   -1    0    0  501    0  0.00000000000E+00  0.00000000000E+00  0.18737682876E+04  0.18737682876E+04  0.25500000920E-02 0. -1.
       -2   -1    0    0    0  501  0.00000000000E+00  0.00000000000E+00 -0.30126746592E+03  0.30126746593E+03  0.25500000920E-02 0.  1.
    10030    2    1    2    0    0  0.00000000000E+00  0.00000000000E+00  0.15725008217E+04  0.21750357535E+04  0.15026715193E+04 0.  0.
        4    1    3    3  502    0 -0.72096937992E+03  0.16200458598E+03  0.98291926193E+03  0.12297049325E+04  0.12699999809E+01 0. -1.
       -4    1    3    3    0  502  0.72096937992E+03 -0.16200458598E+03  0.58958155973E+03  0.94533082100E+03  0.12699999809E+01 0.  1.
</event>
<event>
 5   0  0.3070497E-05  0.1500233E+04  0.7818609E-02  0.8884298E-01
       -2   -1    0    0    0  501  0.00000000000E+00  0.00000000000E+00  0.57593099157E+03  0.57593099158E+03  0.25500000920E-02 0.  1.
        2   -1    0    0  501    0  0.00000000000E+00  0.00000000000E+00 -0.97698342225E+03  0.97698342225E+03  0.25500000920E-02 0. -1.
    10030    2    1    2    0    0  0.00000000000E+00  0.00000000000E+00 -0.40105243068E+03  0.15529144138E+04  0.15002333567E+04 0.  0.
        4    1    3    3  502    0 -0.29325675846E+03 -0.60713857366E+01 -0.91515843612E+03  0.96101663056E+03  0.12699999809E+01 0. -1.
       -4    1    3    3    0  502  0.29325675846E+03  0.60713857366E+01  0.51410600544E+03  0.59189778327E+03  0.12699999809E+01 0.  1.
</event>
<event>
 5   0  0.1576214E-05  0.1498974E+04  0.7818609E-02  0.8885136E-01
       -1   -1    0    0    0  501  0.00000000000E+00  0.00000000000E+00  0.97825953726E+03  0.97825953727E+03  0.50400001928E-02 0. -1.
        1   -1    0    0  501    0  0.00000000000E+00  0.00000000000E+00 -0.57421438082E+03  0.57421438084E+03  0.50400001928E-02 0.  1.
    10030    2    1    2    0    0  0.00000000000E+00  0.00000000000E+00  0.40404515644E+03  0.15524739181E+04  0.14989739084E+04 0.  0.
        1    1    3    3  502    0  0.46371066392E+03  0.14037830242E+03 -0.39022344672E+03  0.62209965923E+03  0.50400001928E-02 0.  1.
       -1    1    3    3    0  502 -0.46371066392E+03 -0.14037830242E+03  0.79426860315E+03  0.93037425889E+03  0.50400001928E-02 0. -1.
</event>
<event>
 5   0  0.3018308E-05  0.1500473E+04  0.7818609E-02  0.8884139E-01
       -2   -1    0    0    0  501  0.00000000000E+00  0.00000000000E+00  0.11224017898E+04  0.11224017898E+04  0.25500000920E-02 0.  1.
        2   -1    0    0  501    0  0.00000000000E+00  0.00000000000E+00 -0.50147331647E+03  0.50147331648E+03  0.25500000920E-02 0. -1.
    10030    2    1    2    0    0  0.00000000000E+00  0.00000000000E+00  0.62092847333E+03  0.16238751063E+04  0.15004726561E+04 0.  0.
        2    1    3    3  502    0  0.32675224013E+02 -0.80534889043E+02  0.11169352646E+04  0.11203115298E+04  0.25500000920E-02 0.  1.
       -2    1    3    3    0  502 -0.32675224013E+02  0.80534889043E+02 -0.49600679122E+03  0.50356357648E+03  0.25500000920E-02 0. -1.
</event>
<event>
 5   0  0.1533777E-05  0.1498920E+04  0.7818609E-02  0.8885171E-01
        1   -1    0    0  501    0  0.00000000000E+00  0.00000000000E+00  0.12722811905E+04  0.12722811905E+04  0.50400001928E-02 0. -1.
       -1   -1    0    0    0  501  0.00000000000E+00  0.00000000000E+00 -0.44148310430E+03  0.44148310432E+03  0.50400001928E-02 0.  1.
    10030    2    1    2    0    0  0.00000000000E+00  0.00000000000E+00  0.83079808618E+03  0.17137642948E+04  0.14989204776E+04 0.  0.
        5    1    3    3  502    0  0.29681536684E+03 -0.26425449393E+03 -0.31107937998E+03  0.50470017853E+03  0.46999998093E+01 0.  1.
       -5    1    3    3    0  502 -0.29681536684E+03  0.26425449393E+03  0.11418774662E+04  0.12090641163E+04  0.46999998093E+01 0. -1.
</event>
<event>
 5   0  0.1643498E-05  0.1499682E+04  0.7818609E-02  0.8884665E-01
        1   -1    0    0  501    0  0.00000000000E+00  0.00000000000E+00  0.94990692383E+03  0.94990692384E+03  0.50400001928E-02 0.  1.
       -1   -1    0    0    0  501  0.00000000000E+00  0.00000000000E+00 -0.59191206878E+03  0.59191206880E+03  0.50400001928E-02 0. -1.
    10030    2    1    2    0    0  0.00000000000E+00  0.00000000000E+00  0.35799485505E+03  0.15418189926E+04  0.14996817962E+04 0.  0.
        4    1    3    3  502    0 -0.32672136780E+03 -0.65900589413E+03  0.29218984827E+02  0.73613244912E+03  0.12699999809E+01 0. -1.
       -4    1    3    3    0  502  0.32672136780E+03  0.65900589413E+03  0.32877587022E+03  0.80568654352E+03  0.12699999809E+01 0.  1.
</event>
<event>
 5   0  0.1533777E-05  0.1498413E+04  0.7818609E-02  0.8885509E-01
       -1   -1    0    0    0  501  0.00000000000E+00  0.00000000000E+00  0.77630785379E+03  0.77630785380E+03  0.50400001928E-02 0. -1.
        1   -1    0    0  501    0  0.00000000000E+00  0.00000000000E+00 -0.72305152633E+03  0.72305152635E+03  0.50400001928E-02 0.  1.
    10030    2    1    2    0    0  0.00000000000E+00  0.00000000000E+00  0.53256327455E+02  0.14993593802E+04  0.14984132656E+04 0.  0.
        5    1    3    3  502    0 -0.96595976661E+02  0.66103891584E+03 -0.31268070648E+03  0.73762764669E+03  0.46999998093E+01 0.  1.
       -5    1    3    3    0  502  0.96595976661E+02 -0.66103891584E+03  0.36593703394E+03  0.76173173346E+03  0.46999998093E+01 0. -1.
</event>
<event>
 5   0  0.3093600E-05  0.1499725E+04  0.7818609E-02  0.8884636E-01
        2   -1    0    0  501    0  0.00000000000E+00  0.00000000000E+00  0.13221403372E+04  0.13221403372E+04  0.25500000920E-02 0. -1.
       -2   -1    0    0    0  501  0.00000000000E+00  0.00000000000E+00 -0.42529078318E+03  0.42529078319E+03  0.25500000920E-02 0.  1.
    10030    2    1    2    0    0  0.00000000000E+00  0.00000000000E+00  0.89684955401E+03  0.17474311204E+04  0.14997254409E+04 0.  0.
        1    1    3    3  502    0 -0.80698627528E+02 -0.33222161933E+03  0.12260468761E+04  0.12728214389E+04  0.50400001928E-02 0. -1.
       -1    1    3    3    0  502  0.80698627528E+02  0.33222161933E+03 -0.32919732212E+03  0.47460968148E+03  0.50400001928E-02 0.  1.
</event>
<event>
 5   0  0.2969498E-05  0.1499392E+04  0.7818609E-02  0.8884857E-01
       -2   -1    0    0    0  501  0.00000000000E+00  0.00000000000E+00  0.35388511390E+03  0.35388511390E+03  0.25500000920E-02 0. -1.
        2   -1    0    0  501    0  0.00000000000E+00  0.00000000000E+00 -0.15882103614E+04  0.15882103614E+04  0.25500000920E-02 0.  1.
    10030    2    1    2    0    0  0.00000000000E+00  0.00000000000E+00 -0.12343252475E+04  0.19420954753E+04  0.14993918829E+04 0.  0.
        3    1    3    3  502    0 -0.19655979585E+03 -0.52751246491E+03 -0.12584629853E+04  0.13786349225E+04  0.10100000352E+00 0.  1.
       -3    1    3    3    0  502  0.19655979585E+03  0.52751246491E+03  0.24137737799E+02  0.56346055280E+03  0.10100000352E+00 0. -1.
</event>
<event>
 5   0  0.3030702E-05  0.1498469E+04  0.7818609E-02  0.8885472E-01
       -2   -1    0    0    0  501  0.00000000000E+00  0.00000000000E+00  0.59448940510E+03  0.59448940511E+03  0.25500000920E-02 0. -1.
        2   -1    0    0  501    0  0.00000000000E+00  0.00000000000E+00 -0.94425984435E+03  0.94425984435E+03  0.25500000920E-02 0.  1.
    10030    2    1    2    0    0  0.00000000000E+00  0.00000000000E+00 -0.34977043925E+03  0.15387492495E+04  0.14984691830E+04 0.  0.
        5    1    3    3  502    0 -0.36789272234E+02 -0.15247821436E+03  0.57742487960E+03  0.59836831298E+03  0.46999998093E+01 0. -1.
       -5    1    3    3    0  502  0.36789272234E+02  0.15247821436E+03 -0.92719531885E+03  0.94038093648E+03  0.46999998093E+01 0.  1.
</event>
<event>
 5   0  0.1533777E-05  0.1500129E+04  0.7818609E-02  0.8884367E-01
        1   -1    0    0  501    0  0.00000000000E+00  0.00000000000E+00  0.21742018273E+04  0.21742018273E+04  0.50400001928E-02 0.  1.
       -1   -1    0    0    0  501  0.00000000000E+00  0.00000000000E+00 -0.25876008409E+03  0.25876008414E+03  0.50400001928E-02 0. -1.
    10030    2    1    2    0    0  0.00000000000E+00  0.00000000000E+00  0.19154417432E+04  0.24329619114E+04  0.15001288581E+04 0.  0.
        5    1    3    3  502    0 -0.45945765341E+03 -0.33722264759E+03  0.16691340808E+03  0.59388772097E+03  0.46999998093E+01 0. -1.
       -5    1    3    3    0  502  0.45945765341E+03  0.33722264759E+03  0.17485283351E+04  0.18390741904E+04  0.46999998093E+01 0.  1.
</event>
<event>
 5   0  0.2969498E-05  0.1500986E+04  0.7818609E-02  0.8883798E-01
       -2   -1    0    0    0  501  0.00000000000E+00  0.00000000000E+00  0.62017920767E+03  0.62017920768E+03  0.25500000920E-02 0.  1.
        2   -1    0    0  501    0  0.00000000000E+00  0.00000000000E+00 -0.90818809318E+03  0.90818809318E+03  0.25500000920E-02 0. -1.
    10030    2    1    2    0    0  0.00000000000E+00  0.00000000000E+00 -0.28800888550E+03  0.15283673009E+04  0.15009855057E+04 0.  0.
        3    1    3    3  502    0 -0.20069753490E+03  0.33232984283E+03  0.50998693988E+03  0.64094408025E+03  0.10100000352E+00 0.  1.
       -3    1    3    3    0  502  0.20069753490E+03 -0.33232984283E+03 -0.79799582539E+03  0.88742322061E+03  0.10100000352E+00 0. -1.
</event>
<event>
 5   0  0.3070497E-05  0.1499915E+04  0.7818609E-02  0.8884509E-01
        2   -1    0    0  501    0  0.00000000000E+00  0.00000000000E+00  0.18491790589E+04  0.18491790589E+04  0.25500000920E-02 0. -1.
       -2   -1    0    0    0  501  0.00000000000E+00  0.00000000000E+00 -0.30415469434E+03  0.30415469435E+03  0.25500000920E-02 0.  1.
    10030    2    1    2    0    0  0.00000000000E+00  0.00000000000E+00  0.15450243646E+04  0.21533337533E+04  0.14999153196E+04 0.  0.
        4    1    3    3  502    0  0.13016987140E+03  0.69534904387E+02 -0.28310135739E+03  0.31926053593E+03  0.12699999809E+01 0.  1.
       -4    1    3    3    0  502 -0.13016987140E+03 -0.69534904387E+02  0.18281257220E+04  0.18340732174E+04  0.12699999809E+01 0. -1.
</event>
<event>
 5   0  0.3030702E-05  0.1499775E+04  0.7818609E-02  0.8884602E-01
       -2   -1    0    0    0  501  0.00000000000E+00  0.00000000000E+00  0.49286036369E+03  0.49286036370E+03  0.25500000920E-02 0.  1.
        2   -1    0    0  501    0  0.00000000000E+00  0.00000000000E+00 -0.11409551146E+04  0.11409551146E+04  0.25500000920E-02 0. -1.
    10030    2    1    2    0    0  0.00000000000E+00  0.00000000000E+00 -0.64809475088E+03  0.16338154783E+04  0.14997753868E+04 0.  0.
        5    1    3    3  502    0  0.74378431645E+03  0.31289394712E+02 -0.22591104848E+03  0.77797945181E+03  0.46999998093E+01 0. -1.
       -5    1    3    3    0  502 -0.74378431645E+03 -0.31289394712E+02 -0.42218370240E+03  0.85583602646E+03  0.46999998093E+01 0.  1.
</event>
<event>
 5   0  0.1533777E-05  0.1499137E+04  0.7818609E-02  0.8885027E-01
        1   -1    0    0  501    0  0.00000000000E+00  0.00000000000E+00  0.11690389710E+04  0.11690389710E+04  0.50400001928E-02 0. -1.
       -1   -1    0    0    0  501  0.00000000000E+00  0.00000000000E+00 -0.48061078074E+03  0.48061078077E+03  0.50400001928E-02 0.  1.
    10030    2    1    2    0    0  0.00000000000E+00  0.00000000000E+00  0.68842819025E+03  0.16496497518E+04  0.14991367284E+04 0.  0.
        5    1    3    3  502    0  0.48259669267E+03  0.35872574257E+03 -0.14820333838E+03  0.61933032031E+03  0.46999998093E+01 0.  1.
       -5    1    3    3    0  502 -0.48259669267E+03 -0.35872574257E+03  0.83663152863E+03  0.10303194315E+04  0.46999998093E+01 0. -1.
</event>
<event>
 5   0  0.2969498E-05  0.1497475E+04  0.7818609E-02  0.8886134E-01
        2   -1    0    0  501    0  0.00000000000E+00  0.00000000000E+00  0.13883441258E+04  0.13883441258E+04  0.25500000920E-02 0. -1.
       -2   -1    0    0    0  501  0.00000000000E+00  0.00000000000E+00 -0.40379581354E+03  0.40379581355E+03  0.25500000920E-02 0.  1.
    10030    2    1    2    0    0  0.00000000000E+00  0.00000000000E+00  0.98454831231E+03  0.17921399394E+04  0.14974746018E+04 0.  0.
        3    1    3    3  502    0 -0.74233560603E+03 -0.37624599661E+02  0.38436664753E+03  0.83678879798E+03  0.10100000352E+00 0.  1.
       -3    1    3    3    0  502  0.74233560603E+03  0.37624599661E+02  0.60018166477E+03  0.95535114142E+03  0.10100000352E+00 0. -1.
</event>
<event>
 5   0  0.3093600E-05  0.1499816E+04  0.7818609E-02  0.8884575E-01
        2   -1    0    0  501    0  0.00000000000E+00  0.00000000000E+00  0.74001753239E+03  0.74001753239E+03  0.25500000920E-02 0.  1.
       -2   -1    0    0    0  501  0.00000000000E+00  0.00000000000E+00 -0.75993073529E+03  0.75993073530E+03  0.25500000920E-02 0. -1.
    10030    2    1    2    0    0  0.00000000000E+00  0.00000000000E+00 -0.19913202901E+02  0.14999482677E+04  0.14998160788E+04 0.  0.
        1    1    3    3  502    0  0.53042876945E+03  0.51050527932E+03 -0.15276886461E+03  0.75187009895E+03  0.50400001928E-02 0. -1.
       -1    1    3    3    0  502 -0.53042876945E+03 -0.51050527932E+03  0.13285566171E+03  0.74807816874E+03  0.50400001928E-02 0.  1.
</event>
<event>
 5   0  0.3070497E-05  0.1499794E+04  0.7818609E-02  0.8884590E-01
       -2   -1    0    0    0  501  0.00000000000E+00  0.00000000000E+00  0.39430655902E+03  0.39430655903E+03  0.25500000920E-02 0. -1.
        2   -1    0    0  501    0  0.00000000000E+00  0.00000000000E+00 -0.14261637337E+04  0.14261637337E+04  0.25500000920E-02 0.  1.
    10030    2    1    2    0    0  0.00000000000E+00  0.00000000000E+00 -0.10318571747E+04  0.18204702927E+04  0.14997942718E+04 0.  0.
        4    1    3    3  502    0 -0.26684102322E+03  0.27182572909E+03  0.26813351917E+03  0.46582245080E+03  0.12699999809E+01 0. -1.
       -4    1    3    3    0  502  0.26684102322E+03 -0.27182572909E+03 -0.12999906938E+04  0.13546478419E+04  0.12699999809E+01 0.  1.
</event>
<event>
 5   0  0.3093600E-05  0.1500547E+04  0.7818609E-02  0.8884089E-01
        2   -1    0    0  501    0  0.00000000000E+00  0.00000000000E+00  0.65987406751E+03  0.65987406752E+03  0.25500000920E-02 0. -1.
       -2   -1    0    0    0  501  0.00000000000E+00  0.00000000000E+00 -0.85305761181E+03  0.85305761181E+03  0.25500000920E-02 0.  1.
    10030    2    1    2    0    0  0.00000000000E+00  0.00000000000E+00 -0.19318354429E+03  0.15129316793E+04  0.15005473616E+04 0.  0.
        1    1    3    3  502    0 -0.47888287741E+03  0.52959248734E+03  0.13577413564E+03  0.72679545186E+03  0.50400001928E-02 0.  1.
       -1    1    3    3    0  502  0.47888287741E+03 -0.52959248734E+03 -0.32895767994E+03  0.78613622746E+03  0.50400001928E-02 0. -1.
</event>
<event>
 5   0  0.2969498E-05  0.1500036E+04  0.7818609E-02  0.8884429E-01
       -2   -1    0    0    0  501  0.00000000000E+00  0.00000000000E+00  0.35690766041E+03  0.35690766042E+03  0.25500000920E-02 0.  1.
        2   -1    0    0  501    0  0.00000000000E+00  0.00000000000E+00 -0.15761144521E+04  0.15761144521E+04  0.25500000920E-02 0. -1.
    10030    2    1    2    0    0  0.00000000000E+00  0.00000000000E+00 -0.12192067917E+04  0.19330221125E+04  0.15000364284E+04 0.  0.
        3    1    3    3  502    0 -0.32462140959E+03 -0.46279539986E+03 -0.12448029053E+04  0.13671477334E+04  0.10100000352E+00 0. -1.
       -3    1    3    3    0  502  0.32462140959E+03  0.46279539986E+03  0.25596113635E+02  0.56587437911E+03  0.10100000352E+00 0.  1.
</event>
<event>
 5   0  0.3018308E-05  0.1499791E+04  0.7818609E-02  0.8884592E-01
        2   -1    0    0  501    0  0.00000000000E+00  0.00000000000E+00  0.93756803483E+03  0.93756803483E+03  0.25500000920E-02 0.  1.
       -2   -1    0    0    0  501  0.00000000000E+00  0.00000000000E+00 -0.59978961461E+03  0.59978961462E+03  0.25500000920E-02 0. -1.
    10030    2    1    2    0    0  0.00000000000E+00  0.00000000000E+00  0.33777842022E+03  0.15373576495E+04  0.14997914125E+04 0.  0.
        2    1    3    3  502    0  0.35628657408E+03 -0.57678483524E+02  0.84267902837E+03  0.91671962737E+03  0.25500000920E-02 0.  1.
       -2    1    3    3    0  502 -0.35628657408E+03  0.57678483524E+02 -0.50490060816E+03  0.62063802208E+03  0.25500000920E-02 0. -1.
</event>
<event>
 5   0  0.3093600E-05  0.1500028E+04  0.7818609E-02  0.8884434E-01
       -2   -1    0    0    0  501  0.00000000000E+00  0.00000000000E+00  0.29792070228E+03  0.29792070229E+03  0.25500000920E-02 0.  1.
        2   -1    0    0  501    0  0.00000000000E+00  0.00000000000E+00 -0.18881571636E+04  0.18881571636E+04  0.25500000920E-02 0. -1.
    10030    2    1    2    0    0  0.00000000000E+00  0.00000000000E+00 -0.15902364613E+04  0.21860778659E+04  0.15000281440E+04 0.  0.
        1    1    3    3  502    0  0.99071741926E+01  0.70072991018E+03 -0.40569935796E+03  0.80976078455E+03  0.50400001928E-02 0.  1.
       -1    1    3    3    0  502 -0.99071741926E+01 -0.70072991018E+03 -0.11845371034E+04  0.13763170814E+04  0.50400001928E-02 0. -1.
</event>
<event>
 5   0  0.3018308E-05  0.1499526E+04  0.7818609E-02  0.8884768E-01
       -2   -1    0    0    0  501  0.00000000000E+00  0.00000000000E+00  0.37992879395E+03  0.37992879396E+03  0.25500000920E-02 0.  1.
        2   -1    0    0  501    0  0.00000000000E+00  0.00000000000E+00 -0.14796046810E+04  0.14796046810E+04  0.25500000920E-02 0. -1.
    10030    2    1    2    0    0  0.00000000000E+00  0.00000000000E+00 -0.10996758871E+04  0.18595334750E+04  0.14995258211E+04 0.  0.
        2    1    3    3  502    0 -0.27620265070E+03  0.32768577017E+03  0.21306745858E+03  0.47860590274E+03  0.25500000920E-02 0.  1.
       -2    1    3    3    0  502  0.27620265070E+03 -0.32768577017E+03 -0.13127433457E+04  0.13809275723E+04  0.25500000920E-02 0. -1.
</event>
<event>
 5   0  0.1576214E-05  0.1500137E+04  0.7818609E-02  0.8884362E-01
       -1   -1    0    0    0  501  0.00000000000E+00  0.00000000000E+00  0.61340877350E+03  0.61340877352E+03  0.50400001928E-02 0. -1.
        1   -1    0    0  501    0  0.00000000000E+00  0.00000000000E+00 -0.91717453890E+03  0.91717453892E+03  0.50400001928E-02 0.  1.
    10030    2    1    2    0    0  0.00000000000E+00  0.00000000000E+00 -0.30376576540E+03  0.15305833124E+04  0.15001372058E+04 0.  0.
        1    1    3    3  502    0 -0.40524351777E+03 -0.48189639264E+03 -0.56777876097E+03  0.84783203724E+03  0.50400001928E-02 0.  1.
       -1    1    3    3    0  502  0.40524351777E+03  0.48189639264E+03  0.26401299556E+03  0.68275127520E+03  0.50400001928E-02 0. -1.
</event>
<event>
 5   0  0.1580078E-05  0.1499791E+04  0.7818609E-02  0.8884592E-01
        1   -1    0    0  501    0  0.00000000000E+00  0.00000000000E+00  0.61213611850E+03  0.61213611852E+03  0.50400001928E-02 0.  1.
       -1   -1    0    0    0  501  0.00000000000E+00  0.00000000000E+00 -0.91865734907E+03  0.91865734909E+03  0.50400001928E-02 0. -1.
    10030    2    1    2    0    0  0.00000000000E+00  0.00000000000E+00 -0.30652123058E+03  0.15307934676E+04  0.14997911107E+04 0.  0.
        2    1    3    3  502    0  0.71614371046E+03  0.14658350497E+03  0.17514487652E+02  0.73120126863E+03  0.25500000920E-02 0.  1.
       -2    1    3    3    0  502 -0.71614371046E+03 -0.14658350497E+03 -0.32403571823E+03  0.79959219897E+03  0.25500000920E-02 0. -1.
</event>
<event>
 5   0  0.1643498E-05  0.1501051E+04  0.7818609E-02  0.8883754E-01
       -1   -1    0    0    0  501  0.00000000000E+00  0.00000000000E+00  0.58656403838E+03  0.58656403840E+03  0.50400001928E-02 0.  1.
        1   -1    0    0  501    0  0.00000000000E+00  0.00000000000E+00 -0.96031874155E+03  0.96031874156E+03  0.50400001928E-02 0. -1.
    10030    2    1    2    0    0  0.00000000000E+00  0.00000000000E+00 -0.37375470317E+03  0.15468827800E+04  0.15010508841E+04 0.  0.
        4    1    3    3  502    0  0.63916979559E+03 -0.38005499001E+03 -0.82254103897E+02  0.74816253149E+03  0.12699999809E+01 0.  1.
       -4    1    3    3    0  502 -0.63916979559E+03  0.38005499001E+03 -0.29150059927E+03  0.79872024846E+03  0.12699999809E+01 0. -1.
</event>
<event>
 5   0  0.1533777E-05  0.1500115E+04  0.7818609E-02  0.8884376E-01
        1   -1    0    0  501    0  0.00000000000E+00  0.00000000000E+00  0.19016572704E+04  0.19016572704E+04  0.50400001928E-02 0.  1.
       -1   -1    0    0    0  501  0.00000000000E+00  0.00000000000E+00 -0.29584012849E+03  0.29584012854E+03  0.50400001928E-02 0. -1.
    10030    2    1    2    0    0  0.00000000000E+00  0.00000000000E+00  0.16058171419E+04  0.21974973989E+04  0.15001153706E+04 0.  0.
        5    1    3    3  502    0 -0.22783136775E+03  0.10576934220E+03 -0.23237299305E+03  0.34221861986E+03  0.46999998093E+01 0. -1.
       -5    1    3    3    0  502  0.22783136775E+03 -0.10576934220E+03  0.18381901349E+04  0.18552787791E+04  0.46999998093E+01 0.  1.
</event>
<event>
 5   0  0.2969498E-05  0.1499372E+04  0.7818609E-02  0.8884871E-01
       -2   -1    0    0    0  501  0.00000000000E+00  0.00000000000E+00  0.40064935802E+03  0.40064935803E+03  0.25500000920E-02 0. -1.
        2   -1    0    0  501    0  0.00000000000E+00  0.00000000000E+00 -0.14027947868E+04  0.14027947868E+04  0.25500000920E-02 0.  1.
    10030    2    1    2    0    0  0.00000000000E+00  0.00000000000E+00 -0.10021454288E+04  0.18034441448E+04  0.14993716428E+04 0.  0.
        3    1    3    3  502    0 -0.45370599468E+03 -0.43599046340E+03 -0.10878964590E+02  0.62932914748E+03  0.10100000352E+00 0. -1.
       -3    1    3    3    0  502  0.45370599468E+03  0.43599046340E+03 -0.99126646418E+03  0.11741149974E+04  0.10100000352E+00 0.  1.
</event>
<event>
 5   0  0.1116613E-05  0.1500397E+04  0.7818609E-02  0.8884189E-01
       -3   -1    0    0    0  501  0.00000000000E+00  0.00000000000E+00  0.85672269933E+03  0.85672270528E+03  0.10100000352E+00 0. -1.
        3   -1    0    0  501    0  0.00000000000E+00  0.00000000000E+00 -0.65691938543E+03  0.65691939320E+03  0.10100000352E+00 0.  1.
    10030    2    1    2    0    0  0.00000000000E+00  0.00000000000E+00  0.19980331390E+03  0.15136420985E+04  0.15003969602E+04 0.  0.
        5    1    3    3  502    0 -0.24123218312E+03  0.28867537225E+03  0.75466835690E+03  0.84325135969E+03  0.46999998093E+01 0. -1.
       -5    1    3    3    0  502  0.24123218312E+03 -0.28867537225E+03 -0.55486504300E+03  0.67039073879E+03  0.46999998093E+01 0.  1.
</event>
<event>
 5   0  0.2969498E-05  0.1500043E+04  0.7818609E-02  0.8884424E-01
        2   -1    0    0  501    0  0.00000000000E+00  0.00000000000E+00  0.92598922502E+03  0.92598922502E+03  0.25500000920E-02 0. -1.
       -2   -1    0    0    0  501  0.00000000000E+00  0.00000000000E+00 -0.60749364028E+03  0.60749364029E+03  0.25500000920E-02 0.  1.
    10030    2    1    2    0    0  0.00000000000E+00  0.00000000000E+00  0.31849558473E+03  0.15334828653E+04  0.15000434196E+04 0.  0.
        3    1    3    3  502    0  0.30402431195E+03 -0.36186313553E+03 -0.43610636423E+03  0.64308979329E+03  0.10100000352E+00 0.  1.
       -3    1    3    3    0  502 -0.30402431195E+03  0.36186313553E+03  0.75460194896E+03  0.89039307202E+03  0.10100000352E+00 0. -1.
</event>
<event>
 5   0  0.1588657E-05  0.1494690E+04  0.7818609E-02  0.8887991E-01
        1   -1    0    0  501    0  0.00000000000E+00  0.00000000000E+00  0.92284790527E+03  0.92284790529E+03  0.50400001928E-02 0. -1.
       -1   -1    0    0    0  501  0.00000000000E+00  0.00000000000E+00 -0.60521869515E+03  0.60521869517E+03  0.50400001928E-02 0.  1.
    10030    2    1    2    0    0  0.00000000000E+00  0.00000000000E+00  0.31762921012E+03  0.15280666005E+04  0.14946903426E+04 0.  0.
        3    1    3    3  502    0  0.39304174731E+03  0.22781971639E+03 -0.44785110427E+03  0.63792966705E+03  0.10100000352E+00 0.  1.
       -3    1    3    3    0  502 -0.39304174731E+03 -0.22781971639E+03  0.76548031439E+03  0.89013693341E+03  0.10100000352E+00 0. -1.
</event>
<event>
 5   0  0.1643498E-05  0.1499975E+04  0.7818609E-02  0.8884469E-01
       -1   -1    0    0    0  501  0.00000000000E+00  0.00000000000E+00  0.41855193300E+03  0.41855193303E+03  0.50400001928E-02 0. -1.
        1   -1    0    0  501    0  0.00000000000E+00  0.00000000000E+00 -0.13438748143E+04  0.13438748143E+04  0.50400001928E-02 0.  1.
    10030    2    1    2    0    0  0.00000000000E+00  0.00000000000E+00 -0.92532288125E+03  0.17624267473E+04  0.14999752015E+04 0.  0.
        4    1    3    3  502    0  0.39236053467E+03 -0.47664520160E+03  0.37691684905E+02  0.61851411737E+03  0.12699999809E+01 0. -1.
       -4    1    3    3    0  502 -0.39236053467E+03  0.47664520160E+03 -0.96301456616E+03  0.11439126299E+04  0.12699999809E+01 0.  1.
</event>
<event>
 5   0  0.1533777E-05  0.1499215E+04  0.7818609E-02  0.8884975E-01
       -1   -1    0    0    0  501  0.00000000000E+00  0.00000000000E+00  0.56916162142E+03  0.56916162144E+03  0.50400001928E-02 0. -1.
        1   -1    0    0  501    0  0.00000000000E+00  0.00000000000E+00 -0.98726194138E+03  0.98726194139E+03  0.50400001928E-02 0.  1.
    10030    2    1    2    0    0  0.00000000000E+00  0.00000000000E+00 -0.41810031996E+03  0.15564235628E+04  0.14992152712E+04 0.  0.
        5    1    3    3  502    0  0.48473082547E+03  0.25626800166E+03 -0.73968263306E+03  0.92075498885E+03  0.46999998093E+01 0.  1.
       -5    1    3    3    0  502 -0.48473082547E+03 -0.25626800166E+03  0.32158231310E+03  0.63566857398E+03  0.46999998093E+01 0. -1.
</event>
<event>
 5   0  0.3070497E-05  0.1499514E+04  0.7818609E-02  0.8884776E-01
        2   -1    0    0  501    0  0.00000000000E+00  0.00000000000E+00  0.22288747112E+04  0.22288747112E+04  0.25500000920E-02 0. -1.
       -2   -1    0    0    0  501  0.00000000000E+00  0.00000000000E+00 -0.25220614965E+03  0.25220614966E+03  0.25500000920E-02 0.  1.
    10030    2    1    2    0    0  0.00000000000E+00  0.00000000000E+00  0.19766685615E+04  0.24810808608E+04  0.14995144667E+04 0.  0.
        4    1    3    3  502    0  0.20831907807E+03  0.54847149726E+03  0.17607218766E+04  0.18558989631E+04  0.12699999809E+01 0. -1.
       -4    1    3    3    0  502 -0.20831907807E+03 -0.54847149726E+03  0.21594668489E+03  0.62518189770E+03  0.12699999809E+01 0.  1.
</event>
<event>
 5   0  0.3070497E-05  0.1499525E+04  0.7818609E-02  0.8884769E-01
       -2   -1    0    0    0  501  0.00000000000E+00  0.00000000000E+00  0.43105522854E+03  0.43105522854E+03  0.25500000920E-02 0.  1.
        2   -1    0    0  501    0  0.00000000000E+00  0.00000000000E+00 -0.13041106033E+04  0.13041106034E+04  0.25500000920E-02 0. -1.
    10030    2    1    2    0    0  0.00000000000E+00  0.00000000000E+00 -0.87305537481E+03  0.17351658319E+04  0.14995248503E+04 0.  0.
        4    1    3    3  502    0 -0.37344334824E+03  0.38148026506E+03 -0.10457119044E+04  0.11740963023E+04  0.12699999809E+01 0. -1.
       -4    1    3    3    0  502  0.37344334824E+03 -0.38148026506E+03  0.17265652963E+03  0.56106952964E+03  0.12699999809E+01 0.  1.
</event>
<event>
 5   0  0.2969498E-05  0.1495607E+04  0.7818609E-02  0.8887379E-01
        2   -1    0    0  501    0  0.00000000000E+00  0.00000000000E+00  0.69094264556E+03  0.69094264557E+03  0.25500000920E-02 0.  1.
       -2   -1    0    0    0  501  0.00000000000E+00  0.00000000000E+00 -0.80934415578E+03  0.80934415578E+03  0.25500000920E-02 0. -1.
    10030    2    1    2    0    0  0.00000000000E+00  0.00000000000E+00 -0.11840151022E+03  0.15002868013E+04  0.14956074247E+04 0.  0.
        3    1    3    3  502    0 -0.42958801418E+03 -0.10343920090E+03  0.54598179771E+03  0.70238284706E+03  0.10100000352E+00 0.  1.
       -3    1    3    3    0  502  0.42958801418E+03  0.10343920090E+03 -0.66438330793E+03  0.79790395429E+03  0.10100000352E+00 0. -1.
</event>
<event>
 5   0  0.1576214E-05  0.1500555E+04  0.7818609E-02  0.8884084E-01
       -1   -1    0    0    0  501  0.00000000000E+00  0.00000000000E+00  0.10259741315E+04  0.10259741315E+04  0.50400001928E-02 0. -1.
        1   -1    0    0  501    0  0.00000000000E+00  0.00000000000E+00 -0.54866496815E+03  0.54866496817E+03  0.50400001928E-02 0.  1.
    10030    2    1    2    0    0  0.00000000000E+00  0.00000000000E+00  0.47730916337E+03  0.15746390997E+04  0.15005546497E+04 0.  0.
        1    1    3    3  502    0  0.55735056914E+03  0.26567718031E+03 -0.20864363688E+03  0.65173321865E+03  0.50400001928E-02 0.  1.
       -1    1    3    3    0  502 -0.55735056914E+03 -0.26567718031E+03  0.68595280025E+03  0.92290588104E+03  0.50400001928E-02 0. -1.
</event>
<event>
 5   0  0.3070497E-05  0.1499861E+04  0.7818609E-02  0.8884546E-01
       -2   -1    0    0    0  501  0.00000000000E+00  0.00000000000E+00  0.57629762365E+03  0.57629762365E+03  0.25500000920E-02 0.  1.
        2   -1    0    0  501    0  0.00000000000E+00  0.00000000000E+00 -0.97587689062E+03  0.97587689062E+03  0.25500000920E-02 0. -1.
    10030    2    1    2    0    0  0.00000000000E+00  0.00000000000E+00 -0.39957926697E+03  0.15521745143E+04  0.14998607043E+04 0.  0.
        4    1    3    3  502    0 -0.56595865330E+03  0.36585410915E+03 -0.54025620125E+03  0.86373421972E+03  0.12699999809E+01 0. -1.
       -4    1    3    3    0  502  0.56595865330E+03 -0.36585410915E+03  0.14067693428E+03  0.68844029455E+03  0.12699999809E+01 0.  1.
</event>
<event>
 5   0  0.1643498E-05  0.1500043E+04  0.7818609E-02  0.8884425E-01
        1   -1    0    0  501    0  0.00000000000E+00  0.00000000000E+00  0.25595742249E+04  0.25595742249E+04  0.50400001928E-02 0.  1.
       -1   -1    0    0    0  501  0.00000000000E+00  0.00000000000E+00 -0.21977558537E+03  0.21977558542E+03  0.50400001928E-02 0. -1.
    10030    2    1    2    0    0  0.00000000000E+00  0.00000000000E+00  0.23397986396E+04  0.27793498104E+04  0.15000425643E+04 0.  0.
        4    1    3    3  502    0  0.21630954700E+03  0.59211589679E+03  0.19228469821E+04  0.20235447079E+04  0.12699999809E+01 0.  1.
       -4    1    3    3    0  502 -0.21630954700E+03 -0.59211589679E+03  0.41695165746E+03  0.75580510247E+03  0.12699999809E+01 0. -1.
</event>
<event>
 5   0  0.3093600E-05  0.1500209E+04  0.7818609E-02  0.8884314E-01
        2   -1    0    0  501    0  0.00000000000E+00  0.00000000000E+00  0.19236538343E+04  0.19236538343E+04  0.25500000920E-02 0. -1.
       -2   -1    0    0    0  501  0.00000000000E+00  0.00000000000E+00 -0.29249392256E+03  0.29249392257E+03  0.25500000920E-02 0.  1.
    10030    2    1    2    0    0  0.00000000000E+00  0.00000000000E+00  0.16311599118E+04  0.22161477569E+04  0.15002093929E+04 0.  0.
        1    1    3    3  502    0 -0.56479281183E+03 -0.28713034965E+03  0.14087229232E+04  0.15446472194E+04  0.50400001928E-02 0. -1.
       -1    1    3    3    0  502  0.56479281183E+03  0.28713034965E+03  0.22243698858E+03  0.67150053752E+03  0.50400001928E-02 0.  1.
</event>
<event>
 5   0  0.3030702E-05  0.1499841E+04  0.7818609E-02  0.8884558E-01
        2   -1    0    0  501    0  0.00000000000E+00  0.00000000000E+00  0.64145577567E+03  0.64145577568E+03  0.25500000920E-02 0.  1.
       -2   -1    0    0    0  501  0.00000000000E+00  0.00000000000E+00 -0.87672602123E+03  0.87672602123E+03  0.25500000920E-02 0. -1.
    10030    2    1    2    0    0  0.00000000000E+00  0.00000000000E+00 -0.23527024556E+03  0.15181817969E+04  0.14998412849E+04 0.  0.
        5    1    3    3  502    0 -0.19295538215E+03 -0.29666776745E+03 -0.78686681306E+03  0.86280068106E+03  0.46999998093E+01 0. -1.
       -5    1    3    3    0  502  0.19295538215E+03  0.29666776745E+03  0.55159656750E+03  0.65538111585E+03  0.46999998093E+01 0.  1.
</event>
<event>
 5   0  0.1576214E-05  0.1500174E+04  0.7818609E-02  0.8884337E-01
       -1   -1    0    0    0  501  0.00000000000E+00  0.00000000000E+00  0.46886083632E+03  0.46886083634E+03  0.50400001928E-02 0.  1.
        1   -1    0    0  501    0  0.00000000000E+00  0.00000000000E+00 -0.11999943005E+04  0.11999943005E+04  0.50400001928E-02 0. -1.
    10030    2    1    2    0    0  0.00000000000E+00  0.00000000000E+00 -0.73113346422E+03  0.16688551369E+04  0.15001737651E+04 0.  0.
        1    1    3    3  502    0 -0.28730171154E+03 -0.66264775578E+03 -0.59078047719E+03  0.93309479365E+03  0.50400001928E-02 0. -1.
       -1    1    3    3    0  502  0.28730171154E+03  0.66264775578E+03 -0.14035298703E+03  0.73576034324E+03  0.50400001928E-02 0.  1.
</event>
<event>
 5   0  0.1576214E-05  0.1507126E+04  0.7818609E-02  0.8879728E-01
        1   -1    0    0  501    0  0.00000000000E+00  0.00000000000E+00  0.84228017940E+03  0.84228017941E+03  0.50400001928E-02 0.  1.
       -1   -1    0    0    0  501  0.00000000000E+00  0.00000000000E+00 -0.67419078326E+03  0.67419078328E+03  0.50400001928E-02 0. -1.
    10030    2    1    2    0    0  0.00000000000E+00  0.00000000000E+00  0.16808939614E+03  0.15164709627E+04  0.15071264498E+04 0.  0.
        1    1    3    3  502    0  0.52416725624E+03 -0.51211783228E+03 -0.92661785971E+02  0.73864889715E+03  0.50400001928E-02 0. -1.
       -1    1    3    3    0  502 -0.52416725624E+03  0.51211783228E+03  0.26075118211E+03  0.77782206554E+03  0.50400001928E-02 0.  1.
</event>
<event>
 5   0  0.1643498E-05  0.1498784E+04  0.7818609E-02  0.8885262E-01
        1   -1    0    0  501    0  0.00000000000E+00  0.00000000000E+00  0.64736091294E+03  0.64736091295E+03  0.50400001928E-02 0. -1.
       -1   -1    0    0    0  501  0.00000000000E+00  0.00000000000E+00 -0.86750392564E+03  0.86750392565E+03  0.50400001928E-02 0.  1.
    10030    2    1    2    0    0  0.00000000000E+00  0.00000000000E+00 -0.22014301270E+03  0.15148648386E+04  0.14987836846E+04 0.  0.
        4    1    3    3  502    0  0.70759038318E+03  0.13377445242E+03 -0.31967731852E+03  0.78789273087E+03  0.12699999809E+01 0.  1.
       -4    1    3    3    0  502 -0.70759038318E+03 -0.13377445242E+03  0.99534305822E+02  0.72697210773E+03  0.12699999809E+01 0. -1.
</event>
<event>
 5   0  0.3070497E-05  0.1499641E+04  0.7818609E-02  0.8884692E-01
       -2   -1    0    0    0  501  0.00000000000E+00  0.00000000000E+00  0.60252876937E+03  0.60252876937E+03  0.25500000920E-02 0.  1.
        2   -1    0    0  501    0  0.00000000000E+00  0.00000000000E+00 -0.93311821873E+03  0.93311821873E+03  0.25500000920E-02 0. -1.
    10030    2    1    2    0    0  0.00000000000E+00  0.00000000000E+00 -0.33058944936E+03  0.15356469881E+04  0.14996407197E+04 0.  0.
        4    1    3    3  502    0  0.61193535132E+03  0.29601017012E+02  0.27739018611E+03  0.67252362238E+03  0.12699999809E+01 0.  1.
       -4    1    3    3    0  502 -0.61193535132E+03 -0.29601017012E+02 -0.60797963548E+03  0.86312336572E+03  0.12699999809E+01 0. -1.
</event>
<event>
 5   0  0.1576214E-05  0.1499866E+04  0.7818609E-02  0.8884542E-01
       -1   -1    0    0    0  501  0.00000000000E+00  0.00000000000E+00  0.47834461412E+03  0.47834461415E+03  0.50400001928E-02 0.  1.
        1   -1    0    0  501    0  0.00000000000E+00  0.00000000000E+00 -0.11757206943E+04  0.11757206943E+04  0.50400001928E-02 0. -1.
    10030    2    1    2    0    0  0.00000000000E+00  0.00000000000E+00 -0.69737608014E+03  0.16540653084E+04  0.14998662098E+04 0.  0.
        1    1    3    3  502    0 -0.35046931549E+03  0.60764076335E+03 -0.64117903486E+03  0.95035077374E+03  0.50400001928E-02 0. -1.
       -1    1    3    3    0  502  0.35046931549E+03 -0.60764076335E+03 -0.56197045278E+02  0.70371453467E+03  0.50400001928E-02 0.  1.
</event>
<event>
 5   0  0.3093600E-05  0.1499925E+04  0.7818609E-02  0.8884503E-01
       -2   -1    0    0    0  501  0.00000000000E+00  0.00000000000E+00  0.28231913497E+03  0.28231913499E+03  0.25500000920E-02 0. -1.
        2   -1    0    0  501    0  0.00000000000E+00  0.00000000000E+00 -0.19922261245E+04  0.19922261245E+04  0.25500000920E-02 0.  1.
    10030    2    1    2    0    0  0.00000000000E+00  0.00000000000E+00 -0.17099069895E+04  0.22745452595E+04  0.14999247397E+04 0.  0.
        1    1    3    3  502    0  0.46800106231E+03  0.33444371382E+03 -0.15846839600E+04  0.16858531505E+04  0.50400001928E-02 0.  1.
       -1    1    3    3    0  502 -0.46800106231E+03 -0.33444371382E+03 -0.12522302956E+03  0.58869210900E+03  0.50400001928E-02 0. -1.
</event>
<event>
 5   0  0.1116613E-05  0.1499683E+04  0.7818609E-02  0.8884664E-01
       -3   -1    0    0    0  501  0.00000000000E+00  0.00000000000E+00  0.61766857829E+03  0.61766858655E+03  0.10100000352E+00 0. -1.
        3   -1    0    0  501    0  0.00000000000E+00  0.00000000000E+00 -0.91029726955E+03  0.91029727515E+03  0.10100000352E+00 0.  1.
    10030    2    1    2    0    0  0.00000000000E+00  0.00000000000E+00 -0.29262869125E+03  0.15279658617E+04  0.14996826743E+04 0.  0.
        1    1    3    3  502    0 -0.51300114065E+02  0.19488286020E+03 -0.88218976985E+03  0.90491426166E+03  0.50400001928E-02 0.  1.
       -1    1    3    3    0  502  0.51300114065E+02 -0.19488286020E+03  0.58956107859E+03  0.62305160005E+03  0.50400001928E-02 0. -1.
</event>
<event>
 5   0  0.1533777E-05  0.1498455E+04  0.7818609E-02  0.8885481E-01
        1   -1    0    0  501    0  0.00000000000E+00  0.00000000000E+00  0.84577298054E+03  0.84577298056E+03  0.50400001928E-02 0.  1.
       -1   -1    0    0    0  501  0.00000000000E+00  0.00000000000E+00 -0.66370282026E+03  0.66370282028E+03  0.50400001928E-02 0. -1.
    10030    2    1    2    0    0  0.00000000000E+00  0.00000000000E+00  0.18207016028E+03  0.15094758008E+04  0.14984550878E+04 0.  0.
        5    1    3    3  502    0  0.29235672431E+03 -0.45383006134E+03  0.61436108500E+03  0.81786050863E+03  0.46999998093E+01 0.  1.
       -5    1    3    3    0  502 -0.29235672431E+03  0.45383006134E+03 -0.43229092472E+03  0.69161529221E+03  0.46999998093E+01 0. -1.
</event>
<event>
 5   0  0.2969498E-05  0.1503814E+04  0.7818609E-02  0.8881921E-01
        2   -1    0    0  501    0  0.00000000000E+00  0.00000000000E+00  0.11755090021E+04  0.11755090021E+04  0.25500000920E-02 0.  1.
       -2   -1    0    0    0  501  0.00000000000E+00  0.00000000000E+00 -0.48095239350E+03  0.48095239351E+03  0.25500000920E-02 0. -1.
    10030    2    1    2    0    0  0.00000000000E+00  0.00000000000E+00  0.69455660857E+03  0.16564613956E+04  0.15038136429E+04 0.  0.
        3    1    3    3  502    0 -0.73456119759E+03  0.80765495888E+02  0.50014843995E+03  0.89232936213E+03  0.10100000352E+00 0. -1.
       -3    1    3    3    0  502  0.73456119759E+03 -0.80765495888E+02  0.19440816862E+03  0.76413203346E+03  0.10100000352E+00 0.  1.
</event>
<event>
 5   0  0.1576214E-05  0.1500460E+04  0.7818609E-02  0.8884147E-01
       -1   -1    0    0    0  501  0.00000000000E+00  0.00000000000E+00  0.56619985293E+03  0.56619985295E+03  0.50400001928E-02 0. -1.
        1   -1    0    0  501    0  0.00000000000E+00  0.00000000000E+00 -0.99407463348E+03  0.99407463349E+03  0.50400001928E-02 0.  1.
    10030    2    1    2    0    0  0.00000000000E+00  0.00000000000E+00 -0.42787478055E+03  0.15602744864E+04  0.15004598113E+04 0.  0.
        1    1    3    3  502    0 -0.38686007026E+03 -0.19539256601E+03 -0.85072662706E+03  0.95476424463E+03  0.50400001928E-02 0.  1.
       -1    1    3    3    0  502  0.38686007026E+03  0.19539256601E+03  0.42285184652E+03  0.60551024181E+03  0.50400001928E-02 0. -1.
</event>
<event>
 5   0  0.1533777E-05  0.1500102E+04  0.7818609E-02  0.8884385E-01
       -1   -1    0    0    0  501  0.00000000000E+00  0.00000000000E+00  0.69536782207E+03  0.69536782209E+03  0.50400001928E-02 0.  1.
        1   -1    0    0  501    0  0.00000000000E+00  0.00000000000E+00 -0.80903427690E+03  0.80903427691E+03  0.50400001928E-02 0. -1.
    10030    2    1    2    0    0  0.00000000000E+00  0.00000000000E+00 -0.11366645482E+03  0.15044020990E+04  0.15001018674E+04 0.  0.
        5    1    3    3  502    0  0.20959491606E+03 -0.57386702773E+03 -0.49316771424E+03  0.78516869443E+03  0.46999998093E+01 0. -1.
       -5    1    3    3    0  502 -0.20959491606E+03  0.57386702773E+03  0.37950125941E+03  0.71923340457E+03  0.46999998093E+01 0.  1.
</event>
<event>
 5   0  0.3030702E-05  0.1499898E+04  0.7818609E-02  0.8884521E-01
       -2   -1    0    0    0  501  0.00000000000E+00  0.00000000000E+00  0.43162095449E+03  0.43162095450E+03  0.25500000920E-02 0. -1.
        2   -1    0    0  501    0  0.00000000000E+00  0.00000000000E+00 -0.13030490522E+04  0.13030490522E+04  0.25500000920E-02 0.  1.
    10030    2    1    2    0    0  0.00000000000E+00  0.00000000000E+00 -0.87142809774E+03  0.17346700067E+04  0.14998976974E+04 0.  0.
        5    1    3    3  502    0  0.47143333768E+03 -0.17841336938E+03  0.20646540434E+03  0.54473000233E+03  0.46999998093E+01 0. -1.
       -5    1    3    3    0  502 -0.47143333768E+03  0.17841336938E+03 -0.10778935021E+04  0.11899400044E+04  0.46999998093E+01 0.  1.
</event>
<event>
 5   0  0.1576214E-05  0.1501521E+04  0.7818609E-02  0.8883442E-01
        1   -1    0    0  501    0  0.00000000000E+00  0.00000000000E+00  0.12706860703E+04  0.12706860703E+04  0.50400001928E-02 0.  1.
       -1   -1    0    0    0  501  0.00000000000E+00  0.00000000000E+00 -0.44357228824E+03  0.44357228827E+03  0.50400001928E-02 0. -1.
    10030    2    1    2    0    0  0.00000000000E+00  0.00000000000E+00  0.82711378207E+03  0.17142583586E+04  0.15015207330E+04 0.  0.
        1    1    3    3  502    0  0.26027159556E+03 -0.29673586608E+03  0.11426683514E+04  0.12089187065E+04  0.50400001928E-02 0.  1.
       -1    1    3    3    0  502 -0.26027159556E+03  0.29673586608E+03 -0.31555456935E+03  0.50533965205E+03  0.50400001928E-02 0. -1.
</event>
<event>
 5   0  0.1533777E-05  0.1500341E+04  0.7818609E-02  0.8884226E-01
        1   -1    0    0  501    0  0.00000000000E+00  0.00000000000E+00  0.20836658029E+04  0.20836658029E+04  0.50400001928E-02 0. -1.
       -1   -1    0    0    0  501  0.00000000000E+00  0.00000000000E+00 -0.27007958201E+03  0.27007958205E+03  0.50400001928E-02 0.  1.
    10030    2    1    2    0    0  0.00000000000E+00  0.00000000000E+00  0.18135862209E+04  0.23537453850E+04  0.15003407468E+04 0.  0.
        5    1    3    3  502    0  0.71415174218E+03  0.15237645077E+02  0.12662129799E+04  0.14538095808E+04  0.46999998093E+01 0. -1.
       -5    1    3    3    0  502 -0.71415174218E+03 -0.15237645077E+02  0.54737324096E+03  0.89993580416E+03  0.46999998093E+01 0.  1.
</event>
<event>
 5   0  0.1588657E-05  0.1500246E+04  0.7818609E-02  0.8884289E-01
       -1   -1    0    0    0  501  0.00000000000E+00  0.00000000000E+00  0.39875644678E+03  0.39875644681E+03  0.50400001928E-02 0. -1.
        1   -1    0    0  501    0  0.00000000000E+00  0.00000000000E+00 -0.14110981291E+04  0.14110981291E+04  0.50400001928E-02 0.  1.
    10030    2    1    2    0    0  0.00000000000E+00  0.00000000000E+00 -0.10123416823E+04  0.18098545759E+04  0.15002459479E+04 0.  0.
        3    1    3    3  502    0 -0.74632206607E+03  0.64199560680E+02 -0.45842752460E+03  0.87822207636E+03  0.10100000352E+00 0. -1.
       -3    1    3    3    0  502  0.74632206607E+03 -0.64199560680E+02 -0.55391415771E+03  0.93163249955E+03  0.10100000352E+00 0.  1.
</event>
<event>
 5   0  0.3070497E-05  0.1499850E+04  0.7818609E-02  0.8884553E-01
       -2   -1    0    0    0  501  0.00000000000E+00  0.00000000000E+00  0.58412405373E+03  0.58412405374E+03  0.25500000920E-02 0.  1.
        2   -1    0    0  501    0  0.00000000000E+00  0.00000000000E+00 -0.96278805844E+03  0.96278805844E+03  0.25500000920E-02 0. -1.
    10030    2    1    2    0    0  0.00000000000E+00  0.00000000000E+00 -0.37866400471E+03  0.15469121122E+04  0.14998502106E+04 0.  0.
        4    1    3    3  502    0 -0.14294218520E+03  0.33260500851E+03 -0.86669476951E+03  0.93926566869E+03  0.12699999809E+01 0. -1.
       -4    1    3    3    0  502  0.14294218520E+03 -0.33260500851E+03  0.48803076480E+03  0.60764644349E+03  0.12699999809E+01 0.  1.
</event>
<event>
 5   0  0.1580078E-05  0.1499880E+04  0.7818609E-02  0.8884532E-01
       -1   -1    0    0    0  501  0.00000000000E+00  0.00000000000E+00  0.16504375512E+04  0.16504375512E+04  0.50400001928E-02 0.  1.
        1   -1    0    0  501    0  0.00000000000E+00  0.00000000000E+00 -0.34076438006E+03  0.34076438010E+03  0.50400001928E-02 0. -1.
    10030    2    1    2    0    0  0.00000000000E+00  0.00000000000E+00  0.13096731711E+04  0.19912019313E+04  0.14998804339E+04 0.  0.
        2    1    3    3  502    0  0.35805414687E+03 -0.39971119719E+03 -0.40637890519E+02  0.53816656474E+03  0.25500000920E-02 0. -1.
       -2    1    3    3    0  502 -0.35805414687E+03  0.39971119719E+03  0.13503110617E+04  0.14530353666E+04  0.25500000920E-02 0.  1.
</event>
<event>
 5   0  0.1116613E-05  0.1500674E+04  0.7818609E-02  0.8884005E-01
       -3   -1    0    0    0  501  0.00000000000E+00  0.00000000000E+00  0.68935014760E+03  0.68935015500E+03  0.10100000352E+00 0. -1.
        3   -1    0    0  501    0  0.00000000000E+00  0.00000000000E+00 -0.81671881105E+03  0.81671881730E+03  0.10100000352E+00 0.  1.
    10030    2    1    2    0    0  0.00000000000E+00  0.00000000000E+00 -0.12736866345E+03  0.15060689723E+04  0.15006735064E+04 0.  0.
        4    1    3    3  502    0 -0.22106519750E+03  0.24849058923E+03  0.61133053408E+03  0.69594829498E+03  0.12699999809E+01 0. -1.
       -4    1    3    3    0  502  0.22106519750E+03 -0.24849058923E+03 -0.73869919754E+03  0.81012067732E+03  0.12699999809E+01 0.  1.
</event>
<event>
 5   0  0.3093600E-05  0.1498020E+04  0.7818609E-02  0.8885770E-01
        2   -1    0    0  501    0  0.00000000000E+00  0.00000000000E+00  0.70400532283E+03  0.70400532284E+03  0.25500000920E-02 0. -1.
       -2   -1    0    0    0  501  0.00000000000E+00  0.00000000000E+00 -0.79689219106E+03  0.79689219106E+03  0.25500000920E-02 0.  1.
    10030    2    1    2    0    0  0.00000000000E+00  0.00000000000E+00 -0.92886868223E+02  0.15008975139E+04  0.14980204862E+04 0.  0.
        1    1    3    3  502    0 -0.35218026640E+03 -0.51751931422E+03 -0.45852297231E+03  0.77595134950E+03  0.50400001928E-02 0.  1.
       -1    1    3    3    0  502  0.35218026640E+03  0.51751931422E+03  0.36563610409E+03  0.72494616439E+03  0.50400001928E-02 0. -1.
</event>
<event>
 5   0  0.3070497E-05  0.1498299E+04  0.7818609E-02  0.8885585E-01
        2   -1    0    0  501    0  0.00000000000E+00  0.00000000000E+00  0.85125340011E+03  0.85125340012E+03  0.25500000920E-02 0. -1.
       -2   -1    0    0    0  501  0.00000000000E+00  0.00000000000E+00 -0.65929248127E+03  0.65929248127E+03  0.25500000920E-02 0.  1.
    10030    2    1    2    0    0  0.00000000000E+00  0.00000000000E+00  0.19196091884E+03  0.15105458814E+04  0.14982989907E+04 0.  0.
        4    1    3    3  502    0  0.47153443009E+03  0.25392508732E+03  0.62409488378E+03  0.82238598334E+03  0.12699999809E+01 0. -1.
       -4    1    3    3    0  502 -0.47153443009E+03 -0.25392508732E+03 -0.43213396493E+03  0.68815989805E+03  0.12699999809E+01 0.  1.
</event>
<event>
 5   0  0.3070497E-05  0.1499659E+04  0.7818609E-02  0.8884680E-01
        2   -1    0    0  501    0  0.00000000000E+00  0.00000000000E+00  0.55182304845E+03  0.55182304845E+03  0.25500000920E-02 0.  1.
       -2   -1    0    0    0  501  0.00000000000E+00  0.00000000000E+00 -0.10188851960E+04  0.10188851960E+04  0.25500000920E-02 0. -1.
    10030    2    1    2    0    0  0.00000000000E+00  0.00000000000E+00 -0.46706214753E+03  0.15707082444E+04  0.14996590744E+04 0.  0.
        4    1    3    3  502    0 -0.26034684238E+03  0.31214480894E+03 -0.89348478583E+03  0.98159642190E+03  0.12699999809E+01 0. -1.
       -4    1    3    3    0  502  0.26034684238E+03 -0.31214480894E+03  0.42642263830E+03  0.58911182253E+03  0.12699999809E+01 0.  1.
</event>
<event>
 5   0  0.3018308E-05  0.1499717E+04  0.7818609E-02  0.8884641E-01
       -2   -1    0    0    0  501  0.00000000000E+00  0.00000000000E+00  0.35163240636E+03  0.35163240637E+03  0.25500000920E-02 0.  1.
        2   -1    0    0  501    0  0.00000000000E+00  0.00000000000E+00 -0.15990791041E+04  0.15990791041E+04  0.25500000920E-02 0. -1.
    10030    2    1    2    0    0  0.00000000000E+00  0.00000000000E+00 -0.12474466978E+04  0.19507115105E+04  0.14997173512E+04 0.  0.
        2    1    3    3  502    0  0.27041717185E+03 -0.29298160388E+03  0.20233525794E+03  0.44710538317E+03  0.25500000920E-02 0.  1.
       -2    1    3    3    0  502 -0.27041717185E+03  0.29298160388E+03 -0.14497819557E+04  0.15036061273E+04  0.25500000920E-02 0. -1.
</event>
<event>
 5   0  0.2969498E-05  0.1502748E+04  0.7818609E-02  0.8882628E-01
       -2   -1    0    0    0  501  0.00000000000E+00  0.00000000000E+00  0.80709097003E+03  0.80709097003E+03  0.25500000920E-02 0.  1.
        2   -1    0    0  501    0  0.00000000000E+00  0.00000000000E+00 -0.69950303394E+03  0.69950303395E+03  0.25500000920E-02 0. -1.
    10030    2    1    2    0    0  0.00000000000E+00  0.00000000000E+00  0.10758793608E+03  0.15065940040E+04  0.15027475932E+04 0.  0.
        3    1    3    3  502    0 -0.53273053709E+03  0.52944547336E+03  0.75019781148E+02  0.75481276630E+03  0.10100000352E+00 0. -1.
       -3    1    3    3    0  502  0.53273053709E+03 -0.52944547336E+03  0.32568154936E+02  0.75178123768E+03  0.10100000352E+00 0.  1.
</event>
<event>
 5   0  0.1588657E-05  0.1500030E+04  0.7818609E-02  0.8884433E-01
       -1   -1    0    0    0  501  0.00000000000E+00  0.00000000000E+00  0.41864548508E+03  0.41864548511E+03  0.50400001928E-02 0.  1.
        1   -1    0    0  501    0  0.00000000000E+00  0.00000000000E+00 -0.13436717847E+04  0.13436717847E+04  0.50400001928E-02 0. -1.
    10030    2    1    2    0    0  0.00000000000E+00  0.00000000000E+00 -0.92502629958E+03  0.17623172698E+04  0.15000295012E+04 0.  0.
        3    1    3    3  502    0  0.39776076078E+03  0.36373229910E+03  0.15022452274E+03  0.55953751050E+03  0.10100000352E+00 0.  1.
       -3    1    3    3    0  502 -0.39776076078E+03 -0.36373229910E+03 -0.10752508223E+04  0.12027797593E+04  0.10100000352E+00 0. -1.
</event>
<event>
 5   0  0.1643498E-05  0.1499430E+04  0.7818609E-02  0.8884832E-01
       -1   -1    0    0    0  501  0.00000000000E+00  0.00000000000E+00  0.46479417367E+03  0.46479417370E+03  0.50400001928E-02 0. -1.
        1   -1    0    0  501    0  0.00000000000E+00  0.00000000000E+00 -0.12092940100E+04  0.12092940100E+04  0.50400001928E-02 0.  1.
    10030    2    1    2    0    0  0.00000000000E+00  0.00000000000E+00 -0.74449983634E+03  0.16740881837E+04  0.14994303053E+04 0.  0.
        4    1    3    3  502    0  0.74830088890E+03  0.11094057719E+02 -0.42210433060E+03  0.85921532648E+03  0.12699999809E+01 0.  1.
       -4    1    3    3    0  502 -0.74830088890E+03 -0.11094057719E+02 -0.32239550573E+03  0.81487285723E+03  0.12699999809E+01 0. -1.
</event>
<event>
 5   0  0.2969498E-05  0.1493977E+04  0.7818609E-02  0.8888468E-01
       -2   -1    0    0    0  501  0.00000000000E+00  0.00000000000E+00  0.12914088024E+04  0.12914088024E+04  0.25500000920E-02 0. -1.
        2   -1    0    0  501    0  0.00000000000E+00  0.00000000000E+00 -0.43208006708E+03  0.43208006709E+03  0.25500000920E-02 0.  1.
    10030    2    1    2    0    0  0.00000000000E+00  0.00000000000E+00  0.85932873534E+03  0.17234888695E+04  0.14939772448E+04 0.  0.
        3    1    3    3  502    0 -0.18516216046E+03  0.75119578473E+02 -0.40067611831E+03  0.44773802465E+03  0.10100000352E+00 0.  1.
       -3    1    3    3    0  502  0.18516216046E+03 -0.75119578473E+02  0.12600048536E+04  0.12757508449E+04  0.10100000352E+00 0. -1.
</event>
<event>
 5   0  0.3018308E-05  0.1500273E+04  0.7818609E-02  0.8884271E-01
       -2   -1    0    0    0  501  0.00000000000E+00  0.00000000000E+00  0.33772702334E+03  0.33772702335E+03  0.25500000920E-02 0.  1.
        2   -1    0    0  501    0  0.00000000000E+00  0.00000000000E+00 -0.16661527728E+04  0.16661527728E+04  0.25500000920E-02 0. -1.
    10030    2    1    2    0    0  0.00000000000E+00  0.00000000000E+00 -0.13284257494E+04  0.20038797961E+04  0.15002730637E+04 0.  0.
        2    1    3    3  502    0 -0.60485693139E+03 -0.18233194930E+01 -0.71603379432E+02  0.60908314367E+03  0.25500000920E-02 0.  1.
       -2    1    3    3    0  502  0.60485693139E+03  0.18233194930E+01 -0.12568223700E+04  0.13947966525E+04  0.25500000920E-02 0. -1.
</event>
<event>
 5   0  0.1576214E-05  0.1504265E+04  0.7818609E-02  0.8881621E-01
       -1   -1    0    0    0  501  0.00000000000E+00  0.00000000000E+00  0.34308381980E+03  0.34308381984E+03  0.50400001928E-02 0. -1.
        1   -1    0    0  501    0  0.00000000000E+00  0.00000000000E+00 -0.16488784959E+04  0.16488784959E+04  0.50400001928E-02 0.  1.
    10030    2    1    2    0    0  0.00000000000E+00  0.00000000000E+00 -0.13057946761E+04  0.19919623158E+04  0.15042653128E+04 0.  0.
        1    1    3    3  502    0  0.53362267887E+03  0.11637960596E+03  0.31868960651E+02  0.54709506191E+03  0.50400001928E-02 0. -1.
       -1    1    3    3    0  502 -0.53362267887E+03 -0.11637960596E+03 -0.13376636368E+04  0.14448672539E+04  0.50400001928E-02 0.  1.
</event>
<event>
 5   0  0.3093600E-05  0.1499782E+04  0.7818609E-02  0.8884598E-01
       -2   -1    0    0    0  501  0.00000000000E+00  0.00000000000E+00  0.34006831657E+03  0.34006831658E+03  0.25500000920E-02 0. -1.
        2   -1    0    0  501    0  0.00000000000E+00  0.00000000000E+00 -0.16535987947E+04  0.16535987947E+04  0.25500000920E-02 0.  1.
    10030    2    1    2    0    0  0.00000000000E+00  0.00000000000E+00 -0.13135304781E+04  0.19936671112E+04  0.14997820620E+04 0.  0.
        1    1    3    3  502    0  0.37355003845E+03 -0.57245736839E+03 -0.10666773457E+04  0.12669047437E+04  0.50400001928E-02 0.  1.
       -1    1    3    3    0  502 -0.37355003845E+03  0.57245736839E+03 -0.24685313241E+03  0.72676236753E+03  0.50400001928E-02 0. -1.
</event>
<event>
 5   0  0.1580078E-05  0.1499763E+04  0.7818609E-02  0.8884611E-01
        1   -1    0    0  501    0  0.00000000000E+00  0.00000000000E+00  0.45150761630E+03  0.45150761633E+03  0.50400001928E-02 0.  1.
       -1   -1    0    0    0  501  0.00000000000E+00  0.00000000000E+00 -0.12454321254E+04  0.12454321254E+04  0.50400001928E-02 0. -1.
    10030    2    1    2    0    0  0.00000000000E+00  0.00000000000E+00 -0.79392450909E+03  0.16969397417E+04  0.14997627682E+04 0.  0.
        2    1    3    3  502    0  0.45245166011E+03  0.58641267775E+03 -0.52954141855E+03  0.91049791176E+03  0.25500000920E-02 0.  1.
       -2    1    3    3    0  502 -0.45245166011E+03 -0.58641267775E+03 -0.26438309055E+03  0.78644182997E+03  0.25500000920E-02 0. -1.
</event>
<event>
 5   0  0.3030702E-05  0.1499347E+04  0.7818609E-02  0.8884887E-01
        2   -1    0    0  501    0  0.00000000000E+00  0.00000000000E+00  0.40851425843E+03  0.40851425844E+03  0.25500000920E-02 0. -1.
       -2   -1    0    0    0  501  0.00000000000E+00  0.00000000000E+00 -0.13757425997E+04  0.13757425997E+04  0.25500000920E-02 0.  1.
    10030    2    1    2    0    0  0.00000000000E+00  0.00000000000E+00 -0.96722834127E+03  0.17842568582E+04  0.14993471485E+04 0.  0.
        5    1    3    3  502    0  0.43901509141E+00  0.74627366827E+03 -0.39893173703E+03  0.84622290296E+03  0.46999998093E+01 0.  1.
       -5    1    3    3    0  502 -0.43901509141E+00 -0.74627366827E+03 -0.56829660425E+03  0.93803395519E+03  0.46999998093E+01 0. -1.
</event>
<event>
 5   0  0.1580078E-05  0.1499873E+04  0.7818609E-02  0.8884538E-01
        1   -1    0    0  501    0  0.00000000000E+00  0.00000000000E+00  0.15179391540E+04  0.15179391540E+04  0.50400001928E-02 0.  1.
       -1   -1    0    0    0  501  0.00000000000E+00  0.00000000000E+00 -0.37050528972E+03  0.37050528975E+03  0.50400001928E-02 0. -1.
    10030    2    1    2    0    0  0.00000000000E+00  0.00000000000E+00  0.11474338642E+04  0.18884444437E+04  0.14998726427E+04 0.  0.
        2    1    3    3  502    0 -0.72983313807E+02  0.45126468655E+03 -0.17480841930E+03  0.48941226475E+03  0.25500000920E-02 0. -1.
       -2    1    3    3    0  502  0.72983313807E+02 -0.45126468655E+03  0.13222422835E+04  0.13990321790E+04  0.25500000920E-02 0.  1.
</event>
<event>
 5   0  0.1588657E-05  0.1500316E+04  0.7818609E-02  0.8884243E-01
        1   -1    0    0  501    0  0.00000000000E+00  0.00000000000E+00  0.55179363555E+03  0.55179363558E+03  0.50400001928E-02 0.  1.
       -1   -1    0    0    0  501  0.00000000000E+00  0.00000000000E+00 -0.10198328161E+04  0.10198328161E+04  0.50400001928E-02 0. -1.
    10030    2    1    2    0    0  0.00000000000E+00  0.00000000000E+00 -0.46803918054E+03  0.15716264517E+04  0.15003163097E+04 0.  0.
        3    1    3    3  502    0 -0.92952387000E+02 -0.44177615276E+03  0.39356452462E+03  0.59891515312E+03  0.10100000352E+00 0.  1.
       -3    1    3    3    0  502  0.92952387000E+02  0.44177615276E+03 -0.86160370516E+03  0.97271129856E+03  0.10100000352E+00 0. -1.
</event>
<event>
 5   0  0.1533777E-05  0.1501370E+04  0.7818609E-02  0.8883542E-01
       -1   -1    0    0    0  501  0.00000000000E+00  0.00000000000E+00  0.83212929883E+03  0.83212929885E+03  0.50400001928E-02 0. -1.
        1   -1    0    0  501    0  0.00000000000E+00  0.00000000000E+00 -0.67721204761E+03  0.67721204763E+03  0.50400001928E-02 0.  1.
    10030    2    1    2    0    0  0.00000000000E+00  0.00000000000E+00  0.15491725122E+03  0.15093413465E+04  0.15013700228E+04 0.  0.
        5    1    3    3  502    0 -0.17727138718E+01  0.10839144214E+03 -0.66928666671E+03  0.67802550062E+03  0.46999998093E+01 0.  1.
       -5    1    3    3    0  502  0.17727138718E+01 -0.10839144214E+03  0.82420391793E+03  0.83131584586E+03  0.46999998093E+01 0. -1.
</event>
<event>
 5   0  0.3093600E-05  0.1499972E+04  0.7818609E-02  0.8884472E-01
        2   -1    0    0  501    0  0.00000000000E+00  0.00000000000E+00  0.52295363353E+03  0.52295363354E+03  0.25500000920E-02 0. -1.
       -2   -1    0    0    0  501  0.00000000000E+00  0.00000000000E+00 -0.10755810945E+04  0.10755810945E+04  0.25500000920E-02 0.  1.
    10030    2    1    2    0    0  0.00000000000E+00  0.00000000000E+00 -0.55262746098E+03  0.15985347280E+04  0.14999720551E+04 0.  0.
        1    1    3    3  502    0  0.73309534771E+03  0.14524705583E+03 -0.34332259751E+03  0.82243291645E+03  0.50400001928E-02 0.  1.
       -1    1    3    3    0  502 -0.73309534771E+03 -0.14524705583E+03 -0.20930486346E+03  0.77610181160E+03  0.50400001928E-02 0. -1.
</event>
<event>
 5   0  0.1588657E-05  0.1499932E+04  0.7818609E-02  0.8884498E-01
        1   -1    0    0  501    0  0.00000000000E+00  0.00000000000E+00  0.77319948672E+03  0.77319948673E+03  0.50400001928E-02 0. -1.
       -1   -1    0    0    0  501  0.00000000000E+00  0.00000000000E+00 -0.72743095922E+03  0.72743095924E+03  0.50400001928E-02 0.  1.
    10030    2    1    2    0    0  0.00000000000E+00  0.00000000000E+00  0.45768527496E+02  0.15006304460E+04  0.14999323242E+04 0.  0.
        3    1    3    3  502    0 -0.63581744457E+03 -0.28073657966E+03 -0.25897791319E+03  0.74171855828E+03  0.10100000352E+00 0.  1.
       -3    1    3    3    0  502  0.63581744457E+03  0.28073657966E+03  0.30474644069E+03  0.75891188770E+03  0.10100000352E+00 0. -1.
</event>
<event>
 5   0  0.3018308E-05  0.1499957E+04  0.7818609E-02  0.8884481E-01
        2   -1    0    0  501    0  0.00000000000E+00  0.00000000000E+00  0.15547370905E+04  0.15547370905E+04  0.25500000920E-02 0.  1.
       -2   -1    0    0    0  501  0.00000000000E+00  0.00000000000E+00 -0.36177683385E+03  0.36177683386E+03  0.25500000920E-02 0. -1.
    10030    2    1    2    0    0  0.00000000000E+00  0.00000000000E+00  0.11929602567E+04  0.19165139244E+04  0.14999571488E+04 0.  0.
        2    1    3    3  502    0 -0.24491846931E+03 -0.64693453120E+02  0.14984198383E+04  0.15196816481E+04  0.25500000920E-02 0.  1.
       -2    1    3    3    0  502  0.24491846931E+03  0.64693453120E+02 -0.30545958168E+03  0.39683227632E+03  0.25500000920E-02 0. -1.
</event>
<event>
 5   0  0.1643498E-05  0.1499506E+04  0.7818609E-02  0.8884781E-01
        1   -1    0    0  501    0  0.00000000000E+00  0.00000000000E+00  0.86599129518E+03  0.86599129520E+03  0.50400001928E-02 0. -1.
       -1   -1    0    0    0  501  0.00000000000E+00  0.00000000000E+00 -0.64911721862E+03  0.64911721864E+03  0.50400001928E-02 0.  1.
    10030    2    1    2    0    0  0.00000000000E+00  0.00000000000E+00  0.21687407656E+03  0.15151085138E+04  0.14995064000E+04 0.  0.
        4    1    3    3  502    0  0.11690158062E+03 -0.79194984541E+02  0.85243429798E+03  0.86405073370E+03  0.12699999809E+01 0. -1.
       -4    1    3    3    0  502 -0.11690158062E+03  0.79194984541E+02 -0.63556022142E+03  0.65105778014E+03  0.12699999809E+01 0.  1.
</event>
<event>
 5   0  0.1533777E-05  0.1500480E+04  0.7818609E-02  0.8884134E-01
       -1   -1    0    0    0  501  0.00000000000E+00  0.00000000000E+00  0.61710128979E+03  0.61710128981E+03  0.50400001928E-02 0.  1.
        1   -1    0    0  501    0  0.00000000000E+00  0.00000000000E+00 -0.91210309351E+03  0.91210309352E+03  0.50400001928E-02 0. -1.
    10030    2    1    2    0    0  0.00000000000E+00  0.00000000000E+00 -0.29500180372E+03  0.15292043833E+04  0.15004799172E+04 0.  0.
        5    1    3    3  502    0  0.21359567476E+03  0.69701239499E+03 -0.32806056168E+03  0.79943430823E+03  0.46999998093E+01 0.  1.
       -5    1    3    3    0  502 -0.21359567476E+03 -0.69701239499E+03  0.33058757957E+02  0.72977007511E+03  0.46999998093E+01 0. -1.
</event>
<event>
 5   0  0.3030702E-05  0.1500053E+04  0.7818609E-02  0.8884418E-01
        2   -1    0    0  501    0  0.00000000000E+00  0.00000000000E+00  0.86344176469E+03  0.86344176469E+03  0.25500000920E-02 0. -1.
       -2   -1    0    0    0  501  0.00000000000E+00  0.00000000000E+00 -0.65150838855E+03  0.65150838856E+03  0.25500000920E-02 0.  1.
    10030    2    1    2    0    0  0.00000000000E+00  0.00000000000E+00  0.21193337614E+03  0.15149501532E+04  0.15000527360E+04 0.  0.
        5    1    3    3  502    0 -0.14859483474E+03  0.50898023217E+03  0.64168373477E+03  0.83241900934E+03  0.46999998093E+01 0.  1.
       -5    1    3    3    0  502  0.14859483474E+03 -0.50898023217E+03 -0.42975035863E+03  0.68253114390E+03  0.46999998093E+01 0. -1.
</event>
<event>
 5   0  0.1533777E-05  0.1500311E+04  0.7818609E-02  0.8884246E-01
        1   -1    0    0  501    0  0.00000000000E+00  0.00000000000E+00  0.13719099246E+04  0.13719099246E+04  0.50400001928E-02 0.  1.
       -1   -1    0    0    0  501  0.00000000000E+00  0.00000000000E+00 -0.41018252357E+03  0.41018252360E+03  0.50400001928E-02 0. -1.
    10030    2    1    2    0    0  0.00000000000E+00  0.00000000000E+00  0.96172740103E+03  0.17820924482E+04  0.15003112677E+04 0.  0.
        5    1    3    3  502    0 -0.23972410085E+03 -0.18440941863E+03 -0.33453216911E+03  0.45100813782E+03  0.46999998093E+01 0. -1.
       -5    1    3    3    0  502  0.23972410085E+03  0.18440941863E+03  0.12962595701E+04  0.13310843104E+04  0.46999998093E+01 0.  1.
</event>
<event>
 5   0  0.1580078E-05  0.1499868E+04  0.7818609E-02  0.8884541E-01
        1   -1    0    0  501    0  0.00000000000E+00  0.00000000000E+00  0.77788511976E+03  0.77788511977E+03  0.50400001928E-02 0. -1.
       -1   -1    0    0    0  501  0.00000000000E+00  0.00000000000E+00 -0.72298694964E+03  0.72298694966E+03  0.50400001928E-02 0.  1.
    10030    2    1    2    0    0  0.00000000000E+00  0.00000000000E+00  0.54898170112E+02  0.15008720694E+04  0.14998677141E+04 0.  0.
        2    1    3    3  502    0 -0.64653475848E+03 -0.31955097711E+03 -0.17831148666E+03  0.74290982439E+03  0.25500000920E-02 0.  1.
       -2    1    3    3    0  502  0.64653475848E+03  0.31955097711E+03  0.23320965677E+03  0.75796224504E+03  0.25500000920E-02 0. -1.
</event>
<event>
 5   0  0.3093600E-05  0.1500715E+04  0.7818609E-02  0.8883977E-01
        2   -1    0    0  501    0  0.00000000000E+00  0.00000000000E+00  0.29375431568E+03  0.29375431569E+03  0.25500000920E-02 0.  1.
       -2   -1    0    0    0  501  0.00000000000E+00  0.00000000000E+00 -0.19166923820E+04  0.19166923820E+04  0.25500000920E-02 0. -1.
    10030    2    1    2    0    0  0.00000000000E+00  0.00000000000E+00 -0.16229380663E+04  0.22104466976E+04  0.15007153748E+04 0.  0.
        1    1    3    3  502    0 -0.11859300352E+03  0.65031063389E+03 -0.28848924971E+03  0.72124494332E+03  0.50400001928E-02 0.  1.
       -1    1    3    3    0  502  0.11859300352E+03 -0.65031063389E+03 -0.13344488166E+04  0.14892017543E+04  0.50400001928E-02 0. -1.
</event>
<event>
 5   0  0.1643498E-05  0.1501732E+04  0.7818609E-02  0.8883302E-01
       -1   -1    0    0    0  501  0.00000000000E+00  0.00000000000E+00  0.60166554597E+03  0.60166554599E+03  0.50400001928E-02 0. -1.
        1   -1    0    0  501    0  0.00000000000E+00  0.00000000000E+00 -0.93706461310E+03  0.93706461312E+03  0.50400001928E-02 0.  1.
    10030    2    1    2    0    0  0.00000000000E+00  0.00000000000E+00 -0.33539906714E+03  0.15387301591E+04  0.15017316566E+04 0.  0.
        4    1    3    3  502    0 -0.43786352708E+03 -0.49358977671E+03 -0.53491805550E+03  0.84940819105E+03  0.12699999809E+01 0.  1.
       -4    1    3    3    0  502  0.43786352708E+03  0.49358977671E+03  0.19951898836E+03  0.68932196805E+03  0.12699999809E+01 0. -1.
</event>
<event>
 5   0  0.3093600E-05  0.1499625E+04  0.7818609E-02  0.8884702E-01
        2   -1    0    0  501    0  0.00000000000E+00  0.00000000000E+00  0.74429699544E+03  0.74429699545E+03  0.25500000920E-02 0. -1.
       -2   -1    0    0    0  501  0.00000000000E+00  0.00000000000E+00 -0.75536873263E+03  0.75536873263E+03  0.25500000920E-02 0.  1.
    10030    2    1    2    0    0  0.00000000000E+00  0.00000000000E+00 -0.11071737182E+02  0.14996657281E+04  0.14996248573E+04 0.  0.
        1    1    3    3  502    0  0.29099828085E+03 -0.22431926074E+03  0.64810228447E+03  0.74500718209E+03  0.50400001928E-02 0. -1.
       -1    1    3    3    0  502 -0.29099828085E+03  0.22431926074E+03 -0.65917402165E+03  0.75465854600E+03  0.50400001928E-02 0.  1.
</event>
<event>
 5   0  0.3093600E-05  0.1500751E+04  0.7818609E-02  0.8883954E-01
        2   -1    0    0  501    0  0.00000000000E+00  0.00000000000E+00  0.10029293978E+04  0.10029293978E+04  0.25500000920E-02 0. -1.
       -2   -1    0    0    0  501  0.00000000000E+00  0.00000000000E+00 -0.56141865855E+03  0.56141865855E+03  0.25500000920E-02 0.  1.
    10030    2    1    2    0    0  0.00000000000E+00  0.00000000000E+00  0.44151073927E+03  0.15643480564E+04  0.15007508483E+04 0.  0.
        1    1    3    3  502    0  0.74930223016E+03  0.14515125893E+02  0.25974021264E+03  0.79317683973E+03  0.50400001928E-02 0. -1.
       -1    1    3    3    0  502 -0.74930223016E+03 -0.14515125893E+02  0.18177052663E+03  0.77117121664E+03  0.50400001928E-02 0.  1.
</event>
<event>
 5   0  0.1643498E-05  0.1499796E+04  0.7818609E-02  0.8884589E-01
       -1   -1    0    0    0  501  0.00000000000E+00  0.00000000000E+00  0.53311041303E+03  0.53311041306E+03  0.50400001928E-02 0.  1.
        1   -1    0    0  501    0  0.00000000000E+00  0.00000000000E+00 -0.10548416428E+04  0.10548416428E+04  0.50400001928E-02 0. -1.
    10030    2    1    2    0    0  0.00000000000E+00  0.00000000000E+00 -0.52173122975E+03  0.15879520559E+04  0.14997960713E+04 0.  0.
        4    1    3    3  502    0 -0.12378137603E+03 -0.62231278065E+03  0.16231540933E+03  0.65493734892E+03  0.12699999809E+01 0.  1.
       -4    1    3    3    0  502  0.12378137603E+03  0.62231278065E+03 -0.68404663907E+03  0.93301470693E+03  0.12699999809E+01 0. -1.
</event>
<event>
 5   0  0.1588657E-05  0.1499958E+04  0.7818609E-02  0.8884481E-01
       -1   -1    0    0    0  501  0.00000000000E+00  0.00000000000E+00  0.35510477040E+03  0.35510477044E+03  0.50400001928E-02 0.  1.
        1   -1    0    0  501    0  0.00000000000E+00  0.00000000000E+00 -0.15839498212E+04  0.15839498212E+04  0.50400001928E-02 0. -1.
    10030    2    1    2    0    0  0.00000000000E+00  0.00000000000E+00 -0.12288450508E+04  0.19390545917E+04  0.14999575162E+04 0.  0.
        3    1    3    3  502    0 -0.73045084978E+03 -0.16923994856E+03 -0.59327829458E+03  0.95612747537E+03  0.10100000352E+00 0. -1.
       -3    1    3    3    0  502  0.73045084978E+03  0.16923994856E+03 -0.63556675625E+03  0.98292711631E+03  0.10100000352E+00 0.  1.
</event>
<event>
 5   0  0.3070497E-05  0.1495930E+04  0.7818609E-02  0.8887164E-01
        2   -1    0    0  501    0  0.00000000000E+00  0.00000000000E+00  0.16507278717E+04  0.16507278717E+04  0.25500000920E-02 0.  1.
       -2   -1    0    0    0  501  0.00000000000E+00  0.00000000000E+00 -0.33891217288E+03  0.33891217289E+03  0.25500000920E-02 0. -1.
    10030    2    1    2    0    0  0.00000000000E+00  0.00000000000E+00  0.13118156988E+04  0.19896400446E+04  0.14959301720E+04 0.  0.
        4    1    3    3  502    0  0.41759032962E+03  0.53084421093E+03  0.10833293573E+04  0.12766289081E+04  0.12699999809E+01 0.  1.
       -4    1    3    3    0  502 -0.41759032962E+03 -0.53084421093E+03  0.22848634156E+03  0.71301113656E+03  0.12699999809E+01 0. -1.
</event>
<event>
 5   0  0.1643498E-05  0.1500054E+04  0.7818609E-02  0.8884417E-01
       -1   -1    0    0    0  501  0.00000000000E+00  0.00000000000E+00  0.13113196285E+04  0.13113196285E+04  0.50400001928E-02 0. -1.
        1   -1    0    0  501    0  0.00000000000E+00  0.00000000000E+00 -0.42898827881E+03  0.42898827884E+03  0.50400001928E-02 0.  1.
    10030    2    1    2    0    0  0.00000000000E+00  0.00000000000E+00  0.88233134971E+03  0.17403079074E+04  0.15000543330E+04 0.  0.
        4    1    3    3  502    0  0.24956852530E+03 -0.59511181701E+03  0.88461007914E+03  0.10949790539E+04  0.12699999809E+01 0. -1.
       -4    1    3    3    0  502 -0.24956852530E+03  0.59511181701E+03 -0.22787294319E+01  0.64532885343E+03  0.12699999809E+01 0.  1.
</event>
<event>
 5   0  0.1576214E-05  0.1499637E+04  0.7818609E-02  0.8884694E-01
        1   -1    0    0  501    0  0.00000000000E+00  0.00000000000E+00  0.15639164163E+04  0.15639164163E+04  0.50400001928E-02 0.  1.
       -1   -1    0    0    0  501  0.00000000000E+00  0.00000000000E+00 -0.35949985033E+03  0.35949985037E+03  0.50400001928E-02 0. -1.
    10030    2    1    2    0    0  0.00000000000E+00  0.00000000000E+00  0.12044165660E+04  0.19234162667E+04  0.14996369129E+04 0.  0.
        1    1    3    3  502    0 -0.63456217549E+03  0.13474707228E+03  0.10845053443E+04  0.12637158581E+04  0.50400001928E-02 0.  1.
       -1    1    3    3    0  502  0.63456217549E+03 -0.13474707228E+03  0.11991122167E+03  0.65970040864E+03  0.50400001928E-02 0. -1.
</event>
<event>
 5   0  0.1533777E-05  0.1499986E+04  0.7818609E-02  0.8884462E-01
        1   -1    0    0  501    0  0.00000000000E+00  0.00000000000E+00  0.32779696547E+03  0.32779696551E+03  0.50400001928E-02 0.  1.
       -1   -1    0    0    0  501  0.00000000000E+00  0.00000000000E+00 -0.17159698544E+04  0.17159698544E+04  0.50400001928E-02 0. -1.
    10030    2    1    2    0    0  0.00000000000E+00  0.00000000000E+00 -0.13881728889E+04  0.20437668199E+04  0.14999862815E+04 0.  0.
        5    1    3    3  502    0 -0.26093628822E+03 -0.30364020052E+03 -0.15581698079E+04  0.16087884753E+04  0.46999998093E+01 0. -1.
       -5    1    3    3    0  502  0.26093628822E+03  0.30364020052E+03  0.16999691895E+03  0.43497834467E+03  0.46999998093E+01 0.  1.
</event>
<event>
 5   0  0.3070497E-05  0.1502607E+04  0.7818609E-02  0.8882721E-01
        2   -1    0    0  501    0  0.00000000000E+00  0.00000000000E+00  0.50153740745E+03  0.50153740746E+03  0.25500000920E-02 0. -1.
       -2   -1    0    0    0  501  0.00000000000E+00  0.00000000000E+00 -0.11254530555E+04  0.11254530555E+04  0.25500000920E-02 0.  1.
    10030    2    1    2    0    0  0.00000000000E+00  0.00000000000E+00 -0.62391564804E+03  0.16269904630E+04  0.15026068117E+04 0.  0.
        4    1    3    3  502    0  0.33979768680E+03  0.62124839240E+03 -0.58382617116E+03  0.91775086164E+03  0.12699999809E+01 0.  1.
       -4    1    3    3    0  502 -0.33979768680E+03 -0.62124839240E+03 -0.40089476877E+02  0.70923960131E+03  0.12699999809E+01 0. -1.
</event>
<event>
 5   0  0.3018308E-05  0.1500773E+04  0.7818609E-02  0.8883939E-01
        2   -1    0    0  501    0  0.00000000000E+00  0.00000000000E+00  0.63199976856E+03  0.63199976857E+03  0.25500000920E-02 0. -1.
       -2   -1    0    0    0  501  0.00000000000E+00  0.00000000000E+00 -0.89094909596E+03  0.89094909597E+03  0.25500000920E-02 0.  1.
    10030    2    1    2    0    0  0.00000000000E+00  0.00000000000E+00 -0.25894932740E+03  0.15229488645E+04  0.15007726310E+04 0.  0.
        2    1    3    3  502    0  0.65200726485E+03  0.33614915474E+03  0.30878959302E+02  0.73420926021E+03  0.25500000920E-02 0. -1.
       -2    1    3    3    0  502 -0.65200726485E+03 -0.33614915474E+03 -0.28982828670E+03  0.78873960432E+03  0.25500000920E-02 0.  1.
</event>
<event>
 5   0  0.1533777E-05  0.1501132E+04  0.7818609E-02  0.8883701E-01
       -1   -1    0    0    0  501  0.00000000000E+00  0.00000000000E+00  0.40984829287E+03  0.40984829290E+03  0.50400001928E-02 0. -1.
        1   -1    0    0  501    0  0.00000000000E+00  0.00000000000E+00 -0.13745304294E+04  0.13745304294E+04  0.50400001928E-02 0.  1.
    10030    2    1    2    0    0  0.00000000000E+00  0.00000000000E+00 -0.96468213657E+03  0.17843787223E+04  0.15011315066E+04 0.  0.
        5    1    3    3  502    0 -0.38464479643E+03  0.11332598662E+03 -0.12365101955E+04  0.12999130556E+04  0.46999998093E+01 0.  1.
       -5    1    3    3    0  502  0.38464479643E+03 -0.11332598662E+03  0.27182805888E+03  0.48446566675E+03  0.46999998093E+01 0. -1.
</event>
<event>
 5   0  0.1576214E-05  0.1498239E+04  0.7818609E-02  0.8885625E-01
        1   -1    0    0  501    0  0.00000000000E+00  0.00000000000E+00  0.13868390027E+04  0.13868390027E+04  0.50400001928E-02 0.  1.
       -1   -1    0    0    0  501  0.00000000000E+00  0.00000000000E+00 -0.40464700130E+03  0.40464700133E+03  0.50400001928E-02 0. -1.
    10030    2    1    2    0    0  0.00000000000E+00  0.00000000000E+00  0.98219200138E+03  0.17914860040E+04  0.14982392916E+04 0.  0.
        1    1    3    3  502    0 -0.72287028020E+03 -0.86309753434E+02  0.27992419010E+03  0.77996690171E+03  0.50400001928E-02 0.  1.
       -1    1    3    3    0  502  0.72287028020E+03  0.86309753434E+02  0.70226781128E+03  0.10115191023E+04  0.50400001928E-02 0. -1.
</event>
<event>
 5   0  0.2969498E-05  0.1501424E+04  0.7818609E-02  0.8883507E-01
       -2   -1    0    0    0  501  0.00000000000E+00  0.00000000000E+00  0.61554125940E+03  0.61554125940E+03  0.25500000920E-02 0.  1.
        2   -1    0    0  501    0  0.00000000000E+00  0.00000000000E+00 -0.91556574682E+03  0.91556574682E+03  0.25500000920E-02 0. -1.
    10030    2    1    2    0    0  0.00000000000E+00  0.00000000000E+00 -0.30002448742E+03  0.15311070062E+04  0.15014239812E+04 0.  0.
        3    1    3    3  502    0 -0.22002174531E+03 -0.36198136278E+03 -0.78204619520E+03  0.88940223580E+03  0.10100000352E+00 0. -1.
       -3    1    3    3    0  502  0.22002174531E+03  0.36198136278E+03  0.48202170778E+03  0.64170477043E+03  0.10100000352E+00 0.  1.
</event>
<event>
 5   0  0.3070497E-05  0.1499699E+04  0.7818609E-02  0.8884653E-01
        2   -1    0    0  501    0  0.00000000000E+00  0.00000000000E+00  0.13285495180E+04  0.13285495180E+04  0.25500000920E-02 0. -1.
       -2   -1    0    0    0  501  0.00000000000E+00  0.00000000000E+00 -0.42322424400E+03  0.42322424401E+03  0.25500000920E-02 0.  1.
    10030    2    1    2    0    0  0.00000000000E+00  0.00000000000E+00  0.90532527401E+03  0.17517737620E+04  0.14996991237E+04 0.  0.
        4    1    3    3  502    0  0.37321569676E+03  0.63175345838E+03  0.63313196465E+03  0.96915431488E+03  0.12699999809E+01 0.  1.
       -4    1    3    3    0  502 -0.37321569676E+03 -0.63175345838E+03  0.27219330936E+03  0.78261944714E+03  0.12699999809E+01 0. -1.
</event>
<event>
 5   0  0.3070497E-05  0.1500549E+04  0.7818609E-02  0.8884088E-01
       -2   -1    0    0    0  501  0.00000000000E+00  0.00000000000E+00  0.46951136536E+03  0.46951136537E+03  0.25500000920E-02 0. -1.
        2   -1    0    0  501    0  0.00000000000E+00  0.00000000000E+00 -0.11989319387E+04  0.11989319387E+04  0.25500000920E-02 0.  1.
    10030    2    1    2    0    0  0.00000000000E+00  0.00000000000E+00 -0.72942057332E+03  0.16684433041E+04  0.15005494614E+04 0.  0.
        4    1    3    3  502    0 -0.19290012053E+03  0.35200285138E+03  0.34008487301E+03  0.52609485611E+03  0.12699999809E+01 0. -1.
       -4    1    3    3    0  502  0.19290012053E+03 -0.35200285138E+03 -0.10695054463E+04  0.11423484479E+04  0.12699999809E+01 0.  1.
</event>
<event>
 5   0  0.1588657E-05  0.1502278E+04  0.7818609E-02  0.8882940E-01
       -1   -1    0    0    0  501  0.00000000000E+00  0.00000000000E+00  0.71727873148E+03  0.71727873150E+03  0.50400001928E-02 0. -1.
        1   -1    0    0  501    0  0.00000000000E+00  0.00000000000E+00 -0.78659753798E+03  0.78659753800E+03  0.50400001928E-02 0.  1.
    10030    2    1    2    0    0  0.00000000000E+00  0.00000000000E+00 -0.69318806504E+02  0.15038762695E+04  0.15022778495E+04 0.  0.
        3    1    3    3  502    0 -0.96184570324E+02  0.40230461101E+03 -0.66231072523E+03  0.78086873324E+03  0.10100000352E+00 0.  1.
       -3    1    3    3    0  502  0.96184570324E+02 -0.40230461101E+03  0.59299191872E+03  0.72300753625E+03  0.10100000352E+00 0. -1.
</event>
<event>
 5   0  0.1588657E-05  0.1497017E+04  0.7818609E-02  0.8886439E-01
       -1   -1    0    0    0  501  0.00000000000E+00  0.00000000000E+00  0.86883832254E+03  0.86883832255E+03  0.50400001928E-02 0.  1.
        1   -1    0    0  501    0  0.00000000000E+00  0.00000000000E+00 -0.64484334857E+03  0.64484334859E+03  0.50400001928E-02 0. -1.
    10030    2    1    2    0    0  0.00000000000E+00  0.00000000000E+00  0.22399497396E+03  0.15136816711E+04  0.14970165173E+04 0.  0.
        3    1    3    3  502    0 -0.65685230859E+03  0.48319374548E+02 -0.24759458491E+03  0.70362831519E+03  0.10100000352E+00 0. -1.
       -3    1    3    3    0  502  0.65685230859E+03 -0.48319374548E+02  0.47158955887E+03  0.81005335596E+03  0.10100000352E+00 0.  1.
</event>
<event>
 5   0  0.1576214E-05  0.1501438E+04  0.7818609E-02  0.8883497E-01
        1   -1    0    0  501    0  0.00000000000E+00  0.00000000000E+00  0.80957833455E+03  0.80957833457E+03  0.50400001928E-02 0.  1.
       -1   -1    0    0    0  501  0.00000000000E+00  0.00000000000E+00 -0.69613938248E+03  0.69613938250E+03  0.50400001928E-02 0. -1.
    10030    2    1    2    0    0  0.00000000000E+00  0.00000000000E+00  0.11343895207E+03  0.15057177171E+04  0.15014384595E+04 0.  0.
        1    1    3    3  502    0 -0.14751121542E+03 -0.43487494218E+03 -0.53886170028E+03  0.70798849289E+03  0.50400001928E-02 0. -1.
       -1    1    3    3    0  502  0.14751121542E+03  0.43487494218E+03  0.65230065236E+03  0.79772922418E+03  0.50400001928E-02 0.  1.
</event>
<event>
 5   0  0.1580078E-05  0.1498845E+04  0.7818609E-02  0.8885221E-01
        1   -1    0    0  501    0  0.00000000000E+00  0.00000000000E+00  0.80406382595E+03  0.80406382596E+03  0.50400001928E-02 0. -1.
       -1   -1    0    0    0  501  0.00000000000E+00  0.00000000000E+00 -0.69849424427E+03  0.69849424429E+03  0.50400001928E-02 0.  1.
    10030    2    1    2    0    0  0.00000000000E+00  0.00000000000E+00  0.10556958168E+03  0.15025580702E+04  0.14988448278E+04 0.  0.
        2    1    3    3  502    0 -0.58579584666E+03  0.38251750388E+03 -0.21650224780E+03  0.73235895438E+03  0.25500000920E-02 0.  1.
       -2    1    3    3    0  502  0.58579584666E+03 -0.38251750388E+03  0.32207182948E+03  0.77019911587E+03  0.25500000920E-02 0. -1.
</event>
<event>
 5   0  0.2969498E-05  0.1500290E+04  0.7818609E-02  0.8884260E-01
        2   -1    0    0  501    0  0.00000000000E+00  0.00000000000E+00  0.72657210437E+03  0.72657210438E+03  0.25500000920E-02 0.  1.
       -2   -1    0    0    0  501  0.00000000000E+00  0.00000000000E+00 -0.77448236576E+03  0.77448236576E+03  0.25500000920E-02 0. -1.
    10030    2    1    2    0    0  0.00000000000E+00  0.00000000000E+00 -0.47910261382E+02  0.15010544701E+04  0.15002896818E+04 0.  0.
        3    1    3    3  502    0  0.22488956069E+03  0.10874168091E+03  0.68373648174E+03  0.72793932050E+03  0.10100000352E+00 0.  1.
       -3    1    3    3    0  502 -0.22488956069E+03 -0.10874168091E+03 -0.73164674312E+03  0.77311514963E+03  0.10100000352E+00 0. -1.
</event>
<event>
 5   0  0.2969498E-05  0.1499719E+04  0.7818609E-02  0.8884640E-01
       -2   -1    0    0    0  501  0.00000000000E+00  0.00000000000E+00  0.30080318832E+03  0.30080318833E+03  0.25500000920E-02 0. -1.
        2   -1    0    0  501    0  0.00000000000E+00  0.00000000000E+00 -0.18692919362E+04  0.18692919362E+04  0.25500000920E-02 0.  1.
    10030    2    1    2    0    0  0.00000000000E+00  0.00000000000E+00 -0.15684887478E+04  0.21700951245E+04  0.14997186060E+04 0.  0.
        3    1    3    3  502    0 -0.72367922653E+03  0.19566169899E+03 -0.75944018646E+03  0.10671197357E+04  0.10100000352E+00 0. -1.
       -3    1    3    3    0  502  0.72367922653E+03 -0.19566169899E+03 -0.80904856137E+03  0.11029753888E+04  0.10100000352E+00 0.  1.
</event>
<event>
 5   0  0.1588657E-05  0.1499219E+04  0.7818609E-02  0.8884972E-01
        1   -1    0    0  501    0  0.00000000000E+00  0.00000000000E+00  0.79073331544E+03  0.79073331545E+03  0.50400001928E-02 0.  1.
       -1   -1    0    0    0  501  0.00000000000E+00  0.00000000000E+00 -0.71062448970E+03  0.71062448972E+03  0.50400001928E-02 0. -1.
    10030    2    1    2    0    0  0.00000000000E+00  0.00000000000E+00  0.80108825730E+02  0.15013578052E+04  0.14992190751E+04 0.  0.
        3    1    3    3  502    0  0.43122429700E+03  0.43608995337E+03 -0.39158902167E+03  0.72764745162E+03  0.10100000352E+00 0. -1.
       -3    1    3    3    0  502 -0.43122429700E+03 -0.43608995337E+03  0.47169784741E+03  0.77371035355E+03  0.10100000352E+00 0.  1.
</event>
<event>
 5   0  0.3018308E-05  0.1500582E+04  0.7818609E-02  0.8884066E-01
        2   -1    0    0  501    0  0.00000000000E+00  0.00000000000E+00  0.17220486563E+04  0.17220486563E+04  0.25500000920E-02 0. -1.
       -2   -1    0    0    0  501  0.00000000000E+00  0.00000000000E+00 -0.32689931031E+03  0.32689931032E+03  0.25500000920E-02 0.  1.
    10030    2    1    2    0    0  0.00000000000E+00  0.00000000000E+00  0.13951493460E+04  0.20489479666E+04  0.15005819112E+04 0.  0.
        2    1    3    3  502    0  0.17414008296E+03 -0.44888526463E+03  0.14832802628E+04  0.15594688478E+04  0.25500000920E-02 0. -1.
       -2    1    3    3    0  502 -0.17414008296E+03  0.44888526463E+03 -0.88130916765E+02  0.48947911885E+03  0.25500000920E-02 0.  1.
</event>
<event>
 5   0  0.3093600E-05  0.1500158E+04  0.7818609E-02  0.8884348E-01
        2   -1    0    0  501    0  0.00000000000E+00  0.00000000000E+00  0.74465758735E+03  0.74465758735E+03  0.25500000920E-02 0.  1.
       -2   -1    0    0    0  501  0.00000000000E+00  0.00000000000E+00 -0.75554011310E+03  0.75554011311E+03  0.25500000920E-02 0. -1.
    10030    2    1    2    0    0  0.00000000000E+00  0.00000000000E+00 -0.10882525755E+02  0.15001977005E+04  0.15001582287E+04 0.  0.
        1    1    3    3  502    0  0.21263935120E+03 -0.42145195474E+03  0.57748181492E+03  0.74587029062E+03  0.50400001928E-02 0.  1.
       -1    1    3    3    0  502 -0.21263935120E+03  0.42145195474E+03 -0.58836434068E+03  0.75432740984E+03  0.50400001928E-02 0. -1.
</event>
<event>
 5   0  0.3070497E-05  0.1496651E+04  0.7818609E-02  0.8886683E-01
       -2   -1    0    0    0  501  0.00000000000E+00  0.00000000000E+00  0.30008453796E+03  0.30008453797E+03  0.25500000920E-02 0.  1.
        2   -1    0    0  501    0  0.00000000000E+00  0.00000000000E+00 -0.18661112333E+04  0.18661112333E+04  0.25500000920E-02 0. -1.
    10030    2    1    2    0    0  0.00000000000E+00  0.00000000000E+00 -0.15660266953E+04  0.21661957713E+04  0.14966510979E+04 0.  0.
        4    1    3    3  502    0  0.93737981543E+02  0.63088325343E+03 -0.21652502481E+03  0.67356156950E+03  0.12699999809E+01 0.  1.
       -4    1    3    3    0  502 -0.93737981543E+02 -0.63088325343E+03 -0.13495016705E+04  0.14926342018E+04  0.12699999809E+01 0. -1.
</event>
<event>
 5   0  0.1533777E-05  0.1500205E+04  0.7818609E-02  0.8884316E-01
       -1   -1    0    0    0  501  0.00000000000E+00  0.00000000000E+00  0.71665329073E+03  0.71665329074E+03  0.50400001928E-02 0.  1.
        1   -1    0    0  501    0  0.00000000000E+00  0.00000000000E+00 -0.78511327679E+03  0.78511327681E+03  0.50400001928E-02 0. -1.
    10030    2    1    2    0    0  0.00000000000E+00  0.00000000000E+00 -0.68459986069E+02  0.15017665676E+04  0.15002053372E+04 0.  0.
        5    1    3    3  502    0  0.63073432044E+03  0.10262974286E+03  0.35895512997E+03  0.73295942755E+03  0.46999998093E+01 0.  1.
       -5    1    3    3    0  502 -0.63073432044E+03 -0.10262974286E+03 -0.42741511604E+03  0.76880714000E+03  0.46999998093E+01 0. -1.
</event>
<event>
 5   0  0.3093600E-05  0.1501085E+04  0.7818609E-02  0.8883732E-01
        2   -1    0    0  501    0  0.00000000000E+00  0.00000000000E+00  0.98009854242E+03  0.98009854243E+03  0.25500000920E-02 0.  1.
       -2   -1    0    0    0  501  0.00000000000E+00  0.00000000000E+00 -0.57475267015E+03  0.57475267016E+03  0.25500000920E-02 0. -1.
    10030    2    1    2    0    0  0.00000000000E+00  0.00000000000E+00  0.40534587227E+03  0.15548512126E+04  0.15010852798E+04 0.  0.
        1    1    3    3  502    0 -0.32552219430E+03  0.40067077341E+03  0.76699178215E+03  0.92454213618E+03  0.50400001928E-02 0.  1.
       -1    1    3    3    0  502  0.32552219430E+03 -0.40067077341E+03 -0.36164590988E+03  0.63030907641E+03  0.50400001928E-02 0. -1.
</event>
<event>
 5   0  0.2969498E-05  0.1500419E+04  0.7818609E-02  0.8884174E-01
       -2   -1    0    0    0  501  0.00000000000E+00  0.00000000000E+00  0.32528230768E+03  0.32528230769E+03  0.25500000920E-02 0. -1.
        2   -1    0    0  501    0  0.00000000000E+00  0.00000000000E+00 -0.17302331340E+04  0.17302331340E+04  0.25500000920E-02 0.  1.
    10030    2    1    2    0    0  0.00000000000E+00  0.00000000000E+00 -0.14049508263E+04  0.20555154417E+04  0.15004189104E+04 0.  0.
        3    1    3    3  502    0 -0.76284065963E+02 -0.71041111217E+02  0.31531262668E+03  0.33209661387E+03  0.10100000352E+00 0. -1.
       -3    1    3    3    0  502  0.76284065963E+02  0.71041111217E+02 -0.17202634530E+04  0.17234188278E+04  0.10100000352E+00 0.  1.
</event>
<event>
 5   0  0.1643498E-05  0.1499427E+04  0.7818609E-02  0.8884834E-01
        1   -1    0    0  501    0  0.00000000000E+00  0.00000000000E+00  0.22740253385E+04  0.22740253385E+04  0.50400001928E-02 0. -1.
       -1   -1    0    0    0  501  0.00000000000E+00  0.00000000000E+00 -0.24716972894E+03  0.24716972899E+03  0.50400001928E-02 0.  1.
    10030    2    1    2    0    0  0.00000000000E+00  0.00000000000E+00  0.20268556095E+04  0.25211950675E+04  0.14994268593E+04 0.  0.
        4    1    3    3  502    0  0.46530462611E+03  0.40792315137E+03  0.30172220651E+03  0.68843851963E+03  0.12699999809E+01 0.  1.
       -4    1    3    3    0  502 -0.46530462611E+03 -0.40792315137E+03  0.17251334030E+04  0.18327565478E+04  0.12699999809E+01 0. -1.
</event>
<event>
 5   0  0.3030702E-05  0.1501997E+04  0.7818609E-02  0.8883126E-01
        2   -1    0    0  501    0  0.00000000000E+00  0.00000000000E+00  0.71255721572E+03  0.71255721572E+03  0.25500000920E-02 0.  1.
       -2   -1    0    0    0  501  0.00000000000E+00  0.00000000000E+00 -0.79151324431E+03  0.79151324432E+03  0.25500000920E-02 0. -1.
    10030    2    1    2    0    0  0.00000000000E+00  0.00000000000E+00 -0.78956028595E+02  0.15040704600E+04  0.15019966359E+04 0.  0.
        5    1    3    3  502    0 -0.34266415180E+03 -0.39648195723E+02  0.62851549262E+03  0.71696897759E+03  0.46999998093E+01 0.  1.
       -5    1    3    3    0  502  0.34266415180E+03  0.39648195723E+02 -0.70747152122E+03  0.78710148246E+03  0.46999998093E+01 0. -1.
</event>
<event>
 5   0  0.3018308E-05  0.1499929E+04  0.7818609E-02  0.8884500E-01
        2   -1    0    0  501    0  0.00000000000E+00  0.00000000000E+00  0.13170503126E+04  0.13170503127E+04  0.25500000920E-02 0. -1.
       -2   -1    0    0    0  501  0.00000000000E+00  0.00000000000E+00 -0.42705045858E+03  0.42705045859E+03  0.25500000920E-02 0.  1.
    10030    2    1    2    0    0  0.00000000000E+00  0.00000000000E+00  0.88999985407E+03  0.17441007712E+04  0.14999292517E+04 0.  0.
        2    1    3    3  502    0  0.29793513966E+03  0.48307672166E+03  0.10150255497E+04  0.11629296338E+04  0.25500000920E-02 0.  1.
       -2    1    3    3    0  502 -0.29793513966E+03 -0.48307672166E+03 -0.12502569567E+03  0.58117113748E+03  0.25500000920E-02 0. -1.
</event>
<event>
 5   0  0.3018308E-05  0.1502293E+04  0.7818609E-02  0.8882930E-01
       -2   -1    0    0    0  501  0.00000000000E+00  0.00000000000E+00  0.44435351871E+03  0.44435351871E+03  0.25500000920E-02 0. -1.
        2   -1    0    0  501    0  0.00000000000E+00  0.00000000000E+00 -0.12697567304E+04  0.12697567304E+04  0.25500000920E-02 0.  1.
    10030    2    1    2    0    0  0.00000000000E+00  0.00000000000E+00 -0.82540321168E+03  0.17141102491E+04  0.15022927425E+04 0.  0.
        2    1    3    3  502    0  0.39676915110E+02 -0.12666981583E+03 -0.12562685261E+04  0.12632616947E+04  0.25500000920E-02 0.  1.
       -2    1    3    3    0  502 -0.39676915110E+02  0.12666981583E+03  0.43086531437E+03  0.45084855436E+03  0.25500000920E-02 0. -1.
</event>
<event>
 5   0  0.1588657E-05  0.1499664E+04  0.7818609E-02  0.8884676E-01
        1   -1    0    0  501    0  0.00000000000E+00  0.00000000000E+00  0.12669967978E+04  0.12669967979E+04  0.50400001928E-02 0.  1.
       -1   -1    0    0    0  501  0.00000000000E+00  0.00000000000E+00 -0.44376443723E+03  0.44376443726E+03  0.50400001928E-02 0. -1.
    10030    2    1    2    0    0  0.00000000000E+00  0.00000000000E+00  0.82323236062E+03  0.17107612351E+04  0.14996641237E+04 0.  0.
        3    1    3    3  502    0  0.65570952509E+03  0.20604263688E+03  0.69692475850E+02  0.69084412199E+03  0.10100000352E+00 0.  1.
       -3    1    3    3    0  502 -0.65570952509E+03 -0.20604263688E+03  0.75353988477E+03  0.10199171131E+04  0.10100000352E+00 0. -1.
</event>
<event>
 5   0  0.1580078E-05  0.1500044E+04  0.7818609E-02  0.8884424E-01
        1   -1    0    0  501    0  0.00000000000E+00  0.00000000000E+00  0.11400465945E+04  0.11400465945E+04  0.50400001928E-02 0.  1.
       -1   -1    0    0    0  501  0.00000000000E+00  0.00000000000E+00 -0.49342996262E+03  0.49342996264E+03  0.50400001928E-02 0. -1.
    10030    2    1    2    0    0  0.00000000000E+00  0.00000000000E+00  0.64661663183E+03  0.16334765571E+04  0.15000441974E+04 0.  0.
        2    1    3    3  502    0  0.33439689955E+03  0.28418649900E+03 -0.33903064965E+03  0.55454939731E+03  0.25500000920E-02 0. -1.
       -2    1    3    3    0  502 -0.33439689955E+03 -0.28418649900E+03  0.98564728149E+03  0.10789271598E+04  0.25500000920E-02 0.  1.
</event>
<event>
 5   0  0.3093600E-05  0.1502001E+04  0.7818609E-02  0.8883123E-01
       -2   -1    0    0    0  501  0.00000000000E+00  0.00000000000E+00  0.76708123189E+03  0.76708123190E+03  0.25500000920E-02 0. -1.
        2   -1    0    0  501    0  0.00000000000E+00  0.00000000000E+00 -0.73525698063E+03  0.73525698064E+03  0.25500000920E-02 0.  1.
    10030    2    1    2    0    0  0.00000000000E+00  0.00000000000E+00  0.31824251260E+02  0.15023382125E+04  0.15020011058E+04 0.  0.
        1    1    3    3  502    0 -0.15568053250E+03  0.47397226268E+03 -0.54556553238E+03  0.73927524248E+03  0.50400001928E-02 0.  1.
       -1    1    3    3    0  502  0.15568053250E+03 -0.47397226268E+03  0.57738978364E+03  0.76306297006E+03  0.50400001928E-02 0. -1.
</event>
<event>
 5   0  0.1580078E-05  0.1499924E+04  0.7818609E-02  0.8884504E-01
       -1   -1    0    0    0  501  0.00000000000E+00  0.00000000000E+00  0.34557610853E+03  0.34557610856E+03  0.50400001928E-02 0. -1.
        1   -1    0    0  501    0  0.00000000000E+00  0.00000000000E+00 -0.16275510876E+04  0.16275510876E+04  0.50400001928E-02 0.  1.
    10030    2    1    2    0    0  0.00000000000E+00  0.00000000000E+00 -0.12819749791E+04  0.19731271962E+04  0.14999236932E+04 0.  0.
        2    1    3    3  502    0  0.24329928900E+03 -0.70535380120E+03 -0.54145957000E+03  0.92189858166E+03  0.25500000920E-02 0. -1.
       -2    1    3    3    0  502 -0.24329928900E+03  0.70535380120E+03 -0.74051540907E+03  0.10512286145E+04  0.25500000920E-02 0.  1.
</event>
<event>
 5   0  0.1533777E-05  0.1501849E+04  0.7818609E-02  0.8883225E-01
        1   -1    0    0  501    0  0.00000000000E+00  0.00000000000E+00  0.70462272866E+03  0.70462272868E+03  0.50400001928E-02 0.  1.
       -1   -1    0    0    0  501  0.00000000000E+00  0.00000000000E+00 -0.80026830963E+03  0.80026830965E+03  0.50400001928E-02 0. -1.
    10030    2    1    2    0    0  0.00000000000E+00  0.00000000000E+00 -0.95645580969E+02  0.15048910383E+04  0.15018485144E+04 0.  0.
        5    1    3    3  502    0 -0.35614122469E+03  0.26030532495E+03 -0.65672951861E+03  0.79114548898E+03  0.46999998093E+01 0. -1.
       -5    1    3    3    0  502  0.35614122469E+03 -0.26030532495E+03  0.56108393764E+03  0.71374554934E+03  0.46999998093E+01 0.  1.
</event>
<event>
 5   0  0.3030702E-05  0.1500854E+04  0.7818609E-02  0.8883885E-01
        2   -1    0    0  501    0  0.00000000000E+00  0.00000000000E+00  0.97037397606E+03  0.97037397606E+03  0.25500000920E-02 0.  1.
       -2   -1    0    0    0  501  0.00000000000E+00  0.00000000000E+00 -0.58033378393E+03  0.58033378393E+03  0.25500000920E-02 0. -1.
    10030    2    1    2    0    0  0.00000000000E+00  0.00000000000E+00  0.39004019213E+03  0.15507077600E+04  0.15008541586E+04 0.  0.
        5    1    3    3  502    0 -0.37359970206E+03 -0.29321601148E+03  0.79532382032E+03  0.92634466368E+03  0.46999998093E+01 0.  1.
       -5    1    3    3    0  502  0.37359970206E+03  0.29321601148E+03 -0.40528362818E+03  0.62436309631E+03  0.46999998093E+01 0. -1.
</event>
<event>
 5   0  0.1580078E-05  0.1500202E+04  0.7818609E-02  0.8884319E-01
       -1   -1    0    0    0  501  0.00000000000E+00  0.00000000000E+00  0.81518565238E+03  0.81518565240E+03  0.50400001928E-02 0. -1.
        1   -1    0    0  501    0  0.00000000000E+00  0.00000000000E+00 -0.69021272838E+03  0.69021272839E+03  0.50400001928E-02 0.  1.
    10030    2    1    2    0    0  0.00000000000E+00  0.00000000000E+00  0.12497292400E+03  0.15053983808E+04  0.15002020041E+04 0.  0.
        2    1    3    3  502    0  0.55682486161E+03 -0.39504141335E+03 -0.24929842123E+03  0.72681589663E+03  0.25500000920E-02 0.  1.
       -2    1    3    3    0  502 -0.55682486161E+03  0.39504141335E+03  0.37427134523E+03  0.77858248416E+03  0.25500000920E-02 0. -1.
</event>
<event>
 5   0  0.1588657E-05  0.1499262E+04  0.7818609E-02  0.8884944E-01
        1   -1    0    0  501    0  0.00000000000E+00  0.00000000000E+00  0.10641630220E+04  0.10641630221E+04  0.50400001928E-02 0. -1.
       -1   -1    0    0    0  501  0.00000000000E+00  0.00000000000E+00 -0.52806472879E+03  0.52806472882E+03  0.50400001928E-02 0.  1.
    10030    2    1    2    0    0  0.00000000000E+00  0.00000000000E+00  0.53609829325E+03  0.15922277509E+04  0.14992624289E+04 0.  0.
        3    1    3    3  502    0  0.51696871466E+03 -0.33014986864E+03 -0.18959022367E+03  0.64202807634E+03  0.10100000352E+00 0.  1.
       -3    1    3    3    0  502 -0.51696871466E+03  0.33014986864E+03  0.72568851693E+03  0.95019967454E+03  0.10100000352E+00 0. -1.
</event>
<event>
 5   0  0.1533777E-05  0.1501262E+04  0.7818609E-02  0.8883614E-01
        1   -1    0    0  501    0  0.00000000000E+00  0.00000000000E+00  0.10612787361E+04  0.10612787361E+04  0.50400001928E-02 0.  1.
       -1   -1    0    0    0  501  0.00000000000E+00  0.00000000000E+00 -0.53091329600E+03  0.53091329603E+03  0.50400001928E-02 0. -1.
    10030    2    1    2    0    0  0.00000000000E+00  0.00000000000E+00  0.53036544012E+03  0.15921920322E+04  0.15012621247E+04 0.  0.
        5    1    3    3  502    0  0.73925265046E+03 -0.82276745097E+02  0.15827569552E+03  0.76048486493E+03  0.46999998093E+01 0. -1.
       -5    1    3    3    0  502 -0.73925265046E+03  0.82276745097E+02  0.37208974460E+03  0.83170716723E+03  0.46999998093E+01 0.  1.
</event>
<event>
 5   0  0.3018308E-05  0.1499917E+04  0.7818609E-02  0.8884508E-01
        2   -1    0    0  501    0  0.00000000000E+00  0.00000000000E+00  0.19610824952E+04  0.19610824952E+04  0.25500000920E-02 0.  1.
       -2   -1    0    0    0  501  0.00000000000E+00  0.00000000000E+00 -0.28679976546E+03  0.28679976547E+03  0.25500000920E-02 0. -1.
    10030    2    1    2    0    0  0.00000000000E+00  0.00000000000E+00  0.16742827298E+04  0.22478822607E+04  0.14999173307E+04 0.  0.
        2    1    3    3  502    0  0.57910372680E+03  0.44187562616E+03  0.56979427512E+03  0.92481387931E+03  0.25500000920E-02 0.  1.
       -2    1    3    3    0  502 -0.57910372680E+03 -0.44187562616E+03  0.11044884547E+04  0.13230683814E+04  0.25500000920E-02 0. -1.
</event>
<event>
 5   0  0.2969498E-05  0.1499981E+04  0.7818609E-02  0.8884465E-01
        2   -1    0    0  501    0  0.00000000000E+00  0.00000000000E+00  0.83875078729E+03  0.83875078730E+03  0.25500000920E-02 0. -1.
       -2   -1    0    0    0  501  0.00000000000E+00  0.00000000000E+00 -0.67062334336E+03  0.67062334337E+03  0.25500000920E-02 0.  1.
    10030    2    1    2    0    0  0.00000000000E+00  0.00000000000E+00  0.16812744393E+03  0.15093741307E+04  0.14999811429E+04 0.  0.
        3    1    3    3  502    0 -0.65413356516E+03 -0.29397990362E+03  0.30491691043E+03  0.77928764733E+03  0.10100000352E+00 0.  1.
       -3    1    3    3    0  502  0.65413356516E+03  0.29397990362E+03 -0.13678946650E+03  0.73008648334E+03  0.10100000352E+00 0. -1.
</event>
<event>
 5   0  0.1588657E-05  0.1499851E+04  0.7818609E-02  0.8884552E-01
       -1   -1    0    0    0  501  0.00000000000E+00  0.00000000000E+00  0.50195753659E+03  0.50195753662E+03  0.50400001928E-02 0. -1.
        1   -1    0    0  501    0  0.00000000000E+00  0.00000000000E+00 -0.11203896611E+04  0.11203896611E+04  0.50400001928E-02 0.  1.
    10030    2    1    2    0    0  0.00000000000E+00  0.00000000000E+00 -0.61843212452E+03  0.16223471977E+04  0.14998507050E+04 0.  0.
        3    1    3    3  502    0 -0.57767601380E+03  0.12576428159E+03 -0.80826671630E+03  0.10014096696E+04  0.10100000352E+00 0.  1.
       -3    1    3    3    0  502  0.57767601380E+03 -0.12576428159E+03  0.18983459178E+03  0.62093752816E+03  0.10100000352E+00 0. -1.
</event>
<event>
 5   0  0.3093600E-05  0.1501130E+04  0.7818609E-02  0.8883702E-01
        2   -1    0    0  501    0  0.00000000000E+00  0.00000000000E+00  0.55086403844E+03  0.55086403845E+03  0.25500000920E-02 0.  1.
       -2   -1    0    0    0  501  0.00000000000E+00  0.00000000000E+00 -0.10226617897E+04  0.10226617897E+04  0.25500000920E-02 0. -1.
    10030    2    1    2    0    0  0.00000000000E+00  0.00000000000E+00 -0.47179775131E+03  0.15735258282E+04  0.15011297125E+04 0.  0.
        1    1    3    3  502    0  0.18471042228E+03 -0.13481592959E+03 -0.98525660313E+03  0.10114464143E+04  0.50400001928E-02 0. -1.
       -1    1    3    3    0  502 -0.18471042228E+03  0.13481592959E+03  0.51345885183E+03  0.56207941389E+03  0.50400001928E-02 0.  1.
</event>
<event>
 5   0  0.3093600E-05  0.1499636E+04  0.7818609E-02  0.8884695E-01
        2   -1    0    0  501    0  0.00000000000E+00  0.00000000000E+00  0.16453870107E+04  0.16453870107E+04  0.25500000920E-02 0.  1.
       -2   -1    0    0    0  501  0.00000000000E+00  0.00000000000E+00 -0.34169900876E+03  0.34169900877E+03  0.25500000920E-02 0. -1.
    10030    2    1    2    0    0  0.00000000000E+00  0.00000000000E+00  0.13036880019E+04  0.19870860195E+04  0.14996361033E+04 0.  0.
        1    1    3    3  502    0  0.33035148530E+03  0.57978996492E+03  0.19872765275E+03  0.69626229774E+03  0.50400001928E-02 0.  1.
       -1    1    3    3    0  502 -0.33035148530E+03 -0.57978996492E+03  0.11049603492E+04  0.12908237217E+04  0.50400001928E-02 0. -1.
</event>
<event>
 5   0  0.3030702E-05  0.1499693E+04  0.7818609E-02  0.8884657E-01
        2   -1    0    0  501    0  0.00000000000E+00  0.00000000000E+00  0.45298340249E+03  0.45298340250E+03  0.25500000920E-02 0. -1.
       -2   -1    0    0    0  501  0.00000000000E+00  0.00000000000E+00 -0.12412584065E+04  0.12412584065E+04  0.25500000920E-02 0.  1.
    10030    2    1    2    0    0  0.00000000000E+00  0.00000000000E+00 -0.78827500404E+03  0.16942418090E+04  0.14996925770E+04 0.  0.
        5    1    3    3  502    0  0.66564046767E+03 -0.33309157753E+03 -0.29171093144E+03  0.79946518919E+03  0.46999998093E+01 0. -1.
       -5    1    3    3    0  502 -0.66564046767E+03  0.33309157753E+03 -0.49656407260E+03  0.89477661984E+03  0.46999998093E+01 0.  1.
</event>
<event>
 5   0  0.2969498E-05  0.1499954E+04  0.7818609E-02  0.8884484E-01
        2   -1    0    0  501    0  0.00000000000E+00  0.00000000000E+00  0.63568705746E+03  0.63568705746E+03  0.25500000920E-02 0. -1.
       -2   -1    0    0    0  501  0.00000000000E+00  0.00000000000E+00 -0.88481457293E+03  0.88481457294E+03  0.25500000920E-02 0.  1.
    10030    2    1    2    0    0  0.00000000000E+00  0.00000000000E+00 -0.24912751547E+03  0.15205016304E+04  0.14999535623E+04 0.  0.
        3    1    3    3  502    0  0.58011305390E+03  0.37919711603E+03 -0.41509699336E+03  0.80785341010E+03  0.10100000352E+00 0.  1.
       -3    1    3    3    0  502 -0.58011305390E+03 -0.37919711603E+03  0.16596947788E+03  0.71264822030E+03  0.10100000352E+00 0. -1.
</event>
<event>
 5   0  0.1576214E-05  0.1500134E+04  0.7818609E-02  0.8884364E-01
       -1   -1    0    0    0  501  0.00000000000E+00  0.00000000000E+00  0.72298110176E+03  0.72298110178E+03  0.50400001928E-02 0. -1.
        1   -1    0    0  501    0  0.00000000000E+00  0.00000000000E+00 -0.77816797824E+03  0.77816797825E+03  0.50400001928E-02 0.  1.
    10030    2    1    2    0    0  0.00000000000E+00  0.00000000000E+00 -0.55186876475E+02  0.15011490800E+04  0.15001343170E+04 0.  0.
        1    1    3    3  502    0  0.83073705207E+02  0.94914424736E+02  0.71229210679E+03  0.72337406225E+03  0.50400001928E-02 0. -1.
       -1    1    3    3    0  502 -0.83073705207E+02 -0.94914424736E+02 -0.76747898326E+03  0.77777501779E+03  0.50400001928E-02 0.  1.
</event>
<event>
 5   0  0.1576214E-05  0.1499673E+04  0.7818609E-02  0.8884670E-01
       -1   -1    0    0    0  501  0.00000000000E+00  0.00000000000E+00  0.10037089923E+04  0.10037089923E+04  0.50400001928E-02 0.  1.
        1   -1    0    0  501    0  0.00000000000E+00  0.00000000000E+00 -0.56017731145E+03  0.56017731148E+03  0.50400001928E-02 0. -1.
    10030    2    1    2    0    0  0.00000000000E+00  0.00000000000E+00  0.44353168083E+03  0.15638863038E+04  0.14996733042E+04 0.  0.
        1    1    3    3  502    0 -0.47518042218E+03 -0.57021184091E+03  0.33270240271E+03  0.81340572038E+03  0.50400001928E-02 0. -1.
       -1    1    3    3    0  502  0.47518042218E+03  0.57021184091E+03  0.11082927811E+03  0.75048058340E+03  0.50400001928E-02 0.  1.
</event>
<event>
 5   0  0.1576214E-05  0.1501046E+04  0.7818609E-02  0.8883758E-01
        1   -1    0    0  501    0  0.00000000000E+00  0.00000000000E+00  0.22434986436E+04  0.22434986436E+04  0.50400001928E-02 0. -1.
       -1   -1    0    0    0  501  0.00000000000E+00  0.00000000000E+00 -0.25107411655E+03  0.25107411660E+03  0.50400001928E-02 0.  1.
    10030    2    1    2    0    0  0.00000000000E+00  0.00000000000E+00  0.19924245271E+04  0.24945727602E+04  0.15010455556E+04 0.  0.
        1    1    3    3  502    0 -0.46912337367E+03  0.48574127310E+03  0.15404986939E+04  0.16820099732E+04  0.50400001928E-02 0. -1.
       -1    1    3    3    0  502  0.46912337367E+03 -0.48574127310E+03  0.45192583321E+03  0.81256278703E+03  0.50400001928E-02 0.  1.
</event>
<event>
 5   0  0.3030702E-05  0.1499230E+04  0.7818609E-02  0.8884965E-01
        2   -1    0    0  501    0  0.00000000000E+00  0.00000000000E+00  0.23346897987E+04  0.23346897987E+04  0.25500000920E-02 0.  1.
       -2   -1    0    0    0  501  0.00000000000E+00  0.00000000000E+00 -0.24068397858E+03  0.24068397860E+03  0.25500000920E-02 0. -1.
    10030    2    1    2    0    0  0.00000000000E+00  0.00000000000E+00  0.20940058201E+04  0.25753737773E+04  0.14992297082E+04 0.  0.
        5    1    3    3  502    0 -0.59477998129E+03  0.45621274368E+03  0.10515626465E+04  0.12913943561E+04  0.46999998093E+01 0. -1.
       -5    1    3    3    0  502  0.59477998129E+03 -0.45621274368E+03  0.10424431736E+04  0.12839794211E+04  0.46999998093E+01 0.  1.
</event>
<event>
 5   0  0.3093600E-05  0.1499665E+04  0.7818609E-02  0.8884676E-01
        2   -1    0    0  501    0  0.00000000000E+00  0.00000000000E+00  0.17175620630E+04  0.17175620630E+04  0.25500000920E-02 0.  1.
       -2   -1    0    0    0  501  0.00000000000E+00  0.00000000000E+00 -0.32735263905E+03  0.32735263906E+03  0.25500000920E-02 0. -1.
    10030    2    1    2    0    0  0.00000000000E+00  0.00000000000E+00  0.13902094239E+04  0.20449147020E+04  0.14996645946E+04 0.  0.
        1    1    3    3  502    0  0.21608362935E+03 -0.13085805796E+03  0.16577897866E+04  0.16769266360E+04  0.50400001928E-02 0.  1.
       -1    1    3    3    0  502 -0.21608362935E+03  0.13085805796E+03 -0.26758036265E+03  0.36798806598E+03  0.50400001928E-02 0. -1.
</event>
<event>
 5   0  0.1533777E-05  0.1500333E+04  0.7818609E-02  0.8884231E-01
       -1   -1    0    0    0  501  0.00000000000E+00  0.00000000000E+00  0.80547990114E+03  0.80547990116E+03  0.50400001928E-02 0. -1.
        1   -1    0    0  501    0  0.00000000000E+00  0.00000000000E+00 -0.69865197485E+03  0.69865197487E+03  0.50400001928E-02 0.  1.
    10030    2    1    2    0    0  0.00000000000E+00  0.00000000000E+00  0.10682792629E+03  0.15041318760E+04  0.15003334611E+04 0.  0.
        5    1    3    3  502    0  0.48459263880E+03  0.42875536205E+03 -0.32710836608E+03  0.72504010870E+03  0.46999998093E+01 0.  1.
       -5    1    3    3    0  502 -0.48459263880E+03 -0.42875536205E+03  0.43393629237E+03  0.77909176732E+03  0.46999998093E+01 0. -1.
</event>
<event>
 5   0  0.1588657E-05  0.1500426E+04  0.7818609E-02  0.8884170E-01
        1   -1    0    0  501    0  0.00000000000E+00  0.00000000000E+00  0.18543911825E+04  0.18543911825E+04  0.50400001928E-02 0.  1.
       -1   -1    0    0    0  501  0.00000000000E+00  0.00000000000E+00 -0.30350644301E+03  0.30350644306E+03  0.50400001928E-02 0. -1.
    10030    2    1    2    0    0  0.00000000000E+00  0.00000000000E+00  0.15508847394E+04  0.21578976255E+04  0.15004261685E+04 0.  0.
        3    1    3    3  502    0 -0.36942529648E+03  0.63822631244E+03  0.97374463077E+03  0.12214689893E+04  0.10100000352E+00 0.  1.
       -3    1    3    3    0  502  0.36942529648E+03 -0.63822631244E+03  0.57714010868E+03  0.93642863626E+03  0.10100000352E+00 0. -1.
</event>
<event>
 5   0  0.3093600E-05  0.1499808E+04  0.7818609E-02  0.8884581E-01
        2   -1    0    0  501    0  0.00000000000E+00  0.00000000000E+00  0.15569914765E+04  0.15569914765E+04  0.25500000920E-02 0. -1.
       -2   -1    0    0    0  501  0.00000000000E+00  0.00000000000E+00 -0.36118112339E+03  0.36118112340E+03  0.25500000920E-02 0.  1.
    10030    2    1    2    0    0  0.00000000000E+00  0.00000000000E+00  0.11958103531E+04  0.19181725999E+04  0.14998078952E+04 0.  0.
        1    1    3    3  502    0 -0.18501334514E+03 -0.67140284627E+03  0.24221984642E+03  0.73734806834E+03  0.50400001928E-02 0.  1.
       -1    1    3    3    0  502  0.18501334514E+03  0.67140284627E+03  0.95359050666E+03  0.11808245315E+04  0.50400001928E-02 0. -1.
</event>
<event>
 5   0  0.1576214E-05  0.1500468E+04  0.7818609E-02  0.8884142E-01
        1   -1    0    0  501    0  0.00000000000E+00  0.00000000000E+00  0.14607395555E+04  0.14607395555E+04  0.50400001928E-02 0.  1.
       -1   -1    0    0    0  501  0.00000000000E+00  0.00000000000E+00 -0.38531927512E+03  0.38531927515E+03  0.50400001928E-02 0. -1.
    10030    2    1    2    0    0  0.00000000000E+00  0.00000000000E+00  0.10754202804E+04  0.18460588307E+04  0.15004680693E+04 0.  0.
        1    1    3    3  502    0  0.60664322143E+03  0.21139655453E+03  0.10144445922E+04  0.12007507369E+04  0.50400001928E-02 0.  1.
       -1    1    3    3    0  502 -0.60664322143E+03 -0.21139655453E+03  0.60975688186E+02  0.64530809382E+03  0.50400001928E-02 0. -1.
</event>
<event>
 5   0  0.1580078E-05  0.1499355E+04  0.7818609E-02  0.8884882E-01
       -1   -1    0    0    0  501  0.00000000000E+00  0.00000000000E+00  0.57640959493E+03  0.57640959495E+03  0.50400001928E-02 0. -1.
        1   -1    0    0  501    0  0.00000000000E+00  0.00000000000E+00 -0.97502909649E+03  0.97502909650E+03  0.50400001928E-02 0.  1.
    10030    2    1    2    0    0  0.00000000000E+00  0.00000000000E+00 -0.39861950156E+03  0.15514386915E+04  0.14993546966E+04 0.  0.
        2    1    3    3  502    0 -0.36140545472E+03 -0.12417441741E+03  0.46806226623E+03  0.60424785785E+03  0.25500000920E-02 0. -1.
       -2    1    3    3    0  502  0.36140545472E+03  0.12417441741E+03 -0.86668176779E+03  0.94719083360E+03  0.25500000920E-02 0.  1.
</event>
<event>
 5   0  0.1643498E-05  0.1501856E+04  0.7818609E-02  0.8883219E-01
       -1   -1    0    0    0  501  0.00000000000E+00  0.00000000000E+00  0.11994107176E+04  0.11994107176E+04  0.50400001928E-02 0.  1.
        1   -1    0    0  501    0  0.00000000000E+00  0.00000000000E+00 -0.47014186990E+03  0.47014186993E+03  0.50400001928E-02 0. -1.
    10030    2    1    2    0    0  0.00000000000E+00  0.00000000000E+00  0.72926884768E+03  0.16695525875E+04  0.15018564480E+04 0.  0.
        4    1    3    3  502    0 -0.61458506479E+03  0.40518224120E+03  0.52953562618E+03  0.90680595650E+03  0.12699999809E+01 0.  1.
       -4    1    3    3    0  502  0.61458506479E+03 -0.40518224120E+03  0.19973322150E+03  0.76274663102E+03  0.12699999809E+01 0. -1.
</event>
<event>
 5   0  0.1643498E-05  0.1499946E+04  0.7818609E-02  0.8884489E-01
        1   -1    0    0  501    0  0.00000000000E+00  0.00000000000E+00  0.71436040201E+03  0.71436040203E+03  0.50400001928E-02 0. -1.
       -1   -1    0    0    0  501  0.00000000000E+00  0.00000000000E+00 -0.78736112337E+03  0.78736112338E+03  0.50400001928E-02 0.  1.
    10030    2    1    2    0    0  0.00000000000E+00  0.00000000000E+00 -0.73000721354E+02  0.15017215254E+04  0.14999461439E+04 0.  0.
        4    1    3    3  502    0 -0.60207749426E+03  0.52168247418E+02  0.40814146528E+03  0.72924612012E+03  0.12699999809E+01 0. -1.
       -4    1    3    3    0  502  0.60207749426E+03 -0.52168247418E+02 -0.48114218663E+03  0.77247540530E+03  0.12699999809E+01 0.  1.
</event>
<event>
 5   0  0.1576214E-05  0.1500000E+04  0.7818609E-02  0.8884453E-01
       -1   -1    0    0    0  501  0.00000000000E+00  0.00000000000E+00  0.12690756167E+04  0.12690756167E+04  0.50400001928E-02 0. -1.
        1   -1    0    0  501    0  0.00000000000E+00  0.00000000000E+00 -0.44323584762E+03  0.44323584765E+03  0.50400001928E-02 0.  1.
    10030    2    1    2    0    0  0.00000000000E+00  0.00000000000E+00  0.82583976910E+03  0.17123114644E+04  0.14999997423E+04 0.  0.
        1    1    3    3  502    0  0.18521886406E+03  0.69971604796E+03  0.18866810516E+03  0.74800015328E+03  0.50400001928E-02 0.  1.
       -1    1    3    3    0  502 -0.18521886406E+03 -0.69971604796E+03  0.63717166395E+03  0.96431131111E+03  0.50400001928E-02 0. -1.
</event>
<event>
 5   0  0.1588657E-05  0.1500209E+04  0.7818609E-02  0.8884314E-01
        1   -1    0    0  501    0  0.00000000000E+00  0.00000000000E+00  0.57929288051E+03  0.57929288053E+03  0.50400001928E-02 0.  1.
       -1   -1    0    0    0  501  0.00000000000E+00  0.00000000000E+00 -0.97128177213E+03  0.97128177215E+03  0.50400001928E-02 0. -1.
    10030    2    1    2    0    0  0.00000000000E+00  0.00000000000E+00 -0.39198889162E+03  0.15505746527E+04  0.15002088063E+04 0.  0.
        3    1    3    3  502    0  0.31674387234E+03 -0.56943172879E+03  0.18806842056E+03  0.67819533723E+03  0.10100000352E+00 0.  1.
       -3    1    3    3    0  502 -0.31674387234E+03  0.56943172879E+03 -0.58005731218E+03  0.87237931546E+03  0.10100000352E+00 0. -1.
</event>
<event>
 5   0  0.1643498E-05  0.1498701E+04  0.7818609E-02  0.8885318E-01
        1   -1    0    0  501    0  0.00000000000E+00  0.00000000000E+00  0.72159751097E+03  0.72159751099E+03  0.50400001928E-02 0.  1.
       -1   -1    0    0    0  501  0.00000000000E+00  0.00000000000E+00 -0.77817037337E+03  0.77817037339E+03  0.50400001928E-02 0. -1.
    10030    2    1    2    0    0  0.00000000000E+00  0.00000000000E+00 -0.56572862397E+02  0.14997678844E+04  0.14987005099E+04 0.  0.
        4    1    3    3  502    0 -0.36451978774E+03  0.49831400253E+03  0.39667195292E+03  0.73385405354E+03  0.12699999809E+01 0.  1.
       -4    1    3    3    0  502  0.36451978774E+03 -0.49831400253E+03 -0.45324481532E+03  0.76591383084E+03  0.12699999809E+01 0. -1.
</event>
<event>
 5   0  0.3030702E-05  0.1500047E+04  0.7818609E-02  0.8884422E-01
        2   -1    0    0  501    0  0.00000000000E+00  0.00000000000E+00  0.17345252373E+04  0.17345252373E+04  0.25500000920E-02 0. -1.
       -2   -1    0    0    0  501  0.00000000000E+00  0.00000000000E+00 -0.32431646691E+03  0.32431646692E+03  0.25500000920E-02 0.  1.
    10030    2    1    2    0    0  0.00000000000E+00  0.00000000000E+00  0.14102087704E+04  0.20588417042E+04  0.15000467949E+04 0.  0.
        5    1    3    3  502    0  0.54822019236E+03  0.38662452372E+03  0.11654387323E+04  0.13447280135E+04  0.46999998093E+01 0. -1.
       -5    1    3    3    0  502 -0.54822019236E+03 -0.38662452372E+03  0.24477003806E+03  0.71411369066E+03  0.46999998093E+01 0.  1.
</event>
<event>
 5   0  0.1580078E-05  0.1501221E+04  0.7818609E-02  0.8883641E-01
        1   -1    0    0  501    0  0.00000000000E+00  0.00000000000E+00  0.12592492455E+04  0.12592492455E+04  0.50400001928E-02 0. -1.
       -1   -1    0    0    0  501  0.00000000000E+00  0.00000000000E+00 -0.44742226695E+03  0.44742226698E+03  0.50400001928E-02 0.  1.
    10030    2    1    2    0    0  0.00000000000E+00  0.00000000000E+00  0.81182697859E+03  0.17066715125E+04  0.15012210392E+04 0.  0.
        2    1    3    3  502    0  0.15232505165E+03  0.71656080198E+03  0.59186444865E+03  0.94178863333E+03  0.25500000920E-02 0. -1.
       -2    1    3    3    0  502 -0.15232505165E+03 -0.71656080198E+03  0.21996252994E+03  0.76488287919E+03  0.25500000920E-02 0.  1.
</event>
<event>
 5   0  0.1588657E-05  0.1500015E+04  0.7818609E-02  0.8884443E-01
        1   -1    0    0  501    0  0.00000000000E+00  0.00000000000E+00  0.51242309758E+03  0.51242309760E+03  0.50400001928E-02 0. -1.
       -1   -1    0    0    0  501  0.00000000000E+00  0.00000000000E+00 -0.10977469220E+04  0.10977469220E+04  0.50400001928E-02 0.  1.
    10030    2    1    2    0    0  0.00000000000E+00  0.00000000000E+00 -0.58532382439E+03  0.16101700196E+04  0.15000145041E+04 0.  0.
        3    1    3    3  502    0 -0.30018548213E+03 -0.55295425310E+03  0.14553305914E+03  0.64579378381E+03  0.10100000352E+00 0. -1.
       -3    1    3    3    0  502  0.30018548213E+03  0.55295425310E+03 -0.73085688353E+03  0.96437623576E+03  0.10100000352E+00 0.  1.
</event>
<event>
 5   0  0.1580078E-05  0.1500232E+04  0.7818609E-02  0.8884299E-01
       -1   -1    0    0    0  501  0.00000000000E+00  0.00000000000E+00  0.11591354313E+04  0.11591354313E+04  0.50400001928E-02 0. -1.
        1   -1    0    0  501    0  0.00000000000E+00  0.00000000000E+00 -0.48542550373E+03  0.48542550375E+03  0.50400001928E-02 0.  1.
    10030    2    1    2    0    0  0.00000000000E+00  0.00000000000E+00  0.67370992759E+03  0.16445609351E+04  0.15002318496E+04 0.  0.
        2    1    3    3  502    0 -0.31192039328E+03 -0.54576776719E+03  0.78551891714E+03  0.10060798957E+04  0.25500000920E-02 0. -1.
       -2    1    3    3    0  502  0.31192039328E+03  0.54576776719E+03 -0.11180898954E+03  0.63848103934E+03  0.25500000920E-02 0.  1.
</event>
<event>
 5   0  0.3093600E-05  0.1500043E+04  0.7818609E-02  0.8884424E-01
        2   -1    0    0  501    0  0.00000000000E+00  0.00000000000E+00  0.77726284026E+03  0.77726284027E+03  0.25500000920E-02 0.  1.
       -2   -1    0    0    0  501  0.00000000000E+00  0.00000000000E+00 -0.72373476741E+03  0.72373476741E+03  0.25500000920E-02 0. -1.
    10030    2    1    2    0    0  0.00000000000E+00  0.00000000000E+00  0.53528072857E+02  0.15009976077E+04  0.15000428539E+04 0.  0.
        1    1    3    3  502    0  0.74715046287E+03 -0.36511351940E+02 -0.27724712651E+02  0.74855564436E+03  0.50400001928E-02 0.  1.
       -1    1    3    3    0  502 -0.74715046287E+03  0.36511351940E+02  0.81252785508E+02  0.75244196332E+03  0.50400001928E-02 0. -1.
</event>
<event>
 5   0  0.1576214E-05  0.1500816E+04  0.7818609E-02  0.8883910E-01
        1   -1    0    0  501    0  0.00000000000E+00  0.00000000000E+00  0.18330931046E+04  0.18330931046E+04  0.50400001928E-02 0. -1.
       -1   -1    0    0    0  501  0.00000000000E+00  0.00000000000E+00 -0.30719246782E+03  0.30719246786E+03  0.50400001928E-02 0.  1.
    10030    2    1    2    0    0  0.00000000000E+00  0.00000000000E+00  0.15259006367E+04  0.21402855724E+04  0.15008163040E+04 0.  0.
        1    1    3    3  502    0 -0.27546719844E+03  0.64178848789E+03  0.37152355278E+03  0.79107799293E+03  0.50400001928E-02 0.  1.
       -1    1    3    3    0  502  0.27546719844E+03 -0.64178848789E+03  0.11543770840E+04  0.13492075795E+04  0.50400001928E-02 0. -1.
</event>
<event>
 5   0  0.3018308E-05  0.1500409E+04  0.7818609E-02  0.8884181E-01
       -2   -1    0    0    0  501  0.00000000000E+00  0.00000000000E+00  0.50353998273E+03  0.50353998274E+03  0.25500000920E-02 0.  1.
        2   -1    0    0  501    0  0.00000000000E+00  0.00000000000E+00 -0.11177009560E+04  0.11177009560E+04  0.25500000920E-02 0. -1.
    10030    2    1    2    0    0  0.00000000000E+00  0.00000000000E+00 -0.61416097322E+03  0.16212409387E+04  0.15004094375E+04 0.  0.
        2    1    3    3  502    0  0.48587990004E+03  0.16894218324E+03  0.28295981595E+03  0.58710049905E+03  0.25500000920E-02 0.  1.
       -2    1    3    3    0  502 -0.48587990004E+03 -0.16894218324E+03 -0.89712078917E+03  0.10341404396E+04  0.25500000920E-02 0. -1.
</event>
<event>
 5   0  0.1533777E-05  0.1501092E+04  0.7818609E-02  0.8883727E-01
        1   -1    0    0  501    0  0.00000000000E+00  0.00000000000E+00  0.12458077334E+04  0.12458077334E+04  0.50400001928E-02 0. -1.
       -1   -1    0    0    0  501  0.00000000000E+00  0.00000000000E+00 -0.45217197386E+03  0.45217197389E+03  0.50400001928E-02 0.  1.
    10030    2    1    2    0    0  0.00000000000E+00  0.00000000000E+00  0.79363575956E+03  0.16979797073E+04  0.15010920583E+04 0.  0.
        5    1    3    3  502    0 -0.74624365409E+03 -0.48434488220E+02  0.32463797466E+03  0.81525296412E+03  0.46999998093E+01 0. -1.
       -5    1    3    3    0  502  0.74624365409E+03  0.48434488220E+02  0.46899778490E+03  0.88272674320E+03  0.46999998093E+01 0.  1.
</event>
<event>
 5   0  0.1576214E-05  0.1499872E+04  0.7818609E-02  0.8884538E-01
       -1   -1    0    0    0  501  0.00000000000E+00  0.00000000000E+00  0.44105638343E+03  0.44105638346E+03  0.50400001928E-02 0. -1.
        1   -1    0    0  501    0  0.00000000000E+00  0.00000000000E+00 -0.12751292674E+04  0.12751292674E+04  0.50400001928E-02 0.  1.
    10030    2    1    2    0    0  0.00000000000E+00  0.00000000000E+00 -0.83407288393E+03  0.17161856508E+04  0.14998718653E+04 0.  0.
        1    1    3    3  502    0 -0.29602350335E+03  0.30700064434E+03 -0.11228686515E+04  0.12011300174E+04  0.50400001928E-02 0.  1.
       -1    1    3    3    0  502  0.29602350335E+03 -0.30700064434E+03  0.28879576754E+03  0.51505563344E+03  0.50400001928E-02 0. -1.
</event>
<event>
 5   0  0.1588657E-05  0.1500142E+04  0.7818609E-02  0.8884358E-01
        1   -1    0    0  501    0  0.00000000000E+00  0.00000000000E+00  0.92845208901E+03  0.92845208902E+03  0.50400001928E-02 0.  1.
       -1   -1    0    0    0  501  0.00000000000E+00  0.00000000000E+00 -0.60596188397E+03  0.60596188399E+03  0.50400001928E-02 0. -1.
    10030    2    1    2    0    0  0.00000000000E+00  0.00000000000E+00  0.32249020504E+03  0.15344139730E+04  0.15001420960E+04 0.  0.
        3    1    3    3  502    0 -0.19928880998E+03 -0.24597414624E+03  0.85677063071E+03  0.91338668386E+03  0.10100000352E+00 0.  1.
       -3    1    3    3    0  502  0.19928880998E+03  0.24597414624E+03 -0.53428042567E+03  0.62102728915E+03  0.10100000352E+00 0. -1.
</event>
<event>
 5   0  0.1116613E-05  0.1501132E+04  0.7818609E-02  0.8883701E-01
        3   -1    0    0  501    0  0.00000000000E+00  0.00000000000E+00  0.54368537275E+03  0.54368538213E+03  0.10100000352E+00 0. -1.
       -3   -1    0    0    0  501  0.00000000000E+00  0.00000000000E+00 -0.10361678641E+04  0.10361678690E+04  0.10100000352E+00 0.  1.
    10030    2    1    2    0    0  0.00000000000E+00  0.00000000000E+00 -0.49248249134E+03  0.15798532511E+04  0.15011320031E+04 0.  0.
        5    1    3    3  502    0 -0.10543952900E+02 -0.42482120171E+03 -0.89734694231E+03  0.99289367670E+03  0.46999998093E+01 0.  1.
       -5    1    3    3    0  502  0.10543952900E+02  0.42482120171E+03  0.40486445098E+03  0.58695957444E+03  0.46999998093E+01 0. -1.
</event>
<event>
 5   0  0.2969498E-05  0.1499935E+04  0.7818609E-02  0.8884496E-01
        2   -1    0    0  501    0  0.00000000000E+00  0.00000000000E+00  0.12145596711E+04  0.12145596711E+04  0.25500000920E-02 0. -1.
       -2   -1    0    0    0  501  0.00000000000E+00  0.00000000000E+00 -0.46309089145E+03  0.46309089146E+03  0.25500000920E-02 0.  1.
    10030    2    1    2    0    0  0.00000000000E+00  0.00000000000E+00  0.75146877968E+03  0.16776505626E+04  0.14999353597E+04 0.  0.
        3    1    3    3  502    0 -0.68269413343E+02 -0.38518785755E+03  0.10914064791E+04  0.11593957526E+04  0.10100000352E+00 0. -1.
       -3    1    3    3    0  502  0.68269413343E+02  0.38518785755E+03 -0.33993769939E+03  0.51825480998E+03  0.10100000352E+00 0.  1.
</event>
<event>
 5   0  0.3070497E-05  0.1500072E+04  0.7818609E-02  0.8884405E-01
       -2   -1    0    0    0  501  0.00000000000E+00  0.00000000000E+00  0.46690554296E+03  0.46690554297E+03  0.25500000920E-02 0.  1.
        2   -1    0    0  501    0  0.00000000000E+00  0.00000000000E+00 -0.12048555479E+04  0.12048555479E+04  0.25500000920E-02 0. -1.
    10030    2    1    2    0    0  0.00000000000E+00  0.00000000000E+00 -0.73795000493E+03  0.16717610909E+04  0.15000716433E+04 0.  0.
        4    1    3    3  502    0 -0.20476335476E+03  0.61030203889E+03  0.59989264538E+02  0.64652682457E+03  0.12699999809E+01 0.  1.
       -4    1    3    3    0  502  0.20476335476E+03 -0.61030203889E+03 -0.79793926947E+03  0.10252342663E+04  0.12699999809E+01 0. -1.
</event>
<event>
 5   0  0.1576214E-05  0.1500244E+04  0.7818609E-02  0.8884291E-01
        1   -1    0    0  501    0  0.00000000000E+00  0.00000000000E+00  0.55751708774E+03  0.55751708777E+03  0.50400001928E-02 0. -1.
       -1   -1    0    0    0  501  0.00000000000E+00  0.00000000000E+00 -0.10092657640E+04  0.10092657640E+04  0.50400001928E-02 0.  1.
    10030    2    1    2    0    0  0.00000000000E+00  0.00000000000E+00 -0.45174867627E+03  0.15667828518E+04  0.15002438596E+04 0.  0.
        1    1    3    3  502    0 -0.45355541850E+03  0.16767189256E+03  0.37301996997E+03  0.61071292702E+03  0.50400001928E-02 0. -1.
       -1    1    3    3    0  502  0.45355541850E+03 -0.16767189256E+03 -0.82476864624E+03  0.95606992477E+03  0.50400001928E-02 0.  1.
</event>
<event>
 5   0  0.1533777E-05  0.1499163E+04  0.7818609E-02  0.8885009E-01
       -1   -1    0    0    0  501  0.00000000000E+00  0.00000000000E+00  0.55210134379E+03  0.55210134381E+03  0.50400001928E-02 0. -1.
        1   -1    0    0  501    0  0.00000000000E+00  0.00000000000E+00 -0.10176985268E+04  0.10176985268E+04  0.50400001928E-02 0.  1.
    10030    2    1    2    0    0  0.00000000000E+00  0.00000000000E+00 -0.46559718303E+03  0.15697998706E+04  0.14991633990E+04 0.  0.
        5    1    3    3  502    0  0.45754167517E+03 -0.56481530630E+03 -0.41173502281E+02  0.72806460018E+03  0.46999998093E+01 0. -1.
       -5    1    3    3    0  502 -0.45754167517E+03  0.56481530630E+03 -0.42442368075E+03  0.84173527046E+03  0.46999998093E+01 0.  1.
</event>
<event>
 5   0  0.2969498E-05  0.1499386E+04  0.7818609E-02  0.8884861E-01
        2   -1    0    0  501    0  0.00000000000E+00  0.00000000000E+00  0.18443318306E+04  0.18443318306E+04  0.25500000920E-02 0.  1.
       -2   -1    0    0    0  501  0.00000000000E+00  0.00000000000E+00 -0.30473880724E+03  0.30473880725E+03  0.25500000920E-02 0. -1.
    10030    2    1    2    0    0  0.00000000000E+00  0.00000000000E+00  0.15395930234E+04  0.21490706379E+04  0.14993858506E+04 0.  0.
        3    1    3    3  502    0  0.56689169796E+03 -0.20754402280E+03  0.13266456375E+03  0.61809434174E+03  0.10100000352E+00 0. -1.
       -3    1    3    3    0  502 -0.56689169796E+03  0.20754402280E+03  0.14069284596E+04  0.15309762961E+04  0.10100000352E+00 0.  1.
</event>
<event>
 5   0  0.1643498E-05  0.1500086E+04  0.7818609E-02  0.8884395E-01
       -1   -1    0    0    0  501  0.00000000000E+00  0.00000000000E+00  0.23786093755E+03  0.23786093761E+03  0.50400001928E-02 0.  1.
        1   -1    0    0  501    0  0.00000000000E+00  0.00000000000E+00 -0.23650997311E+04  0.23650997311E+04  0.50400001928E-02 0. -1.
    10030    2    1    2    0    0  0.00000000000E+00  0.00000000000E+00 -0.21272387936E+04  0.26029606687E+04  0.15000864502E+04 0.  0.
        4    1    3    3  502    0  0.27020608137E+03 -0.45949751334E+03 -0.14803833232E+03  0.55323254777E+03  0.12699999809E+01 0.  1.
       -4    1    3    3    0  502 -0.27020608137E+03  0.45949751334E+03 -0.19792004612E+04  0.20497281210E+04  0.12699999809E+01 0. -1.
</event>
<event>
 5   0  0.2969498E-05  0.1499618E+04  0.7818609E-02  0.8884707E-01
        2   -1    0    0  501    0  0.00000000000E+00  0.00000000000E+00  0.10348818312E+04  0.10348818312E+04  0.25500000920E-02 0.  1.
       -2   -1    0    0    0  501  0.00000000000E+00  0.00000000000E+00 -0.54326320018E+03  0.54326320018E+03  0.25500000920E-02 0. -1.
    10030    2    1    2    0    0  0.00000000000E+00  0.00000000000E+00  0.49161863101E+03  0.15781450314E+04  0.14996175718E+04 0.  0.
        3    1    3    3  502    0  0.68628576931E+03  0.21165373995E+03  0.19055201683E+02  0.71843480825E+03  0.10100000352E+00 0. -1.
       -3    1    3    3    0  502 -0.68628576931E+03 -0.21165373995E+03  0.47256342933E+03  0.85971022312E+03  0.10100000352E+00 0.  1.
</event>
<event>
 5   0  0.1533777E-05  0.1499556E+04  0.7818609E-02  0.8884748E-01
       -1   -1    0    0    0  501  0.00000000000E+00  0.00000000000E+00  0.55151891837E+03  0.55151891839E+03  0.50400001928E-02 0. -1.
        1   -1    0    0  501    0  0.00000000000E+00  0.00000000000E+00 -0.10193075190E+04  0.10193075190E+04  0.50400001928E-02 0.  1.
    10030    2    1    2    0    0  0.00000000000E+00  0.00000000000E+00 -0.46778860060E+03  0.15708264374E+04  0.14995564416E+04 0.  0.
        5    1    3    3  502    0  0.17308210690E+03 -0.32530006753E+02 -0.99731805245E+03  0.10127591050E+04  0.46999998093E+01 0.  1.
       -5    1    3    3    0  502 -0.17308210690E+03  0.32530006753E+02  0.52952945185E+03  0.55806733235E+03  0.46999998093E+01 0. -1.
</event>
<event>
 5   0  0.1580078E-05  0.1499440E+04  0.7818609E-02  0.8884825E-01
       -1   -1    0    0    0  501  0.00000000000E+00  0.00000000000E+00  0.57986254233E+03  0.57986254236E+03  0.50400001928E-02 0. -1.
        1   -1    0    0  501    0  0.00000000000E+00  0.00000000000E+00 -0.96933332961E+03  0.96933332962E+03  0.50400001928E-02 0.  1.
    10030    2    1    2    0    0  0.00000000000E+00  0.00000000000E+00 -0.38947078727E+03  0.15491958720E+04  0.14994400140E+04 0.  0.
        2    1    3    3  502    0  0.14194017313E+01  0.36439422979E+03  0.48221229428E+03  0.60441200035E+03  0.25500000920E-02 0. -1.
       -2    1    3    3    0  502 -0.14194017313E+01 -0.36439422979E+03 -0.87168308156E+03  0.94478387162E+03  0.25500000920E-02 0.  1.
</event>
<event>
 5   0  0.3030702E-05  0.1500522E+04  0.7818609E-02  0.8884106E-01
       -2   -1    0    0    0  501  0.00000000000E+00  0.00000000000E+00  0.46503981153E+03  0.46503981154E+03  0.25500000920E-02 0.  1.
        2   -1    0    0  501    0  0.00000000000E+00  0.00000000000E+00 -0.12104156187E+04  0.12104156187E+04  0.25500000920E-02 0. -1.
    10030    2    1    2    0    0  0.00000000000E+00  0.00000000000E+00 -0.74537580715E+03  0.16754554302E+04  0.15005218441E+04 0.  0.
        5    1    3    3  502    0 -0.14409216212E+02 -0.63186265731E+03 -0.82405679465E+03  0.10385324906E+04  0.46999998093E+01 0. -1.
       -5    1    3    3    0  502  0.14409216212E+02  0.63186265731E+03  0.78680987501E+02  0.63692293962E+03  0.46999998093E+01 0.  1.
</event>
<event>
 5   0  0.1576214E-05  0.1500914E+04  0.7818609E-02  0.8883845E-01
        1   -1    0    0  501    0  0.00000000000E+00  0.00000000000E+00  0.77577602491E+03  0.77577602492E+03  0.50400001928E-02 0. -1.
       -1   -1    0    0    0  501  0.00000000000E+00  0.00000000000E+00 -0.72596415196E+03  0.72596415198E+03  0.50400001928E-02 0.  1.
    10030    2    1    2    0    0  0.00000000000E+00  0.00000000000E+00  0.49811872945E+02  0.15017401769E+04  0.15009138337E+04 0.  0.
        1    1    3    3  502    0 -0.38829350254E+03  0.16939067632E+03  0.64469878687E+03  0.77142826702E+03  0.50400001928E-02 0. -1.
       -1    1    3    3    0  502  0.38829350254E+03 -0.16939067632E+03 -0.59488691392E+03  0.73031190989E+03  0.50400001928E-02 0.  1.
</event>
<event>
 5   0  0.1576214E-05  0.1500440E+04  0.7818609E-02  0.8884160E-01
        1   -1    0    0  501    0  0.00000000000E+00  0.00000000000E+00  0.41534896144E+03  0.41534896147E+03  0.50400001928E-02 0.  1.
       -1   -1    0    0    0  501  0.00000000000E+00  0.00000000000E+00 -0.13550774743E+04  0.13550774743E+04  0.50400001928E-02 0. -1.
    10030    2    1    2    0    0  0.00000000000E+00  0.00000000000E+00 -0.93972851283E+03  0.17704264357E+04  0.15004399643E+04 0.  0.
        1    1    3    3  502    0  0.41494223859E+03  0.47166200999E+03  0.14036886398E+02  0.62836227388E+03  0.50400001928E-02 0. -1.
       -1    1    3    3    0  502 -0.41494223859E+03 -0.47166200999E+03 -0.95376539923E+03  0.11420641619E+04  0.50400001928E-02 0.  1.
</event>
<event>
 5   0  0.3030702E-05  0.1500482E+04  0.7818609E-02  0.8884132E-01
       -2   -1    0    0    0  501  0.00000000000E+00  0.00000000000E+00  0.10257407599E+04  0.10257407599E+04  0.25500000920E-02 0.  1.
        2   -1    0    0  501    0  0.00000000000E+00  0.00000000000E+00 -0.54873687909E+03  0.54873687910E+03  0.25500000920E-02 0. -1.
    10030    2    1    2    0    0  0.00000000000E+00  0.00000000000E+00  0.47700388077E+03  0.15744776390E+04  0.15004823002E+04 0.  0.
        5    1    3    3  502    0  0.44063917348E+03 -0.36616507646E+03  0.74674279997E+03  0.94121551396E+03  0.46999998093E+01 0.  1.
       -5    1    3    3    0  502 -0.44063917348E+03  0.36616507646E+03 -0.26973891920E+03  0.63326212500E+03  0.46999998093E+01 0. -1.
</event>
<event>
 5   0  0.1643498E-05  0.1500119E+04  0.7818609E-02  0.8884374E-01
       -1   -1    0    0    0  501  0.00000000000E+00  0.00000000000E+00  0.29952586383E+03  0.29952586387E+03  0.50400001928E-02 0. -1.
        1   -1    0    0  501    0  0.00000000000E+00  0.00000000000E+00 -0.18782668089E+04  0.18782668089E+04  0.50400001928E-02 0.  1.
    10030    2    1    2    0    0  0.00000000000E+00  0.00000000000E+00 -0.15787409450E+04  0.21777926727E+04  0.15001193132E+04 0.  0.
        4    1    3    3  502    0 -0.36144008401E+03  0.27715615507E+03  0.75769729767E+02  0.46173275113E+03  0.12699999809E+01 0. -1.
       -4    1    3    3    0  502  0.36144008401E+03 -0.27715615507E+03 -0.16545106748E+04  0.17160599216E+04  0.12699999809E+01 0.  1.
</event>
<event>
 5   0  0.1576214E-05  0.1500107E+04  0.7818609E-02  0.8884382E-01
        1   -1    0    0  501    0  0.00000000000E+00  0.00000000000E+00  0.92140545414E+03  0.92140545416E+03  0.50400001928E-02 0.  1.
       -1   -1    0    0    0  501  0.00000000000E+00  0.00000000000E+00 -0.61056735266E+03  0.61056735268E+03  0.50400001928E-02 0. -1.
    10030    2    1    2    0    0  0.00000000000E+00  0.00000000000E+00  0.31083810148E+03  0.15319728068E+04  0.15001067814E+04 0.  0.
        1    1    3    3  502    0  0.40525261395E+03  0.31371244834E+03  0.71471592070E+03  0.87946803733E+03  0.50400001928E-02 0.  1.
       -1    1    3    3    0  502 -0.40525261395E+03 -0.31371244834E+03 -0.40387781921E+03  0.65250476951E+03  0.50400001928E-02 0. -1.
</event>
<event>
 5   0  0.3030702E-05  0.1500066E+04  0.7818609E-02  0.8884409E-01
       -2   -1    0    0    0  501  0.00000000000E+00  0.00000000000E+00  0.34697575912E+03  0.34697575913E+03  0.25500000920E-02 0.  1.
        2   -1    0    0  501    0  0.00000000000E+00  0.00000000000E+00 -0.16212928054E+04  0.16212928054E+04  0.25500000920E-02 0. -1.
    10030    2    1    2    0    0  0.00000000000E+00  0.00000000000E+00 -0.12743170462E+04  0.19682685645E+04  0.15000657344E+04 0.  0.
        5    1    3    3  502    0  0.23395382669E+03 -0.39387433447E+03  0.14204265061E+03  0.47965569836E+03  0.46999998093E+01 0.  1.
       -5    1    3    3    0  502 -0.23395382669E+03  0.39387433447E+03 -0.14163596968E+04  0.14886128661E+04  0.46999998093E+01 0. -1.
</event>
<event>
 5   0  0.1533777E-05  0.1500807E+04  0.7818609E-02  0.8883916E-01
        1   -1    0    0  501    0  0.00000000000E+00  0.00000000000E+00  0.18474117939E+04  0.18474117939E+04  0.50400001928E-02 0.  1.
       -1   -1    0    0    0  501  0.00000000000E+00  0.00000000000E+00 -0.30480787311E+03  0.30480787315E+03  0.50400001928E-02 0. -1.
    10030    2    1    2    0    0  0.00000000000E+00  0.00000000000E+00  0.15426039208E+04  0.21522196671E+04  0.15008073290E+04 0.  0.
        5    1    3    3  502    0  0.21640295293E+03  0.37021188892E+03 -0.11176534862E+03  0.44317114514E+03  0.46999998093E+01 0. -1.
       -5    1    3    3    0  502 -0.21640295293E+03 -0.37021188892E+03  0.16543692694E+04  0.17090485220E+04  0.46999998093E+01 0.  1.
</event>
<event>
 5   0  0.2969498E-05  0.1500800E+04  0.7818609E-02  0.8883921E-01
       -2   -1    0    0    0  501  0.00000000000E+00  0.00000000000E+00  0.21470480269E+03  0.21470480271E+03  0.25500000920E-02 0. -1.
        2   -1    0    0  501    0  0.00000000000E+00  0.00000000000E+00 -0.26226712991E+04  0.26226712991E+04  0.25500000920E-02 0.  1.
    10030    2    1    2    0    0  0.00000000000E+00  0.00000000000E+00 -0.24079664964E+04  0.28373761018E+04  0.15007999518E+04 0.  0.
        3    1    3    3  502    0 -0.36099931009E+03  0.55119106834E+01 -0.24476735611E+04  0.24741577870E+04  0.10100000352E+00 0.  1.
       -3    1    3    3    0  502  0.36099931009E+03 -0.55119106834E+01  0.39707064673E+02  0.36321831483E+03  0.10100000352E+00 0. -1.
</event>
<event>
 5   0  0.1580078E-05  0.1501352E+04  0.7818609E-02  0.8883555E-01
        1   -1    0    0  501    0  0.00000000000E+00  0.00000000000E+00  0.60744524600E+03  0.60744524602E+03  0.50400001928E-02 0.  1.
       -1   -1    0    0    0  501  0.00000000000E+00  0.00000000000E+00 -0.92767905376E+03  0.92767905377E+03  0.50400001928E-02 0. -1.
    10030    2    1    2    0    0  0.00000000000E+00  0.00000000000E+00 -0.32023380776E+03  0.15351242998E+04  0.15013516990E+04 0.  0.
        2    1    3    3  502    0 -0.67775976037E+03  0.31491678384E+03 -0.23229777673E+03  0.78261940341E+03  0.25500000920E-02 0. -1.
       -2    1    3    3    0  502  0.67775976037E+03 -0.31491678384E+03 -0.87936031029E+02  0.75250489638E+03  0.25500000920E-02 0.  1.
</event>
<event>
 5   0  0.1643498E-05  0.1500215E+04  0.7818609E-02  0.8884310E-01
       -1   -1    0    0    0  501  0.00000000000E+00  0.00000000000E+00  0.37509124804E+03  0.37509124807E+03  0.50400001928E-02 0.  1.
        1   -1    0    0  501    0  0.00000000000E+00  0.00000000000E+00 -0.15000644945E+04  0.15000644945E+04  0.50400001928E-02 0. -1.
    10030    2    1    2    0    0  0.00000000000E+00  0.00000000000E+00 -0.11249732464E+04  0.18751557425E+04  0.15002147358E+04 0.  0.
        4    1    3    3  502    0  0.98032848638E+02 -0.65086406628E+03 -0.10121556431E+04  0.12073504590E+04  0.12699999809E+01 0. -1.
       -4    1    3    3    0  502 -0.98032848638E+02  0.65086406628E+03 -0.11281760336E+03  0.66780528353E+03  0.12699999809E+01 0.  1.
</event>
<event>
 5   0  0.1576214E-05  0.1500930E+04  0.7818609E-02  0.8883835E-01
       -1   -1    0    0    0  501  0.00000000000E+00  0.00000000000E+00  0.62187891549E+03  0.62187891551E+03  0.50400001928E-02 0. -1.
        1   -1    0    0  501    0  0.00000000000E+00  0.00000000000E+00 -0.90563878691E+03  0.90563878692E+03  0.50400001928E-02 0.  1.
    10030    2    1    2    0    0  0.00000000000E+00  0.00000000000E+00 -0.28375987142E+03  0.15275177024E+04  0.15009299339E+04 0.  0.
        1    1    3    3  502    0 -0.31910931962E+02 -0.44024163008E+03 -0.75956342777E+03  0.87850304567E+03  0.50400001928E-02 0.  1.
       -1    1    3    3    0  502  0.31910931962E+02  0.44024163008E+03  0.47580355635E+03  0.64901465676E+03  0.50400001928E-02 0. -1.
</event>
<event>
 5   0  0.1643498E-05  0.1500536E+04  0.7818609E-02  0.8884097E-01
       -1   -1    0    0    0  501  0.00000000000E+00  0.00000000000E+00  0.33472805135E+03  0.33472805139E+03  0.50400001928E-02 0.  1.
        1   -1    0    0  501    0  0.00000000000E+00  0.00000000000E+00 -0.16816688485E+04  0.16816688485E+04  0.50400001928E-02 0. -1.
    10030    2    1    2    0    0  0.00000000000E+00  0.00000000000E+00 -0.13469407972E+04  0.20163968999E+04  0.15005355534E+04 0.  0.
        4    1    3    3  502    0  0.74490625290E+03 -0.42291489969E+02 -0.56743710674E+03  0.93736885948E+03  0.12699999809E+01 0. -1.
       -4    1    3    3    0  502 -0.74490625290E+03  0.42291489969E+02 -0.77950369042E+03  0.10790280404E+04  0.12699999809E+01 0.  1.
</event>
<event>
 5   0  0.3018308E-05  0.1500173E+04  0.7818609E-02  0.8884338E-01
       -2   -1    0    0    0  501  0.00000000000E+00  0.00000000000E+00  0.60284113310E+03  0.60284113311E+03  0.25500000920E-02 0. -1.
        2   -1    0    0  501    0  0.00000000000E+00  0.00000000000E+00 -0.93329637854E+03  0.93329637855E+03  0.25500000920E-02 0.  1.
    10030    2    1    2    0    0  0.00000000000E+00  0.00000000000E+00 -0.33045524544E+03  0.15361375117E+04  0.15001725852E+04 0.  0.
        2    1    3    3  502    0 -0.62346360586E+03  0.14167052230E+03 -0.56687089959E+03  0.85447060894E+03  0.25500000920E-02 0.  1.
       -2    1    3    3    0  502  0.62346360586E+03 -0.14167052230E+03  0.23641565415E+03  0.68166690272E+03  0.25500000920E-02 0. -1.
</event>
<event>
 5   0  0.3093600E-05  0.1499461E+04  0.7818609E-02  0.8884811E-01
       -2   -1    0    0    0  501  0.00000000000E+00  0.00000000000E+00  0.11808255692E+04  0.11808255692E+04  0.25500000920E-02 0.  1.
        2   -1    0    0  501    0  0.00000000000E+00  0.00000000000E+00 -0.47601955601E+03  0.47601955602E+03  0.25500000920E-02 0. -1.
    10030    2    1    2    0    0  0.00000000000E+00  0.00000000000E+00  0.70480601316E+03  0.16568451252E+04  0.14994613208E+04 0.  0.
        1    1    3    3  502    0 -0.68473780834E+03  0.22749811670E+03  0.57743217608E+03  0.92414781138E+03  0.50400001928E-02 0. -1.
       -1    1    3    3    0  502  0.68473780834E+03 -0.22749811670E+03  0.12737383708E+03  0.73269731382E+03  0.50400001928E-02 0.  1.
</event>
<event>
 5   0  0.2969498E-05  0.1499237E+04  0.7818609E-02  0.8884960E-01
        2   -1    0    0  501    0  0.00000000000E+00  0.00000000000E+00  0.11190922238E+04  0.11190922238E+04  0.25500000920E-02 0.  1.
       -2   -1    0    0    0  501  0.00000000000E+00  0.00000000000E+00 -0.50212864915E+03  0.50212864916E+03  0.25500000920E-02 0. -1.
    10030    2    1    2    0    0  0.00000000000E+00  0.00000000000E+00  0.61696357466E+03  0.16212208730E+04  0.14992374950E+04 0.  0.
        3    1    3    3  502    0 -0.16629674721E+03 -0.54568065203E+03 -0.21740599935E+03  0.61048125351E+03  0.10100000352E+00 0.  1.
       -3    1    3    3    0  502  0.16629674721E+03  0.54568065203E+03  0.83436957401E+03  0.10107396195E+04  0.10100000352E+00 0. -1.
</event>
<event>
 5   0  0.3093600E-05  0.1500310E+04  0.7818609E-02  0.8884247E-01
       -2   -1    0    0    0  501  0.00000000000E+00  0.00000000000E+00  0.32828960325E+03  0.32828960326E+03  0.25500000920E-02 0.  1.
        2   -1    0    0  501    0  0.00000000000E+00  0.00000000000E+00 -0.17141346186E+04  0.17141346186E+04  0.25500000920E-02 0. -1.
    10030    2    1    2    0    0  0.00000000000E+00  0.00000000000E+00 -0.13858450153E+04  0.20424242219E+04  0.15003100665E+04 0.  0.
        1    1    3    3  502    0 -0.51067309086E+03  0.51206234972E+03 -0.42154966031E+03  0.83707763789E+03  0.50400001928E-02 0. -1.
       -1    1    3    3    0  502  0.51067309086E+03 -0.51206234972E+03 -0.96429535503E+03  0.12053465840E+04  0.50400001928E-02 0.  1.
</event>
<event>
 5   0  0.3070497E-05  0.1500221E+04  0.7818609E-02  0.8884306E-01
        2   -1    0    0  501    0  0.00000000000E+00  0.00000000000E+00  0.57920673762E+03  0.57920673762E+03  0.25500000920E-02 0.  1.
       -2   -1    0    0    0  501  0.00000000000E+00  0.00000000000E+00 -0.97144226218E+03  0.97144226219E+03  0.25500000920E-02 0. -1.
    10030    2    1    2    0    0  0.00000000000E+00  0.00000000000E+00 -0.39223552457E+03  0.15506489998E+04  0.15002211883E+04 0.  0.
        4    1    3    3  502    0 -0.14332270000E+03 -0.28503460916E+03 -0.89781743726E+03  0.95281891685E+03  0.12699999809E+01 0. -1.
       -4    1    3    3    0  502  0.14332270000E+03  0.28503460916E+03  0.50558191269E+03  0.59783008296E+03  0.12699999809E+01 0.  1.
</event>
<event>
 5   0  0.1588657E-05  0.1500398E+04  0.7818609E-02  0.8884188E-01
       -1   -1    0    0    0  501  0.00000000000E+00  0.00000000000E+00  0.54507612539E+03  0.54507612541E+03  0.50400001928E-02 0. -1.
        1   -1    0    0  501    0  0.00000000000E+00  0.00000000000E+00 -0.10325134132E+04  0.10325134132E+04  0.50400001928E-02 0.  1.
    10030    2    1    2    0    0  0.00000000000E+00  0.00000000000E+00 -0.48743728780E+03  0.15775895386E+04  0.15003978282E+04 0.  0.
        3    1    3    3  502    0 -0.26576746389E+03  0.13463294195E+03  0.48020889472E+03  0.56511854216E+03  0.10100000352E+00 0. -1.
       -3    1    3    3    0  502  0.26576746389E+03 -0.13463294195E+03 -0.96764618252E+03  0.10124709965E+04  0.10100000352E+00 0.  1.
</event>
<event>
 5   0  0.1576214E-05  0.1499697E+04  0.7818609E-02  0.8884655E-01
        1   -1    0    0  501    0  0.00000000000E+00  0.00000000000E+00  0.21398855063E+04  0.21398855063E+04  0.50400001928E-02 0. -1.
       -1   -1    0    0    0  501  0.00000000000E+00  0.00000000000E+00 -0.26275827119E+03  0.26275827124E+03  0.50400001928E-02 0.  1.
    10030    2    1    2    0    0  0.00000000000E+00  0.00000000000E+00  0.18771272351E+04  0.24026437776E+04  0.14996967910E+04 0.  0.
        1    1    3    3  502    0  0.67046107694E+03  0.13439496359E+02  0.40103095625E+03  0.78136067450E+03  0.50400001928E-02 0.  1.
       -1    1    3    3    0  502 -0.67046107694E+03 -0.13439496359E+02  0.14760962789E+04  0.16212831031E+04  0.50400001928E-02 0. -1.
</event>
<event>
 5   0  0.1533777E-05  0.1499808E+04  0.7818609E-02  0.8884581E-01
       -1   -1    0    0    0  501  0.00000000000E+00  0.00000000000E+00  0.71637306587E+03  0.71637306589E+03  0.50400001928E-02 0. -1.
        1   -1    0    0  501    0  0.00000000000E+00  0.00000000000E+00 -0.78500453005E+03  0.78500453007E+03  0.50400001928E-02 0.  1.
    10030    2    1    2    0    0  0.00000000000E+00  0.00000000000E+00 -0.68631464183E+02  0.15013775960E+04  0.14998081236E+04 0.  0.
        5    1    3    3  502    0  0.73319709649E+03  0.14133166908E+03  0.34904215524E+02  0.74752459307E+03  0.46999998093E+01 0. -1.
       -5    1    3    3    0  502 -0.73319709649E+03 -0.14133166908E+03 -0.10353567971E+03  0.75385300288E+03  0.46999998093E+01 0.  1.
</event>
<event>
 5   0  0.1576214E-05  0.1500544E+04  0.7818609E-02  0.8884091E-01
       -1   -1    0    0    0  501  0.00000000000E+00  0.00000000000E+00  0.61497001614E+03  0.61497001616E+03  0.50400001928E-02 0.  1.
        1   -1    0    0  501    0  0.00000000000E+00  0.00000000000E+00 -0.91534271728E+03  0.91534271730E+03  0.50400001928E-02 0. -1.
    10030    2    1    2    0    0  0.00000000000E+00  0.00000000000E+00 -0.30037270115E+03  0.15303127335E+04  0.15005443354E+04 0.  0.
        1    1    3    3  502    0 -0.63070813437E+03 -0.26172758271E+03  0.16680831041E+03  0.70293605026E+03  0.50400001928E-02 0.  1.
       -1    1    3    3    0  502  0.63070813437E+03  0.26172758271E+03 -0.46718101155E+03  0.82737668319E+03  0.50400001928E-02 0. -1.
</event>
<event>
 5   0  0.1643498E-05  0.1499804E+04  0.7818609E-02  0.8884583E-01
       -1   -1    0    0    0  501  0.00000000000E+00  0.00000000000E+00  0.22592866986E+04  0.22592866986E+04  0.50400001928E-02 0. -1.
        1   -1    0    0  501    0  0.00000000000E+00  0.00000000000E+00 -0.24890748272E+03  0.24890748277E+03  0.50400001928E-02 0.  1.
    10030    2    1    2    0    0  0.00000000000E+00  0.00000000000E+00  0.20103792159E+04  0.25081941814E+04  0.14998044739E+04 0.  0.
        4    1    3    3  502    0 -0.32810149550E+03 -0.66671104162E+03  0.11740681162E+04  0.13894573613E+04  0.12699999809E+01 0.  1.
       -4    1    3    3    0  502  0.32810149550E+03  0.66671104162E+03  0.83631109970E+03  0.11187368201E+04  0.12699999809E+01 0. -1.
</event>
<event>
 5   0  0.1588657E-05  0.1498772E+04  0.7818609E-02  0.8885270E-01
       -1   -1    0    0    0  501  0.00000000000E+00  0.00000000000E+00  0.34627413874E+03  0.34627413877E+03  0.50400001928E-02 0.  1.
        1   -1    0    0  501    0  0.00000000000E+00  0.00000000000E+00 -0.16217770442E+04  0.16217770442E+04  0.50400001928E-02 0. -1.
    10030    2    1    2    0    0  0.00000000000E+00  0.00000000000E+00 -0.12755029054E+04  0.19680511829E+04  0.14987720964E+04 0.  0.
        3    1    3    3  502    0 -0.29126795276E+03  0.59639971387E+03 -0.18089177600E+03  0.68793276113E+03  0.10100000352E+00 0.  1.
       -3    1    3    3    0  502  0.29126795276E+03 -0.59639971387E+03 -0.10946111294E+04  0.12801184218E+04  0.10100000352E+00 0. -1.
</event>
<event>
 5   0  0.3070497E-05  0.1499451E+04  0.7818609E-02  0.8884818E-01
       -2   -1    0    0    0  501  0.00000000000E+00  0.00000000000E+00  0.33517354310E+03  0.33517354311E+03  0.25500000920E-02 0. -1.
        2   -1    0    0  501    0  0.00000000000E+00  0.00000000000E+00 -0.16770063656E+04  0.16770063656E+04  0.25500000920E-02 0.  1.
    10030    2    1    2    0    0  0.00000000000E+00  0.00000000000E+00 -0.13418328225E+04  0.20121799087E+04  0.14994507866E+04 0.  0.
        4    1    3    3  502    0  0.12461862496E+03 -0.19243838450E+03 -0.16288094296E+04  0.16448659837E+04  0.12699999809E+01 0.  1.
       -4    1    3    3    0  502 -0.12461862496E+03  0.19243838450E+03  0.28697660714E+03  0.36731392495E+03  0.12699999809E+01 0. -1.
</event>
<event>
 5   0  0.1580078E-05  0.1500068E+04  0.7818609E-02  0.8884407E-01
        1   -1    0    0  501    0  0.00000000000E+00  0.00000000000E+00  0.13863487518E+04  0.13863487518E+04  0.50400001928E-02 0. -1.
       -1   -1    0    0    0  501  0.00000000000E+00  0.00000000000E+00 -0.40577910926E+03  0.40577910929E+03  0.50400001928E-02 0.  1.
    10030    2    1    2    0    0  0.00000000000E+00  0.00000000000E+00  0.98056964253E+03  0.17921278611E+04  0.15000684807E+04 0.  0.
        2    1    3    3  502    0 -0.49246702211E+03  0.40268162511E+02 -0.18385281548E+03  0.52720693333E+03  0.25500000920E-02 0.  1.
       -2    1    3    3    0  502  0.49246702211E+03 -0.40268162511E+02  0.11644224580E+04  0.12649209278E+04  0.25500000920E-02 0. -1.
</event>
<event>
 5   0  0.1588657E-05  0.1499805E+04  0.7818609E-02  0.8884582E-01
       -1   -1    0    0    0  501  0.00000000000E+00  0.00000000000E+00  0.86321566980E+03  0.86321566982E+03  0.50400001928E-02 0.  1.
        1   -1    0    0  501    0  0.00000000000E+00  0.00000000000E+00 -0.65146423107E+03  0.65146423109E+03  0.50400001928E-02 0. -1.
    10030    2    1    2    0    0  0.00000000000E+00  0.00000000000E+00  0.21175143874E+03  0.15146799009E+04  0.14998054975E+04 0.  0.
        3    1    3    3  502    0  0.16306220618E+03 -0.13571465964E+03  0.83227703934E+03  0.85889046585E+03  0.10100000352E+00 0.  1.
       -3    1    3    3    0  502 -0.16306220618E+03  0.13571465964E+03 -0.62052560060E+03  0.65578943505E+03  0.10100000352E+00 0. -1.
</event>
<event>
 5   0  0.3030702E-05  0.1500541E+04  0.7818609E-02  0.8884093E-01
        2   -1    0    0  501    0  0.00000000000E+00  0.00000000000E+00  0.61481796034E+03  0.61481796034E+03  0.25500000920E-02 0.  1.
       -2   -1    0    0    0  501  0.00000000000E+00  0.00000000000E+00 -0.91556530270E+03  0.91556530270E+03  0.25500000920E-02 0. -1.
    10030    2    1    2    0    0  0.00000000000E+00  0.00000000000E+00 -0.30074734236E+03  0.15303832630E+04  0.15005412250E+04 0.  0.
        5    1    3    3  502    0  0.42711047711E+03  0.10463394233E+03  0.46959067492E+03  0.64335768708E+03  0.46999998093E+01 0.  1.
       -5    1    3    3    0  502 -0.42711047711E+03 -0.10463394233E+03 -0.77033801728E+03  0.88702557597E+03  0.46999998093E+01 0. -1.
</event>
<event>
 5   0  0.1580078E-05  0.1500194E+04  0.7818609E-02  0.8884324E-01
        1   -1    0    0  501    0  0.00000000000E+00  0.00000000000E+00  0.16683847371E+04  0.16683847371E+04  0.50400001928E-02 0.  1.
       -1   -1    0    0    0  501  0.00000000000E+00  0.00000000000E+00 -0.33723981604E+03  0.33723981608E+03  0.50400001928E-02 0. -1.
    10030    2    1    2    0    0  0.00000000000E+00  0.00000000000E+00  0.13311449211E+04  0.20056245532E+04  0.15001943366E+04 0.  0.
        2    1    3    3  502    0 -0.12330042246E+03  0.61789916570E+03  0.12145937637E+03  0.64168119286E+03  0.25500000920E-02 0.  1.
       -2    1    3    3    0  502  0.12330042246E+03 -0.61789916570E+03  0.12096855447E+04  0.13639433603E+04  0.25500000920E-02 0. -1.
</event>
<event>
 5   0  0.1533777E-05  0.1500518E+04  0.7818609E-02  0.8884108E-01
        1   -1    0    0  501    0  0.00000000000E+00  0.00000000000E+00  0.71340559823E+03  0.71340559825E+03  0.50400001928E-02 0.  1.
       -1   -1    0    0    0  501  0.00000000000E+00  0.00000000000E+00 -0.78901636893E+03  0.78901636895E+03  0.50400001928E-02 0. -1.
    10030    2    1    2    0    0  0.00000000000E+00  0.00000000000E+00 -0.75610770703E+02  0.15024219672E+04  0.15005181701E+04 0.  0.
        5    1    3    3  502    0  0.37443049683E+02  0.64305248288E+03  0.34732288734E+03  0.73182904820E+03  0.46999998093E+01 0.  1.
       -5    1    3    3    0  502 -0.37443049683E+02 -0.64305248288E+03 -0.42293365805E+03  0.77059291900E+03  0.46999998093E+01 0. -1.
</event>
<event>
 5   0  0.1533777E-05  0.1500203E+04  0.7818609E-02  0.8884318E-01
        1   -1    0    0  501    0  0.00000000000E+00  0.00000000000E+00  0.10458190063E+04  0.10458190063E+04  0.50400001928E-02 0.  1.
       -1   -1    0    0    0  501  0.00000000000E+00  0.00000000000E+00 -0.53800137216E+03  0.53800137219E+03  0.50400001928E-02 0. -1.
    10030    2    1    2    0    0  0.00000000000E+00  0.00000000000E+00  0.50781763410E+03  0.15838203785E+04  0.15002027335E+04 0.  0.
        5    1    3    3  502    0 -0.64989881926E+03 -0.36427566865E+03  0.16208554620E+03  0.76246905008E+03  0.46999998093E+01 0. -1.
       -5    1    3    3    0  502  0.64989881926E+03  0.36427566865E+03  0.34573208790E+03  0.82135132839E+03  0.46999998093E+01 0.  1.
</event>
<event>
 5   0  0.3018308E-05  0.1500375E+04  0.7818609E-02  0.8884203E-01
       -2   -1    0    0    0  501  0.00000000000E+00  0.00000000000E+00  0.43540513021E+03  0.43540513022E+03  0.25500000920E-02 0. -1.
        2   -1    0    0  501    0  0.00000000000E+00  0.00000000000E+00 -0.12925466425E+04  0.12925466425E+04  0.25500000920E-02 0.  1.
    10030    2    1    2    0    0  0.00000000000E+00  0.00000000000E+00 -0.85714151229E+03  0.17279517727E+04  0.15003752053E+04 0.  0.
        2    1    3    3  502    0 -0.52698301705E+03 -0.34249974160E+03  0.43146179930E+02  0.62998314748E+03  0.25500000920E-02 0. -1.
       -2    1    3    3    0  502  0.52698301705E+03  0.34249974160E+03 -0.90028769222E+03  0.10979686252E+04  0.25500000920E-02 0.  1.
</event>
<event>
 5   0  0.3018308E-05  0.1500357E+04  0.7818609E-02  0.8884216E-01
       -2   -1    0    0    0  501  0.00000000000E+00  0.00000000000E+00  0.41173217949E+03  0.41173217949E+03  0.25500000920E-02 0. -1.
        2   -1    0    0  501    0  0.00000000000E+00  0.00000000000E+00 -0.13668296174E+04  0.13668296174E+04  0.25500000920E-02 0.  1.
    10030    2    1    2    0    0  0.00000000000E+00  0.00000000000E+00 -0.95509743794E+03  0.17785617969E+04  0.15003569407E+04 0.  0.
        2    1    3    3  502    0 -0.14859626272E+03  0.24907621401E+02 -0.13487088404E+04  0.13570986608E+04  0.25500000920E-02 0.  1.
       -2    1    3    3    0  502  0.14859626272E+03 -0.24907621401E+02  0.39361140251E+03  0.42146313610E+03  0.25500000920E-02 0. -1.
</event>
<event>
 5   0  0.3030702E-05  0.1501390E+04  0.7818609E-02  0.8883529E-01
       -2   -1    0    0    0  501  0.00000000000E+00  0.00000000000E+00  0.45173054574E+03  0.45173054574E+03  0.25500000920E-02 0.  1.
        2   -1    0    0  501    0  0.00000000000E+00  0.00000000000E+00 -0.12475198541E+04  0.12475198541E+04  0.25500000920E-02 0. -1.
    10030    2    1    2    0    0  0.00000000000E+00  0.00000000000E+00 -0.79578930834E+03  0.16992503998E+04  0.15013897888E+04 0.  0.
        5    1    3    3  502    0 -0.21888593034E+03  0.15573473256E+03  0.39545058774E+03  0.47808745515E+03  0.46999998093E+01 0.  1.
       -5    1    3    3    0  502  0.21888593034E+03 -0.15573473256E+03 -0.11912398961E+04  0.12211629447E+04  0.46999998093E+01 0. -1.
</event>
<event>
 5   0  0.3070497E-05  0.1500599E+04  0.7818609E-02  0.8884054E-01
       -2   -1    0    0    0  501  0.00000000000E+00  0.00000000000E+00  0.96602629681E+03  0.96602629681E+03  0.25500000920E-02 0. -1.
        2   -1    0    0  501    0  0.00000000000E+00  0.00000000000E+00 -0.58274770220E+03  0.58274770220E+03  0.25500000920E-02 0.  1.
    10030    2    1    2    0    0  0.00000000000E+00  0.00000000000E+00  0.38327859461E+03  0.15487739990E+04  0.15005993532E+04 0.  0.
        4    1    3    3  502    0  0.27417351875E+03  0.67053715877E+03 -0.99693809069E+01  0.72449444520E+03  0.12699999809E+01 0. -1.
       -4    1    3    3    0  502 -0.27417351875E+03 -0.67053715877E+03  0.39324797552E+03  0.82427955381E+03  0.12699999809E+01 0.  1.
</event>
<event>
 5   0  0.1576214E-05  0.1500419E+04  0.7818609E-02  0.8884174E-01
       -1   -1    0    0    0  501  0.00000000000E+00  0.00000000000E+00  0.18634102247E+04  0.18634102247E+04  0.50400001928E-02 0. -1.
        1   -1    0    0  501    0  0.00000000000E+00  0.00000000000E+00 -0.30203470296E+03  0.30203470300E+03  0.50400001928E-02 0.  1.
    10030    2    1    2    0    0  0.00000000000E+00  0.00000000000E+00  0.15613755217E+04  0.21654449277E+04  0.15004193464E+04 0.  0.
        1    1    3    3  502    0  0.12709023732E+03  0.19068291237E+03 -0.25028787130E+03  0.33934631284E+03  0.50400001928E-02 0.  1.
       -1    1    3    3    0  502 -0.12709023732E+03 -0.19068291237E+03  0.18116633930E+04  0.18260986148E+04  0.50400001928E-02 0. -1.
</event>
<event>
 5   0  0.3070497E-05  0.1501910E+04  0.7818609E-02  0.8883184E-01
       -2   -1    0    0    0  501  0.00000000000E+00  0.00000000000E+00  0.34069794358E+03  0.34069794359E+03  0.25500000920E-02 0. -1.
        2   -1    0    0  501    0  0.00000000000E+00  0.00000000000E+00 -0.16552288181E+04  0.16552288181E+04  0.25500000920E-02 0.  1.
    10030    2    1    2    0    0  0.00000000000E+00  0.00000000000E+00 -0.13145308745E+04  0.19959267617E+04  0.15019095239E+04 0.  0.
        4    1    3    3  502    0 -0.84367516781E+02  0.58939817559E+03 -0.49111691876E+02  0.59742920790E+03  0.12699999809E+01 0. -1.
       -4    1    3    3    0  502  0.84367516781E+02 -0.58939817559E+03 -0.12654191826E+04  0.13984975538E+04  0.12699999809E+01 0.  1.
</event>
<event>
 5   0  0.1643498E-05  0.1504999E+04  0.7818609E-02  0.8881135E-01
       -1   -1    0    0    0  501  0.00000000000E+00  0.00000000000E+00  0.25286671812E+03  0.25286671817E+03  0.50400001928E-02 0.  1.
        1   -1    0    0  501    0  0.00000000000E+00  0.00000000000E+00 -0.22393444924E+04  0.22393444924E+04  0.50400001928E-02 0. -1.
    10030    2    1    2    0    0  0.00000000000E+00  0.00000000000E+00 -0.19864777743E+04  0.24922112106E+04  0.15049992593E+04 0.  0.
        4    1    3    3  502    0  0.15571118520E+02  0.56761798886E+03 -0.18109210120E+04  0.18978591006E+04  0.12699999809E+01 0. -1.
       -4    1    3    3    0  502 -0.15571118520E+02 -0.56761798886E+03 -0.17555676230E+03  0.59435211003E+03  0.12699999809E+01 0.  1.
</event>
<event>
 5   0  0.3093600E-05  0.1501296E+04  0.7818609E-02  0.8883591E-01
       -2   -1    0    0    0  501  0.00000000000E+00  0.00000000000E+00  0.61504581280E+03  0.61504581280E+03  0.25500000920E-02 0.  1.
        2   -1    0    0  501    0  0.00000000000E+00  0.00000000000E+00 -0.91614722656E+03  0.91614722657E+03  0.25500000920E-02 0. -1.
    10030    2    1    2    0    0  0.00000000000E+00  0.00000000000E+00 -0.30110141376E+03  0.15311930394E+04  0.15012961275E+04 0.  0.
        1    1    3    3  502    0 -0.58046066719E+03 -0.47239014220E+03 -0.91207105441E+02  0.75392689879E+03  0.50400001928E-02 0.  1.
       -1    1    3    3    0  502  0.58046066719E+03  0.47239014220E+03 -0.20989430832E+03  0.77726614058E+03  0.50400001928E-02 0. -1.
</event>
<event>
 5   0  0.1588657E-05  0.1499905E+04  0.7818609E-02  0.8884516E-01
        1   -1    0    0  501    0  0.00000000000E+00  0.00000000000E+00  0.17778264452E+04  0.17778264452E+04  0.50400001928E-02 0.  1.
       -1   -1    0    0    0  501  0.00000000000E+00  0.00000000000E+00 -0.31635741231E+03  0.31635741235E+03  0.50400001928E-02 0. -1.
    10030    2    1    2    0    0  0.00000000000E+00  0.00000000000E+00  0.14614690329E+04  0.20941838575E+04  0.14999047620E+04 0.  0.
        3    1    3    3  502    0  0.57801868389E+03 -0.50760804089E+02  0.13941131040E+04  0.15100442428E+04  0.10100000352E+00 0.  1.
       -3    1    3    3    0  502 -0.57801868389E+03  0.50760804089E+02  0.67355928848E+02  0.58413961474E+03  0.10100000352E+00 0. -1.
</event>
<event>
 5   0  0.2969498E-05  0.1500793E+04  0.7818609E-02  0.8883926E-01
       -2   -1    0    0    0  501  0.00000000000E+00  0.00000000000E+00  0.24334237350E+03  0.24334237351E+03  0.25500000920E-02 0. -1.
        2   -1    0    0  501    0  0.00000000000E+00  0.00000000000E+00 -0.23140026178E+04  0.23140026178E+04  0.25500000920E-02 0.  1.
    10030    2    1    2    0    0  0.00000000000E+00  0.00000000000E+00 -0.20706602443E+04  0.25573449913E+04  0.15007929762E+04 0.  0.
        3    1    3    3  502    0 -0.64111983388E+03 -0.26333654769E+03 -0.15254003347E+04  0.16754781318E+04  0.10100000352E+00 0.  1.
       -3    1    3    3    0  502  0.64111983388E+03  0.26333654769E+03 -0.54525990958E+03  0.88186685953E+03  0.10100000352E+00 0. -1.
</event>
<event>
 5   0  0.1533777E-05  0.1500860E+04  0.7818609E-02  0.8883881E-01
        1   -1    0    0  501    0  0.00000000000E+00  0.00000000000E+00  0.19231464989E+04  0.19231464989E+04  0.50400001928E-02 0. -1.
       -1   -1    0    0    0  501  0.00000000000E+00  0.00000000000E+00 -0.29282491726E+03  0.29282491731E+03  0.50400001928E-02 0.  1.
    10030    2    1    2    0    0  0.00000000000E+00  0.00000000000E+00  0.16303215816E+04  0.22159714162E+04  0.15008600394E+04 0.  0.
        5    1    3    3  502    0  0.22685945427E+03 -0.68759324865E+02 -0.23606978760E+03  0.33458047069E+03  0.46999998093E+01 0.  1.
       -5    1    3    3    0  502 -0.22685945427E+03  0.68759324865E+02  0.18663913692E+04  0.18813909455E+04  0.46999998093E+01 0. -1.
</event>
<event>
 5   0  0.3093600E-05  0.1499827E+04  0.7818609E-02  0.8884568E-01
       -2   -1    0    0    0  501  0.00000000000E+00  0.00000000000E+00  0.84284356040E+03  0.84284356040E+03  0.25500000920E-02 0.  1.
        2   -1    0    0  501    0  0.00000000000E+00  0.00000000000E+00 -0.66722979838E+03  0.66722979838E+03  0.25500000920E-02 0. -1.
    10030    2    1    2    0    0  0.00000000000E+00  0.00000000000E+00  0.17561376202E+03  0.15100733588E+04  0.14998271085E+04 0.  0.
        1    1    3    3  502    0 -0.59760592257E+03  0.45262286819E+03  0.68439058179E+02  0.75278430125E+03  0.50400001928E-02 0.  1.
       -1    1    3    3    0  502  0.59760592257E+03 -0.45262286819E+03  0.10717470384E+03  0.75728905754E+03  0.50400001928E-02 0. -1.
</event>
<event>
 5   0  0.2969498E-05  0.1500340E+04  0.7818609E-02  0.8884227E-01
       -2   -1    0    0    0  501  0.00000000000E+00  0.00000000000E+00  0.38544657222E+03  0.38544657223E+03  0.25500000920E-02 0.  1.
        2   -1    0    0  501    0  0.00000000000E+00  0.00000000000E+00 -0.14600076470E+04  0.14600076470E+04  0.25500000920E-02 0. -1.
    10030    2    1    2    0    0  0.00000000000E+00  0.00000000000E+00 -0.10745610748E+04  0.18454542192E+04  0.15003398855E+04 0.  0.
        3    1    3    3  502    0  0.44080278987E+02  0.70962889359E+03 -0.83155900341E+03  0.10940779789E+04  0.10100000352E+00 0. -1.
       -3    1    3    3    0  502 -0.44080278987E+02 -0.70962889359E+03 -0.24300207137E+03  0.75137624031E+03  0.10100000352E+00 0.  1.
</event>
<event>
 5   0  0.1533777E-05  0.1503429E+04  0.7818609E-02  0.8882176E-01
       -1   -1    0    0    0  501  0.00000000000E+00  0.00000000000E+00  0.59091999752E+03  0.59091999754E+03  0.50400001928E-02 0.  1.
        1   -1    0    0  501    0  0.00000000000E+00  0.00000000000E+00 -0.95626315360E+03  0.95626315361E+03  0.50400001928E-02 0. -1.
    10030    2    1    2    0    0  0.00000000000E+00  0.00000000000E+00 -0.36534315608E+03  0.15471831512E+04  0.15034294402E+04 0.  0.
        5    1    3    3  502    0 -0.65039198461E+03 -0.20644198400E+03 -0.50716527625E+03  0.85021569842E+03  0.46999998093E+01 0.  1.
       -5    1    3    3    0  502  0.65039198461E+03  0.20644198400E+03  0.14182212017E+03  0.69696745274E+03  0.46999998093E+01 0. -1.
</event>
<event>
 5   0  0.1643498E-05  0.1500268E+04  0.7818609E-02  0.8884275E-01
        1   -1    0    0  501    0  0.00000000000E+00  0.00000000000E+00  0.18067036239E+04  0.18067036239E+04  0.50400001928E-02 0.  1.
       -1   -1    0    0    0  501  0.00000000000E+00  0.00000000000E+00 -0.31145188015E+03  0.31145188019E+03  0.50400001928E-02 0. -1.
    10030    2    1    2    0    0  0.00000000000E+00  0.00000000000E+00  0.14952517438E+04  0.21181555041E+04  0.15002682968E+04 0.  0.
        4    1    3    3  502    0  0.44151993555E+03 -0.59044511157E+03  0.94292293039E+03  0.11969421660E+04  0.12699999809E+01 0. -1.
       -4    1    3    3    0  502 -0.44151993555E+03  0.59044511157E+03  0.55232881337E+03  0.92121333807E+03  0.12699999809E+01 0.  1.
</event>
<event>
 5   0  0.1580078E-05  0.1500337E+04  0.7818609E-02  0.8884229E-01
       -1   -1    0    0    0  501  0.00000000000E+00  0.00000000000E+00  0.10316273237E+04  0.10316273237E+04  0.50400001928E-02 0. -1.
        1   -1    0    0  501    0  0.00000000000E+00  0.00000000000E+00 -0.54550022982E+03  0.54550022984E+03  0.50400001928E-02 0.  1.
    10030    2    1    2    0    0  0.00000000000E+00  0.00000000000E+00  0.48612709391E+03  0.15771275536E+04  0.15003372184E+04 0.  0.
        2    1    3    3  502    0  0.98976688556E+02 -0.54218758390E+03  0.77802039056E+03  0.95345660056E+03  0.25500000920E-02 0. -1.
       -2    1    3    3    0  502 -0.98976688556E+02  0.54218758390E+03 -0.29189329665E+03  0.62367095303E+03  0.25500000920E-02 0.  1.
</event>
<event>
 5   0  0.3070497E-05  0.1495793E+04  0.7818609E-02  0.8887255E-01
       -2   -1    0    0    0  501  0.00000000000E+00  0.00000000000E+00  0.47255552215E+03  0.47255552216E+03  0.25500000920E-02 0. -1.
        2   -1    0    0  501    0  0.00000000000E+00  0.00000000000E+00 -0.11836691596E+04  0.11836691596E+04  0.25500000920E-02 0.  1.
    10030    2    1    2    0    0  0.00000000000E+00  0.00000000000E+00 -0.71111363745E+03  0.16562246818E+04  0.14957932983E+04 0.  0.
        4    1    3    3  502    0 -0.73022580246E+03 -0.59399811384E+02 -0.52197590704E+03  0.89956574001E+03  0.12699999809E+01 0.  1.
       -4    1    3    3    0  502  0.73022580246E+03  0.59399811384E+02 -0.18913773042E+03  0.75665894176E+03  0.12699999809E+01 0. -1.
</event>
<event>
 5   0  0.3093600E-05  0.1499543E+04  0.7818609E-02  0.8884757E-01
        2   -1    0    0  501    0  0.00000000000E+00  0.00000000000E+00  0.12038535629E+04  0.12038535629E+04  0.25500000920E-02 0.  1.
       -2   -1    0    0    0  501  0.00000000000E+00  0.00000000000E+00 -0.46696459456E+03  0.46696459457E+03  0.25500000920E-02 0. -1.
    10030    2    1    2    0    0  0.00000000000E+00  0.00000000000E+00  0.73688896838E+03  0.16708181575E+04  0.14995425848E+04 0.  0.
        1    1    3    3  502    0 -0.26708748696E+03  0.90376513450E+02  0.11425284035E+04  0.11768070329E+04  0.50400001928E-02 0.  1.
       -1    1    3    3    0  502  0.26708748696E+03 -0.90376513450E+02 -0.40563943512E+03  0.49401112460E+03  0.50400001928E-02 0. -1.
</event>
<event>
 5   0  0.1576214E-05  0.1497549E+04  0.7818609E-02  0.8886085E-01
       -1   -1    0    0    0  501  0.00000000000E+00  0.00000000000E+00  0.84436508497E+03  0.84436508498E+03  0.50400001928E-02 0. -1.
        1   -1    0    0  501    0  0.00000000000E+00  0.00000000000E+00 -0.66400559595E+03  0.66400559597E+03  0.50400001928E-02 0.  1.
    10030    2    1    2    0    0  0.00000000000E+00  0.00000000000E+00  0.18035948902E+03  0.15083706810E+04  0.14975488526E+04 0.  0.
        1    1    3    3  502    0 -0.29886503004E+02  0.59238151545E+03 -0.37012829889E+03  0.69914520707E+03  0.50400001928E-02 0.  1.
       -1    1    3    3    0  502  0.29886503004E+02 -0.59238151545E+03  0.55048778791E+03  0.80922547388E+03  0.50400001928E-02 0. -1.
</event>
<event>
 5   0  0.3030702E-05  0.1500228E+04  0.7818609E-02  0.8884302E-01
       -2   -1    0    0    0  501  0.00000000000E+00  0.00000000000E+00  0.91483790016E+03  0.91483790017E+03  0.25500000920E-02 0. -1.
        2   -1    0    0  501    0  0.00000000000E+00  0.00000000000E+00 -0.61504956428E+03  0.61504956429E+03  0.25500000920E-02 0.  1.
    10030    2    1    2    0    0  0.00000000000E+00  0.00000000000E+00  0.29978833588E+03  0.15298874645E+04  0.15002275186E+04 0.  0.
        5    1    3    3  502    0 -0.25856841007E+03 -0.25721416685E+03 -0.51852758350E+03  0.63396348094E+03  0.46999998093E+01 0.  1.
       -5    1    3    3    0  502  0.25856841007E+03  0.25721416685E+03  0.81831591938E+03  0.89592398351E+03  0.46999998093E+01 0. -1.
</event>
<event>
 5   0  0.1643498E-05  0.1500618E+04  0.7818609E-02  0.8884042E-01
       -1   -1    0    0    0  501  0.00000000000E+00  0.00000000000E+00  0.11394557526E+04  0.11394557526E+04  0.50400001928E-02 0.  1.
        1   -1    0    0  501    0  0.00000000000E+00  0.00000000000E+00 -0.49406370451E+03  0.49406370454E+03  0.50400001928E-02 0. -1.
    10030    2    1    2    0    0  0.00000000000E+00  0.00000000000E+00  0.64539204805E+03  0.16335194571E+04  0.15006181796E+04 0.  0.
        4    1    3    3  502    0 -0.11177913338E+03 -0.60622396210E+03 -0.14292463800E+03  0.63279627996E+03  0.12699999809E+01 0.  1.
       -4    1    3    3    0  502  0.11177913338E+03  0.60622396210E+03  0.78831668605E+03  0.10007231772E+04  0.12699999809E+01 0. -1.
</event>
<event>
 5   0  0.1588657E-05  0.1500400E+04  0.7818609E-02  0.8884187E-01
       -1   -1    0    0    0  501  0.00000000000E+00  0.00000000000E+00  0.30913581155E+03  0.30913581159E+03  0.50400001928E-02 0. -1.
        1   -1    0    0  501    0  0.00000000000E+00  0.00000000000E+00 -0.18205585700E+04  0.18205585700E+04  0.50400001928E-02 0.  1.
    10030    2    1    2    0    0  0.00000000000E+00  0.00000000000E+00 -0.15114227584E+04  0.21296943816E+04  0.15003997482E+04 0.  0.
        3    1    3    3  502    0 -0.42814911795E+03  0.63751859792E+02 -0.16254149357E+04  0.16820670885E+04  0.10100000352E+00 0.  1.
       -3    1    3    3    0  502  0.42814911795E+03 -0.63751859792E+02  0.11399217727E+03  0.44762729308E+03  0.10100000352E+00 0. -1.
</event>
<event>
 5   0  0.1116613E-05  0.1499583E+04  0.7818609E-02  0.8884730E-01
        3   -1    0    0  501    0  0.00000000000E+00  0.00000000000E+00  0.10555057397E+04  0.10555057446E+04  0.10100000352E+00 0. -1.
       -3   -1    0    0    0  501  0.00000000000E+00  0.00000000000E+00 -0.53262360875E+03  0.53262361832E+03  0.10100000352E+00 0.  1.
    10030    2    1    2    0    0  0.00000000000E+00  0.00000000000E+00  0.52288213097E+03  0.15881293629E+04  0.14995829921E+04 0.  0.
        5    1    3    3  502    0 -0.56453302238E+03 -0.36300871417E+03  0.61537895722E+03  0.91059662360E+03  0.46999998093E+01 0. -1.
       -5    1    3    3    0  502  0.56453302238E+03  0.36300871417E+03 -0.92496826249E+02  0.67753273927E+03  0.46999998093E+01 0.  1.
</event>
<event>
 5   0  0.1580078E-05  0.1500401E+04  0.7818609E-02  0.8884186E-01
       -1   -1    0    0    0  501  0.00000000000E+00  0.00000000000E+00  0.74468459918E+03  0.74468459919E+03  0.50400001928E-02 0. -1.
        1   -1    0    0  501    0  0.00000000000E+00  0.00000000000E+00 -0.75575756182E+03  0.75575756184E+03  0.50400001928E-02 0.  1.
    10030    2    1    2    0    0  0.00000000000E+00  0.00000000000E+00 -0.11072962644E+02  0.15004421610E+04  0.15004013024E+04 0.  0.
        2    1    3    3  502    0 -0.30088114197E+03 -0.10835597678E+03 -0.68417896470E+03  0.75522932613E+03  0.25500000920E-02 0.  1.
       -2    1    3    3    0  502  0.30088114197E+03  0.10835597678E+03  0.67310600206E+03  0.74521283491E+03  0.25500000920E-02 0. -1.
</event>
<event>
 5   0  0.3070497E-05  0.1500194E+04  0.7818609E-02  0.8884324E-01
       -2   -1    0    0    0  501  0.00000000000E+00  0.00000000000E+00  0.32772022932E+03  0.32772022933E+03  0.25500000920E-02 0. -1.
        2   -1    0    0  501    0  0.00000000000E+00  0.00000000000E+00 -0.17168474569E+04  0.17168474569E+04  0.25500000920E-02 0.  1.
    10030    2    1    2    0    0  0.00000000000E+00  0.00000000000E+00 -0.13891272276E+04  0.20445676862E+04  0.15001941772E+04 0.  0.
        4    1    3    3  502    0 -0.29362372887E+03 -0.26591720650E+03 -0.15626555326E+04  0.16120858480E+04  0.12699999809E+01 0.  1.
       -4    1    3    3    0  502  0.29362372887E+03  0.26591720650E+03  0.17352830500E+03  0.43248183824E+03  0.12699999809E+01 0. -1.
</event>
<event>
 5   0  0.1576214E-05  0.1499928E+04  0.7818609E-02  0.8884501E-01
        1   -1    0    0  501    0  0.00000000000E+00  0.00000000000E+00  0.17582492232E+04  0.17582492232E+04  0.50400001928E-02 0.  1.
       -1   -1    0    0    0  501  0.00000000000E+00  0.00000000000E+00 -0.31988985927E+03  0.31988985931E+03  0.50400001928E-02 0. -1.
    10030    2    1    2    0    0  0.00000000000E+00  0.00000000000E+00  0.14383593639E+04  0.20781390825E+04  0.14999281271E+04 0.  0.
        1    1    3    3  502    0  0.69913229176E+03  0.25023067509E+03  0.57357276821E+03  0.93828943967E+03  0.50400001928E-02 0. -1.
       -1    1    3    3    0  502 -0.69913229176E+03 -0.25023067509E+03  0.86478659571E+03  0.11398496428E+04  0.50400001928E-02 0.  1.
</event>
<event>
 5   0  0.1588657E-05  0.1500023E+04  0.7818609E-02  0.8884437E-01
        1   -1    0    0  501    0  0.00000000000E+00  0.00000000000E+00  0.71545175237E+03  0.71545175239E+03  0.50400001928E-02 0. -1.
       -1   -1    0    0    0  501  0.00000000000E+00  0.00000000000E+00 -0.78624109058E+03  0.78624109060E+03  0.50400001928E-02 0.  1.
    10030    2    1    2    0    0  0.00000000000E+00  0.00000000000E+00 -0.70789338206E+02  0.15016928430E+04  0.15000234212E+04 0.  0.
        3    1    3    3  502    0  0.43376471587E+03  0.41904495723E+03  0.41093449750E+03  0.72980660202E+03  0.10100000352E+00 0. -1.
       -3    1    3    3    0  502 -0.43376471587E+03 -0.41904495723E+03 -0.48172383570E+03  0.77188624097E+03  0.10100000352E+00 0.  1.
</event>
<event>
 5   0  0.3018308E-05  0.1499817E+04  0.7818609E-02  0.8884575E-01
        2   -1    0    0  501    0  0.00000000000E+00  0.00000000000E+00  0.23526798850E+04  0.23526798850E+04  0.25500000920E-02 0. -1.
       -2   -1    0    0    0  501  0.00000000000E+00  0.00000000000E+00 -0.23903067866E+03  0.23903067868E+03  0.25500000920E-02 0.  1.
    10030    2    1    2    0    0  0.00000000000E+00  0.00000000000E+00  0.21136492063E+04  0.25917105637E+04  0.14998168816E+04 0.  0.
        2    1    3    3  502    0 -0.48546470540E+02 -0.64149519389E+03  0.39094362251E+03  0.75280127496E+03  0.25500000920E-02 0.  1.
       -2    1    3    3    0  502  0.48546470540E+02  0.64149519389E+03  0.17227055838E+04  0.18389092887E+04  0.25500000920E-02 0. -1.
</event>
<event>
 5   0  0.3070497E-05  0.1499796E+04  0.7818609E-02  0.8884589E-01
        2   -1    0    0  501    0  0.00000000000E+00  0.00000000000E+00  0.15022797052E+04  0.15022797052E+04  0.25500000920E-02 0. -1.
       -2   -1    0    0    0  501  0.00000000000E+00  0.00000000000E+00 -0.37432885207E+03  0.37432885208E+03  0.25500000920E-02 0.  1.
    10030    2    1    2    0    0  0.00000000000E+00  0.00000000000E+00  0.11279508532E+04  0.18766085573E+04  0.14997955028E+04 0.  0.
        4    1    3    3  502    0  0.45271401744E+03 -0.48373748380E+03  0.10035039510E+04  0.12024864770E+04  0.12699999809E+01 0. -1.
       -4    1    3    3    0  502 -0.45271401744E+03  0.48373748380E+03  0.12444690219E+03  0.67412208033E+03  0.12699999809E+01 0.  1.
</event>
<event>
 5   0  0.1533777E-05  0.1500078E+04  0.7818609E-02  0.8884401E-01
       -1   -1    0    0    0  501  0.00000000000E+00  0.00000000000E+00  0.52985158311E+03  0.52985158314E+03  0.50400001928E-02 0. -1.
        1   -1    0    0  501    0  0.00000000000E+00  0.00000000000E+00 -0.10617279492E+04  0.10617279492E+04  0.50400001928E-02 0.  1.
    10030    2    1    2    0    0  0.00000000000E+00  0.00000000000E+00 -0.53187636609E+03  0.15915795324E+04  0.15000776443E+04 0.  0.
        5    1    3    3  502    0  0.70599230642E+03 -0.16841808511E+02 -0.53398956631E+03  0.88536756782E+03  0.46999998093E+01 0.  1.
       -5    1    3    3    0  502 -0.70599230642E+03  0.16841808511E+02  0.21132002161E+01  0.70621196453E+03  0.46999998093E+01 0. -1.
</event>
<event>
 5   0  0.3070497E-05  0.1499807E+04  0.7818609E-02  0.8884581E-01
       -2   -1    0    0    0  501  0.00000000000E+00  0.00000000000E+00  0.71455828491E+03  0.71455828491E+03  0.25500000920E-02 0. -1.
        2   -1    0    0  501    0  0.00000000000E+00  0.00000000000E+00 -0.78699694779E+03  0.78699694779E+03  0.25500000920E-02 0.  1.
    10030    2    1    2    0    0  0.00000000000E+00  0.00000000000E+00 -0.72438662880E+02  0.15015552327E+04  0.14998069066E+04 0.  0.
        4    1    3    3  502    0 -0.19812616163E+03  0.69269665378E+03  0.17203985087E+03  0.74073068876E+03  0.12699999809E+01 0.  1.
       -4    1    3    3    0  502  0.19812616163E+03 -0.69269665378E+03 -0.24447851375E+03  0.76082454395E+03  0.12699999809E+01 0. -1.
</event>
<event>
 5   0  0.1580078E-05  0.1499489E+04  0.7818609E-02  0.8884793E-01
        1   -1    0    0  501    0  0.00000000000E+00  0.00000000000E+00  0.84669098501E+03  0.84669098503E+03  0.50400001928E-02 0.  1.
       -1   -1    0    0    0  501  0.00000000000E+00  0.00000000000E+00 -0.66389867856E+03  0.66389867858E+03  0.50400001928E-02 0. -1.
    10030    2    1    2    0    0  0.00000000000E+00  0.00000000000E+00  0.18279230646E+03  0.15105896636E+04  0.14994892812E+04 0.  0.
        2    1    3    3  502    0 -0.31428498145E+03  0.32756401827E+03  0.69250739627E+03  0.82803365241E+03  0.25500000920E-02 0.  1.
       -2    1    3    3    0  502  0.31428498145E+03 -0.32756401827E+03 -0.50971508981E+03  0.68255601120E+03  0.25500000920E-02 0. -1.
</event>
<event>
 5   0  0.3030702E-05  0.1500380E+04  0.7818609E-02  0.8884200E-01
       -2   -1    0    0    0  501  0.00000000000E+00  0.00000000000E+00  0.13697859758E+04  0.13697859758E+04  0.25500000920E-02 0. -1.
        2   -1    0    0  501    0  0.00000000000E+00  0.00000000000E+00 -0.41085612234E+03  0.41085612235E+03  0.25500000920E-02 0.  1.
    10030    2    1    2    0    0  0.00000000000E+00  0.00000000000E+00  0.95892985345E+03  0.17806420981E+04  0.15003798912E+04 0.  0.
        5    1    3    3  502    0  0.21456324168E+03 -0.29399289724E+03 -0.29903374079E+03  0.47107587121E+03  0.46999998093E+01 0.  1.
       -5    1    3    3    0  502 -0.21456324168E+03  0.29399289724E+03  0.12579635942E+04  0.13095662269E+04  0.46999998093E+01 0. -1.
</event>
<event>
 5   0  0.1643498E-05  0.1501545E+04  0.7818609E-02  0.8883426E-01
        1   -1    0    0  501    0  0.00000000000E+00  0.00000000000E+00  0.69767417573E+03  0.69767417574E+03  0.50400001928E-02 0.  1.
       -1   -1    0    0    0  501  0.00000000000E+00  0.00000000000E+00 -0.80791215052E+03  0.80791215054E+03  0.50400001928E-02 0. -1.
    10030    2    1    2    0    0  0.00000000000E+00  0.00000000000E+00 -0.11023797480E+03  0.15055863263E+04  0.15015451291E+04 0.  0.
        4    1    3    3  502    0 -0.41185986947E+03 -0.40963438985E+03  0.42179642513E+03  0.71787375114E+03  0.12699999809E+01 0.  1.
       -4    1    3    3    0  502  0.41185986947E+03  0.40963438985E+03 -0.53203439993E+03  0.78771257514E+03  0.12699999809E+01 0. -1.
</event>
<event>
 5   0  0.2969498E-05  0.1500225E+04  0.7818609E-02  0.8884303E-01
        2   -1    0    0  501    0  0.00000000000E+00  0.00000000000E+00  0.14023771849E+04  0.14023771849E+04  0.25500000920E-02 0. -1.
       -2   -1    0    0    0  501  0.00000000000E+00  0.00000000000E+00 -0.40122503765E+03  0.40122503766E+03  0.25500000920E-02 0.  1.
    10030    2    1    2    0    0  0.00000000000E+00  0.00000000000E+00  0.10011521472E+04  0.18036022226E+04  0.15002251015E+04 0.  0.
        3    1    3    3  502    0 -0.55906299928E+03  0.49928505116E+03  0.53524987045E+03  0.92104800825E+03  0.10100000352E+00 0.  1.
       -3    1    3    3    0  502  0.55906299928E+03 -0.49928505116E+03  0.46590227679E+03  0.88255421431E+03  0.10100000352E+00 0. -1.
</event>
<event>
 5   0  0.1116613E-05  0.1500291E+04  0.7818609E-02  0.8884259E-01
       -4   -1    0    0    0  501  0.00000000000E+00  0.00000000000E+00  0.10852136167E+04  0.10852143598E+04  0.12699999809E+01 0. -1.
        4   -1    0    0  501    0  0.00000000000E+00  0.00000000000E+00 -0.51853067363E+03  0.51853222889E+03  0.12699999809E+01 0.  1.
    10030    2    1    2    0    0  0.00000000000E+00  0.00000000000E+00  0.56668294303E+03  0.16037465887E+04  0.15002911593E+04 0.  0.
        5    1    3    3  502    0 -0.59778621475E+03 -0.19768983880E+03 -0.15253436570E+03  0.64785681569E+03  0.46999998093E+01 0.  1.
       -5    1    3    3    0  502  0.59778621475E+03  0.19768983880E+03  0.71921730874E+03  0.95588977298E+03  0.46999998093E+01 0. -1.
</event>
<event>
 5   0  0.3018308E-05  0.1500125E+04  0.7818609E-02  0.8884370E-01
       -2   -1    0    0    0  501  0.00000000000E+00  0.00000000000E+00  0.25174554577E+03  0.25174554578E+03  0.25500000920E-02 0. -1.
        2   -1    0    0  501    0  0.00000000000E+00  0.00000000000E+00 -0.22347712908E+04  0.22347712908E+04  0.25500000920E-02 0.  1.
    10030    2    1    2    0    0  0.00000000000E+00  0.00000000000E+00 -0.19830257450E+04  0.24865168366E+04  0.15001249525E+04 0.  0.
        2    1    3    3  502    0  0.43863133992E+02  0.73246436354E+03 -0.12491827543E+04  0.14487531094E+04  0.25500000920E-02 0.  1.
       -2    1    3    3    0  502 -0.43863133992E+02 -0.73246436354E+03 -0.73384299077E+03  0.10377637272E+04  0.25500000920E-02 0. -1.
</event>
<event>
 5   0  0.1116613E-05  0.1500180E+04  0.7818609E-02  0.8884333E-01
       -3   -1    0    0    0  501  0.00000000000E+00  0.00000000000E+00  0.75732659328E+03  0.75732660001E+03  0.10100000352E+00 0. -1.
        3   -1    0    0  501    0  0.00000000000E+00  0.00000000000E+00 -0.74292244992E+03  0.74292245678E+03  0.10100000352E+00 0.  1.
    10030    2    1    2    0    0  0.00000000000E+00  0.00000000000E+00  0.14404143358E+02  0.15002490568E+04  0.15001799069E+04 0.  0.
        4    1    3    3  502    0  0.47000329354E+03  0.30052395509E+03  0.50863876767E+03  0.75493890640E+03  0.12699999809E+01 0. -1.
       -4    1    3    3    0  502 -0.47000329354E+03 -0.30052395509E+03 -0.49423462431E+03  0.74531015040E+03  0.12699999809E+01 0.  1.
</event>
<event>
 5   0  0.3070497E-05  0.1500417E+04  0.7818609E-02  0.8884175E-01
       -2   -1    0    0    0  501  0.00000000000E+00  0.00000000000E+00  0.10229038576E+04  0.10229038576E+04  0.25500000920E-02 0.  1.
        2   -1    0    0  501    0  0.00000000000E+00  0.00000000000E+00 -0.55021115510E+03  0.55021115510E+03  0.25500000920E-02 0. -1.
    10030    2    1    2    0    0  0.00000000000E+00  0.00000000000E+00  0.47269270246E+03  0.15731150127E+04  0.15004174260E+04 0.  0.
        4    1    3    3  502    0  0.87177674564E+02 -0.52932058612E+03  0.78619025409E+03  0.95177568700E+03  0.12699999809E+01 0.  1.
       -4    1    3    3    0  502 -0.87177674564E+02  0.52932058612E+03 -0.31349755164E+03  0.62133932566E+03  0.12699999809E+01 0. -1.
</event>
<event>
 5   0  0.3030702E-05  0.1496257E+04  0.7818609E-02  0.8886946E-01
       -2   -1    0    0    0  501  0.00000000000E+00  0.00000000000E+00  0.29171588500E+03  0.29171588501E+03  0.25500000920E-02 0. -1.
        2   -1    0    0  501    0  0.00000000000E+00  0.00000000000E+00 -0.19186347866E+04  0.19186347866E+04  0.25500000920E-02 0.  1.
    10030    2    1    2    0    0  0.00000000000E+00  0.00000000000E+00 -0.16269189016E+04  0.22103506716E+04  0.14962569897E+04 0.  0.
        5    1    3    3  502    0  0.11602595738E+03 -0.47858165461E+03 -0.16454190260E+04  0.17175355262E+04  0.46999998093E+01 0.  1.
       -5    1    3    3    0  502 -0.11602595738E+03  0.47858165461E+03  0.18500124346E+02  0.49281514538E+03  0.46999998093E+01 0. -1.
</event>
<event>
 5   0  0.1643498E-05  0.1499504E+04  0.7818609E-02  0.8884783E-01
        1   -1    0    0  501    0  0.00000000000E+00  0.00000000000E+00  0.99151609774E+03  0.99151609776E+03  0.50400001928E-02 0.  1.
       -1   -1    0    0    0  501  0.00000000000E+00  0.00000000000E+00 -0.56693825744E+03  0.56693825746E+03  0.50400001928E-02 0. -1.
    10030    2    1    2    0    0  0.00000000000E+00  0.00000000000E+00  0.42457784030E+03  0.15584543552E+04  0.14995044631E+04 0.  0.
        4    1    3    3  502    0 -0.54621639931E+03 -0.18318410870E+03 -0.28638422909E+03  0.64337105323E+03  0.12699999809E+01 0. -1.
       -4    1    3    3    0  502  0.54621639931E+03  0.18318410870E+03  0.71096206940E+03  0.91508330199E+03  0.12699999809E+01 0.  1.
</event>
<event>
 5   0  0.1580078E-05  0.1498914E+04  0.7818609E-02  0.8885176E-01
       -1   -1    0    0    0  501  0.00000000000E+00  0.00000000000E+00  0.40940117128E+03  0.40940117131E+03  0.50400001928E-02 0. -1.
        1   -1    0    0  501    0  0.00000000000E+00  0.00000000000E+00 -0.13719689251E+04  0.13719689251E+04  0.50400001928E-02 0.  1.
    10030    2    1    2    0    0  0.00000000000E+00  0.00000000000E+00 -0.96256775379E+03  0.17813700964E+04  0.14989138533E+04 0.  0.
        2    1    3    3  502    0  0.73159113418E+03 -0.10188258914E+03 -0.63198655966E+03  0.97211761695E+03  0.25500000920E-02 0. -1.
       -2    1    3    3    0  502 -0.73159113418E+03  0.10188258914E+03 -0.33058119413E+03  0.80925247945E+03  0.25500000920E-02 0.  1.
</event>
<event>
 5   0  0.3030702E-05  0.1499623E+04  0.7818609E-02  0.8884704E-01
       -2   -1    0    0    0  501  0.00000000000E+00  0.00000000000E+00  0.47022220593E+03  0.47022220594E+03  0.25500000920E-02 0.  1.
        2   -1    0    0  501    0  0.00000000000E+00  0.00000000000E+00 -0.11956409270E+04  0.11956409270E+04  0.25500000920E-02 0. -1.
    10030    2    1    2    0    0  0.00000000000E+00  0.00000000000E+00 -0.72541872109E+03  0.16658631330E+04  0.14996225048E+04 0.  0.
        5    1    3    3  502    0 -0.69373722523E+03  0.15312316682E+03 -0.62902924361E+03  0.94890353629E+03  0.46999998093E+01 0. -1.
       -5    1    3    3    0  502  0.69373722523E+03 -0.15312316682E+03 -0.96389477482E+02  0.71695959666E+03  0.46999998093E+01 0.  1.
</event>
<event>
 5   0  0.1588657E-05  0.1499293E+04  0.7818609E-02  0.8884923E-01
       -1   -1    0    0    0  501  0.00000000000E+00  0.00000000000E+00  0.53673972769E+03  0.53673972772E+03  0.50400001928E-02 0.  1.
        1   -1    0    0  501    0  0.00000000000E+00  0.00000000000E+00 -0.10470060673E+04  0.10470060673E+04  0.50400001928E-02 0. -1.
    10030    2    1    2    0    0  0.00000000000E+00  0.00000000000E+00 -0.51026633962E+03  0.15837457950E+04  0.14992928353E+04 0.  0.
        3    1    3    3  502    0  0.32413786998E+03  0.66518215173E+03 -0.12821061528E+03  0.75097977723E+03  0.10100000352E+00 0.  1.
       -3    1    3    3    0  502 -0.32413786998E+03 -0.66518215173E+03 -0.38205572434E+03  0.83276601782E+03  0.10100000352E+00 0. -1.
</event>
<event>
 5   0  0.3093600E-05  0.1500392E+04  0.7818609E-02  0.8884192E-01
       -2   -1    0    0    0  501  0.00000000000E+00  0.00000000000E+00  0.15414779800E+04  0.15414779800E+04  0.25500000920E-02 0.  1.
        2   -1    0    0  501    0  0.00000000000E+00  0.00000000000E+00 -0.36510044883E+03  0.36510044884E+03  0.25500000920E-02 0. -1.
    10030    2    1    2    0    0  0.00000000000E+00  0.00000000000E+00  0.11763775312E+04  0.19065784289E+04  0.15003923519E+04 0.  0.
        1    1    3    3  502    0  0.46069358973E+03 -0.58679544903E+03  0.48791600303E+03  0.89141993957E+03  0.50400001928E-02 0. -1.
       -1    1    3    3    0  502 -0.46069358973E+03  0.58679544903E+03  0.68846152814E+03  0.10151584893E+04  0.50400001928E-02 0.  1.
</event>
<event>
 5   0  0.1576214E-05  0.1497936E+04  0.7818609E-02  0.8885827E-01
        1   -1    0    0  501    0  0.00000000000E+00  0.00000000000E+00  0.56084915424E+03  0.56084915427E+03  0.50400001928E-02 0. -1.
       -1   -1    0    0    0  501  0.00000000000E+00  0.00000000000E+00 -0.10001850696E+04  0.10001850697E+04  0.50400001928E-02 0.  1.
    10030    2    1    2    0    0  0.00000000000E+00  0.00000000000E+00 -0.43933591540E+03  0.15610342239E+04  0.14979358470E+04 0.  0.
        1    1    3    3  502    0 -0.40754785971E+03 -0.20523230377E+03 -0.83860284284E+03  0.95470952887E+03  0.50400001928E-02 0.  1.
       -1    1    3    3    0  502  0.40754785971E+03  0.20523230377E+03  0.39926692744E+03  0.60632469506E+03  0.50400001928E-02 0. -1.
</event>
<event>
 5   0  0.3093600E-05  0.1499958E+04  0.7818609E-02  0.8884481E-01
        2   -1    0    0  501    0  0.00000000000E+00  0.00000000000E+00  0.75811081024E+03  0.75811081024E+03  0.25500000920E-02 0.  1.
       -2   -1    0    0    0  501  0.00000000000E+00  0.00000000000E+00 -0.74193457077E+03  0.74193457078E+03  0.25500000920E-02 0. -1.
    10030    2    1    2    0    0  0.00000000000E+00  0.00000000000E+00  0.16176239465E+02  0.15000453810E+04  0.14999581575E+04 0.  0.
        1    1    3    3  502    0  0.36591913728E+03 -0.65276853586E+03 -0.41563958123E+02  0.74948725077E+03  0.50400001928E-02 0. -1.
       -1    1    3    3    0  502 -0.36591913728E+03  0.65276853586E+03  0.57740197587E+02  0.75055813024E+03  0.50400001928E-02 0.  1.
</event>
<event>
 5   0  0.3093600E-05  0.1500050E+04  0.7818609E-02  0.8884420E-01
        2   -1    0    0  501    0  0.00000000000E+00  0.00000000000E+00  0.14305532613E+04  0.14305532613E+04  0.25500000920E-02 0.  1.
       -2   -1    0    0    0  501  0.00000000000E+00  0.00000000000E+00 -0.39323059974E+03  0.39323059975E+03  0.25500000920E-02 0. -1.
    10030    2    1    2    0    0  0.00000000000E+00  0.00000000000E+00  0.10373226616E+04  0.18237838611E+04  0.15000497551E+04 0.  0.
        1    1    3    3  502    0 -0.45420523333E+03  0.57301184932E+02 -0.20365131464E+03  0.50105855722E+03  0.50400001928E-02 0. -1.
       -1    1    3    3    0  502  0.45420523333E+03 -0.57301184932E+02  0.12409739762E+04  0.13227253039E+04  0.50400001928E-02 0.  1.
</event>
<event>
 5   0  0.3030702E-05  0.1500028E+04  0.7818609E-02  0.8884434E-01
        2   -1    0    0  501    0  0.00000000000E+00  0.00000000000E+00  0.24054411359E+04  0.24054411359E+04  0.25500000920E-02 0.  1.
       -2   -1    0    0    0  501  0.00000000000E+00  0.00000000000E+00 -0.23385359295E+03  0.23385359297E+03  0.25500000920E-02 0. -1.
    10030    2    1    2    0    0  0.00000000000E+00  0.00000000000E+00  0.21715875430E+04  0.26392947289E+04  0.15000280695E+04 0.  0.
        5    1    3    3  502    0 -0.12025183964E+03  0.40245878251E+03  0.21790423893E+04  0.22191623196E+04  0.46999998093E+01 0.  1.
       -5    1    3    3    0  502  0.12025183964E+03 -0.40245878251E+03 -0.74548463419E+01  0.42013240923E+03  0.46999998093E+01 0. -1.
</event>
<event>
 5   0  0.2969498E-05  0.1501559E+04  0.7818609E-02  0.8883417E-01
        2   -1    0    0  501    0  0.00000000000E+00  0.00000000000E+00  0.47355751485E+03  0.47355751486E+03  0.25500000920E-02 0. -1.
       -2   -1    0    0    0  501  0.00000000000E+00  0.00000000000E+00 -0.11902881210E+04  0.11902881210E+04  0.25500000920E-02 0.  1.
    10030    2    1    2    0    0  0.00000000000E+00  0.00000000000E+00 -0.71673060613E+03  0.16638456358E+04  0.15015590358E+04 0.  0.
        3    1    3    3  502    0  0.14577461140E+03  0.36020397848E+03  0.35346013843E+03  0.52529156009E+03  0.10100000352E+00 0. -1.
       -3    1    3    3    0  502 -0.14577461140E+03 -0.36020397848E+03 -0.10701907446E+04  0.11385540757E+04  0.10100000352E+00 0.  1.
</event>
<event>
 5   0  0.1580078E-05  0.1499998E+04  0.7818609E-02  0.8884454E-01
       -1   -1    0    0    0  501  0.00000000000E+00  0.00000000000E+00  0.51365132082E+03  0.51365132085E+03  0.50400001928E-02 0.  1.
        1   -1    0    0  501    0  0.00000000000E+00  0.00000000000E+00 -0.10950978542E+04  0.10950978542E+04  0.50400001928E-02 0. -1.
    10030    2    1    2    0    0  0.00000000000E+00  0.00000000000E+00 -0.58144653339E+03  0.16087491751E+04  0.14999979457E+04 0.  0.
        2    1    3    3  502    0  0.26630303341E+02  0.56033381281E+03  0.24317896331E+03  0.61140752616E+03  0.25500000920E-02 0.  1.
       -2    1    3    3    0  502 -0.26630303341E+02 -0.56033381281E+03 -0.82462549670E+03  0.99734164891E+03  0.25500000920E-02 0. -1.
</event>
<event>
 5   0  0.1588657E-05  0.1500051E+04  0.7818609E-02  0.8884419E-01
       -1   -1    0    0    0  501  0.00000000000E+00  0.00000000000E+00  0.52180339465E+03  0.52180339467E+03  0.50400001928E-02 0. -1.
        1   -1    0    0  501    0  0.00000000000E+00  0.00000000000E+00 -0.10780648556E+04  0.10780648557E+04  0.50400001928E-02 0.  1.
    10030    2    1    2    0    0  0.00000000000E+00  0.00000000000E+00 -0.55626146100E+03  0.15998682503E+04  0.15000505343E+04 0.  0.
        3    1    3    3  502    0 -0.56060967361E+03  0.20626304417E+03  0.20560290579E+03  0.63174378874E+03  0.10100000352E+00 0. -1.
       -3    1    3    3    0  502  0.56060967361E+03 -0.20626304417E+03 -0.76186436679E+03  0.96812446159E+03  0.10100000352E+00 0.  1.
</event>
<event>
 5   0  0.1116613E-05  0.1500022E+04  0.7818609E-02  0.8884438E-01
       -3   -1    0    0    0  501  0.00000000000E+00  0.00000000000E+00  0.69823063824E+03  0.69823064555E+03  0.10100000352E+00 0. -1.
        3   -1    0    0  501    0  0.00000000000E+00  0.00000000000E+00 -0.80563104816E+03  0.80563105449E+03  0.10100000352E+00 0.  1.
    10030    2    1    2    0    0  0.00000000000E+00  0.00000000000E+00 -0.10740040991E+03  0.15038617000E+04  0.15000217214E+04 0.  0.
        1    1    3    3  502    0 -0.67693449034E+03 -0.90494245922E+02  0.25707199865E+03  0.72973661364E+03  0.50400001928E-02 0. -1.
       -1    1    3    3    0  502  0.67693449034E+03  0.90494245922E+02 -0.36447240857E+03  0.77412508640E+03  0.50400001928E-02 0.  1.
</event>
<event>
 5   0  0.1580078E-05  0.1500014E+04  0.7818609E-02  0.8884444E-01
       -1   -1    0    0    0  501  0.00000000000E+00  0.00000000000E+00  0.75761452042E+03  0.75761452044E+03  0.50400001928E-02 0. -1.
        1   -1    0    0  501    0  0.00000000000E+00  0.00000000000E+00 -0.74247586845E+03  0.74247586847E+03  0.50400001928E-02 0.  1.
    10030    2    1    2    0    0  0.00000000000E+00  0.00000000000E+00  0.15138651966E+02  0.15000903889E+04  0.15000139986E+04 0.  0.
        2    1    3    3  502    0  0.49285958314E+02 -0.68024922813E+03 -0.30444396830E+03  0.74689641042E+03  0.25500000920E-02 0.  1.
       -2    1    3    3    0  502 -0.49285958314E+02  0.68024922813E+03  0.31958262027E+03  0.75319397849E+03  0.25500000920E-02 0. -1.
</event>
<event>
 5   0  0.1576214E-05  0.1500786E+04  0.7818609E-02  0.8883931E-01
       -1   -1    0    0    0  501  0.00000000000E+00  0.00000000000E+00  0.84649520318E+03  0.84649520319E+03  0.50400001928E-02 0. -1.
        1   -1    0    0  501    0  0.00000000000E+00  0.00000000000E+00 -0.66520095814E+03  0.66520095816E+03  0.50400001928E-02 0.  1.
    10030    2    1    2    0    0  0.00000000000E+00  0.00000000000E+00  0.18129424504E+03  0.15116961614E+04  0.15007856879E+04 0.  0.
        1    1    3    3  502    0 -0.38612971317E+03  0.13739628823E+03  0.72379896928E+03  0.83178052596E+03  0.50400001928E-02 0. -1.
       -1    1    3    3    0  502  0.38612971317E+03 -0.13739628823E+03 -0.54250472424E+03  0.67991563540E+03  0.50400001928E-02 0.  1.
</event>
<event>
 5   0  0.3093600E-05  0.1500592E+04  0.7818609E-02  0.8884059E-01
       -2   -1    0    0    0  501  0.00000000000E+00  0.00000000000E+00  0.41873744434E+03  0.41873744435E+03  0.25500000920E-02 0.  1.
        2   -1    0    0  501    0  0.00000000000E+00  0.00000000000E+00 -0.13443846448E+04  0.13443846448E+04  0.25500000920E-02 0. -1.
    10030    2    1    2    0    0  0.00000000000E+00  0.00000000000E+00 -0.92564720050E+03  0.17631220892E+04  0.15005921370E+04 0.  0.
        1    1    3    3  502    0 -0.70432972260E+03 -0.15828419839E+03 -0.70307145424E+03  0.10076922722E+04  0.50400001928E-02 0. -1.
       -1    1    3    3    0  502  0.70432972260E+03  0.15828419839E+03 -0.22257574626E+03  0.75542981702E+03  0.50400001928E-02 0.  1.
</event>
<event>
 5   0  0.1588657E-05  0.1500144E+04  0.7818609E-02  0.8884357E-01
        1   -1    0    0  501    0  0.00000000000E+00  0.00000000000E+00  0.16581285630E+04  0.16581285630E+04  0.50400001928E-02 0. -1.
       -1   -1    0    0    0  501  0.00000000000E+00  0.00000000000E+00 -0.33930297083E+03  0.33930297087E+03  0.50400001928E-02 0.  1.
    10030    2    1    2    0    0  0.00000000000E+00  0.00000000000E+00  0.13188255922E+04  0.19974315339E+04  0.15001439231E+04 0.  0.
        3    1    3    3  502    0 -0.72317260335E+03  0.34921357703E+02  0.39846110163E+03  0.82641961205E+03  0.10100000352E+00 0.  1.
       -3    1    3    3    0  502  0.72317260335E+03 -0.34921357703E+02  0.92036449056E+03  0.11710119219E+04  0.10100000352E+00 0. -1.
</event>
<event>
 5   0  0.3018308E-05  0.1501108E+04  0.7818609E-02  0.8883716E-01
       -2   -1    0    0    0  501  0.00000000000E+00  0.00000000000E+00  0.58368976782E+03  0.58368976782E+03  0.25500000920E-02 0.  1.
        2   -1    0    0  501    0  0.00000000000E+00  0.00000000000E+00 -0.96512132172E+03  0.96512132173E+03  0.25500000920E-02 0. -1.
    10030    2    1    2    0    0  0.00000000000E+00  0.00000000000E+00 -0.38143155390E+03  0.15488110896E+04  0.15011081776E+04 0.  0.
        2    1    3    3  502    0 -0.39104461944E+03  0.48061674466E+02 -0.84984830889E+03  0.93673260169E+03  0.25500000920E-02 0. -1.
       -2    1    3    3    0  502  0.39104461944E+03 -0.48061674466E+02  0.46841675498E+03  0.61207848786E+03  0.25500000920E-02 0.  1.
</event>
<event>
 5   0  0.1533777E-05  0.1500045E+04  0.7818609E-02  0.8884423E-01
        1   -1    0    0  501    0  0.00000000000E+00  0.00000000000E+00  0.91522038527E+03  0.91522038528E+03  0.50400001928E-02 0.  1.
       -1   -1    0    0    0  501  0.00000000000E+00  0.00000000000E+00 -0.61464277431E+03  0.61464277433E+03  0.50400001928E-02 0. -1.
    10030    2    1    2    0    0  0.00000000000E+00  0.00000000000E+00  0.30057761096E+03  0.15298631596E+04  0.15000447950E+04 0.  0.
        5    1    3    3  502    0  0.16035150212E+02 -0.38040334558E+03  0.80931305210E+03  0.89441239799E+03  0.46999998093E+01 0.  1.
       -5    1    3    3    0  502 -0.16035150212E+02  0.38040334558E+03 -0.50873544115E+03  0.63545076162E+03  0.46999998093E+01 0. -1.
</event>
<event>
 5   0  0.3070497E-05  0.1500169E+04  0.7818609E-02  0.8884341E-01
        2   -1    0    0  501    0  0.00000000000E+00  0.00000000000E+00  0.16844650978E+04  0.16844650978E+04  0.25500000920E-02 0.  1.
       -2   -1    0    0    0  501  0.00000000000E+00  0.00000000000E+00 -0.33400893767E+03  0.33400893768E+03  0.25500000920E-02 0. -1.
    10030    2    1    2    0    0  0.00000000000E+00  0.00000000000E+00  0.13504561601E+04  0.20184740354E+04  0.15001685210E+04 0.  0.
        4    1    3    3  502    0  0.46366427052E+03  0.67871903137E+02 -0.11281774248E+03  0.48199648018E+03  0.12699999809E+01 0. -1.
       -4    1    3    3    0  502 -0.46366427052E+03 -0.67871903137E+02  0.14632739026E+04  0.15364775553E+04  0.12699999809E+01 0.  1.
</event>
<event>
 5   0  0.3093600E-05  0.1501371E+04  0.7818609E-02  0.8883542E-01
       -2   -1    0    0    0  501  0.00000000000E+00  0.00000000000E+00  0.64428063591E+03  0.64428063591E+03  0.25500000920E-02 0. -1.
        2   -1    0    0  501    0  0.00000000000E+00  0.00000000000E+00 -0.87466384173E+03  0.87466384173E+03  0.25500000920E-02 0.  1.
    10030    2    1    2    0    0  0.00000000000E+00  0.00000000000E+00 -0.23038320582E+03  0.15189444776E+04  0.15013713414E+04 0.  0.
        1    1    3    3  502    0 -0.37420482142E+03  0.44395420143E+03  0.36619744345E+03  0.68645841022E+03  0.50400001928E-02 0. -1.
       -1    1    3    3    0  502  0.37420482142E+03 -0.44395420143E+03 -0.59658064927E+03  0.83248606742E+03  0.50400001928E-02 0.  1.
</event>
<event>
 5   0  0.2969498E-05  0.1500236E+04  0.7818609E-02  0.8884296E-01
        2   -1    0    0  501    0  0.00000000000E+00  0.00000000000E+00  0.91254736847E+03  0.91254736847E+03  0.25500000920E-02 0.  1.
       -2   -1    0    0    0  501  0.00000000000E+00  0.00000000000E+00 -0.61660005726E+03  0.61660005726E+03  0.25500000920E-02 0. -1.
    10030    2    1    2    0    0  0.00000000000E+00  0.00000000000E+00  0.29594731121E+03  0.15291474257E+04  0.15002356610E+04 0.  0.
        3    1    3    3  502    0 -0.67128028848E+02 -0.39041341744E+03 -0.50128542965E+03  0.63891775758E+03  0.10100000352E+00 0. -1.
       -3    1    3    3    0  502  0.67128028848E+02  0.39041341744E+03  0.79723274086E+03  0.89022966816E+03  0.10100000352E+00 0.  1.
</event>
<event>
 5   0  0.1643498E-05  0.1500774E+04  0.7818609E-02  0.8883938E-01
        1   -1    0    0  501    0  0.00000000000E+00  0.00000000000E+00  0.36792349552E+03  0.36792349556E+03  0.50400001928E-02 0. -1.
       -1   -1    0    0    0  501  0.00000000000E+00  0.00000000000E+00 -0.15304287804E+04  0.15304287804E+04  0.50400001928E-02 0.  1.
    10030    2    1    2    0    0  0.00000000000E+00  0.00000000000E+00 -0.11625052848E+04  0.18983522759E+04  0.15007740757E+04 0.  0.
        4    1    3    3  502    0  0.45000368589E+03  0.59272993532E+03 -0.70288858352E+03  0.10236630634E+04  0.12699999809E+01 0.  1.
       -4    1    3    3    0  502 -0.45000368589E+03 -0.59272993532E+03 -0.45961670131E+03  0.87468921256E+03  0.12699999809E+01 0. -1.
</event>
<event>
 5   0  0.3070497E-05  0.1501474E+04  0.7818609E-02  0.8883473E-01
       -2   -1    0    0    0  501  0.00000000000E+00  0.00000000000E+00  0.69707495420E+03  0.69707495420E+03  0.25500000920E-02 0. -1.
        2   -1    0    0  501    0  0.00000000000E+00  0.00000000000E+00 -0.80853020318E+03  0.80853020319E+03  0.25500000920E-02 0.  1.
    10030    2    1    2    0    0  0.00000000000E+00  0.00000000000E+00 -0.11145524898E+03  0.15056051574E+04  0.15014741481E+04 0.  0.
        4    1    3    3  502    0 -0.12065292267E+03 -0.73410975562E+03  0.45198586263E+02  0.74533132643E+03  0.12699999809E+01 0.  1.
       -4    1    3    3    0  502  0.12065292267E+03  0.73410975562E+03 -0.15665383525E+03  0.76027383096E+03  0.12699999809E+01 0. -1.
</event>
<event>
 5   0  0.3070497E-05  0.1500162E+04  0.7818609E-02  0.8884345E-01
        2   -1    0    0  501    0  0.00000000000E+00  0.00000000000E+00  0.16593787399E+04  0.16593787399E+04  0.25500000920E-02 0. -1.
       -2   -1    0    0    0  501  0.00000000000E+00  0.00000000000E+00 -0.33905533001E+03  0.33905533002E+03  0.25500000920E-02 0.  1.
    10030    2    1    2    0    0  0.00000000000E+00  0.00000000000E+00  0.13203234099E+04  0.19984340699E+04  0.15001615997E+04 0.  0.
        4    1    3    3  502    0  0.22332512985E+03  0.31013170987E+03  0.15199520126E+04  0.15672624301E+04  0.12699999809E+01 0. -1.
       -4    1    3    3    0  502 -0.22332512985E+03 -0.31013170987E+03 -0.19962860273E+03  0.43117163986E+03  0.12699999809E+01 0.  1.
</event>
<event>
 5   0  0.1580078E-05  0.1500669E+04  0.7818609E-02  0.8884008E-01
        1   -1    0    0  501    0  0.00000000000E+00  0.00000000000E+00  0.10709595615E+04  0.10709595615E+04  0.50400001928E-02 0.  1.
       -1   -1    0    0    0  501  0.00000000000E+00  0.00000000000E+00 -0.52569868329E+03  0.52569868331E+03  0.50400001928E-02 0. -1.
    10030    2    1    2    0    0  0.00000000000E+00  0.00000000000E+00  0.54526087820E+03  0.15966582448E+04  0.15006692259E+04 0.  0.
        2    1    3    3  502    0  0.62394658512E+03 -0.37053465038E+03  0.47561283413E+03  0.86764787571E+03  0.25500000920E-02 0.  1.
       -2    1    3    3    0  502 -0.62394658512E+03  0.37053465038E+03  0.69648044070E+02  0.72901036911E+03  0.25500000920E-02 0. -1.
</event>
<event>
 5   0  0.3093600E-05  0.1499522E+04  0.7818609E-02  0.8884771E-01
       -2   -1    0    0    0  501  0.00000000000E+00  0.00000000000E+00  0.55057910923E+03  0.55057910924E+03  0.25500000920E-02 0. -1.
        2   -1    0    0  501    0  0.00000000000E+00  0.00000000000E+00 -0.10210004131E+04  0.10210004131E+04  0.25500000920E-02 0.  1.
    10030    2    1    2    0    0  0.00000000000E+00  0.00000000000E+00 -0.47042130385E+03  0.15715795223E+04  0.14995219211E+04 0.  0.
        1    1    3    3  502    0 -0.66280143977E+03  0.16320096093E+03  0.89857017371E+02  0.68848717185E+03  0.50400001928E-02 0.  1.
       -1    1    3    3    0  502  0.66280143977E+03 -0.16320096093E+03 -0.56027832122E+03  0.88309235047E+03  0.50400001928E-02 0. -1.
</event>
<event>
 5   0  0.1533777E-05  0.1501238E+04  0.7818609E-02  0.8883630E-01
       -1   -1    0    0    0  501  0.00000000000E+00  0.00000000000E+00  0.10576065488E+04  0.10576065488E+04  0.50400001928E-02 0. -1.
        1   -1    0    0  501    0  0.00000000000E+00  0.00000000000E+00 -0.53273993151E+03  0.53273993154E+03  0.50400001928E-02 0.  1.
    10030    2    1    2    0    0  0.00000000000E+00  0.00000000000E+00  0.52486661731E+03  0.15903464804E+04  0.15012384759E+04 0.  0.
        5    1    3    3  502    0  0.40578379338E+03  0.60583151037E+03  0.73776119907E+02  0.73291016625E+03  0.46999998093E+01 0.  1.
       -5    1    3    3    0  502 -0.40578379338E+03 -0.60583151037E+03  0.45109049740E+03  0.85743631412E+03  0.46999998093E+01 0. -1.
</event>
<event>
 5   0  0.1533777E-05  0.1500033E+04  0.7818609E-02  0.8884431E-01
       -1   -1    0    0    0  501  0.00000000000E+00  0.00000000000E+00  0.21808980502E+03  0.21808980508E+03  0.50400001928E-02 0.  1.
        1   -1    0    0  501    0  0.00000000000E+00  0.00000000000E+00 -0.25793277647E+04  0.25793277647E+04  0.50400001928E-02 0. -1.
    10030    2    1    2    0    0  0.00000000000E+00  0.00000000000E+00 -0.23612379596E+04  0.27974175697E+04  0.15000334521E+04 0.  0.
        5    1    3    3  502    0  0.63018876721E+03  0.18238307311E+02 -0.19382209030E+04  0.20381837201E+04  0.46999998093E+01 0. -1.
       -5    1    3    3    0  502 -0.63018876721E+03 -0.18238307311E+02 -0.42301705662E+03  0.75923384959E+03  0.46999998093E+01 0.  1.
</event>
<event>
 5   0  0.1533777E-05  0.1500281E+04  0.7818609E-02  0.8884266E-01
        1   -1    0    0  501    0  0.00000000000E+00  0.00000000000E+00  0.64695216403E+03  0.64695216405E+03  0.50400001928E-02 0.  1.
       -1   -1    0    0    0  501  0.00000000000E+00  0.00000000000E+00 -0.86978731552E+03  0.86978731553E+03  0.50400001928E-02 0. -1.
    10030    2    1    2    0    0  0.00000000000E+00  0.00000000000E+00 -0.22283515149E+03  0.15167394796E+04  0.15002810217E+04 0.  0.
        5    1    3    3  502    0 -0.84232492290E+02  0.27580597664E+03 -0.81149140477E+03  0.86122264225E+03  0.46999998093E+01 0. -1.
       -5    1    3    3    0  502  0.84232492290E+02 -0.27580597664E+03  0.58865625328E+03  0.65551683733E+03  0.46999998093E+01 0.  1.
</event>
<event>
 5   0  0.1580078E-05  0.1500675E+04  0.7818609E-02  0.8884004E-01
       -1   -1    0    0    0  501  0.00000000000E+00  0.00000000000E+00  0.62066148523E+03  0.62066148525E+03  0.50400001928E-02 0. -1.
        1   -1    0    0  501    0  0.00000000000E+00  0.00000000000E+00 -0.90710739414E+03  0.90710739415E+03  0.50400001928E-02 0.  1.
    10030    2    1    2    0    0  0.00000000000E+00  0.00000000000E+00 -0.28644590891E+03  0.15277688794E+04  0.15006753447E+04 0.  0.
        2    1    3    3  502    0  0.18974220703E+03 -0.53097918309E+02 -0.88030063346E+03  0.90208131525E+03  0.25500000920E-02 0.  1.
       -2    1    3    3    0  502 -0.18974220703E+03  0.53097918309E+02  0.59385472455E+03  0.62568756415E+03  0.25500000920E-02 0. -1.
</event>
<event>
 5   0  0.2969498E-05  0.1499826E+04  0.7818609E-02  0.8884569E-01
       -2   -1    0    0    0  501  0.00000000000E+00  0.00000000000E+00  0.12328761136E+04  0.12328761136E+04  0.25500000920E-02 0. -1.
        2   -1    0    0  501    0  0.00000000000E+00  0.00000000000E+00 -0.45614428541E+03  0.45614428542E+03  0.25500000920E-02 0.  1.
    10030    2    1    2    0    0  0.00000000000E+00  0.00000000000E+00  0.77673182818E+03  0.16890203990E+04  0.14998258484E+04 0.  0.
        3    1    3    3  502    0  0.64742590482E+03 -0.77448590433E+02  0.80551203040E+03  0.10363436822E+04  0.10100000352E+00 0.  1.
       -3    1    3    3    0  502 -0.64742590482E+03  0.77448590433E+02 -0.28780202216E+02  0.65267671678E+03  0.10100000352E+00 0. -1.
</event>
<event>
 5   0  0.3030702E-05  0.1499456E+04  0.7818609E-02  0.8884815E-01
        2   -1    0    0  501    0  0.00000000000E+00  0.00000000000E+00  0.21806095288E+04  0.21806095288E+04  0.25500000920E-02 0.  1.
       -2   -1    0    0    0  501  0.00000000000E+00  0.00000000000E+00 -0.25776818542E+03  0.25776818543E+03  0.25500000920E-02 0. -1.
    10030    2    1    2    0    0  0.00000000000E+00  0.00000000000E+00  0.19228413434E+04  0.24383777143E+04  0.14994555830E+04 0.  0.
        5    1    3    3  502    0  0.39816712166E+03  0.29369575689E+03  0.18773998185E+04  0.19415062253E+04  0.46999998093E+01 0.  1.
       -5    1    3    3    0  502 -0.39816712166E+03 -0.29369575689E+03  0.45441524944E+02  0.49687148899E+03  0.46999998093E+01 0. -1.
</event>
<event>
 5   0  0.3018308E-05  0.1500386E+04  0.7818609E-02  0.8884196E-01
       -2   -1    0    0    0  501  0.00000000000E+00  0.00000000000E+00  0.78536699756E+03  0.78536699756E+03  0.25500000920E-02 0. -1.
        2   -1    0    0  501    0  0.00000000000E+00  0.00000000000E+00 -0.71659432929E+03  0.71659432930E+03  0.25500000920E-02 0.  1.
    10030    2    1    2    0    0  0.00000000000E+00  0.00000000000E+00  0.68772668265E+02  0.15019613269E+04  0.15003859995E+04 0.  0.
        2    1    3    3  502    0  0.41056431424E+03 -0.61252347649E+03 -0.10374938751E+03  0.74465562563E+03  0.25500000920E-02 0. -1.
       -2    1    3    3    0  502 -0.41056431424E+03  0.61252347649E+03  0.17252205578E+03  0.75730570122E+03  0.25500000920E-02 0.  1.
</event>
<event>
 5   0  0.1580078E-05  0.1499254E+04  0.7818609E-02  0.8884949E-01
        1   -1    0    0  501    0  0.00000000000E+00  0.00000000000E+00  0.21612751354E+04  0.21612751354E+04  0.50400001928E-02 0. -1.
       -1   -1    0    0    0  501  0.00000000000E+00  0.00000000000E+00 -0.26000416328E+03  0.26000416333E+03  0.50400001928E-02 0.  1.
    10030    2    1    2    0    0  0.00000000000E+00  0.00000000000E+00  0.19012709721E+04  0.24212792987E+04  0.14992538588E+04 0.  0.
        2    1    3    3  502    0  0.56988948585E+03  0.44810620924E+02  0.16747625997E+03  0.59567635129E+03  0.25500000920E-02 0.  1.
       -2    1    3    3    0  502 -0.56988948585E+03 -0.44810620924E+02  0.17337947121E+04  0.18256029474E+04  0.25500000920E-02 0. -1.
</event>
<event>
 5   0  0.3093600E-05  0.1500390E+04  0.7818609E-02  0.8884194E-01
        2   -1    0    0  501    0  0.00000000000E+00  0.00000000000E+00  0.10686847380E+04  0.10686847380E+04  0.25500000920E-02 0.  1.
       -2   -1    0    0    0  501  0.00000000000E+00  0.00000000000E+00 -0.52662177923E+03  0.52662177924E+03  0.25500000920E-02 0. -1.
    10030    2    1    2    0    0  0.00000000000E+00  0.00000000000E+00  0.54206295880E+03  0.15953065173E+04  0.15003901602E+04 0.  0.
        1    1    3    3  502    0 -0.59799574648E+03  0.23863841411E+03  0.68041525062E+03  0.93675616827E+03  0.50400001928E-02 0.  1.
       -1    1    3    3    0  502  0.59799574648E+03 -0.23863841411E+03 -0.13835229182E+03  0.65855034900E+03  0.50400001928E-02 0. -1.
</event>
<event>
 5   0  0.1116613E-05  0.1500243E+04  0.7818609E-02  0.8884291E-01
        3   -1    0    0  501    0  0.00000000000E+00  0.00000000000E+00  0.14177439536E+04  0.14177439572E+04  0.10100000352E+00 0.  1.
       -3   -1    0    0    0  501  0.00000000000E+00  0.00000000000E+00 -0.39688563064E+03  0.39688564349E+03  0.10100000352E+00 0. -1.
    10030    2    1    2    0    0  0.00000000000E+00  0.00000000000E+00  0.10208583230E+04  0.18146296007E+04  0.15002429377E+04 0.  0.
        3    1    3    3  502    0 -0.35852040190E+03  0.63123895975E+03  0.73891289381E+03  0.10358531642E+04  0.10100000352E+00 0. -1.
       -3    1    3    3    0  502  0.35852040190E+03 -0.63123895975E+03  0.28194542917E+03  0.77877643654E+03  0.10100000352E+00 0.  1.
</event>
<event>
 5   0  0.1580078E-05  0.1500291E+04  0.7818609E-02  0.8884260E-01
        1   -1    0    0  501    0  0.00000000000E+00  0.00000000000E+00  0.19170308095E+04  0.19170308095E+04  0.50400001928E-02 0.  1.
       -1   -1    0    0    0  501  0.00000000000E+00  0.00000000000E+00 -0.29353632176E+03  0.29353632181E+03  0.50400001928E-02 0. -1.
    10030    2    1    2    0    0  0.00000000000E+00  0.00000000000E+00  0.16234944877E+04  0.22105671313E+04  0.15002908686E+04 0.  0.
        2    1    3    3  502    0  0.58176209917E+03  0.36492515592E+03  0.36702483706E+03  0.77866856908E+03  0.25500000920E-02 0.  1.
       -2    1    3    3    0  502 -0.58176209917E+03 -0.36492515592E+03  0.12564696507E+04  0.14318985622E+04  0.25500000920E-02 0. -1.
</event>
<event>
 5   0  0.1576214E-05  0.1500417E+04  0.7818609E-02  0.8884176E-01
        1   -1    0    0  501    0  0.00000000000E+00  0.00000000000E+00  0.14168059544E+04  0.14168059544E+04  0.50400001928E-02 0. -1.
       -1   -1    0    0    0  501  0.00000000000E+00  0.00000000000E+00 -0.39724033850E+03  0.39724033853E+03  0.50400001928E-02 0.  1.
    10030    2    1    2    0    0  0.00000000000E+00  0.00000000000E+00  0.10195656159E+04  0.18140462930E+04  0.15004165781E+04 0.  0.
        1    1    3    3  502    0 -0.54890514428E+03 -0.34623039829E+03  0.96480195425E+03  0.11627618660E+04  0.50400001928E-02 0. -1.
       -1    1    3    3    0  502  0.54890514428E+03  0.34623039829E+03  0.54763661668E+02  0.65128442695E+03  0.50400001928E-02 0.  1.
</event>
<event>
 5   0  0.1588657E-05  0.1502559E+04  0.7818609E-02  0.8882753E-01
       -1   -1    0    0    0  501  0.00000000000E+00  0.00000000000E+00  0.99550836016E+03  0.99550836017E+03  0.50400001928E-02 0.  1.
        1   -1    0    0  501    0  0.00000000000E+00  0.00000000000E+00 -0.56696752202E+03  0.56696752204E+03  0.50400001928E-02 0. -1.
    10030    2    1    2    0    0  0.00000000000E+00  0.00000000000E+00  0.42854083814E+03  0.15624758822E+04  0.15025590280E+04 0.  0.
        3    1    3    3  502    0  0.66027656816E+02 -0.51249410388E+03  0.78137130142E+03  0.93677690987E+03  0.10100000352E+00 0.  1.
       -3    1    3    3    0  502 -0.66027656816E+02  0.51249410388E+03 -0.35283046328E+03  0.62569897235E+03  0.10100000352E+00 0. -1.
</event>
<event>
 5   0  0.1580078E-05  0.1499902E+04  0.7818609E-02  0.8884518E-01
        1   -1    0    0  501    0  0.00000000000E+00  0.00000000000E+00  0.13177056297E+04  0.13177056297E+04  0.50400001928E-02 0.  1.
       -1   -1    0    0    0  501  0.00000000000E+00  0.00000000000E+00 -0.42682265367E+03  0.42682265370E+03  0.50400001928E-02 0. -1.
    10030    2    1    2    0    0  0.00000000000E+00  0.00000000000E+00  0.89088297604E+03  0.17445282834E+04  0.14999021483E+04 0.  0.
        2    1    3    3  502    0  0.55945649305E+03 -0.11827208443E+03 -0.11892529824E+03  0.58405742880E+03  0.25500000920E-02 0. -1.
       -2    1    3    3    0  502 -0.55945649305E+03  0.11827208443E+03  0.10098082743E+04  0.11604708546E+04  0.25500000920E-02 0.  1.
</event>
<event>
 5   0  0.1588657E-05  0.1499598E+04  0.7818609E-02  0.8884720E-01
       -1   -1    0    0    0  501  0.00000000000E+00  0.00000000000E+00  0.83980820817E+03  0.83980820818E+03  0.50400001928E-02 0. -1.
        1   -1    0    0  501    0  0.00000000000E+00  0.00000000000E+00 -0.66943664215E+03  0.66943664216E+03  0.50400001928E-02 0.  1.
    10030    2    1    2    0    0  0.00000000000E+00  0.00000000000E+00  0.17037156602E+03  0.15092448503E+04  0.14995977953E+04 0.  0.
        3    1    3    3  502    0 -0.50688671311E+03 -0.80604032092E+02 -0.46492655743E+03  0.69252282556E+03  0.10100000352E+00 0.  1.
       -3    1    3    3    0  502  0.50688671311E+03  0.80604032092E+02  0.63529812344E+03  0.81672202479E+03  0.10100000352E+00 0. -1.
</event>
<event>
 5   0  0.1576214E-05  0.1499864E+04  0.7818609E-02  0.8884543E-01
       -1   -1    0    0    0  501  0.00000000000E+00  0.00000000000E+00  0.62960235829E+03  0.62960235831E+03  0.50400001928E-02 0. -1.
        1   -1    0    0  501    0  0.00000000000E+00  0.00000000000E+00 -0.89325950947E+03  0.89325950949E+03  0.50400001928E-02 0.  1.
    10030    2    1    2    0    0  0.00000000000E+00  0.00000000000E+00 -0.26365715118E+03  0.15228618678E+04  0.14998643855E+04 0.  0.
        1    1    3    3  502    0 -0.50992853275E+03  0.23831411163E+03  0.37132766968E+03  0.67431814643E+03  0.50400001928E-02 0. -1.
       -1    1    3    3    0  502  0.50992853275E+03 -0.23831411163E+03 -0.63498482086E+03  0.84854372136E+03  0.50400001928E-02 0.  1.
</event>
<event>
 5   0  0.1580078E-05  0.1498119E+04  0.7818609E-02  0.8885705E-01
        1   -1    0    0  501    0  0.00000000000E+00  0.00000000000E+00  0.55345106943E+03  0.55345106945E+03  0.50400001928E-02 0. -1.
       -1   -1    0    0    0  501  0.00000000000E+00  0.00000000000E+00 -0.10138023818E+04  0.10138023818E+04  0.50400001928E-02 0.  1.
    10030    2    1    2    0    0  0.00000000000E+00  0.00000000000E+00 -0.46035131236E+03  0.15672534513E+04  0.14981188370E+04 0.  0.
        2    1    3    3  502    0 -0.28198766609E+03  0.58459837105E+02 -0.95357399944E+03  0.99611142389E+03  0.25500000920E-02 0.  1.
       -2    1    3    3    0  502  0.28198766609E+03 -0.58459837105E+02  0.49322268707E+03  0.57114202738E+03  0.25500000920E-02 0. -1.
</event>
<event>
 5   0  0.3018308E-05  0.1505348E+04  0.7818609E-02  0.8880905E-01
        2   -1    0    0  501    0  0.00000000000E+00  0.00000000000E+00  0.17398995783E+04  0.17398995783E+04  0.25500000920E-02 0.  1.
       -2   -1    0    0    0  501  0.00000000000E+00  0.00000000000E+00 -0.32560377579E+03  0.32560377580E+03  0.25500000920E-02 0. -1.
    10030    2    1    2    0    0  0.00000000000E+00  0.00000000000E+00  0.14142958025E+04  0.20655033541E+04  0.15053476306E+04 0.  0.
        2    1    3    3  502    0  0.62846119298E+02 -0.50473552865E+02 -0.31966454677E+03  0.32967049719E+03  0.25500000920E-02 0. -1.
       -2    1    3    3    0  502 -0.62846119298E+02  0.50473552865E+02  0.17339603493E+04  0.17358328569E+04  0.25500000920E-02 0.  1.
</event>
<event>
 5   0  0.1580078E-05  0.1499590E+04  0.7818609E-02  0.8884725E-01
        1   -1    0    0  501    0  0.00000000000E+00  0.00000000000E+00  0.92669459555E+03  0.92669459557E+03  0.50400001928E-02 0.  1.
       -1   -1    0    0    0  501  0.00000000000E+00  0.00000000000E+00 -0.60666452434E+03  0.60666452436E+03  0.50400001928E-02 0. -1.
    10030    2    1    2    0    0  0.00000000000E+00  0.00000000000E+00  0.32003007121E+03  0.15333591199E+04  0.14995902588E+04 0.  0.
        2    1    3    3  502    0 -0.53012709496E+03 -0.50651446257E+03 -0.36434035659E+00  0.73320649913E+03  0.25500000920E-02 0. -1.
       -2    1    3    3    0  502  0.53012709496E+03  0.50651446257E+03  0.32039441157E+03  0.80015262080E+03  0.25500000920E-02 0.  1.
</event>
<event>
 5   0  0.1533777E-05  0.1500349E+04  0.7818609E-02  0.8884221E-01
        1   -1    0    0  501    0  0.00000000000E+00  0.00000000000E+00  0.15384260365E+04  0.15384260365E+04  0.50400001928E-02 0.  1.
       -1   -1    0    0    0  501  0.00000000000E+00  0.00000000000E+00 -0.36580376546E+03  0.36580376549E+03  0.50400001928E-02 0. -1.
    10030    2    1    2    0    0  0.00000000000E+00  0.00000000000E+00  0.11726222710E+04  0.19042298020E+04  0.15003493421E+04 0.  0.
        5    1    3    3  502    0 -0.11433876033E+03  0.33664785673E+03 -0.25206112286E+03  0.43584633899E+03  0.46999998093E+01 0. -1.
       -5    1    3    3    0  502  0.11433876033E+03 -0.33664785673E+03  0.14246833939E+04  0.14683834630E+04  0.46999998093E+01 0.  1.
</event>
<event>
 5   0  0.1116613E-05  0.1500056E+04  0.7818609E-02  0.8884415E-01
       -3   -1    0    0    0  501  0.00000000000E+00  0.00000000000E+00  0.40203450358E+03  0.40203451626E+03  0.10100000352E+00 0.  1.
        3   -1    0    0  501    0  0.00000000000E+00  0.00000000000E+00 -0.13992386436E+04  0.13992386473E+04  0.10100000352E+00 0. -1.
    10030    2    1    2    0    0  0.00000000000E+00  0.00000000000E+00 -0.99720414004E+03  0.18012731635E+04  0.15000563032E+04 0.  0.
        4    1    3    3  502    0  0.26831041407E+03  0.67955321636E+03 -0.70223502303E+03  0.10133699683E+04  0.12699999809E+01 0.  1.
       -4    1    3    3    0  502 -0.26831041407E+03 -0.67955321636E+03 -0.29496911701E+03  0.78790319523E+03  0.12699999809E+01 0. -1.
</event>
<event>
 5   0  0.2969498E-05  0.1500381E+04  0.7818609E-02  0.8884200E-01
       -2   -1    0    0    0  501  0.00000000000E+00  0.00000000000E+00  0.23806120419E+04  0.23806120419E+04  0.25500000920E-02 0. -1.
        2   -1    0    0  501    0  0.00000000000E+00  0.00000000000E+00 -0.23640369014E+03  0.23640369016E+03  0.25500000920E-02 0.  1.
    10030    2    1    2    0    0  0.00000000000E+00  0.00000000000E+00  0.21442083517E+04  0.26170157320E+04  0.15003805804E+04 0.  0.
        3    1    3    3  502    0  0.40337065171E+03 -0.62744145529E+03  0.12115862327E+04  0.14227901714E+04  0.10100000352E+00 0. -1.
       -3    1    3    3    0  502 -0.40337065171E+03  0.62744145529E+03  0.93262211906E+03  0.11942255606E+04  0.10100000352E+00 0.  1.
</event>
<event>
 5   0  0.2969498E-05  0.1500026E+04  0.7818609E-02  0.8884436E-01
        2   -1    0    0  501    0  0.00000000000E+00  0.00000000000E+00  0.16338710987E+04  0.16338710987E+04  0.25500000920E-02 0.  1.
       -2   -1    0    0    0  501  0.00000000000E+00  0.00000000000E+00 -0.34428612995E+03  0.34428612996E+03  0.25500000920E-02 0. -1.
    10030    2    1    2    0    0  0.00000000000E+00  0.00000000000E+00  0.12895849687E+04  0.19781572286E+04  0.15000255430E+04 0.  0.
        3    1    3    3  502    0  0.57017182565E+03 -0.94796511868E+02  0.12750894869E+04  0.13999769638E+04  0.10100000352E+00 0. -1.
       -3    1    3    3    0  502 -0.57017182565E+03  0.94796511868E+02  0.14495481826E+02  0.57818026481E+03  0.10100000352E+00 0.  1.
</event>
<event>
 5   0  0.3070497E-05  0.1500278E+04  0.7818609E-02  0.8884268E-01
       -2   -1    0    0    0  501  0.00000000000E+00  0.00000000000E+00  0.61702428578E+03  0.61702428578E+03  0.25500000920E-02 0. -1.
        2   -1    0    0  501    0  0.00000000000E+00  0.00000000000E+00 -0.91197104610E+03  0.91197104610E+03  0.25500000920E-02 0.  1.
    10030    2    1    2    0    0  0.00000000000E+00  0.00000000000E+00 -0.29494676032E+03  0.15289953319E+04  0.15002776855E+04 0.  0.
        4    1    3    3  502    0  0.65570705765E+03 -0.49803088905E+02  0.22037118699E+03  0.69353959228E+03  0.12699999809E+01 0. -1.
       -4    1    3    3    0  502 -0.65570705765E+03  0.49803088905E+02 -0.51531794731E+03  0.83545573960E+03  0.12699999809E+01 0.  1.
</event>
<event>
 5   0  0.2969498E-05  0.1499607E+04  0.7818609E-02  0.8884714E-01
       -2   -1    0    0    0  501  0.00000000000E+00  0.00000000000E+00  0.44215935091E+03  0.44215935092E+03  0.25500000920E-02 0. -1.
        2   -1    0    0  501    0  0.00000000000E+00  0.00000000000E+00 -0.12714988141E+04  0.12714988141E+04  0.25500000920E-02 0.  1.
    10030    2    1    2    0    0  0.00000000000E+00  0.00000000000E+00 -0.82933946315E+03  0.17136581650E+04  0.14996067355E+04 0.  0.
        3    1    3    3  502    0 -0.51615689591E+03  0.52642319566E+03 -0.57079371645E+03  0.93238661459E+03  0.10100000352E+00 0.  1.
       -3    1    3    3    0  502  0.51615689591E+03 -0.52642319566E+03 -0.25854574670E+03  0.78127155040E+03  0.10100000352E+00 0. -1.
</event>
<event>
 5   0  0.3093600E-05  0.1499726E+04  0.7818609E-02  0.8884635E-01
        2   -1    0    0  501    0  0.00000000000E+00  0.00000000000E+00  0.44446135231E+03  0.44446135232E+03  0.25500000920E-02 0. -1.
       -2   -1    0    0    0  501  0.00000000000E+00  0.00000000000E+00 -0.12651144867E+04  0.12651144867E+04  0.25500000920E-02 0.  1.
    10030    2    1    2    0    0  0.00000000000E+00  0.00000000000E+00 -0.82065313440E+03  0.17095758390E+04  0.14997259691E+04 0.  0.
        1    1    3    3  502    0  0.11357258196E+03 -0.52243582455E+03  0.18903641986E+03  0.56707379608E+03  0.50400001928E-02 0. -1.
       -1    1    3    3    0  502 -0.11357258196E+03  0.52243582455E+03 -0.10096895543E+04  0.11425020430E+04  0.50400001928E-02 0.  1.
</event>
<event>
 5   0  0.3030702E-05  0.1499516E+04  0.7818609E-02  0.8884775E-01
       -2   -1    0    0    0  501  0.00000000000E+00  0.00000000000E+00  0.51959903379E+03  0.51959903380E+03  0.25500000920E-02 0.  1.
        2   -1    0    0  501    0  0.00000000000E+00  0.00000000000E+00 -0.10818663465E+04  0.10818663465E+04  0.25500000920E-02 0. -1.
    10030    2    1    2    0    0  0.00000000000E+00  0.00000000000E+00 -0.56226731266E+03  0.16014653803E+04  0.14995155329E+04 0.  0.
        5    1    3    3  502    0 -0.13999172417E+03 -0.29983246633E+02  0.50484926008E+03  0.52477761320E+03  0.46999998093E+01 0.  1.
       -5    1    3    3    0  502  0.13999172417E+03  0.29983246633E+02 -0.10671165727E+04  0.10766877671E+04  0.46999998093E+01 0. -1.
</event>
<event>
 5   0  0.3030702E-05  0.1499638E+04  0.7818609E-02  0.8884694E-01
        2   -1    0    0  501    0  0.00000000000E+00  0.00000000000E+00  0.85595996884E+03  0.85595996885E+03  0.25500000920E-02 0. -1.
       -2   -1    0    0    0  501  0.00000000000E+00  0.00000000000E+00 -0.65683979609E+03  0.65683979610E+03  0.25500000920E-02 0.  1.
    10030    2    1    2    0    0  0.00000000000E+00  0.00000000000E+00  0.19912017275E+03  0.15127997649E+04  0.14996380515E+04 0.  0.
        5    1    3    3  502    0 -0.39507465540E+03 -0.73596497556E+02  0.73812925854E+03  0.84045066488E+03  0.46999998093E+01 0. -1.
       -5    1    3    3    0  502  0.39507465540E+03  0.73596497556E+02 -0.53900908579E+03  0.67234910006E+03  0.46999998093E+01 0.  1.
</event>
<event>
 5   0  0.1588657E-05  0.1503451E+04  0.7818609E-02  0.8882161E-01
        1   -1    0    0  501    0  0.00000000000E+00  0.00000000000E+00  0.39516381044E+03  0.39516381047E+03  0.50400001928E-02 0.  1.
       -1   -1    0    0    0  501  0.00000000000E+00  0.00000000000E+00 -0.14300178576E+04  0.14300178576E+04  0.50400001928E-02 0. -1.
    10030    2    1    2    0    0  0.00000000000E+00  0.00000000000E+00 -0.10348540472E+04  0.18251816681E+04  0.15034511041E+04 0.  0.
        3    1    3    3  502    0  0.61498690780E+03  0.36954479990E+03 -0.78974916982E+03  0.10669939163E+04  0.10100000352E+00 0. -1.
       -3    1    3    3    0  502 -0.61498690780E+03 -0.36954479990E+03 -0.24510487734E+03  0.75818775182E+03  0.10100000352E+00 0.  1.
</event>
<event>
 5   0  0.1576214E-05  0.1499990E+04  0.7818609E-02  0.8884460E-01
       -1   -1    0    0    0  501  0.00000000000E+00  0.00000000000E+00  0.10238027379E+04  0.10238027379E+04  0.50400001928E-02 0. -1.
        1   -1    0    0  501    0  0.00000000000E+00  0.00000000000E+00 -0.54941457313E+03  0.54941457316E+03  0.50400001928E-02 0.  1.
    10030    2    1    2    0    0  0.00000000000E+00  0.00000000000E+00  0.47438816478E+03  0.15732173111E+04  0.14999895256E+04 0.  0.
        1    1    3    3  502    0  0.61529826639E+03 -0.20736984839E+03 -0.15649448397E+03  0.66789575099E+03  0.50400001928E-02 0. -1.
       -1    1    3    3    0  502 -0.61529826639E+03  0.20736984839E+03  0.63088264875E+03  0.90532156009E+03  0.50400001928E-02 0.  1.
</event>
<event>
 5   0  0.1588657E-05  0.1500671E+04  0.7818609E-02  0.8884007E-01
       -1   -1    0    0    0  501  0.00000000000E+00  0.00000000000E+00  0.41410213931E+03  0.41410213934E+03  0.50400001928E-02 0. -1.
        1   -1    0    0  501    0  0.00000000000E+00  0.00000000000E+00 -0.13595754822E+04  0.13595754822E+04  0.50400001928E-02 0.  1.
    10030    2    1    2    0    0  0.00000000000E+00  0.00000000000E+00 -0.94547334290E+03  0.17736776216E+04  0.15006706711E+04 0.  0.
        3    1    3    3  502    0  0.30817432739E+03 -0.42717466257E+03  0.15885011200E+03  0.55016631730E+03  0.10100000352E+00 0. -1.
       -3    1    3    3    0  502 -0.30817432739E+03  0.42717466257E+03 -0.11043234549E+04  0.12235113043E+04  0.10100000352E+00 0.  1.
</event>
<event>
 5   0  0.1576214E-05  0.1500796E+04  0.7818609E-02  0.8883924E-01
        1   -1    0    0  501    0  0.00000000000E+00  0.00000000000E+00  0.81529522915E+03  0.81529522916E+03  0.50400001928E-02 0.  1.
       -1   -1    0    0    0  501  0.00000000000E+00  0.00000000000E+00 -0.69066635840E+03  0.69066635842E+03  0.50400001928E-02 0. -1.
    10030    2    1    2    0    0  0.00000000000E+00  0.00000000000E+00  0.12462887074E+03  0.15059615876E+04  0.15007957715E+04 0.  0.
        1    1    3    3  502    0 -0.47467027281E+03  0.12732125641E+03  0.63134165610E+03  0.80007178239E+03  0.50400001928E-02 0.  1.
       -1    1    3    3    0  502  0.47467027281E+03 -0.12732125641E+03 -0.50671278535E+03  0.70588980520E+03  0.50400001928E-02 0. -1.
</event>
<event>
 5   0  0.1643498E-05  0.1497706E+04  0.7818609E-02  0.8885980E-01
       -1   -1    0    0    0  501  0.00000000000E+00  0.00000000000E+00  0.80247619172E+03  0.80247619174E+03  0.50400001928E-02 0. -1.
        1   -1    0    0  501    0  0.00000000000E+00  0.00000000000E+00 -0.69881312963E+03  0.69881312965E+03  0.50400001928E-02 0.  1.
    10030    2    1    2    0    0  0.00000000000E+00  0.00000000000E+00  0.10366306209E+03  0.15012893214E+04  0.14977061114E+04 0.  0.
        4    1    3    3  502    0 -0.13388885489E+03 -0.24893466334E+03  0.74694903625E+03  0.79864207737E+03  0.12699999809E+01 0. -1.
       -4    1    3    3    0  502  0.13388885489E+03  0.24893466334E+03 -0.64328597416E+03  0.70264724402E+03  0.12699999809E+01 0.  1.
</event>
<event>
 5   0  0.3070497E-05  0.1499908E+04  0.7818609E-02  0.8884514E-01
       -2   -1    0    0    0  501  0.00000000000E+00  0.00000000000E+00  0.39370235612E+03  0.39370235612E+03  0.25500000920E-02 0.  1.
        2   -1    0    0  501    0  0.00000000000E+00  0.00000000000E+00 -0.14285684159E+04  0.14285684159E+04  0.25500000920E-02 0. -1.
    10030    2    1    2    0    0  0.00000000000E+00  0.00000000000E+00 -0.10348660598E+04  0.18222707721E+04  0.14999076655E+04 0.  0.
        4    1    3    3  502    0 -0.68093461952E+03 -0.46459507118E+01 -0.13567756399E+03  0.69433677361E+03  0.12699999809E+01 0. -1.
       -4    1    3    3    0  502  0.68093461952E+03  0.46459507118E+01 -0.89918849584E+03  0.11279339985E+04  0.12699999809E+01 0.  1.
</event>
<event>
 5   0  0.3030702E-05  0.1500457E+04  0.7818609E-02  0.8884149E-01
        2   -1    0    0  501    0  0.00000000000E+00  0.00000000000E+00  0.17653739209E+04  0.17653739209E+04  0.25500000920E-02 0. -1.
       -2   -1    0    0    0  501  0.00000000000E+00  0.00000000000E+00 -0.31882341121E+03  0.31882341122E+03  0.25500000920E-02 0.  1.
    10030    2    1    2    0    0  0.00000000000E+00  0.00000000000E+00  0.14465505097E+04  0.20841973321E+04  0.15004566445E+04 0.  0.
        5    1    3    3  502    0  0.72551716878E+03  0.14745976824E+03  0.89169280575E+03  0.11589899461E+04  0.46999998093E+01 0. -1.
       -5    1    3    3    0  502 -0.72551716878E+03 -0.14745976824E+03  0.55485770392E+03  0.92520738596E+03  0.46999998093E+01 0.  1.
</event>
<event>
 5   0  0.1576214E-05  0.1500184E+04  0.7818609E-02  0.8884331E-01
       -1   -1    0    0    0  501  0.00000000000E+00  0.00000000000E+00  0.68783620863E+03  0.68783620865E+03  0.50400001928E-02 0.  1.
        1   -1    0    0  501    0  0.00000000000E+00  0.00000000000E+00 -0.81798200733E+03  0.81798200735E+03  0.50400001928E-02 0. -1.
    10030    2    1    2    0    0  0.00000000000E+00  0.00000000000E+00 -0.13014579870E+03  0.15058182160E+04  0.15001835123E+04 0.  0.
        1    1    3    3  502    0 -0.20156437422E+03 -0.55393582940E+03 -0.53067347735E+03  0.79315032600E+03  0.50400001928E-02 0. -1.
       -1    1    3    3    0  502  0.20156437422E+03  0.55393582940E+03  0.40052767864E+03  0.71266789000E+03  0.50400001928E-02 0.  1.
</event>
<event>
 5   0  0.2969498E-05  0.1499409E+04  0.7818609E-02  0.8884846E-01
       -2   -1    0    0    0  501  0.00000000000E+00  0.00000000000E+00  0.83494644877E+03  0.83494644877E+03  0.25500000920E-02 0. -1.
        2   -1    0    0  501    0  0.00000000000E+00  0.00000000000E+00 -0.67316497992E+03  0.67316497992E+03  0.25500000920E-02 0.  1.
    10030    2    1    2    0    0  0.00000000000E+00  0.00000000000E+00  0.16178146885E+03  0.15081114287E+04  0.14994088294E+04 0.  0.
        3    1    3    3  502    0  0.56533443584E+03 -0.15028068516E+03 -0.39073310936E+03  0.70346263698E+03  0.10100000352E+00 0.  1.
       -3    1    3    3    0  502 -0.56533443584E+03  0.15028068516E+03  0.55251457821E+03  0.80464879172E+03  0.10100000352E+00 0. -1.
</event>
<event>
 5   0  0.3093600E-05  0.1499987E+04  0.7818609E-02  0.8884462E-01
       -2   -1    0    0    0  501  0.00000000000E+00  0.00000000000E+00  0.29751376500E+03  0.29751376501E+03  0.25500000920E-02 0.  1.
        2   -1    0    0  501    0  0.00000000000E+00  0.00000000000E+00 -0.18906350407E+04  0.18906350407E+04  0.25500000920E-02 0. -1.
    10030    2    1    2    0    0  0.00000000000E+00  0.00000000000E+00 -0.15931212757E+04  0.21881488057E+04  0.14999865989E+04 0.  0.
        1    1    3    3  502    0 -0.26100581732E+03  0.70268537922E+03 -0.83226856433E+03  0.11200722039E+04  0.50400001928E-02 0. -1.
       -1    1    3    3    0  502  0.26100581732E+03 -0.70268537922E+03 -0.76085271141E+03  0.10680766018E+04  0.50400001928E-02 0.  1.
</event>
<event>
 5   0  0.3018308E-05  0.1499417E+04  0.7818609E-02  0.8884840E-01
        2   -1    0    0  501    0  0.00000000000E+00  0.00000000000E+00  0.12246363361E+04  0.12246363361E+04  0.25500000920E-02 0.  1.
       -2   -1    0    0    0  501  0.00000000000E+00  0.00000000000E+00 -0.45896328186E+03  0.45896328187E+03  0.25500000920E-02 0. -1.
    10030    2    1    2    0    0  0.00000000000E+00  0.00000000000E+00  0.76567305426E+03  0.16835996180E+04  0.14994173694E+04 0.  0.
        2    1    3    3  502    0 -0.10888719117E+02  0.34395152990E+03 -0.36504456894E+03  0.50167594764E+03  0.25500000920E-02 0. -1.
       -2    1    3    3    0  502  0.10888719117E+02 -0.34395152990E+03  0.11307176232E+04  0.11819236704E+04  0.25500000920E-02 0.  1.
</event>
<event>
 5   0  0.1580078E-05  0.1499962E+04  0.7818609E-02  0.8884479E-01
       -1   -1    0    0    0  501  0.00000000000E+00  0.00000000000E+00  0.35052638523E+03  0.35052638527E+03  0.50400001928E-02 0.  1.
        1   -1    0    0  501    0  0.00000000000E+00  0.00000000000E+00 -0.16046470651E+04  0.16046470651E+04  0.50400001928E-02 0. -1.
    10030    2    1    2    0    0  0.00000000000E+00  0.00000000000E+00 -0.12541206798E+04  0.19551734503E+04  0.14999615133E+04 0.  0.
        2    1    3    3  502    0  0.68642522890E+03 -0.84645302183E+02 -0.24899041042E+03  0.73507866691E+03  0.25500000920E-02 0.  1.
       -2    1    3    3    0  502 -0.68642522890E+03  0.84645302183E+02 -0.10051302694E+04  0.12200947834E+04  0.25500000920E-02 0. -1.
</event>
<event>
 5   0  0.1643498E-05  0.1500149E+04  0.7818609E-02  0.8884354E-01
       -1   -1    0    0    0  501  0.00000000000E+00  0.00000000000E+00  0.47784722866E+03  0.47784722869E+03  0.50400001928E-02 0.  1.
        1   -1    0    0  501    0  0.00000000000E+00  0.00000000000E+00 -0.11773880671E+04  0.11773880671E+04  0.50400001928E-02 0. -1.
    10030    2    1    2    0    0  0.00000000000E+00  0.00000000000E+00 -0.69954083846E+03  0.16552352958E+04  0.15001488259E+04 0.  0.
        4    1    3    3  502    0  0.61661683838E+03 -0.36930472635E+03 -0.11310179795E+03  0.72759599770E+03  0.12699999809E+01 0.  1.
       -4    1    3    3    0  502 -0.61661683838E+03  0.36930472635E+03 -0.58643904051E+03  0.92763929811E+03  0.12699999809E+01 0. -1.
</event>
<event>
 5   0  0.3030702E-05  0.1500118E+04  0.7818609E-02  0.8884375E-01
       -2   -1    0    0    0  501  0.00000000000E+00  0.00000000000E+00  0.61701912001E+03  0.61701912002E+03  0.25500000920E-02 0.  1.
        2   -1    0    0  501    0  0.00000000000E+00  0.00000000000E+00 -0.91178398844E+03  0.91178398844E+03  0.25500000920E-02 0. -1.
    10030    2    1    2    0    0  0.00000000000E+00  0.00000000000E+00 -0.29476486842E+03  0.15288031085E+04  0.15001175343E+04 0.  0.
        5    1    3    3  502    0 -0.10487090293E+03 -0.10754622297E+02 -0.90418103960E+03  0.91031808207E+03  0.46999998093E+01 0. -1.
       -5    1    3    3    0  502  0.10487090293E+03  0.10754622297E+02  0.60941617117E+03  0.61848502639E+03  0.46999998093E+01 0.  1.
</event>
<event>
 5   0  0.1116613E-05  0.1500166E+04  0.7818609E-02  0.8884343E-01
       -4   -1    0    0    0  501  0.00000000000E+00  0.00000000000E+00  0.76148693975E+03  0.76148799879E+03  0.12699999809E+01 0. -1.
        4   -1    0    0  501    0  0.00000000000E+00  0.00000000000E+00 -0.73884732097E+03  0.73884841247E+03  0.12699999809E+01 0.  1.
    10030    2    1    2    0    0  0.00000000000E+00  0.00000000000E+00  0.22639618777E+02  0.15003364113E+04  0.15001655891E+04 0.  0.
        5    1    3    3  502    0 -0.55202191903E+03 -0.20332781703E+02  0.51878323110E+03  0.75782567386E+03  0.46999998093E+01 0. -1.
       -5    1    3    3    0  502  0.55202191903E+03  0.20332781703E+02 -0.49614361232E+03  0.74251073739E+03  0.46999998093E+01 0.  1.
</event>
<event>
 5   0  0.1533777E-05  0.1502303E+04  0.7818609E-02  0.8882923E-01
        1   -1    0    0  501    0  0.00000000000E+00  0.00000000000E+00  0.10876983275E+04  0.10876983276E+04  0.50400001928E-02 0. -1.
       -1   -1    0    0    0  501  0.00000000000E+00  0.00000000000E+00 -0.51873619794E+03  0.51873619796E+03  0.50400001928E-02 0.  1.
    10030    2    1    2    0    0  0.00000000000E+00  0.00000000000E+00  0.56896212960E+03  0.16064345255E+04  0.15023028922E+04 0.  0.
        5    1    3    3  502    0  0.58800625828E+03 -0.45851583827E+03  0.18754268395E+03  0.76888391973E+03  0.46999998093E+01 0.  1.
       -5    1    3    3    0  502 -0.58800625828E+03  0.45851583827E+03  0.38141944566E+03  0.83755060578E+03  0.46999998093E+01 0. -1.
</event>
<event>
 5   0  0.1643498E-05  0.1500126E+04  0.7818609E-02  0.8884369E-01
        1   -1    0    0  501    0  0.00000000000E+00  0.00000000000E+00  0.32498307080E+03  0.32498307084E+03  0.50400001928E-02 0.  1.
       -1   -1    0    0    0  501  0.00000000000E+00  0.00000000000E+00 -0.17311491526E+04  0.17311491526E+04  0.50400001928E-02 0. -1.
    10030    2    1    2    0    0  0.00000000000E+00  0.00000000000E+00 -0.14061660818E+04  0.20561322235E+04  0.15001255516E+04 0.  0.
        4    1    3    3  502    0  0.15509200696E+02 -0.23367263099E+03 -0.16797534303E+04  0.16960001867E+04  0.12699999809E+01 0. -1.
       -4    1    3    3    0  502 -0.15509200696E+02  0.23367263099E+03  0.27358734846E+03  0.36013203678E+03  0.12699999809E+01 0.  1.
</event>
<event>
 5   0  0.1588657E-05  0.1505289E+04  0.7818609E-02  0.8880944E-01
        1   -1    0    0  501    0  0.00000000000E+00  0.00000000000E+00  0.49508915602E+03  0.49508915605E+03  0.50400001928E-02 0.  1.
       -1   -1    0    0    0  501  0.00000000000E+00  0.00000000000E+00 -0.11441849769E+04  0.11441849769E+04  0.50400001928E-02 0. -1.
    10030    2    1    2    0    0  0.00000000000E+00  0.00000000000E+00 -0.64909582088E+03  0.16392741330E+04  0.15052887757E+04 0.  0.
        3    1    3    3  502    0 -0.47882692263E+03 -0.57062797366E+03 -0.44174710702E+03  0.86604389203E+03  0.10100000352E+00 0. -1.
       -3    1    3    3    0  502  0.47882692263E+03  0.57062797366E+03 -0.20734871387E+03  0.77323024094E+03  0.10100000352E+00 0.  1.
</event>
<event>
 5   0  0.1533777E-05  0.1499915E+04  0.7818609E-02  0.8884510E-01
        1   -1    0    0  501    0  0.00000000000E+00  0.00000000000E+00  0.70543235641E+03  0.70543235642E+03  0.50400001928E-02 0.  1.
       -1   -1    0    0    0  501  0.00000000000E+00  0.00000000000E+00 -0.79729243920E+03  0.79729243921E+03  0.50400001928E-02 0. -1.
    10030    2    1    2    0    0  0.00000000000E+00  0.00000000000E+00 -0.91860082791E+02  0.15027247956E+04  0.14999145098E+04 0.  0.
        5    1    3    3  502    0 -0.45226451626E+03  0.59545378869E+03 -0.10353025641E+03  0.75488344208E+03  0.46999998093E+01 0.  1.
       -5    1    3    3    0  502  0.45226451626E+03 -0.59545378869E+03  0.11670173622E+02  0.74784135356E+03  0.46999998093E+01 0. -1.
</event>
<event>
 5   0  0.1576214E-05  0.1499498E+04  0.7818609E-02  0.8884787E-01
       -1   -1    0    0    0  501  0.00000000000E+00  0.00000000000E+00  0.54566075864E+03  0.54566075866E+03  0.50400001928E-02 0.  1.
        1   -1    0    0  501    0  0.00000000000E+00  0.00000000000E+00 -0.10301702234E+04  0.10301702234E+04  0.50400001928E-02 0. -1.
    10030    2    1    2    0    0  0.00000000000E+00  0.00000000000E+00 -0.48450946472E+03  0.15758309820E+04  0.14994978701E+04 0.  0.
        1    1    3    3  502    0 -0.55024099049E+03 -0.35378900123E+03 -0.62722442930E+03  0.90627936628E+03  0.50400001928E-02 0. -1.
       -1    1    3    3    0  502  0.55024099049E+03  0.35378900123E+03  0.14271496458E+03  0.66955161575E+03  0.50400001928E-02 0.  1.
</event>
<event>
 5   0  0.1116613E-05  0.1499678E+04  0.7818609E-02  0.8884667E-01
        3   -1    0    0  501    0  0.00000000000E+00  0.00000000000E+00  0.11242557418E+04  0.11242557463E+04  0.10100000352E+00 0. -1.
       -3   -1    0    0    0  501  0.00000000000E+00  0.00000000000E+00 -0.50011633190E+03  0.50011634210E+03  0.10100000352E+00 0.  1.
    10030    2    1    2    0    0  0.00000000000E+00  0.00000000000E+00  0.62413940990E+03  0.16243720884E+04  0.14996781917E+04 0.  0.
        1    1    3    3  502    0 -0.22529904923E+03  0.26857476932E+03  0.10300308851E+04  0.10880513281E+04  0.50400001928E-02 0. -1.
       -1    1    3    3    0  502  0.22529904923E+03 -0.26857476932E+03 -0.40589147520E+03  0.53632076033E+03  0.50400001928E-02 0.  1.
</event>
<event>
 5   0  0.3093600E-05  0.1499942E+04  0.7818609E-02  0.8884491E-01
       -2   -1    0    0    0  501  0.00000000000E+00  0.00000000000E+00  0.76668349909E+03  0.76668349910E+03  0.25500000920E-02 0.  1.
        2   -1    0    0  501    0  0.00000000000E+00  0.00000000000E+00 -0.73362281436E+03  0.73362281437E+03  0.25500000920E-02 0. -1.
    10030    2    1    2    0    0  0.00000000000E+00  0.00000000000E+00  0.33060684732E+02  0.15003063135E+04  0.14999420073E+04 0.  0.
        1    1    3    3  502    0  0.13694437417E+03  0.31604415268E+03 -0.64982876053E+03  0.73546929650E+03  0.50400001928E-02 0. -1.
       -1    1    3    3    0  502 -0.13694437417E+03 -0.31604415268E+03  0.68288944526E+03  0.76483701697E+03  0.50400001928E-02 0.  1.
</event>
<event>
 5   0  0.1576214E-05  0.1498900E+04  0.7818609E-02  0.8885185E-01
       -1   -1    0    0    0  501  0.00000000000E+00  0.00000000000E+00  0.31655835063E+03  0.31655835067E+03  0.50400001928E-02 0. -1.
        1   -1    0    0  501    0  0.00000000000E+00  0.00000000000E+00 -0.17743184340E+04  0.17743184340E+04  0.50400001928E-02 0.  1.
    10030    2    1    2    0    0  0.00000000000E+00  0.00000000000E+00 -0.14577600834E+04  0.20908767847E+04  0.14989000194E+04 0.  0.
        1    1    3    3  502    0 -0.24263337691E+03 -0.57039100005E+03 -0.13165102858E+04  0.14551344203E+04  0.50400001928E-02 0.  1.
       -1    1    3    3    0  502  0.24263337691E+03  0.57039100005E+03 -0.14124979759E+03  0.63574236439E+03  0.50400001928E-02 0. -1.
</event>
<event>
 5   0  0.3070497E-05  0.1500744E+04  0.7818609E-02  0.8883958E-01
       -2   -1    0    0    0  501  0.00000000000E+00  0.00000000000E+00  0.50300442442E+03  0.50300442442E+03  0.25500000920E-02 0. -1.
        2   -1    0    0  501    0  0.00000000000E+00  0.00000000000E+00 -0.11193897853E+04  0.11193897853E+04  0.25500000920E-02 0.  1.
    10030    2    1    2    0    0  0.00000000000E+00  0.00000000000E+00 -0.61638536089E+03  0.16223942097E+04  0.15007438351E+04 0.  0.
        4    1    3    3  502    0  0.45715209299E+03  0.20005654121E+02 -0.95109913882E+03  0.10554522477E+04  0.12699999809E+01 0.  1.
       -4    1    3    3    0  502 -0.45715209299E+03 -0.20005654121E+02  0.33471377793E+03  0.56694196207E+03  0.12699999809E+01 0. -1.
</event>
<event>
 5   0  0.3030702E-05  0.1500647E+04  0.7818609E-02  0.8884023E-01
       -2   -1    0    0    0  501  0.00000000000E+00  0.00000000000E+00  0.52025896508E+03  0.52025896508E+03  0.25500000920E-02 0. -1.
        2   -1    0    0  501    0  0.00000000000E+00  0.00000000000E+00 -0.10821256494E+04  0.10821256494E+04  0.25500000920E-02 0.  1.
    10030    2    1    2    0    0  0.00000000000E+00  0.00000000000E+00 -0.56186668433E+03  0.16023846145E+04  0.15006472876E+04 0.  0.
        5    1    3    3  502    0  0.56324521292E+03 -0.16754612090E+02  0.24807032279E+03  0.61570030206E+03  0.46999998093E+01 0. -1.
       -5    1    3    3    0  502 -0.56324521292E+03  0.16754612090E+02 -0.80993700712E+03  0.98668431243E+03  0.46999998093E+01 0.  1.
</event>
<event>
 5   0  0.1580078E-05  0.1499847E+04  0.7818609E-02  0.8884555E-01
       -1   -1    0    0    0  501  0.00000000000E+00  0.00000000000E+00  0.37559051686E+03  0.37559051689E+03  0.50400001928E-02 0.  1.
        1   -1    0    0  501    0  0.00000000000E+00  0.00000000000E+00 -0.14973351873E+04  0.14973351873E+04  0.50400001928E-02 0. -1.
    10030    2    1    2    0    0  0.00000000000E+00  0.00000000000E+00 -0.11217446704E+04  0.18729257042E+04  0.14998465214E+04 0.  0.
        2    1    3    3  502    0 -0.31767373644E+03 -0.55884939423E+03 -0.10431460390E+04  0.12253093107E+04  0.25500000920E-02 0. -1.
       -2    1    3    3    0  502  0.31767373644E+03  0.55884939423E+03 -0.78598631472E+02  0.64761639350E+03  0.25500000920E-02 0.  1.
</event>
<event>
 5   0  0.1576214E-05  0.1495417E+04  0.7818609E-02  0.8887506E-01
        1   -1    0    0  501    0  0.00000000000E+00  0.00000000000E+00  0.15754979357E+04  0.15754979357E+04  0.50400001928E-02 0. -1.
       -1   -1    0    0    0  501  0.00000000000E+00  0.00000000000E+00 -0.35485179470E+03  0.35485179474E+03  0.50400001928E-02 0.  1.
    10030    2    1    2    0    0  0.00000000000E+00  0.00000000000E+00  0.12206461410E+04  0.19303497304E+04  0.14954173599E+04 0.  0.
        1    1    3    3  502    0 -0.18577208910E+03 -0.18002693338E+03 -0.29524507367E+03  0.39254378021E+03  0.50400001928E-02 0.  1.
       -1    1    3    3    0  502  0.18577208910E+03  0.18002693338E+03  0.15158912146E+04  0.15378059502E+04  0.50400001928E-02 0. -1.
</event>
<event>
 5   0  0.3018308E-05  0.1500115E+04  0.7818609E-02  0.8884376E-01
       -2   -1    0    0    0  501  0.00000000000E+00  0.00000000000E+00  0.30318560275E+03  0.30318560276E+03  0.25500000920E-02 0.  1.
        2   -1    0    0  501    0  0.00000000000E+00  0.00000000000E+00 -0.18555835085E+04  0.18555835085E+04  0.25500000920E-02 0. -1.
    10030    2    1    2    0    0  0.00000000000E+00  0.00000000000E+00 -0.15523979058E+04  0.21587691113E+04  0.15001149349E+04 0.  0.
        2    1    3    3  502    0 -0.27477041817E+03 -0.67695884062E+03 -0.53192083451E+03  0.90372110122E+03  0.25500000920E-02 0.  1.
       -2    1    3    3    0  502  0.27477041817E+03  0.67695884062E+03 -0.10204770713E+04  0.12550480101E+04  0.25500000920E-02 0. -1.
</event>
<event>
 5   0  0.1588657E-05  0.1499914E+04  0.7818609E-02  0.8884510E-01
       -1   -1    0    0    0  501  0.00000000000E+00  0.00000000000E+00  0.39608690158E+03  0.39608690162E+03  0.50400001928E-02 0. -1.
        1   -1    0    0  501    0  0.00000000000E+00  0.00000000000E+00 -0.14199794508E+04  0.14199794508E+04  0.50400001928E-02 0.  1.
    10030    2    1    2    0    0  0.00000000000E+00  0.00000000000E+00 -0.10238925492E+04  0.18160663524E+04  0.14999136788E+04 0.  0.
        3    1    3    3  502    0 -0.53713489209E+03  0.16613368838E+03 -0.11128655390E+04  0.12468295845E+04  0.10100000352E+00 0.  1.
       -3    1    3    3    0  502  0.53713489209E+03 -0.16613368838E+03  0.88972989872E+02  0.56923676783E+03  0.10100000352E+00 0. -1.
</event>
<event>
 5   0  0.1588657E-05  0.1500529E+04  0.7818609E-02  0.8884102E-01
       -1   -1    0    0    0  501  0.00000000000E+00  0.00000000000E+00  0.62669749488E+03  0.62669749490E+03  0.50400001928E-02 0. -1.
        1   -1    0    0  501    0  0.00000000000E+00  0.00000000000E+00 -0.89819485189E+03  0.89819485190E+03  0.50400001928E-02 0.  1.
    10030    2    1    2    0    0  0.00000000000E+00  0.00000000000E+00 -0.27149735701E+03  0.15248923468E+04  0.15005285250E+04 0.  0.
        3    1    3    3  502    0  0.51692182731E+03  0.53689730076E+03 -0.48154214330E+02  0.74685053771E+03  0.10100000352E+00 0.  1.
       -3    1    3    3    0  502 -0.51692182731E+03 -0.53689730076E+03 -0.22334314268E+03  0.77804180909E+03  0.10100000352E+00 0. -1.
</event>
<event>
 5   0  0.3018308E-05  0.1500191E+04  0.7818609E-02  0.8884326E-01
        2   -1    0    0  501    0  0.00000000000E+00  0.00000000000E+00  0.28024784991E+04  0.28024784991E+04  0.25500000920E-02 0. -1.
       -2   -1    0    0    0  501  0.00000000000E+00  0.00000000000E+00 -0.20076638645E+03  0.20076638646E+03  0.25500000920E-02 0.  1.
    10030    2    1    2    0    0  0.00000000000E+00  0.00000000000E+00  0.26017121127E+04  0.30032448856E+04  0.15001912963E+04 0.  0.
        2    1    3    3  502    0  0.26234633406E+03  0.37542565427E+03  0.11165960956E+03  0.47142113794E+03  0.25500000920E-02 0.  1.
       -2    1    3    3    0  502 -0.26234633406E+03 -0.37542565427E+03  0.24900525031E+04  0.25318237476E+04  0.25500000920E-02 0. -1.
</event>
<event>
 5   0  0.1533777E-05  0.1499877E+04  0.7818609E-02  0.8884535E-01
        1   -1    0    0  501    0  0.00000000000E+00  0.00000000000E+00  0.10013615407E+04  0.10013615407E+04  0.50400001928E-02 0. -1.
       -1   -1    0    0    0  501  0.00000000000E+00  0.00000000000E+00 -0.56164292917E+03  0.56164292919E+03  0.50400001928E-02 0.  1.
    10030    2    1    2    0    0  0.00000000000E+00  0.00000000000E+00  0.43971861150E+03  0.15630044699E+04  0.14998768335E+04 0.  0.
        5    1    3    3  502    0 -0.60937721116E+03  0.39251409992E+03  0.19470163137E+02  0.72512694155E+03  0.46999998093E+01 0.  1.
       -5    1    3    3    0  502  0.60937721116E+03 -0.39251409992E+03  0.42024844836E+03  0.83787752832E+03  0.46999998093E+01 0. -1.
</event>
<event>
 5   0  0.2969498E-05  0.1493502E+04  0.7818609E-02  0.8888785E-01
       -2   -1    0    0    0  501  0.00000000000E+00  0.00000000000E+00  0.46487949064E+03  0.46487949064E+03  0.25500000920E-02 0.  1.
        2   -1    0    0  501    0  0.00000000000E+00  0.00000000000E+00 -0.11995306341E+04  0.11995306341E+04  0.25500000920E-02 0. -1.
    10030    2    1    2    0    0  0.00000000000E+00  0.00000000000E+00 -0.73465114343E+03  0.16644101247E+04  0.14935021797E+04 0.  0.
        3    1    3    3  502    0 -0.16343878207E+03  0.72062782584E+03 -0.24719140431E+03  0.77917924730E+03  0.10100000352E+00 0.  1.
       -3    1    3    3    0  502  0.16343878207E+03 -0.72062782584E+03 -0.48745973912E+03  0.88523087741E+03  0.10100000352E+00 0. -1.
</event>
<event>
 5   0  0.2969498E-05  0.1500026E+04  0.7818609E-02  0.8884436E-01
        2   -1    0    0  501    0  0.00000000000E+00  0.00000000000E+00  0.11141054303E+04  0.11141054303E+04  0.25500000920E-02 0. -1.
       -2   -1    0    0    0  501  0.00000000000E+00  0.00000000000E+00 -0.50490678734E+03  0.50490678734E+03  0.25500000920E-02 0.  1.
    10030    2    1    2    0    0  0.00000000000E+00  0.00000000000E+00  0.60919864300E+03  0.16190122177E+04  0.15000258579E+04 0.  0.
        3    1    3    3  502    0 -0.21880658825E+03  0.67906558350E+03  0.54920903449E+02  0.71555761864E+03  0.10100000352E+00 0.  1.
       -3    1    3    3    0  502  0.21880658825E+03 -0.67906558350E+03  0.55427773955E+03  0.90345459904E+03  0.10100000352E+00 0. -1.
</event>
<event>
 5   0  0.3018308E-05  0.1500166E+04  0.7818609E-02  0.8884342E-01
       -2   -1    0    0    0  501  0.00000000000E+00  0.00000000000E+00  0.12520351417E+04  0.12520351417E+04  0.25500000920E-02 0.  1.
        2   -1    0    0  501    0  0.00000000000E+00  0.00000000000E+00 -0.44936806831E+03  0.44936806831E+03  0.25500000920E-02 0. -1.
    10030    2    1    2    0    0  0.00000000000E+00  0.00000000000E+00  0.80266707337E+03  0.17014032100E+04  0.15001661416E+04 0.  0.
        2    1    3    3  502    0  0.50213894502E+03 -0.36787905106E+02 -0.22924165424E+03  0.55321659964E+03  0.25500000920E-02 0. -1.
       -2    1    3    3    0  502 -0.50213894502E+03  0.36787905106E+02  0.10319087276E+04  0.11481866104E+04  0.25500000920E-02 0.  1.
</event>
<event>
 5   0  0.1643498E-05  0.1498448E+04  0.7818609E-02  0.8885485E-01
       -1   -1    0    0    0  501  0.00000000000E+00  0.00000000000E+00  0.42264082269E+03  0.42264082272E+03  0.50400001928E-02 0.  1.
        1   -1    0    0  501    0  0.00000000000E+00  0.00000000000E+00 -0.13281652634E+04  0.13281652634E+04  0.50400001928E-02 0. -1.
    10030    2    1    2    0    0  0.00000000000E+00  0.00000000000E+00 -0.90552444068E+03  0.17508060861E+04  0.14984483436E+04 0.  0.
        4    1    3    3  502    0 -0.18631657213E+03  0.53935700426E+03  0.11450835047E+03  0.58200826311E+03  0.12699999809E+01 0.  1.
       -4    1    3    3    0  502  0.18631657213E+03 -0.53935700426E+03 -0.10200327911E+04  0.11687978230E+04  0.12699999809E+01 0. -1.
</event>
<event>
 5   0  0.3093600E-05  0.1499708E+04  0.7818609E-02  0.8884647E-01
        2   -1    0    0  501    0  0.00000000000E+00  0.00000000000E+00  0.61103921167E+03  0.61103921167E+03  0.25500000920E-02 0. -1.
       -2   -1    0    0    0  501  0.00000000000E+00  0.00000000000E+00 -0.92020481663E+03  0.92020481663E+03  0.25500000920E-02 0.  1.
    10030    2    1    2    0    0  0.00000000000E+00  0.00000000000E+00 -0.30916560496E+03  0.15312440283E+04  0.14997082726E+04 0.  0.
        1    1    3    3  502    0 -0.68468063674E+03  0.30362817173E+03 -0.11771839569E+03  0.75817891141E+03  0.50400001928E-02 0.  1.
       -1    1    3    3    0  502  0.68468063674E+03 -0.30362817173E+03 -0.19144720927E+03  0.77306511689E+03  0.50400001928E-02 0. -1.
</event>
<event>
 5   0  0.3018308E-05  0.1500439E+04  0.7818609E-02  0.8884161E-01
        2   -1    0    0  501    0  0.00000000000E+00  0.00000000000E+00  0.16712803624E+04  0.16712803624E+04  0.25500000920E-02 0. -1.
       -2   -1    0    0    0  501  0.00000000000E+00  0.00000000000E+00 -0.33676527039E+03  0.33676527040E+03  0.25500000920E-02 0.  1.
    10030    2    1    2    0    0  0.00000000000E+00  0.00000000000E+00  0.13345150920E+04  0.20080456328E+04  0.15004388467E+04 0.  0.
        2    1    3    3  502    0  0.31219826162E+03  0.70380023013E+02  0.15753430587E+04  0.16075219609E+04  0.25500000920E-02 0. -1.
       -2    1    3    3    0  502 -0.31219826162E+03 -0.70380023013E+02 -0.24082796669E+03  0.40052367189E+03  0.25500000920E-02 0.  1.
</event>
<event>
 5   0  0.3093600E-05  0.1499684E+04  0.7818609E-02  0.8884663E-01
       -2   -1    0    0    0  501  0.00000000000E+00  0.00000000000E+00  0.29858262622E+03  0.29858262623E+03  0.25500000920E-02 0. -1.
        2   -1    0    0  501    0  0.00000000000E+00  0.00000000000E+00 -0.18831062495E+04  0.18831062495E+04  0.25500000920E-02 0.  1.
    10030    2    1    2    0    0  0.00000000000E+00  0.00000000000E+00 -0.15845236233E+04  0.21816888757E+04  0.14996837126E+04 0.  0.
        1    1    3    3  502    0  0.18749000615E+03 -0.64435412138E+03 -0.12789415376E+04  0.14443116675E+04  0.50400001928E-02 0.  1.
       -1    1    3    3    0  502 -0.18749000615E+03  0.64435412138E+03 -0.30558208565E+03  0.73737720824E+03  0.50400001928E-02 0. -1.
</event>
<event>
 5   0  0.2969498E-05  0.1500622E+04  0.7818609E-02  0.8884040E-01
        2   -1    0    0  501    0  0.00000000000E+00  0.00000000000E+00  0.91892086310E+03  0.91892086311E+03  0.25500000920E-02 0. -1.
       -2   -1    0    0    0  501  0.00000000000E+00  0.00000000000E+00 -0.61263857978E+03  0.61263857979E+03  0.25500000920E-02 0.  1.
    10030    2    1    2    0    0  0.00000000000E+00  0.00000000000E+00  0.30628228332E+03  0.15315594429E+04  0.15006217012E+04 0.  0.
        3    1    3    3  502    0 -0.48072143032E+03 -0.13229720839E+03 -0.41910606010E+03  0.65134134271E+03  0.10100000352E+00 0.  1.
       -3    1    3    3    0  502  0.48072143032E+03  0.13229720839E+03  0.72538834342E+03  0.88021810018E+03  0.10100000352E+00 0. -1.
</event>
<event>
 5   0  0.1580078E-05  0.1502540E+04  0.7818609E-02  0.8882766E-01
       -1   -1    0    0    0  501  0.00000000000E+00  0.00000000000E+00  0.55581094725E+03  0.55581094727E+03  0.50400001928E-02 0. -1.
        1   -1    0    0  501    0  0.00000000000E+00  0.00000000000E+00 -0.10154651848E+04  0.10154651848E+04  0.50400001928E-02 0.  1.
    10030    2    1    2    0    0  0.00000000000E+00  0.00000000000E+00 -0.45965423753E+03  0.15712761321E+04  0.15025400710E+04 0.  0.
        2    1    3    3  502    0 -0.14461758299E+03  0.50003963971E+03 -0.79632144485E+03  0.95135783496E+03  0.25500000920E-02 0.  1.
       -2    1    3    3    0  502  0.14461758299E+03 -0.50003963971E+03  0.33666720732E+03  0.61991829710E+03  0.25500000920E-02 0. -1.
</event>
<event>
 5   0  0.2969498E-05  0.1499960E+04  0.7818609E-02  0.8884479E-01
        2   -1    0    0  501    0  0.00000000000E+00  0.00000000000E+00  0.13602740429E+04  0.13602740429E+04  0.25500000920E-02 0. -1.
       -2   -1    0    0    0  501  0.00000000000E+00  0.00000000000E+00 -0.41349759974E+03  0.41349759975E+03  0.25500000920E-02 0.  1.
    10030    2    1    2    0    0  0.00000000000E+00  0.00000000000E+00  0.94677644311E+03  0.17737716426E+04  0.14999600684E+04 0.  0.
        3    1    3    3  502    0  0.34306625646E+03 -0.47252128583E+03  0.10299381231E+04  0.11839524355E+04  0.10100000352E+00 0.  1.
       -3    1    3    3    0  502 -0.34306625646E+03  0.47252128583E+03 -0.83161679976E+02  0.58981920713E+03  0.10100000352E+00 0. -1.
</event>
<event>
 5   0  0.3070497E-05  0.1501137E+04  0.7818609E-02  0.8883697E-01
        2   -1    0    0  501    0  0.00000000000E+00  0.00000000000E+00  0.10880105208E+04  0.10880105208E+04  0.25500000920E-02 0. -1.
       -2   -1    0    0    0  501  0.00000000000E+00  0.00000000000E+00 -0.51778244946E+03  0.51778244946E+03  0.25500000920E-02 0.  1.
    10030    2    1    2    0    0  0.00000000000E+00  0.00000000000E+00  0.57022807133E+03  0.16057929703E+04  0.15011365727E+04 0.  0.
        4    1    3    3  502    0  0.44091751918E+03  0.29598747091E+03 -0.28227467042E+03  0.60141287325E+03  0.12699999809E+01 0.  1.
       -4    1    3    3    0  502 -0.44091751918E+03 -0.29598747091E+03  0.85250274175E+03  0.10043800970E+04  0.12699999809E+01 0. -1.
</event>
<event>
 5   0  0.1576214E-05  0.1500271E+04  0.7818609E-02  0.8884273E-01
        1   -1    0    0  501    0  0.00000000000E+00  0.00000000000E+00  0.95666377880E+03  0.95666377881E+03  0.50400001928E-02 0.  1.
       -1   -1    0    0    0  501  0.00000000000E+00  0.00000000000E+00 -0.58819307181E+03  0.58819307183E+03  0.50400001928E-02 0. -1.
    10030    2    1    2    0    0  0.00000000000E+00  0.00000000000E+00  0.36847070699E+03  0.15448568506E+04  0.15002706513E+04 0.  0.
        1    1    3    3  502    0  0.67566612202E+03 -0.26626499372E+03 -0.91798549111E+01  0.72629610014E+03  0.50400001928E-02 0. -1.
       -1    1    3    3    0  502 -0.67566612202E+03  0.26626499372E+03  0.37765056190E+03  0.81856075050E+03  0.50400001928E-02 0.  1.
</event>
<event>
 5   0  0.1580078E-05  0.1500115E+04  0.7818609E-02  0.8884376E-01
        1   -1    0    0  501    0  0.00000000000E+00  0.00000000000E+00  0.18071742249E+04  0.18071742249E+04  0.50400001928E-02 0.  1.
       -1   -1    0    0    0  501  0.00000000000E+00  0.00000000000E+00 -0.31130730293E+03  0.31130730297E+03  0.50400001928E-02 0. -1.
    10030    2    1    2    0    0  0.00000000000E+00  0.00000000000E+00  0.14958669220E+04  0.21184815279E+04  0.15001153741E+04 0.  0.
        2    1    3    3  502    0  0.43955426314E+03 -0.28305208614E+03  0.15074623300E+04  0.15955466493E+04  0.25500000920E-02 0.  1.
       -2    1    3    3    0  502 -0.43955426314E+03  0.28305208614E+03 -0.11595408061E+02  0.52293487855E+03  0.25500000920E-02 0. -1.
</event>
<event>
 5   0  0.1533777E-05  0.1500319E+04  0.7818609E-02  0.8884241E-01
        1   -1    0    0  501    0  0.00000000000E+00  0.00000000000E+00  0.11285023335E+04  0.11285023335E+04  0.50400001928E-02 0. -1.
       -1   -1    0    0    0  501  0.00000000000E+00  0.00000000000E+00 -0.49865999281E+03  0.49865999284E+03  0.50400001928E-02 0.  1.
    10030    2    1    2    0    0  0.00000000000E+00  0.00000000000E+00  0.62984234069E+03  0.16271623264E+04  0.15003185869E+04 0.  0.
        5    1    3    3  502    0 -0.72370488964E+03  0.98779207086E+02  0.50028241708E+03  0.88533083414E+03  0.46999998093E+01 0. -1.
       -5    1    3    3    0  502  0.72370488964E+03 -0.98779207086E+02  0.12955992361E+03  0.74183149222E+03  0.46999998093E+01 0.  1.
</event>
<event>
 5   0  0.1116613E-05  0.1499636E+04  0.7818609E-02  0.8884695E-01
       -3   -1    0    0    0  501  0.00000000000E+00  0.00000000000E+00  0.22606755622E+04  0.22606755644E+04  0.10100000352E+00 0. -1.
        3   -1    0    0  501    0  0.00000000000E+00  0.00000000000E+00 -0.24869880272E+03  0.24869882323E+03  0.10100000352E+00 0.  1.
    10030    2    1    2    0    0  0.00000000000E+00  0.00000000000E+00  0.20119767595E+04  0.25093743877E+04  0.14996364016E+04 0.  0.
        4    1    3    3  502    0  0.57852814065E+03 -0.43325907427E+03  0.13398883706E+04  0.15224029340E+04  0.12699999809E+01 0. -1.
       -4    1    3    3    0  502 -0.57852814065E+03  0.43325907427E+03  0.67208838886E+03  0.98697145364E+03  0.12699999809E+01 0.  1.
</event>
<event>
 5   0  0.1588657E-05  0.1497611E+04  0.7818609E-02  0.8886043E-01
       -1   -1    0    0    0  501  0.00000000000E+00  0.00000000000E+00  0.42553620915E+03  0.42553620918E+03  0.50400001928E-02 0.  1.
        1   -1    0    0  501    0  0.00000000000E+00  0.00000000000E+00 -0.13176541603E+04  0.13176541603E+04  0.50400001928E-02 0. -1.
    10030    2    1    2    0    0  0.00000000000E+00  0.00000000000E+00 -0.89211795118E+03  0.17431903695E+04  0.14976108392E+04 0.  0.
        3    1    3    3  502    0 -0.32543925659E+03 -0.46508590364E+03 -0.10144988257E+04  0.11625074129E+04  0.10100000352E+00 0. -1.
       -3    1    3    3    0  502  0.32543925659E+03  0.46508590364E+03  0.12238087450E+03  0.58068295665E+03  0.10100000352E+00 0.  1.
</event>
<event>
 5   0  0.3070497E-05  0.1499986E+04  0.7818609E-02  0.8884463E-01
       -2   -1    0    0    0  501  0.00000000000E+00  0.00000000000E+00  0.67410872962E+03  0.67410872962E+03  0.25500000920E-02 0.  1.
        2   -1    0    0  501    0  0.00000000000E+00  0.00000000000E+00 -0.83441907449E+03  0.83441907449E+03  0.25500000920E-02 0. -1.
    10030    2    1    2    0    0  0.00000000000E+00  0.00000000000E+00 -0.16031034487E+03  0.15085278041E+04  0.14999855763E+04 0.  0.
        4    1    3    3  502    0 -0.45712326075E+03  0.17717541683E+03  0.49064623456E+03  0.69360517893E+03  0.12699999809E+01 0.  1.
       -4    1    3    3    0  502  0.45712326075E+03 -0.17717541683E+03 -0.65095657943E+03  0.81492262519E+03  0.12699999809E+01 0. -1.
</event>
<event>
 5   0  0.1576214E-05  0.1501437E+04  0.7818609E-02  0.8883498E-01
        1   -1    0    0  501    0  0.00000000000E+00  0.00000000000E+00  0.75022127655E+03  0.75022127656E+03  0.50400001928E-02 0.  1.
       -1   -1    0    0    0  501  0.00000000000E+00  0.00000000000E+00 -0.75121615751E+03  0.75121615752E+03  0.50400001928E-02 0. -1.
    10030    2    1    2    0    0  0.00000000000E+00  0.00000000000E+00 -0.99488095743E+00  0.15014374341E+04  0.15014371045E+04 0.  0.
        1    1    3    3  502    0  0.22814669658E+03  0.43803897251E+03  0.56487803511E+03  0.75034408852E+03  0.50400001928E-02 0.  1.
       -1    1    3    3    0  502 -0.22814669658E+03 -0.43803897251E+03 -0.56587291607E+03  0.75109334557E+03  0.50400001928E-02 0. -1.
</event>
<event>
 5   0  0.3030702E-05  0.1499824E+04  0.7818609E-02  0.8884570E-01
       -2   -1    0    0    0  501  0.00000000000E+00  0.00000000000E+00  0.25756565648E+03  0.25756565649E+03  0.25500000920E-02 0. -1.
        2   -1    0    0  501    0  0.00000000000E+00  0.00000000000E+00 -0.21833962776E+04  0.21833962776E+04  0.25500000920E-02 0.  1.
    10030    2    1    2    0    0  0.00000000000E+00  0.00000000000E+00 -0.19258306211E+04  0.24409619341E+04  0.14998238505E+04 0.  0.
        5    1    3    3  502    0  0.67414009367E+03  0.15892965936E+03 -0.49510541992E+03  0.85139589461E+03  0.46999998093E+01 0. -1.
       -5    1    3    3    0  502 -0.67414009367E+03 -0.15892965936E+03 -0.14307252012E+04  0.15895660395E+04  0.46999998093E+01 0.  1.
</event>
<event>
 5   0  0.3030702E-05  0.1502449E+04  0.7818609E-02  0.8882826E-01
       -2   -1    0    0    0  501  0.00000000000E+00  0.00000000000E+00  0.11897989757E+04  0.11897989757E+04  0.25500000920E-02 0.  1.
        2   -1    0    0  501    0  0.00000000000E+00  0.00000000000E+00 -0.47431384009E+03  0.47431384010E+03  0.25500000920E-02 0. -1.
    10030    2    1    2    0    0  0.00000000000E+00  0.00000000000E+00  0.71548513564E+03  0.16641128158E+04  0.15024488292E+04 0.  0.
        5    1    3    3  502    0  0.14808479739E+02 -0.74920842085E+03  0.29930699592E+03  0.80693203973E+03  0.46999998093E+01 0. -1.
       -5    1    3    3    0  502 -0.14808479739E+02  0.74920842085E+03  0.41617813972E+03  0.85718077610E+03  0.46999998093E+01 0.  1.
</event>
<event>
 5   0  0.3030702E-05  0.1500744E+04  0.7818609E-02  0.8883959E-01
       -2   -1    0    0    0  501  0.00000000000E+00  0.00000000000E+00  0.89518694974E+03  0.89518694975E+03  0.25500000920E-02 0.  1.
        2   -1    0    0  501    0  0.00000000000E+00  0.00000000000E+00 -0.62898353833E+03  0.62898353834E+03  0.25500000920E-02 0. -1.
    10030    2    1    2    0    0  0.00000000000E+00  0.00000000000E+00  0.26620341141E+03  0.15241704881E+04  0.15007436225E+04 0.  0.
        5    1    3    3  502    0  0.27303015420E+03 -0.42755110413E+03 -0.42842175865E+03  0.66401257897E+03  0.46999998093E+01 0. -1.
       -5    1    3    3    0  502 -0.27303015420E+03  0.42755110413E+03  0.69462517006E+03  0.86015790912E+03  0.46999998093E+01 0.  1.
</event>
<event>
 5   0  0.3018308E-05  0.1499852E+04  0.7818609E-02  0.8884552E-01
       -2   -1    0    0    0  501  0.00000000000E+00  0.00000000000E+00  0.36520041181E+03  0.36520041182E+03  0.25500000920E-02 0. -1.
        2   -1    0    0  501    0  0.00000000000E+00  0.00000000000E+00 -0.15399452650E+04  0.15399452650E+04  0.25500000920E-02 0.  1.
    10030    2    1    2    0    0  0.00000000000E+00  0.00000000000E+00 -0.11747448532E+04  0.19051456768E+04  0.14998515192E+04 0.  0.
        2    1    3    3  502    0 -0.56135814180E+03 -0.46650731231E+03 -0.80604493079E+03  0.10874099808E+04  0.25500000920E-02 0. -1.
       -2    1    3    3    0  502  0.56135814180E+03  0.46650731231E+03 -0.36869992240E+03  0.81773569605E+03  0.25500000920E-02 0.  1.
</event>
<event>
 5   0  0.1643498E-05  0.1500065E+04  0.7818609E-02  0.8884410E-01
        1   -1    0    0  501    0  0.00000000000E+00  0.00000000000E+00  0.66006961389E+03  0.66006961391E+03  0.50400001928E-02 0.  1.
       -1   -1    0    0    0  501  0.00000000000E+00  0.00000000000E+00 -0.85225648240E+03  0.85225648242E+03  0.50400001928E-02 0. -1.
    10030    2    1    2    0    0  0.00000000000E+00  0.00000000000E+00 -0.19218686852E+03  0.15123260963E+04  0.15000648083E+04 0.  0.
        4    1    3    3  502    0 -0.34521808730E+03  0.14826310822E+02 -0.76723109159E+03  0.84145142943E+03  0.12699999809E+01 0. -1.
       -4    1    3    3    0  502  0.34521808730E+03 -0.14826310822E+02  0.57504422307E+03  0.67087466689E+03  0.12699999809E+01 0.  1.
</event>
<event>
 5   0  0.3093600E-05  0.1499789E+04  0.7818609E-02  0.8884593E-01
        2   -1    0    0  501    0  0.00000000000E+00  0.00000000000E+00  0.11006291736E+04  0.11006291736E+04  0.25500000920E-02 0.  1.
       -2   -1    0    0    0  501  0.00000000000E+00  0.00000000000E+00 -0.51092768705E+03  0.51092768705E+03  0.25500000920E-02 0. -1.
    10030    2    1    2    0    0  0.00000000000E+00  0.00000000000E+00  0.58970148659E+03  0.16115568607E+04  0.14997892092E+04 0.  0.
        1    1    3    3  502    0  0.47045999164E+03  0.49624830048E+03 -0.35897846904E+02  0.68475078306E+03  0.50400001928E-02 0. -1.
       -1    1    3    3    0  502 -0.47045999164E+03 -0.49624830048E+03  0.62559933350E+03  0.92680607764E+03  0.50400001928E-02 0.  1.
</event>
<event>
 5   0  0.3030702E-05  0.1499733E+04  0.7818609E-02  0.8884630E-01
        2   -1    0    0  501    0  0.00000000000E+00  0.00000000000E+00  0.52157763731E+03  0.52157763732E+03  0.25500000920E-02 0.  1.
       -2   -1    0    0    0  501  0.00000000000E+00  0.00000000000E+00 -0.10780755416E+04  0.10780755416E+04  0.25500000920E-02 0. -1.
    10030    2    1    2    0    0  0.00000000000E+00  0.00000000000E+00 -0.55649790427E+03  0.15996531789E+04  0.14997334348E+04 0.  0.
        5    1    3    3  502    0  0.16470976876E+03 -0.25381145040E+03 -0.10100566615E+04  0.10544126847E+04  0.46999998093E+01 0. -1.
       -5    1    3    3    0  502 -0.16470976876E+03  0.25381145040E+03  0.45355875721E+03  0.54524049420E+03  0.46999998093E+01 0.  1.
</event>
<event>
 5   0  0.3070497E-05  0.1500097E+04  0.7818609E-02  0.8884388E-01
       -2   -1    0    0    0  501  0.00000000000E+00  0.00000000000E+00  0.18074700160E+04  0.18074700160E+04  0.25500000920E-02 0. -1.
        2   -1    0    0  501    0  0.00000000000E+00  0.00000000000E+00 -0.31124886862E+03  0.31124886863E+03  0.25500000920E-02 0.  1.
    10030    2    1    2    0    0  0.00000000000E+00  0.00000000000E+00  0.14962211474E+04  0.21187188846E+04  0.15000973269E+04 0.  0.
        4    1    3    3  502    0 -0.19922347846E+03 -0.24411164255E+03  0.17094589200E+04  0.17382554186E+04  0.12699999809E+01 0. -1.
       -4    1    3    3    0  502  0.19922347846E+03  0.24411164255E+03 -0.21323777259E+03  0.38046346600E+03  0.12699999809E+01 0.  1.
</event>
<event>
 5   0  0.3030702E-05  0.1501467E+04  0.7818609E-02  0.8883478E-01
       -2   -1    0    0    0  501  0.00000000000E+00  0.00000000000E+00  0.44052233352E+03  0.44052233353E+03  0.25500000920E-02 0. -1.
        2   -1    0    0  501    0  0.00000000000E+00  0.00000000000E+00 -0.12793913562E+04  0.12793913562E+04  0.25500000920E-02 0.  1.
    10030    2    1    2    0    0  0.00000000000E+00  0.00000000000E+00 -0.83886902268E+03  0.17199136897E+04  0.15014665707E+04 0.  0.
        5    1    3    3  502    0  0.41404793640E+03 -0.23879650387E+03  0.24368293559E+03  0.53652858916E+03  0.46999998093E+01 0. -1.
       -5    1    3    3    0  502 -0.41404793640E+03  0.23879650387E+03 -0.10825519583E+04  0.11833851006E+04  0.46999998093E+01 0.  1.
</event>
<event>
 5   0  0.3030702E-05  0.1500338E+04  0.7818609E-02  0.8884228E-01
       -2   -1    0    0    0  501  0.00000000000E+00  0.00000000000E+00  0.51217234008E+03  0.51217234009E+03  0.25500000920E-02 0.  1.
        2   -1    0    0  501    0  0.00000000000E+00  0.00000000000E+00 -0.10987579384E+04  0.10987579384E+04  0.25500000920E-02 0. -1.
    10030    2    1    2    0    0  0.00000000000E+00  0.00000000000E+00 -0.58658559832E+03  0.16109302785E+04  0.15003378613E+04 0.  0.
        5    1    3    3  502    0  0.48432149791E+03  0.24972822520E+02 -0.90779026943E+03  0.10292211708E+04  0.46999998093E+01 0. -1.
       -5    1    3    3    0  502 -0.48432149791E+03 -0.24972822520E+02  0.32120467111E+03  0.58170910767E+03  0.46999998093E+01 0.  1.
</event>
<event>
 5   0  0.1643498E-05  0.1499875E+04  0.7818609E-02  0.8884536E-01
        1   -1    0    0  501    0  0.00000000000E+00  0.00000000000E+00  0.73497082329E+03  0.73497082331E+03  0.50400001928E-02 0. -1.
       -1   -1    0    0    0  501  0.00000000000E+00  0.00000000000E+00 -0.76520938256E+03  0.76520938258E+03  0.50400001928E-02 0.  1.
    10030    2    1    2    0    0  0.00000000000E+00  0.00000000000E+00 -0.30238559271E+02  0.15001802059E+04  0.14998754214E+04 0.  0.
        4    1    3    3  502    0  0.12427815940E+03  0.56736944406E+03 -0.48961193854E+03  0.75965427019E+03  0.12699999809E+01 0.  1.
       -4    1    3    3    0  502 -0.12427815940E+03 -0.56736944406E+03  0.45937337927E+03  0.74052593569E+03  0.12699999809E+01 0. -1.
</event>
<event>
 5   0  0.1588657E-05  0.1500012E+04  0.7818609E-02  0.8884445E-01
        1   -1    0    0  501    0  0.00000000000E+00  0.00000000000E+00  0.12941754984E+04  0.12941754984E+04  0.50400001928E-02 0. -1.
       -1   -1    0    0    0  501  0.00000000000E+00  0.00000000000E+00 -0.43464641329E+03  0.43464641332E+03  0.50400001928E-02 0.  1.
    10030    2    1    2    0    0  0.00000000000E+00  0.00000000000E+00  0.85952908514E+03  0.17288219118E+04  0.15000116514E+04 0.  0.
        3    1    3    3  502    0  0.23784676771E+02 -0.71726002318E+02 -0.43024766203E+03  0.43683336770E+03  0.10100000352E+00 0.  1.
       -3    1    3    3    0  502 -0.23784676771E+02  0.71726002318E+02  0.12897767472E+04  0.12919885441E+04  0.10100000352E+00 0. -1.
</event>
<event>
 5   0  0.1533777E-05  0.1498917E+04  0.7818609E-02  0.8885174E-01
        1   -1    0    0  501    0  0.00000000000E+00  0.00000000000E+00  0.84769805857E+03  0.84769805859E+03  0.50400001928E-02 0. -1.
       -1   -1    0    0    0  501  0.00000000000E+00  0.00000000000E+00 -0.66260372802E+03  0.66260372804E+03  0.50400001928E-02 0.  1.
    10030    2    1    2    0    0  0.00000000000E+00  0.00000000000E+00  0.18509433055E+03  0.15103017866E+04  0.14989168007E+04 0.  0.
        5    1    3    3  502    0  0.12102291292E+03  0.55548978828E+03 -0.39947559609E+03  0.69485127344E+03  0.46999998093E+01 0.  1.
       -5    1    3    3    0  502 -0.12102291292E+03 -0.55548978828E+03  0.58456992664E+03  0.81545051319E+03  0.46999998093E+01 0. -1.
</event>
<event>
 5   0  0.3093600E-05  0.1499623E+04  0.7818609E-02  0.8884704E-01
        2   -1    0    0  501    0  0.00000000000E+00  0.00000000000E+00  0.10413899755E+04  0.10413899755E+04  0.25500000920E-02 0. -1.
       -2   -1    0    0    0  501  0.00000000000E+00  0.00000000000E+00 -0.53987165654E+03  0.53987165655E+03  0.25500000920E-02 0.  1.
    10030    2    1    2    0    0  0.00000000000E+00  0.00000000000E+00  0.50151831900E+03  0.15812616321E+04  0.14996225274E+04 0.  0.
        1    1    3    3  502    0  0.37891478570E+03 -0.31468060174E+03  0.84688296482E+03  0.97969947027E+03  0.50400001928E-02 0. -1.
       -1    1    3    3    0  502 -0.37891478570E+03  0.31468060174E+03 -0.34536464581E+03  0.60156216182E+03  0.50400001928E-02 0.  1.
</event>
<event>
 5   0  0.3030702E-05  0.1500211E+04  0.7818609E-02  0.8884313E-01
        2   -1    0    0  501    0  0.00000000000E+00  0.00000000000E+00  0.67251665547E+03  0.67251665548E+03  0.25500000920E-02 0.  1.
       -2   -1    0    0    0  501  0.00000000000E+00  0.00000000000E+00 -0.83664596312E+03  0.83664596312E+03  0.25500000920E-02 0. -1.
    10030    2    1    2    0    0  0.00000000000E+00  0.00000000000E+00 -0.16412930764E+03  0.15091626186E+04  0.15002111117E+04 0.  0.
        5    1    3    3  502    0  0.24912804628E+03 -0.15560213531E+03  0.61224156099E+03  0.67907188644E+03  0.46999998093E+01 0.  1.
       -5    1    3    3    0  502 -0.24912804628E+03  0.15560213531E+03 -0.77637086863E+03  0.83009073216E+03  0.46999998093E+01 0. -1.
</event>
<event>
 5   0  0.1533777E-05  0.1500777E+04  0.7818609E-02  0.8883936E-01
       -1   -1    0    0    0  501  0.00000000000E+00  0.00000000000E+00  0.18987422678E+03  0.18987422685E+03  0.50400001928E-02 0.  1.
        1   -1    0    0  501    0  0.00000000000E+00  0.00000000000E+00 -0.29655571348E+04  0.29655571348E+04  0.50400001928E-02 0. -1.
    10030    2    1    2    0    0  0.00000000000E+00  0.00000000000E+00 -0.27756829080E+04  0.31554313616E+04  0.15007769562E+04 0.  0.
        5    1    3    3  502    0  0.53681746194E+03  0.22659191637E+03 -0.23819275304E+04  0.24521659271E+04  0.46999998093E+01 0. -1.
       -5    1    3    3    0  502 -0.53681746194E+03 -0.22659191637E+03 -0.39375537761E+03  0.70326543453E+03  0.46999998093E+01 0.  1.
</event>
<event>
 5   0  0.1576214E-05  0.1489913E+04  0.7818609E-02  0.8891188E-01
        1   -1    0    0  501    0  0.00000000000E+00  0.00000000000E+00  0.16540982129E+04  0.16540982129E+04  0.50400001928E-02 0.  1.
       -1   -1    0    0    0  501  0.00000000000E+00  0.00000000000E+00 -0.33550632829E+03  0.33550632833E+03  0.50400001928E-02 0. -1.
    10030    2    1    2    0    0  0.00000000000E+00  0.00000000000E+00  0.13185918846E+04  0.19896045412E+04  0.14899133103E+04 0.  0.
        1    1    3    3  502    0 -0.18601268289E+03 -0.15099989373E+03  0.16012461358E+04  0.16190709909E+04  0.50400001928E-02 0.  1.
       -1    1    3    3    0  502  0.18601268289E+03  0.15099989373E+03 -0.28265425125E+03  0.37053355028E+03  0.50400001928E-02 0. -1.
</event>
<event>
 5   0  0.3070497E-05  0.1499805E+04  0.7818609E-02  0.8884583E-01
       -2   -1    0    0    0  501  0.00000000000E+00  0.00000000000E+00  0.37593612542E+03  0.37593612543E+03  0.25500000920E-02 0. -1.
        2   -1    0    0  501    0  0.00000000000E+00  0.00000000000E+00 -0.14958760457E+04  0.14958760457E+04  0.25500000920E-02 0.  1.
    10030    2    1    2    0    0  0.00000000000E+00  0.00000000000E+00 -0.11199399203E+04  0.18718121711E+04  0.14998051137E+04 0.  0.
        4    1    3    3  502    0 -0.39706209368E+03 -0.21830068776E+03  0.18576603246E+03  0.48971841729E+03  0.12699999809E+01 0. -1.
       -4    1    3    3    0  502  0.39706209368E+03  0.21830068776E+03 -0.13057059528E+04  0.13820937539E+04  0.12699999809E+01 0.  1.
</event>
<event>
 5   0  0.1576214E-05  0.1498993E+04  0.7818609E-02  0.8885123E-01
        1   -1    0    0  501    0  0.00000000000E+00  0.00000000000E+00  0.64813255100E+03  0.64813255102E+03  0.50400001928E-02 0. -1.
       -1   -1    0    0    0  501  0.00000000000E+00  0.00000000000E+00 -0.86671302247E+03  0.86671302248E+03  0.50400001928E-02 0.  1.
    10030    2    1    2    0    0  0.00000000000E+00  0.00000000000E+00 -0.21858047146E+03  0.15148455735E+04  0.14989928916E+04 0.  0.
        1    1    3    3  502    0  0.51648320884E+02 -0.32424371117E+03  0.57158828919E+03  0.65917729454E+03  0.50400001928E-02 0. -1.
       -1    1    3    3    0  502 -0.51648320884E+02  0.32424371117E+03 -0.79016876065E+03  0.85566827896E+03  0.50400001928E-02 0.  1.
</event>
<event>
 5   0  0.3070497E-05  0.1501530E+04  0.7818609E-02  0.8883436E-01
        2   -1    0    0  501    0  0.00000000000E+00  0.00000000000E+00  0.14344542477E+04  0.14344542477E+04  0.25500000920E-02 0. -1.
       -2   -1    0    0    0  501  0.00000000000E+00  0.00000000000E+00 -0.39293540394E+03  0.39293540394E+03  0.25500000920E-02 0.  1.
    10030    2    1    2    0    0  0.00000000000E+00  0.00000000000E+00  0.10415188438E+04  0.18273896517E+04  0.15015296990E+04 0.  0.
        4    1    3    3  502    0 -0.19870627636E+03 -0.37709779637E+03 -0.23139287658E+03  0.48500640049E+03  0.12699999809E+01 0.  1.
       -4    1    3    3    0  502  0.19870627636E+03  0.37709779637E+03  0.12729117204E+04  0.13423832512E+04  0.12699999809E+01 0. -1.
</event>
<event>
 5   0  0.3093600E-05  0.1500788E+04  0.7818609E-02  0.8883929E-01
       -2   -1    0    0    0  501  0.00000000000E+00  0.00000000000E+00  0.32368550741E+03  0.32368550742E+03  0.25500000920E-02 0.  1.
        2   -1    0    0  501    0  0.00000000000E+00  0.00000000000E+00 -0.17396231541E+04  0.17396231541E+04  0.25500000920E-02 0. -1.
    10030    2    1    2    0    0  0.00000000000E+00  0.00000000000E+00 -0.14159376466E+04  0.20633086615E+04  0.15007875310E+04 0.  0.
        1    1    3    3  502    0 -0.42621637986E+03  0.33871724811E+03 -0.14179671616E+04  0.15188879642E+04  0.50400001928E-02 0. -1.
       -1    1    3    3    0  502  0.42621637986E+03 -0.33871724811E+03  0.20295149133E+01  0.54442069724E+03  0.50400001928E-02 0.  1.
</event>
<event>
 5   0  0.1116613E-05  0.1499767E+04  0.7818609E-02  0.8884608E-01
       -4   -1    0    0    0  501  0.00000000000E+00  0.00000000000E+00  0.10184411465E+04  0.10184419384E+04  0.12699999809E+01 0.  1.
        4   -1    0    0  501    0  0.00000000000E+00  0.00000000000E+00 -0.55214168553E+03  0.55214314611E+03  0.12699999809E+01 0. -1.
    10030    2    1    2    0    0  0.00000000000E+00  0.00000000000E+00  0.46629946100E+03  0.15705850845E+04  0.14997674221E+04 0.  0.
        5    1    3    3  502    0 -0.31045586144E+03 -0.52532932991E+03  0.68956157731E+03  0.92079911254E+03  0.46999998093E+01 0.  1.
       -5    1    3    3    0  502  0.31045586144E+03  0.52532932991E+03 -0.22326211630E+03  0.64978597195E+03  0.46999998093E+01 0. -1.
</event>
<event>
 5   0  0.1576214E-05  0.1499928E+04  0.7818609E-02  0.8884501E-01
        1   -1    0    0  501    0  0.00000000000E+00  0.00000000000E+00  0.23001384492E+04  0.23001384492E+04  0.50400001928E-02 0.  1.
       -1   -1    0    0    0  501  0.00000000000E+00  0.00000000000E+00 -0.24452711291E+03  0.24452711296E+03  0.50400001928E-02 0. -1.
    10030    2    1    2    0    0  0.00000000000E+00  0.00000000000E+00  0.20556113363E+04  0.25446655622E+04  0.14999282841E+04 0.  0.
        1    1    3    3  502    0 -0.74365381685E+03 -0.57617503903E+02  0.89524379271E+03  0.11652477095E+04  0.50400001928E-02 0.  1.
       -1    1    3    3    0  502  0.74365381685E+03  0.57617503903E+02  0.11603675436E+04  0.13794178527E+04  0.50400001928E-02 0. -1.
</event>
<event>
 5   0  0.1116613E-05  0.1499890E+04  0.7818609E-02  0.8884526E-01
       -3   -1    0    0    0  501  0.00000000000E+00  0.00000000000E+00  0.21750086214E+03  0.21750088559E+03  0.10100000352E+00 0.  1.
        3   -1    0    0  501    0  0.00000000000E+00  0.00000000000E+00 -0.25858175865E+04  0.25858175885E+04  0.10100000352E+00 0. -1.
    10030    2    1    2    0    0  0.00000000000E+00  0.00000000000E+00 -0.23683167244E+04  0.28033184741E+04  0.14998901160E+04 0.  0.
        2    1    3    3  502    0  0.39386584183E+03 -0.63114729741E+03 -0.10074362361E+04  0.12523597655E+04  0.25500000920E-02 0. -1.
       -2    1    3    3    0  502 -0.39386584183E+03  0.63114729741E+03 -0.13608804883E+04  0.15509587086E+04  0.25500000920E-02 0.  1.
</event>
<event>
 5   0  0.3070497E-05  0.1496508E+04  0.7818609E-02  0.8886778E-01
       -2   -1    0    0    0  501  0.00000000000E+00  0.00000000000E+00  0.76002478736E+03  0.76002478736E+03  0.25500000920E-02 0. -1.
        2   -1    0    0  501    0  0.00000000000E+00  0.00000000000E+00 -0.73666589059E+03  0.73666589059E+03  0.25500000920E-02 0.  1.
    10030    2    1    2    0    0  0.00000000000E+00  0.00000000000E+00  0.23358896775E+02  0.14966906780E+04  0.14965083853E+04 0.  0.
        4    1    3    3  502    0 -0.94579963441E+01 -0.50800376064E+03 -0.53768287416E+03  0.73977142456E+03  0.12699999809E+01 0.  1.
       -4    1    3    3    0  502  0.94579963441E+01  0.50800376064E+03  0.56104177094E+03  0.75691925340E+03  0.12699999809E+01 0. -1.
</event>
<event>
 5   0  0.1643498E-05  0.1499661E+04  0.7818609E-02  0.8884678E-01
       -1   -1    0    0    0  501  0.00000000000E+00  0.00000000000E+00  0.85481204096E+03  0.85481204098E+03  0.50400001928E-02 0. -1.
        1   -1    0    0  501    0  0.00000000000E+00  0.00000000000E+00 -0.65774211858E+03  0.65774211860E+03  0.50400001928E-02 0.  1.
    10030    2    1    2    0    0  0.00000000000E+00  0.00000000000E+00  0.19706992238E+03  0.15125541596E+04  0.14996611388E+04 0.  0.
        4    1    3    3  502    0  0.23870073363E+03  0.13802964290E+03 -0.60475035133E+03  0.66464638936E+03  0.12699999809E+01 0.  1.
       -4    1    3    3    0  502 -0.23870073363E+03 -0.13802964290E+03  0.80182027371E+03  0.84790777021E+03  0.12699999809E+01 0. -1.
</event>
<event>
 5   0  0.3070497E-05  0.1499628E+04  0.7818609E-02  0.8884700E-01
        2   -1    0    0  501    0  0.00000000000E+00  0.00000000000E+00  0.97797710786E+03  0.97797710786E+03  0.25500000920E-02 0.  1.
       -2   -1    0    0    0  501  0.00000000000E+00  0.00000000000E+00 -0.57488166770E+03  0.57488166771E+03  0.25500000920E-02 0. -1.
    10030    2    1    2    0    0  0.00000000000E+00  0.00000000000E+00  0.40309544016E+03  0.15528587756E+04  0.14996281016E+04 0.  0.
        4    1    3    3  502    0  0.20186578795E+03  0.22390195420E+03 -0.50936198194E+03  0.59188945166E+03  0.12699999809E+01 0. -1.
       -4    1    3    3    0  502 -0.20186578795E+03 -0.22390195420E+03  0.91245742210E+03  0.96096932391E+03  0.12699999809E+01 0.  1.
</event>
<event>
 5   0  0.1580078E-05  0.1500078E+04  0.7818609E-02  0.8884401E-01
       -1   -1    0    0    0  501  0.00000000000E+00  0.00000000000E+00  0.31086175749E+03  0.31086175753E+03  0.50400001928E-02 0. -1.
        1   -1    0    0  501    0  0.00000000000E+00  0.00000000000E+00 -0.18096731472E+04  0.18096731472E+04  0.50400001928E-02 0.  1.
    10030    2    1    2    0    0  0.00000000000E+00  0.00000000000E+00 -0.14988113897E+04  0.21205349048E+04  0.15000775648E+04 0.  0.
        2    1    3    3  502    0 -0.92788899922E+02 -0.38430307223E+03 -0.16504237588E+04  0.16971143789E+04  0.25500000920E-02 0.  1.
       -2    1    3    3    0  502  0.92788899922E+02  0.38430307223E+03  0.15161236909E+03  0.42342052589E+03  0.25500000920E-02 0. -1.
</event>
<event>
 5   0  0.3093600E-05  0.1499490E+04  0.7818609E-02  0.8884792E-01
        2   -1    0    0  501    0  0.00000000000E+00  0.00000000000E+00  0.50030354310E+03  0.50030354310E+03  0.25500000920E-02 0.  1.
       -2   -1    0    0    0  501  0.00000000000E+00  0.00000000000E+00 -0.11235528225E+04  0.11235528225E+04  0.25500000920E-02 0. -1.
    10030    2    1    2    0    0  0.00000000000E+00  0.00000000000E+00 -0.62324927937E+03  0.16238563656E+04  0.14994898572E+04 0.  0.
        1    1    3    3  502    0 -0.17884823414E+03 -0.45593284030E+02  0.47531683278E+03  0.50989364573E+03  0.50400001928E-02 0.  1.
       -1    1    3    3    0  502  0.17884823414E+03  0.45593284030E+02 -0.10985661121E+04  0.11139627198E+04  0.50400001928E-02 0. -1.
</event>
<event>
 5   0  0.1588657E-05  0.1503063E+04  0.7818609E-02  0.8882418E-01
        1   -1    0    0  501    0  0.00000000000E+00  0.00000000000E+00  0.46018670700E+03  0.46018670703E+03  0.50400001928E-02 0. -1.
       -1   -1    0    0    0  501  0.00000000000E+00  0.00000000000E+00 -0.12273276902E+04  0.12273276902E+04  0.50400001928E-02 0.  1.
    10030    2    1    2    0    0  0.00000000000E+00  0.00000000000E+00 -0.76714098317E+03  0.16875143972E+04  0.15030633895E+04 0.  0.
        3    1    3    3  502    0 -0.34023886876E+03 -0.63704141944E+03 -0.15017602012E+03  0.73765649534E+03  0.10100000352E+00 0. -1.
       -3    1    3    3    0  502  0.34023886876E+03  0.63704141944E+03 -0.61696496305E+03  0.94985790186E+03  0.10100000352E+00 0.  1.
</event>
<event>
 5   0  0.1576214E-05  0.1500130E+04  0.7818609E-02  0.8884367E-01
       -1   -1    0    0    0  501  0.00000000000E+00  0.00000000000E+00  0.63739014595E+03  0.63739014597E+03  0.50400001928E-02 0.  1.
        1   -1    0    0  501    0  0.00000000000E+00  0.00000000000E+00 -0.88265768352E+03  0.88265768354E+03  0.50400001928E-02 0. -1.
    10030    2    1    2    0    0  0.00000000000E+00  0.00000000000E+00 -0.24526753757E+03  0.15200478295E+04  0.15001297407E+04 0.  0.
        1    1    3    3  502    0 -0.35717161040E+03 -0.10068122266E+03  0.53785615663E+03  0.65345046723E+03  0.50400001928E-02 0.  1.
       -1    1    3    3    0  502  0.35717161040E+03  0.10068122266E+03 -0.78312369420E+03  0.86659736228E+03  0.50400001928E-02 0. -1.
</event>
<event>
 5   0  0.1588657E-05  0.1499709E+04  0.7818609E-02  0.8884646E-01
       -1   -1    0    0    0  501  0.00000000000E+00  0.00000000000E+00  0.25325052278E+03  0.25325052283E+03  0.50400001928E-02 0.  1.
        1   -1    0    0  501    0  0.00000000000E+00  0.00000000000E+00 -0.22202596459E+04  0.22202596459E+04  0.50400001928E-02 0. -1.
    10030    2    1    2    0    0  0.00000000000E+00  0.00000000000E+00 -0.19670091231E+04  0.24735101687E+04  0.14997091933E+04 0.  0.
        3    1    3    3  502    0 -0.26975725108E+03  0.27411946234E+03 -0.20452039320E+04  0.20810501166E+04  0.10100000352E+00 0. -1.
       -3    1    3    3    0  502  0.26975725108E+03 -0.27411946234E+03  0.78194808932E+02  0.39246005209E+03  0.10100000352E+00 0.  1.
</event>
<event>
 5   0  0.2969498E-05  0.1499165E+04  0.7818609E-02  0.8885008E-01
        2   -1    0    0  501    0  0.00000000000E+00  0.00000000000E+00  0.10059660033E+04  0.10059660033E+04  0.25500000920E-02 0.  1.
       -2   -1    0    0    0  501  0.00000000000E+00  0.00000000000E+00 -0.55854188991E+03  0.55854188992E+03  0.25500000920E-02 0. -1.
    10030    2    1    2    0    0  0.00000000000E+00  0.00000000000E+00  0.44742411335E+03  0.15645078932E+04  0.14991653046E+04 0.  0.
        3    1    3    3  502    0  0.69462485515E+03  0.26103579729E+03  0.11311771254E+03  0.75062574160E+03  0.10100000352E+00 0. -1.
       -3    1    3    3    0  502 -0.69462485515E+03 -0.26103579729E+03  0.33430640081E+03  0.81388215159E+03  0.10100000352E+00 0.  1.
</event>
<event>
 5   0  0.3018308E-05  0.1499464E+04  0.7818609E-02  0.8884810E-01
        2   -1    0    0  501    0  0.00000000000E+00  0.00000000000E+00  0.52371127897E+03  0.52371127898E+03  0.25500000920E-02 0.  1.
       -2   -1    0    0    0  501  0.00000000000E+00  0.00000000000E+00 -0.10732973662E+04  0.10732973662E+04  0.25500000920E-02 0. -1.
    10030    2    1    2    0    0  0.00000000000E+00  0.00000000000E+00 -0.54958608726E+03  0.15970086452E+04  0.14994638194E+04 0.  0.
        2    1    3    3  502    0 -0.65044480000E+02  0.10993276724E+03  0.51203685794E+03  0.52772885233E+03  0.25500000920E-02 0.  1.
       -2    1    3    3    0  502  0.65044480000E+02 -0.10993276724E+03 -0.10616229452E+04  0.10692797929E+04  0.25500000920E-02 0. -1.
</event>
<event>
 5   0  0.1643498E-05  0.1500271E+04  0.7818609E-02  0.8884272E-01
       -1   -1    0    0    0  501  0.00000000000E+00  0.00000000000E+00  0.13653485971E+04  0.13653485971E+04  0.50400001928E-02 0.  1.
        1   -1    0    0  501    0  0.00000000000E+00  0.00000000000E+00 -0.41213177957E+03  0.41213177960E+03  0.50400001928E-02 0. -1.
    10030    2    1    2    0    0  0.00000000000E+00  0.00000000000E+00  0.95321681752E+03  0.17774803767E+04  0.15002713716E+04 0.  0.
        4    1    3    3  502    0  0.63191153466E+03 -0.37228093346E+03  0.29004282715E+03  0.78868988552E+03  0.12699999809E+01 0.  1.
       -4    1    3    3    0  502 -0.63191153466E+03  0.37228093346E+03  0.66317399037E+03  0.98879049118E+03  0.12699999809E+01 0. -1.
</event>
<event>
 5   0  0.3093600E-05  0.1500269E+04  0.7818609E-02  0.8884274E-01
        2   -1    0    0  501    0  0.00000000000E+00  0.00000000000E+00  0.13305660140E+04  0.13305660140E+04  0.25500000920E-02 0. -1.
       -2   -1    0    0    0  501  0.00000000000E+00  0.00000000000E+00 -0.42290388351E+03  0.42290388352E+03  0.25500000920E-02 0.  1.
    10030    2    1    2    0    0  0.00000000000E+00  0.00000000000E+00  0.90766213045E+03  0.17534698975E+04  0.15002686887E+04 0.  0.
        1    1    3    3  502    0 -0.71937466774E+03  0.16998916744E+03  0.30458814732E+03  0.79948118749E+03  0.50400001928E-02 0. -1.
       -1    1    3    3    0  502  0.71937466774E+03 -0.16998916744E+03  0.60307398313E+03  0.95398870999E+03  0.50400001928E-02 0.  1.
</event>
<event>
 5   0  0.1116613E-05  0.1499767E+04  0.7818609E-02  0.8884608E-01
        4   -1    0    0  501    0  0.00000000000E+00  0.00000000000E+00  0.91852804936E+03  0.91852892734E+03  0.12699999809E+01 0.  1.
       -4   -1    0    0    0  501  0.00000000000E+00  0.00000000000E+00 -0.61220103280E+03  0.61220235009E+03  0.12699999809E+01 0. -1.
    10030    2    1    2    0    0  0.00000000000E+00  0.00000000000E+00  0.30632701657E+03  0.15307312774E+04  0.14997673162E+04 0.  0.
        2    1    3    3  502    0 -0.39659551168E+03  0.92573325468E+02 -0.48949308291E+03  0.63675843041E+03  0.25500000920E-02 0. -1.
       -2    1    3    3    0  502  0.39659551168E+03 -0.92573325468E+02  0.79582009947E+03  0.89397284702E+03  0.25500000920E-02 0.  1.
</event>
<event>
 5   0  0.1643498E-05  0.1500099E+04  0.7818609E-02  0.8884387E-01
        1   -1    0    0  501    0  0.00000000000E+00  0.00000000000E+00  0.10667020897E+04  0.10667020897E+04  0.50400001928E-02 0.  1.
       -1   -1    0    0    0  501  0.00000000000E+00  0.00000000000E+00 -0.52739611801E+03  0.52739611804E+03  0.50400001928E-02 0. -1.
    10030    2    1    2    0    0  0.00000000000E+00  0.00000000000E+00  0.53930597172E+03  0.15940982078E+04  0.15000993850E+04 0.  0.
        4    1    3    3  502    0 -0.17613224038E+03  0.21253153819E+03 -0.47145793086E+03  0.54632079798E+03  0.12699999809E+01 0. -1.
       -4    1    3    3    0  502  0.17613224038E+03 -0.21253153819E+03  0.10107639026E+04  0.10477774098E+04  0.12699999809E+01 0.  1.
</event>
<event>
 5   0  0.3093600E-05  0.1499633E+04  0.7818609E-02  0.8884697E-01
       -2   -1    0    0    0  501  0.00000000000E+00  0.00000000000E+00  0.14285615465E+04  0.14285615465E+04  0.25500000920E-02 0.  1.
        2   -1    0    0  501    0  0.00000000000E+00  0.00000000000E+00 -0.39356021217E+03  0.39356021218E+03  0.25500000920E-02 0. -1.
    10030    2    1    2    0    0  0.00000000000E+00  0.00000000000E+00  0.10350013343E+04  0.18221217586E+04  0.14996332690E+04 0.  0.
        1    1    3    3  502    0 -0.27427649430E+03 -0.68639755954E+03  0.67049880207E+03  0.99796685750E+03  0.50400001928E-02 0. -1.
       -1    1    3    3    0  502  0.27427649430E+03  0.68639755954E+03  0.36450253223E+03  0.82415490115E+03  0.50400001928E-02 0.  1.
</event>
<event>
 5   0  0.1576214E-05  0.1499340E+04  0.7818609E-02  0.8884892E-01
        1   -1    0    0  501    0  0.00000000000E+00  0.00000000000E+00  0.19110002080E+04  0.19110002080E+04  0.50400001928E-02 0. -1.
       -1   -1    0    0    0  501  0.00000000000E+00  0.00000000000E+00 -0.29408951032E+03  0.29408951036E+03  0.50400001928E-02 0.  1.
    10030    2    1    2    0    0  0.00000000000E+00  0.00000000000E+00  0.16169106976E+04  0.22050897183E+04  0.14993400087E+04 0.  0.
        1    1    3    3  502    0 -0.17131841297E+02 -0.31578938634E+03 -0.19118045070E+03  0.36954891593E+03  0.50400001928E-02 0.  1.
       -1    1    3    3    0  502  0.17131841297E+02  0.31578938634E+03  0.18080911483E+04  0.18355408024E+04  0.50400001928E-02 0. -1.
</event>
<event>
 5   0  0.3093600E-05  0.1500651E+04  0.7818609E-02  0.8884020E-01
       -2   -1    0    0    0  501  0.00000000000E+00  0.00000000000E+00  0.33467739086E+03  0.33467739086E+03  0.25500000920E-02 0.  1.
        2   -1    0    0  501    0  0.00000000000E+00  0.00000000000E+00 -0.16821826751E+04  0.16821826751E+04  0.25500000920E-02 0. -1.
    10030    2    1    2    0    0  0.00000000000E+00  0.00000000000E+00 -0.13475052843E+04  0.20168600660E+04  0.15006512035E+04 0.  0.
        1    1    3    3  502    0  0.44738493699E+03  0.51120507809E+03 -0.11019449461E+04  0.12945140316E+04  0.50400001928E-02 0. -1.
       -1    1    3    3    0  502 -0.44738493699E+03 -0.51120507809E+03 -0.24556033816E+03  0.72234603440E+03  0.50400001928E-02 0.  1.
</event>
<event>
 5   0  0.1643498E-05  0.1500446E+04  0.7818609E-02  0.8884156E-01
       -1   -1    0    0    0  501  0.00000000000E+00  0.00000000000E+00  0.47506078104E+03  0.47506078107E+03  0.50400001928E-02 0. -1.
        1   -1    0    0  501    0  0.00000000000E+00  0.00000000000E+00 -0.11847636731E+04  0.11847636732E+04  0.50400001928E-02 0.  1.
    10030    2    1    2    0    0  0.00000000000E+00  0.00000000000E+00 -0.70970289210E+03  0.16598244542E+04  0.15004462749E+04 0.  0.
        4    1    3    3  502    0 -0.49745568008E+03  0.24815468430E+03  0.20243588352E+03  0.59162893846E+03  0.12699999809E+01 0. -1.
       -4    1    3    3    0  502  0.49745568008E+03 -0.24815468430E+03 -0.91213877562E+03  0.10681955158E+04  0.12699999809E+01 0.  1.
</event>
<event>
 5   0  0.3018308E-05  0.1498823E+04  0.7818609E-02  0.8885236E-01
       -2   -1    0    0    0  501  0.00000000000E+00  0.00000000000E+00  0.79085241092E+03  0.79085241093E+03  0.25500000920E-02 0. -1.
        2   -1    0    0  501    0  0.00000000000E+00  0.00000000000E+00 -0.71014234255E+03  0.71014234256E+03  0.25500000920E-02 0.  1.
    10030    2    1    2    0    0  0.00000000000E+00  0.00000000000E+00  0.80710068370E+02  0.15009947535E+04  0.14988232500E+04 0.  0.
        2    1    3    3  502    0  0.15515511112E+03  0.15442150311E+03  0.75812118819E+03  0.78909241862E+03  0.25500000920E-02 0. -1.
       -2    1    3    3    0  502 -0.15515511112E+03 -0.15442150311E+03 -0.67741111982E+03  0.71190233487E+03  0.25500000920E-02 0.  1.
</event>
<event>
 5   0  0.3018308E-05  0.1504545E+04  0.7818609E-02  0.8881436E-01
       -2   -1    0    0    0  501  0.00000000000E+00  0.00000000000E+00  0.41495778231E+03  0.41495778232E+03  0.25500000920E-02 0. -1.
        2   -1    0    0  501    0  0.00000000000E+00  0.00000000000E+00 -0.13637858910E+04  0.13637858910E+04  0.25500000920E-02 0.  1.
    10030    2    1    2    0    0  0.00000000000E+00  0.00000000000E+00 -0.94882810871E+03  0.17787436733E+04  0.15045445409E+04 0.  0.
        2    1    3    3  502    0  0.18104482060E+03  0.31163736427E+03  0.30624387431E+03  0.47294860655E+03  0.25500000920E-02 0. -1.
       -2    1    3    3    0  502 -0.18104482060E+03 -0.31163736427E+03 -0.12550719830E+04  0.13057950668E+04  0.25500000920E-02 0.  1.
</event>
<event>
 5   0  0.1643498E-05  0.1500162E+04  0.7818609E-02  0.8884345E-01
        1   -1    0    0  501    0  0.00000000000E+00  0.00000000000E+00  0.39249167384E+03  0.39249167387E+03  0.50400001928E-02 0.  1.
       -1   -1    0    0    0  501  0.00000000000E+00  0.00000000000E+00 -0.14334608942E+04  0.14334608942E+04  0.50400001928E-02 0. -1.
    10030    2    1    2    0    0  0.00000000000E+00  0.00000000000E+00 -0.10409692203E+04  0.18259525681E+04  0.15001619456E+04 0.  0.
        4    1    3    3  502    0 -0.52231028250E+03  0.53820469990E+03 -0.50570099235E+03  0.90454819483E+03  0.12699999809E+01 0. -1.
       -4    1    3    3    0  502  0.52231028250E+03 -0.53820469990E+03 -0.53526822798E+03  0.92140437322E+03  0.12699999809E+01 0.  1.
</event>
<event>
 5   0  0.1533777E-05  0.1499315E+04  0.7818609E-02  0.8884909E-01
        1   -1    0    0  501    0  0.00000000000E+00  0.00000000000E+00  0.50215335382E+03  0.50215335385E+03  0.50400001928E-02 0. -1.
       -1   -1    0    0    0  501  0.00000000000E+00  0.00000000000E+00 -0.11191527037E+04  0.11191527037E+04  0.50400001928E-02 0.  1.
    10030    2    1    2    0    0  0.00000000000E+00  0.00000000000E+00 -0.61699934985E+03  0.16213060575E+04  0.14993148884E+04 0.  0.
        5    1    3    3  502    0  0.58352417572E+03  0.34566671239E+03  0.36823668841E+02  0.67923781718E+03  0.46999998093E+01 0. -1.
       -5    1    3    3    0  502 -0.58352417572E+03 -0.34566671239E+03 -0.65382301869E+03  0.94206824035E+03  0.46999998093E+01 0.  1.
</event>
<event>
 5   0  0.1580078E-05  0.1500286E+04  0.7818609E-02  0.8884263E-01
        1   -1    0    0  501    0  0.00000000000E+00  0.00000000000E+00  0.11355592060E+04  0.11355592060E+04  0.50400001928E-02 0.  1.
       -1   -1    0    0    0  501  0.00000000000E+00  0.00000000000E+00 -0.49553944790E+03  0.49553944793E+03  0.50400001928E-02 0. -1.
    10030    2    1    2    0    0  0.00000000000E+00  0.00000000000E+00  0.64001975808E+03  0.16310986539E+04  0.15002858155E+04 0.  0.
        2    1    3    3  502    0  0.49636796328E+03  0.29705310366E+03  0.83924241796E+03  0.10192887410E+04  0.25500000920E-02 0.  1.
       -2    1    3    3    0  502 -0.49636796328E+03 -0.29705310366E+03 -0.19922265988E+03  0.61180991295E+03  0.25500000920E-02 0. -1.
</event>
<event>
 5   0  0.2969498E-05  0.1504917E+04  0.7818609E-02  0.8881190E-01
       -2   -1    0    0    0  501  0.00000000000E+00  0.00000000000E+00  0.50930942370E+03  0.50930942371E+03  0.25500000920E-02 0. -1.
        2   -1    0    0  501    0  0.00000000000E+00  0.00000000000E+00 -0.11116892357E+04  0.11116892358E+04  0.25500000920E-02 0.  1.
    10030    2    1    2    0    0  0.00000000000E+00  0.00000000000E+00 -0.60237981205E+03  0.16209986595E+04  0.15049170130E+04 0.  0.
        3    1    3    3  502    0 -0.14474217307E+03  0.61411028718E+03 -0.74283105272E+03  0.97461773254E+03  0.10100000352E+00 0.  1.
       -3    1    3    3    0  502  0.14474217307E+03 -0.61411028718E+03  0.14045124067E+03  0.64638092692E+03  0.10100000352E+00 0. -1.
</event>
<event>
 5   0  0.1580078E-05  0.1498571E+04  0.7818609E-02  0.8885404E-01
       -1   -1    0    0    0  501  0.00000000000E+00  0.00000000000E+00  0.44132399554E+03  0.44132399557E+03  0.50400001928E-02 0.  1.
        1   -1    0    0  501    0  0.00000000000E+00  0.00000000000E+00 -0.12721465418E+04  0.12721465419E+04  0.50400001928E-02 0. -1.
    10030    2    1    2    0    0  0.00000000000E+00  0.00000000000E+00 -0.83082254630E+03  0.17134705374E+04  0.14985710458E+04 0.  0.
        2    1    3    3  502    0  0.63100703473E+02  0.62909501867E+03  0.44354096043E+02  0.63380559097E+03  0.25500000920E-02 0.  1.
       -2    1    3    3    0  502 -0.63100703473E+02 -0.62909501867E+03 -0.87517664234E+03  0.10796649465E+04  0.25500000920E-02 0. -1.
</event>
<event>
 5   0  0.1576214E-05  0.1497990E+04  0.7818609E-02  0.8885791E-01
        1   -1    0    0  501    0  0.00000000000E+00  0.00000000000E+00  0.67009698289E+03  0.67009698291E+03  0.50400001928E-02 0. -1.
       -1   -1    0    0    0  501  0.00000000000E+00  0.00000000000E+00 -0.83718208233E+03  0.83718208235E+03  0.50400001928E-02 0.  1.
    10030    2    1    2    0    0  0.00000000000E+00  0.00000000000E+00 -0.16708509944E+03  0.15072790653E+04  0.14979895694E+04 0.  0.
        1    1    3    3  502    0 -0.17523014020E+03  0.48165703847E+03  0.46600743112E+03  0.69272074505E+03  0.50400001928E-02 0. -1.
       -1    1    3    3    0  502  0.17523014020E+03 -0.48165703847E+03 -0.63309253056E+03  0.81455832020E+03  0.50400001928E-02 0.  1.
</event>
<event>
 5   0  0.3093600E-05  0.1498905E+04  0.7818609E-02  0.8885181E-01
        2   -1    0    0  501    0  0.00000000000E+00  0.00000000000E+00  0.13649760347E+04  0.13649760347E+04  0.25500000920E-02 0. -1.
       -2   -1    0    0    0  501  0.00000000000E+00  0.00000000000E+00 -0.41149391274E+03  0.41149391275E+03  0.25500000920E-02 0.  1.
    10030    2    1    2    0    0  0.00000000000E+00  0.00000000000E+00  0.95348212195E+03  0.17764699474E+04  0.14989053730E+04 0.  0.
        1    1    3    3  502    0  0.23795059413E+03  0.33768181832E+03  0.12178611663E+04  0.12860152861E+04  0.50400001928E-02 0. -1.
       -1    1    3    3    0  502 -0.23795059413E+03 -0.33768181832E+03 -0.26437904438E+03  0.49045466131E+03  0.50400001928E-02 0.  1.
</event>
<event>
 5   0  0.1533777E-05  0.1500180E+04  0.7818609E-02  0.8884333E-01
        1   -1    0    0  501    0  0.00000000000E+00  0.00000000000E+00  0.49950517304E+03  0.49950517307E+03  0.50400001928E-02 0.  1.
       -1   -1    0    0    0  501  0.00000000000E+00  0.00000000000E+00 -0.11263846874E+04  0.11263846874E+04  0.50400001928E-02 0. -1.
    10030    2    1    2    0    0  0.00000000000E+00  0.00000000000E+00 -0.62687951438E+03  0.16258898605E+04  0.15001799602E+04 0.  0.
        5    1    3    3  502    0 -0.11959514601E+03  0.50694514040E+03  0.27152582629E+03  0.58740508907E+03  0.46999998093E+01 0.  1.
       -5    1    3    3    0  502  0.11959514601E+03 -0.50694514040E+03 -0.89840534067E+03  0.10384847714E+04  0.46999998093E+01 0. -1.
</event>
<event>
 5   0  0.1533777E-05  0.1500154E+04  0.7818609E-02  0.8884350E-01
        1   -1    0    0  501    0  0.00000000000E+00  0.00000000000E+00  0.22889071164E+04  0.22889071164E+04  0.50400001928E-02 0. -1.
       -1   -1    0    0    0  501  0.00000000000E+00  0.00000000000E+00 -0.24580096939E+03  0.24580096944E+03  0.50400001928E-02 0.  1.
    10030    2    1    2    0    0  0.00000000000E+00  0.00000000000E+00  0.20431061470E+04  0.25347080858E+04  0.15001541096E+04 0.  0.
        5    1    3    3  502    0 -0.71329000840E+02 -0.15709840450E+03  0.22548983702E+04  0.22614943035E+04  0.46999998093E+01 0. -1.
       -5    1    3    3    0  502  0.71329000840E+02  0.15709840450E+03 -0.21179222316E+03  0.27321378232E+03  0.46999998093E+01 0.  1.
</event>
<event>
 5   0  0.3018308E-05  0.1500319E+04  0.7818609E-02  0.8884241E-01
       -2   -1    0    0    0  501  0.00000000000E+00  0.00000000000E+00  0.38495152782E+03  0.38495152783E+03  0.25500000920E-02 0.  1.
        2   -1    0    0  501    0  0.00000000000E+00  0.00000000000E+00 -0.14618444692E+04  0.14618444692E+04  0.25500000920E-02 0. -1.
    10030    2    1    2    0    0  0.00000000000E+00  0.00000000000E+00 -0.10768929414E+04  0.18467959970E+04  0.15003189819E+04 0.  0.
        2    1    3    3  502    0 -0.48742613730E+03  0.48206606997E+03 -0.16353144915E+03  0.70477973155E+03  0.25500000920E-02 0.  1.
       -2    1    3    3    0  502  0.48742613730E+03 -0.48206606997E+03 -0.91336149222E+03  0.11420162655E+04  0.25500000920E-02 0. -1.
</event>
<event>
 5   0  0.3018308E-05  0.1499787E+04  0.7818609E-02  0.8884595E-01
       -2   -1    0    0    0  501  0.00000000000E+00  0.00000000000E+00  0.55974102003E+03  0.55974102003E+03  0.25500000920E-02 0.  1.
        2   -1    0    0  501    0  0.00000000000E+00  0.00000000000E+00 -0.10046433141E+04  0.10046433141E+04  0.25500000920E-02 0. -1.
    10030    2    1    2    0    0  0.00000000000E+00  0.00000000000E+00 -0.44490229409E+03  0.15643843341E+04  0.14997867494E+04 0.  0.
        2    1    3    3  502    0  0.59807930455E+02  0.31462449088E+02  0.55655837698E+03  0.56064614620E+03  0.25500000920E-02 0.  1.
       -2    1    3    3    0  502 -0.59807930455E+02 -0.31462449088E+02 -0.10014606711E+04  0.10037381880E+04  0.25500000920E-02 0. -1.
</event>
<event>
 5   0  0.1588657E-05  0.1500190E+04  0.7818609E-02  0.8884327E-01
        1   -1    0    0  501    0  0.00000000000E+00  0.00000000000E+00  0.25571031338E+04  0.25571031338E+04  0.50400001928E-02 0.  1.
       -1   -1    0    0    0  501  0.00000000000E+00  0.00000000000E+00 -0.22003107109E+03  0.22003107115E+03  0.50400001928E-02 0. -1.
    10030    2    1    2    0    0  0.00000000000E+00  0.00000000000E+00  0.23370720627E+04  0.27771342049E+04  0.15001895100E+04 0.  0.
        3    1    3    3  502    0  0.24856979562E+03  0.34626779007E+03  0.23111167773E+04  0.23500955500E+04  0.10100000352E+00 0.  1.
       -3    1    3    3    0  502 -0.24856979562E+03 -0.34626779007E+03  0.25955285385E+02  0.42703865490E+03  0.10100000352E+00 0. -1.
</event>
<event>
 5   0  0.3030702E-05  0.1500730E+04  0.7818609E-02  0.8883968E-01
        2   -1    0    0  501    0  0.00000000000E+00  0.00000000000E+00  0.11718427856E+04  0.11718427856E+04  0.25500000920E-02 0. -1.
       -2   -1    0    0    0  501  0.00000000000E+00  0.00000000000E+00 -0.48048027157E+03  0.48048027158E+03  0.25500000920E-02 0.  1.
    10030    2    1    2    0    0  0.00000000000E+00  0.00000000000E+00  0.69136251403E+03  0.16523230572E+04  0.15007296091E+04 0.  0.
        5    1    3    3  502    0 -0.14461712851E+03  0.70687088720E+03  0.11884933708E+03  0.73125085979E+03  0.46999998093E+01 0.  1.
       -5    1    3    3    0  502  0.14461712851E+03 -0.70687088720E+03  0.57251317695E+03  0.92107219739E+03  0.46999998093E+01 0. -1.
</event>
<event>
 5   0  0.1643498E-05  0.1499934E+04  0.7818609E-02  0.8884497E-01
        1   -1    0    0  501    0  0.00000000000E+00  0.00000000000E+00  0.79952855908E+03  0.79952855909E+03  0.50400001928E-02 0.  1.
       -1   -1    0    0    0  501  0.00000000000E+00  0.00000000000E+00 -0.70347789206E+03  0.70347789208E+03  0.50400001928E-02 0. -1.
    10030    2    1    2    0    0  0.00000000000E+00  0.00000000000E+00  0.96050667011E+02  0.15030064512E+04  0.14999342191E+04 0.  0.
        4    1    3    3  502    0  0.39927155885E+03 -0.40620717484E+03 -0.44085407856E+03  0.72026104856E+03  0.12699999809E+01 0. -1.
       -4    1    3    3    0  502 -0.39927155885E+03  0.40620717484E+03  0.53690474557E+03  0.78274540261E+03  0.12699999809E+01 0.  1.
</event>
<event>
 5   0  0.3018308E-05  0.1501706E+04  0.7818609E-02  0.8883319E-01
        2   -1    0    0  501    0  0.00000000000E+00  0.00000000000E+00  0.66024876932E+03  0.66024876932E+03  0.25500000920E-02 0.  1.
       -2   -1    0    0    0  501  0.00000000000E+00  0.00000000000E+00 -0.85389118091E+03  0.85389118091E+03  0.25500000920E-02 0. -1.
    10030    2    1    2    0    0  0.00000000000E+00  0.00000000000E+00 -0.19364241159E+03  0.15141399502E+04  0.15017064977E+04 0.  0.
        2    1    3    3  502    0  0.27419357664E+03 -0.54220571261E+03  0.34797917631E+03  0.70018473234E+03  0.25500000920E-02 0.  1.
       -2    1    3    3    0  502 -0.27419357664E+03  0.54220571261E+03 -0.54162158790E+03  0.81395521790E+03  0.25500000920E-02 0. -1.
</event>
<event>
 5   0  0.1533777E-05  0.1499879E+04  0.7818609E-02  0.8884534E-01
        1   -1    0    0  501    0  0.00000000000E+00  0.00000000000E+00  0.18621957932E+04  0.18621957932E+04  0.50400001928E-02 0. -1.
       -1   -1    0    0    0  501  0.00000000000E+00  0.00000000000E+00 -0.30201389358E+03  0.30201389362E+03  0.50400001928E-02 0.  1.
    10030    2    1    2    0    0  0.00000000000E+00  0.00000000000E+00  0.15601818996E+04  0.21642096868E+04  0.14998786646E+04 0.  0.
        5    1    3    3  502    0 -0.18762007672E+03 -0.11440156663E+03 -0.25449392346E+03  0.33627110894E+03  0.46999998093E+01 0.  1.
       -5    1    3    3    0  502  0.18762007672E+03  0.11440156663E+03  0.18146758231E+04  0.18279385779E+04  0.46999998093E+01 0. -1.
</event>
<event>
 5   0  0.1533777E-05  0.1498399E+04  0.7818609E-02  0.8885518E-01
        1   -1    0    0  501    0  0.00000000000E+00  0.00000000000E+00  0.19402376967E+04  0.19402376967E+04  0.50400001928E-02 0. -1.
       -1   -1    0    0    0  501  0.00000000000E+00  0.00000000000E+00 -0.28929456634E+03  0.28929456638E+03  0.50400001928E-02 0.  1.
    10030    2    1    2    0    0  0.00000000000E+00  0.00000000000E+00  0.16509431304E+04  0.22295322631E+04  0.14983994436E+04 0.  0.
        5    1    3    3  502    0  0.31835372692E+03 -0.49274054463E+03  0.15188205247E+04  0.16281831027E+04  0.46999998093E+01 0. -1.
       -5    1    3    3    0  502 -0.31835372692E+03  0.49274054463E+03  0.13212260570E+03  0.60134916039E+03  0.46999998093E+01 0.  1.
</event>
<event>
 5   0  0.1580078E-05  0.1504634E+04  0.7818609E-02  0.8881377E-01
       -1   -1    0    0    0  501  0.00000000000E+00  0.00000000000E+00  0.11671820177E+04  0.11671820177E+04  0.50400001928E-02 0. -1.
        1   -1    0    0  501    0  0.00000000000E+00  0.00000000000E+00 -0.48491237909E+03  0.48491237912E+03  0.50400001928E-02 0.  1.
    10030    2    1    2    0    0  0.00000000000E+00  0.00000000000E+00  0.68226963859E+03  0.16520943968E+04  0.15046341869E+04 0.  0.
        2    1    3    3  502    0  0.37885150845E+03  0.63576339527E+03  0.48949726340E+03  0.88731681551E+03  0.25500000920E-02 0. -1.
       -2    1    3    3    0  502 -0.37885150845E+03 -0.63576339527E+03  0.19277237519E+03  0.76477758130E+03  0.25500000920E-02 0.  1.
</event>
<event>
 5   0  0.1533777E-05  0.1504083E+04  0.7818609E-02  0.8881742E-01
        1   -1    0    0  501    0  0.00000000000E+00  0.00000000000E+00  0.23428240824E+04  0.23428240824E+04  0.50400001928E-02 0. -1.
       -1   -1    0    0    0  501  0.00000000000E+00  0.00000000000E+00 -0.24140364054E+03  0.24140364059E+03  0.50400001928E-02 0.  1.
    10030    2    1    2    0    0  0.00000000000E+00  0.00000000000E+00  0.21014204418E+04  0.25842277230E+04  0.15040827939E+04 0.  0.
        5    1    3    3  502    0  0.60074599226E+03 -0.12494463812E+03  0.30368932836E+03  0.68465773053E+03  0.46999998093E+01 0.  1.
       -5    1    3    3    0  502 -0.60074599226E+03  0.12494463812E+03  0.17977311135E+04  0.18995699924E+04  0.46999998093E+01 0. -1.
</event>
<event>
 5   0  0.3018308E-05  0.1500803E+04  0.7818609E-02  0.8883919E-01
        2   -1    0    0  501    0  0.00000000000E+00  0.00000000000E+00  0.14971969513E+04  0.14971969513E+04  0.25500000920E-02 0. -1.
       -2   -1    0    0    0  501  0.00000000000E+00  0.00000000000E+00 -0.37610442053E+03  0.37610442054E+03  0.25500000920E-02 0.  1.
    10030    2    1    2    0    0  0.00000000000E+00  0.00000000000E+00  0.11210925308E+04  0.18733013719E+04  0.15008029742E+04 0.  0.
        2    1    3    3  502    0  0.12287859644E+03  0.60864941874E+03  0.34597741478E+02  0.62189248920E+03  0.25500000920E-02 0.  1.
       -2    1    3    3    0  502 -0.12287859644E+03 -0.60864941874E+03  0.10864947893E+04  0.12514088827E+04  0.25500000920E-02 0. -1.
</event>
<event>
 5   0  0.3018308E-05  0.1497599E+04  0.7818609E-02  0.8886051E-01
       -2   -1    0    0    0  501  0.00000000000E+00  0.00000000000E+00  0.60133791945E+03  0.60133791946E+03  0.25500000920E-02 0.  1.
        2   -1    0    0  501    0  0.00000000000E+00  0.00000000000E+00 -0.93242245441E+03  0.93242245441E+03  0.25500000920E-02 0. -1.
    10030    2    1    2    0    0  0.00000000000E+00  0.00000000000E+00 -0.33108453496E+03  0.15337603739E+04  0.14975993841E+04 0.  0.
        2    1    3    3  502    0 -0.97897671366E+02  0.70384103144E+03 -0.40730325755E+03  0.81906782089E+03  0.25500000920E-02 0. -1.
       -2    1    3    3    0  502  0.97897671366E+02 -0.70384103144E+03  0.76218722592E+02  0.71469255298E+03  0.25500000920E-02 0.  1.
</event>
<event>
 5   0  0.1643498E-05  0.1499714E+04  0.7818609E-02  0.8884643E-01
       -1   -1    0    0    0  501  0.00000000000E+00  0.00000000000E+00  0.19968093493E+03  0.19968093499E+03  0.50400001928E-02 0. -1.
        1   -1    0    0  501    0  0.00000000000E+00  0.00000000000E+00 -0.28159198376E+04  0.28159198376E+04  0.50400001928E-02 0.  1.
    10030    2    1    2    0    0  0.00000000000E+00  0.00000000000E+00 -0.26162389026E+04  0.30156007726E+04  0.14997139807E+04 0.  0.
        4    1    3    3  502    0  0.32210041488E+03  0.63315189322E+03 -0.17909333190E+04  0.19266742753E+04  0.12699999809E+01 0. -1.
       -4    1    3    3    0  502 -0.32210041488E+03 -0.63315189322E+03 -0.82530558367E+03  0.10889264973E+04  0.12699999809E+01 0.  1.
</event>
<event>
 5   0  0.3070497E-05  0.1500321E+04  0.7818609E-02  0.8884240E-01
        2   -1    0    0  501    0  0.00000000000E+00  0.00000000000E+00  0.21624299734E+04  0.21624299734E+04  0.25500000920E-02 0. -1.
       -2   -1    0    0    0  501  0.00000000000E+00  0.00000000000E+00 -0.26023529871E+03  0.26023529873E+03  0.25500000920E-02 0.  1.
    10030    2    1    2    0    0  0.00000000000E+00  0.00000000000E+00  0.19021946747E+04  0.24226652722E+04  0.15003207792E+04 0.  0.
        4    1    3    3  502    0 -0.57059098685E+03  0.20298452458E+03  0.16659152868E+04  0.17725834669E+04  0.12699999809E+01 0. -1.
       -4    1    3    3    0  502  0.57059098685E+03 -0.20298452458E+03  0.23627938797E+03  0.65008180529E+03  0.12699999809E+01 0.  1.
</event>
<event>
 5   0  0.1116613E-05  0.1500416E+04  0.7818609E-02  0.8884176E-01
       -3   -1    0    0    0  501  0.00000000000E+00  0.00000000000E+00  0.65922636551E+03  0.65922637324E+03  0.10100000352E+00 0. -1.
        3   -1    0    0  501    0  0.00000000000E+00  0.00000000000E+00 -0.85374619179E+03  0.85374619776E+03  0.10100000352E+00 0.  1.
    10030    2    1    2    0    0  0.00000000000E+00  0.00000000000E+00 -0.19451982628E+03  0.15129725710E+04  0.15004159549E+04 0.  0.
        4    1    3    3  502    0 -0.66770019862E+03 -0.10110086193E+03  0.23222441538E+03  0.71412515116E+03  0.12699999809E+01 0. -1.
       -4    1    3    3    0  502  0.66770019862E+03  0.10110086193E+03 -0.42674424166E+03  0.79884741985E+03  0.12699999809E+01 0.  1.
</event>
<event>
 5   0  0.1533777E-05  0.1500654E+04  0.7818609E-02  0.8884018E-01
        1   -1    0    0  501    0  0.00000000000E+00  0.00000000000E+00  0.76944333518E+03  0.76944333519E+03  0.50400001928E-02 0. -1.
       -1   -1    0    0    0  501  0.00000000000E+00  0.00000000000E+00 -0.73168558945E+03  0.73168558947E+03  0.50400001928E-02 0.  1.
    10030    2    1    2    0    0  0.00000000000E+00  0.00000000000E+00  0.37757745723E+02  0.15011289247E+04  0.15006539911E+04 0.  0.
        5    1    3    3  502    0 -0.24606078068E+03 -0.35310909100E+02 -0.68928284664E+03  0.73275214142E+03  0.46999998093E+01 0.  1.
       -5    1    3    3    0  502  0.24606078068E+03  0.35310909100E+02  0.72704059236E+03  0.76837678324E+03  0.46999998093E+01 0. -1.
</event>
<event>
 5   0  0.1588657E-05  0.1497040E+04  0.7818609E-02  0.8886424E-01
       -1   -1    0    0    0  501  0.00000000000E+00  0.00000000000E+00  0.53545958044E+03  0.53545958046E+03  0.50400001928E-02 0.  1.
        1   -1    0    0  501    0  0.00000000000E+00  0.00000000000E+00 -0.10463577024E+04  0.10463577024E+04  0.50400001928E-02 0. -1.
    10030    2    1    2    0    0  0.00000000000E+00  0.00000000000E+00 -0.51089812192E+03  0.15818172828E+04  0.14970400881E+04 0.  0.
        3    1    3    3  502    0  0.19204654408E+03  0.79825742655E+02  0.50431721239E+03  0.54551799714E+03  0.10100000352E+00 0.  1.
       -3    1    3    3    0  502 -0.19204654408E+03 -0.79825742655E+02 -0.10152153343E+04  0.10362992857E+04  0.10100000352E+00 0. -1.
</event>
<event>
 5   0  0.3018308E-05  0.1500766E+04  0.7818609E-02  0.8883944E-01
        2   -1    0    0  501    0  0.00000000000E+00  0.00000000000E+00  0.45167082389E+03  0.45167082390E+03  0.25500000920E-02 0. -1.
       -2   -1    0    0    0  501  0.00000000000E+00  0.00000000000E+00 -0.12466475910E+04  0.12466475910E+04  0.25500000920E-02 0.  1.
    10030    2    1    2    0    0  0.00000000000E+00  0.00000000000E+00 -0.79497676707E+03  0.16983184149E+04  0.15007655973E+04 0.  0.
        2    1    3    3  502    0 -0.59648930150E+03 -0.30233562706E+03 -0.78268996165E+03  0.10294706865E+04  0.25500000920E-02 0.  1.
       -2    1    3    3    0  502  0.59648930150E+03  0.30233562706E+03 -0.12286805418E+02  0.66884772840E+03  0.25500000920E-02 0. -1.
</event>
<event>
 5   0  0.1576214E-05  0.1501790E+04  0.7818609E-02  0.8883264E-01
       -1   -1    0    0    0  501  0.00000000000E+00  0.00000000000E+00  0.10141172513E+04  0.10141172514E+04  0.50400001928E-02 0. -1.
        1   -1    0    0  501    0  0.00000000000E+00  0.00000000000E+00 -0.55599395855E+03  0.55599395857E+03  0.50400001928E-02 0.  1.
    10030    2    1    2    0    0  0.00000000000E+00  0.00000000000E+00  0.45812329279E+03  0.15701112099E+04  0.15017896857E+04 0.  0.
        1    1    3    3  502    0  0.69476476580E+03  0.26204677181E+03  0.11228197732E+03  0.75098191248E+03  0.50400001928E-02 0.  1.
       -1    1    3    3    0  502 -0.69476476580E+03 -0.26204677181E+03  0.34584131547E+03  0.81912929744E+03  0.50400001928E-02 0. -1.
</event>
<event>
 5   0  0.3018308E-05  0.1500002E+04  0.7818609E-02  0.8884452E-01
       -2   -1    0    0    0  501  0.00000000000E+00  0.00000000000E+00  0.33170700054E+03  0.33170700055E+03  0.25500000920E-02 0.  1.
        2   -1    0    0  501    0  0.00000000000E+00  0.00000000000E+00 -0.16957783947E+04  0.16957783947E+04  0.25500000920E-02 0. -1.
    10030    2    1    2    0    0  0.00000000000E+00  0.00000000000E+00 -0.13640713942E+04  0.20274853953E+04  0.15000020865E+04 0.  0.
        2    1    3    3  502    0 -0.42741324200E+03  0.59762953006E+03 -0.88549651263E+03  0.11506290491E+04  0.25500000920E-02 0. -1.
       -2    1    3    3    0  502  0.42741324200E+03 -0.59762953006E+03 -0.47857488155E+03  0.87685634622E+03  0.25500000920E-02 0.  1.
</event>
<event>
 5   0  0.3018308E-05  0.1500478E+04  0.7818609E-02  0.8884135E-01
       -2   -1    0    0    0  501  0.00000000000E+00  0.00000000000E+00  0.54051768770E+03  0.54051768771E+03  0.25500000920E-02 0.  1.
        2   -1    0    0  501    0  0.00000000000E+00  0.00000000000E+00 -0.10413328574E+04  0.10413328574E+04  0.25500000920E-02 0. -1.
    10030    2    1    2    0    0  0.00000000000E+00  0.00000000000E+00 -0.50081516969E+03  0.15818505451E+04  0.15004783613E+04 0.  0.
        2    1    3    3  502    0  0.32176605968E+03 -0.67014819320E+03 -0.35701962011E+03  0.82467872967E+03  0.25500000920E-02 0. -1.
       -2    1    3    3    0  502 -0.32176605968E+03  0.67014819320E+03 -0.14379554958E+03  0.75717181544E+03  0.25500000920E-02 0.  1.
</event>
<event>
 5   0  0.1588657E-05  0.1501474E+04  0.7818609E-02  0.8883474E-01
       -1   -1    0    0    0  501  0.00000000000E+00  0.00000000000E+00  0.47502109712E+03  0.47502109715E+03  0.50400001928E-02 0.  1.
        1   -1    0    0  501    0  0.00000000000E+00  0.00000000000E+00 -0.11864856951E+04  0.11864856951E+04  0.50400001928E-02 0. -1.
    10030    2    1    2    0    0  0.00000000000E+00  0.00000000000E+00 -0.71146459798E+03  0.16615067923E+04  0.15014735917E+04 0.  0.
        3    1    3    3  502    0  0.11455542108E+03  0.53464234305E+01 -0.11767358147E+04  0.11823107530E+04  0.10100000352E+00 0. -1.
       -3    1    3    3    0  502 -0.11455542108E+03 -0.53464234305E+01  0.46527121674E+03  0.47919603929E+03  0.10100000352E+00 0.  1.
</event>
<event>
 5   0  0.1576214E-05  0.1498256E+04  0.7818609E-02  0.8885614E-01
        1   -1    0    0  501    0  0.00000000000E+00  0.00000000000E+00  0.85349582124E+03  0.85349582126E+03  0.50400001928E-02 0. -1.
       -1   -1    0    0    0  501  0.00000000000E+00  0.00000000000E+00 -0.65752231628E+03  0.65752231630E+03  0.50400001928E-02 0.  1.
    10030    2    1    2    0    0  0.00000000000E+00  0.00000000000E+00  0.19597350496E+03  0.15110181376E+04  0.14982557183E+04 0.  0.
        1    1    3    3  502    0 -0.21558267897E+03  0.68095601537E+03  0.32577697316E+03  0.78505262410E+03  0.50400001928E-02 0. -1.
       -1    1    3    3    0  502  0.21558267897E+03 -0.68095601537E+03 -0.12980346820E+03  0.72596551345E+03  0.50400001928E-02 0.  1.
</event>
<event>
 5   0  0.1588657E-05  0.1500112E+04  0.7818609E-02  0.8884378E-01
        1   -1    0    0  501    0  0.00000000000E+00  0.00000000000E+00  0.56067889292E+03  0.56067889294E+03  0.50400001928E-02 0.  1.
       -1   -1    0    0    0  501  0.00000000000E+00  0.00000000000E+00 -0.10033984281E+04  0.10033984281E+04  0.50400001928E-02 0. -1.
    10030    2    1    2    0    0  0.00000000000E+00  0.00000000000E+00 -0.44271953518E+03  0.15640773210E+04  0.15001124222E+04 0.  0.
        3    1    3    3  502    0  0.69203187514E+03 -0.26066809003E+03 -0.35212005291E+03  0.81905098207E+03  0.10100000352E+00 0.  1.
       -3    1    3    3    0  502 -0.69203187514E+03  0.26066809003E+03 -0.90599482266E+02  0.74502633897E+03  0.10100000352E+00 0. -1.
</event>
<event>
 5   0  0.1116613E-05  0.1503867E+04  0.7818609E-02  0.8881886E-01
       -3   -1    0    0    0  501  0.00000000000E+00  0.00000000000E+00  0.53935096516E+03  0.53935097461E+03  0.10100000352E+00 0. -1.
        3   -1    0    0  501    0  0.00000000000E+00  0.00000000000E+00 -0.10483037178E+04  0.10483037227E+04  0.10100000352E+00 0.  1.
    10030    2    1    2    0    0  0.00000000000E+00  0.00000000000E+00 -0.50895275264E+03  0.15876546973E+04  0.15038665278E+04 0.  0.
        2    1    3    3  502    0  0.55338016951E+03  0.14616243022E+03 -0.76930458170E+03  0.95886527075E+03  0.25500000920E-02 0.  1.
       -2    1    3    3    0  502 -0.55338016951E+03 -0.14616243022E+03  0.26035182906E+03  0.62878942653E+03  0.25500000920E-02 0. -1.
</event>
<event>
 5   0  0.1643498E-05  0.1498461E+04  0.7818609E-02  0.8885477E-01
        1   -1    0    0  501    0  0.00000000000E+00  0.00000000000E+00  0.24098188417E+03  0.24098188422E+03  0.50400001928E-02 0.  1.
       -1   -1    0    0    0  501  0.00000000000E+00  0.00000000000E+00 -0.23294134993E+04  0.23294134993E+04  0.50400001928E-02 0. -1.
    10030    2    1    2    0    0  0.00000000000E+00  0.00000000000E+00 -0.20884316151E+04  0.25703953835E+04  0.14984611495E+04 0.  0.
        4    1    3    3  502    0 -0.74937640559E+02 -0.57378558969E+03 -0.18605873660E+04  0.19484949352E+04  0.12699999809E+01 0. -1.
       -4    1    3    3    0  502  0.74937640559E+02  0.57378558969E+03 -0.22784424910E+03  0.62190044835E+03  0.12699999809E+01 0.  1.
</event>
<event>
 5   0  0.1643498E-05  0.1499600E+04  0.7818609E-02  0.8884719E-01
       -1   -1    0    0    0  501  0.00000000000E+00  0.00000000000E+00  0.22042733101E+03  0.22042733107E+03  0.50400001928E-02 0. -1.
        1   -1    0    0  501    0  0.00000000000E+00  0.00000000000E+00 -0.25504994401E+04  0.25504994401E+04  0.50400001928E-02 0.  1.
    10030    2    1    2    0    0  0.00000000000E+00  0.00000000000E+00 -0.23300721091E+04  0.27709267712E+04  0.14995996591E+04 0.  0.
        4    1    3    3  502    0  0.69759621917E+03 -0.84293612615E+02 -0.16484772483E+04  0.17919890483E+04  0.12699999809E+01 0.  1.
       -4    1    3    3    0  502 -0.69759621917E+03  0.84293612615E+02 -0.68159486077E+03  0.97893772287E+03  0.12699999809E+01 0. -1.
</event>
<event>
 5   0  0.3093600E-05  0.1499603E+04  0.7818609E-02  0.8884717E-01
        2   -1    0    0  501    0  0.00000000000E+00  0.00000000000E+00  0.13082354493E+04  0.13082354493E+04  0.25500000920E-02 0. -1.
       -2   -1    0    0    0  501  0.00000000000E+00  0.00000000000E+00 -0.42974076516E+03  0.42974076517E+03  0.25500000920E-02 0.  1.
    10030    2    1    2    0    0  0.00000000000E+00  0.00000000000E+00  0.87849468416E+03  0.17379762145E+04  0.14996027514E+04 0.  0.
        1    1    3    3  502    0 -0.11481271303E+03  0.72811517354E+03  0.28005008738E+03  0.78851868493E+03  0.50400001928E-02 0.  1.
       -1    1    3    3    0  502  0.11481271303E+03 -0.72811517354E+03  0.59844459678E+03  0.94945752957E+03  0.50400001928E-02 0. -1.
</event>
<event>
 5   0  0.2969498E-05  0.1500538E+04  0.7818609E-02  0.8884095E-01
       -2   -1    0    0    0  501  0.00000000000E+00  0.00000000000E+00  0.38868597913E+03  0.38868597914E+03  0.25500000920E-02 0.  1.
        2   -1    0    0  501    0  0.00000000000E+00  0.00000000000E+00 -0.14482216081E+04  0.14482216081E+04  0.25500000920E-02 0. -1.
    10030    2    1    2    0    0  0.00000000000E+00  0.00000000000E+00 -0.10595356290E+04  0.18369075873E+04  0.15005378153E+04 0.  0.
        3    1    3    3  502    0 -0.14409924641E+03  0.79702461238E+02 -0.14258259460E+04  0.14353037008E+04  0.10100000352E+00 0. -1.
       -3    1    3    3    0  502  0.14409924641E+03 -0.79702461238E+02  0.36629031696E+03  0.40160388648E+03  0.10100000352E+00 0.  1.
</event>
<event>
 5   0  0.1533777E-05  0.1501431E+04  0.7818609E-02  0.8883502E-01
        1   -1    0    0  501    0  0.00000000000E+00  0.00000000000E+00  0.82231300726E+03  0.82231300727E+03  0.50400001928E-02 0. -1.
       -1   -1    0    0    0  501  0.00000000000E+00  0.00000000000E+00 -0.68535188582E+03  0.68535188584E+03  0.50400001928E-02 0.  1.
    10030    2    1    2    0    0  0.00000000000E+00  0.00000000000E+00  0.13696112143E+03  0.15076648931E+04  0.15014310111E+04 0.  0.
        5    1    3    3  502    0  0.53747787167E+03 -0.46721049620E+03 -0.16995757942E+03  0.73217196006E+03  0.46999998093E+01 0.  1.
       -5    1    3    3    0  502 -0.53747787167E+03  0.46721049620E+03  0.30691870085E+03  0.77549293306E+03  0.46999998093E+01 0. -1.
</event>
<event>
 5   0  0.3018308E-05  0.1499362E+04  0.7818609E-02  0.8884877E-01
        2   -1    0    0  501    0  0.00000000000E+00  0.00000000000E+00  0.11688584488E+04  0.11688584488E+04  0.25500000920E-02 0. -1.
       -2   -1    0    0    0  501  0.00000000000E+00  0.00000000000E+00 -0.48082930572E+03  0.48082930573E+03  0.25500000920E-02 0.  1.
    10030    2    1    2    0    0  0.00000000000E+00  0.00000000000E+00  0.68802914311E+03  0.16496877546E+04  0.14993617261E+04 0.  0.
        2    1    3    3  502    0  0.34571277291E+03 -0.93482610392E+02 -0.38062595971E+03  0.52262074299E+03  0.25500000920E-02 0.  1.
       -2    1    3    3    0  502 -0.34571277291E+03  0.93482610392E+02  0.10686551028E+04  0.11270670116E+04  0.25500000920E-02 0. -1.
</event>
<event>
 5   0  0.3070497E-05  0.1499889E+04  0.7818609E-02  0.8884527E-01
        2   -1    0    0  501    0  0.00000000000E+00  0.00000000000E+00  0.46228324294E+03  0.46228324295E+03  0.25500000920E-02 0.  1.
       -2   -1    0    0    0  501  0.00000000000E+00  0.00000000000E+00 -0.12166060931E+04  0.12166060931E+04  0.25500000920E-02 0. -1.
    10030    2    1    2    0    0  0.00000000000E+00  0.00000000000E+00 -0.75432285020E+03  0.16788893361E+04  0.14998888094E+04 0.  0.
        4    1    3    3  502    0 -0.33482202732E+03 -0.66949739317E+03 -0.42824132828E+03  0.86239480379E+03  0.12699999809E+01 0. -1.
       -4    1    3    3    0  502  0.33482202732E+03  0.66949739317E+03 -0.32608152192E+03  0.81649453231E+03  0.12699999809E+01 0.  1.
</event>
<event>
 5   0  0.1643498E-05  0.1500415E+04  0.7818609E-02  0.8884177E-01
       -1   -1    0    0    0  501  0.00000000000E+00  0.00000000000E+00  0.95634159696E+03  0.95634159698E+03  0.50400001928E-02 0.  1.
        1   -1    0    0  501    0  0.00000000000E+00  0.00000000000E+00 -0.58850480628E+03  0.58850480630E+03  0.50400001928E-02 0. -1.
    10030    2    1    2    0    0  0.00000000000E+00  0.00000000000E+00  0.36783679068E+03  0.15448464033E+04  0.15004154442E+04 0.  0.
        4    1    3    3  502    0  0.67497363583E+03 -0.26495652152E+03 -0.14181408431E+02  0.72525450196E+03  0.12699999809E+01 0.  1.
       -4    1    3    3    0  502 -0.67497363583E+03  0.26495652152E+03  0.38201819911E+03  0.81959190132E+03  0.12699999809E+01 0. -1.
</event>
<event>
 5   0  0.3030702E-05  0.1501236E+04  0.7818609E-02  0.8883631E-01
        2   -1    0    0  501    0  0.00000000000E+00  0.00000000000E+00  0.55195985793E+03  0.55195985794E+03  0.25500000920E-02 0.  1.
       -2   -1    0    0    0  501  0.00000000000E+00  0.00000000000E+00 -0.10207759578E+04  0.10207759578E+04  0.25500000920E-02 0. -1.
    10030    2    1    2    0    0  0.00000000000E+00  0.00000000000E+00 -0.46881609990E+03  0.15727358158E+04  0.15012359610E+04 0.  0.
        5    1    3    3  502    0  0.64170201225E+03 -0.31359548500E+03 -0.47622998902E+03  0.85845249909E+03  0.46999998093E+01 0. -1.
       -5    1    3    3    0  502 -0.64170201225E+03  0.31359548500E+03  0.74138891213E+01  0.71428331669E+03  0.46999998093E+01 0.  1.
</event>
<event>
 5   0  0.2969498E-05  0.1499800E+04  0.7818609E-02  0.8884586E-01
       -2   -1    0    0    0  501  0.00000000000E+00  0.00000000000E+00  0.51585045808E+03  0.51585045809E+03  0.25500000920E-02 0.  1.
        2   -1    0    0  501    0  0.00000000000E+00  0.00000000000E+00 -0.10901412172E+04  0.10901412172E+04  0.25500000920E-02 0. -1.
    10030    2    1    2    0    0  0.00000000000E+00  0.00000000000E+00 -0.57429075910E+03  0.16059916753E+04  0.14997997817E+04 0.  0.
        3    1    3    3  502    0 -0.17061234755E+03 -0.72829657117E+03 -0.34406309561E+03  0.82334919243E+03  0.10100000352E+00 0. -1.
       -3    1    3    3    0  502  0.17061234755E+03  0.72829657117E+03 -0.23022766350E+03  0.78264248284E+03  0.10100000352E+00 0.  1.
</event>
<event>
 5   0  0.1643498E-05  0.1499502E+04  0.7818609E-02  0.8884784E-01
        1   -1    0    0  501    0  0.00000000000E+00  0.00000000000E+00  0.48403814701E+03  0.48403814704E+03  0.50400001928E-02 0. -1.
       -1   -1    0    0    0  501  0.00000000000E+00  0.00000000000E+00 -0.11613264455E+04  0.11613264455E+04  0.50400001928E-02 0.  1.
    10030    2    1    2    0    0  0.00000000000E+00  0.00000000000E+00 -0.67728829852E+03  0.16453645926E+04  0.14995016516E+04 0.  0.
        4    1    3    3  502    0 -0.10733198998E+03 -0.72154990128E+03 -0.14868485843E+03  0.74448856011E+03  0.12699999809E+01 0. -1.
       -4    1    3    3    0  502  0.10733198998E+03  0.72154990128E+03 -0.52860344010E+03  0.90087603247E+03  0.12699999809E+01 0.  1.
</event>
<event>
 5   0  0.1588657E-05  0.1501387E+04  0.7818609E-02  0.8883531E-01
       -1   -1    0    0    0  501  0.00000000000E+00  0.00000000000E+00  0.92768884642E+03  0.92768884643E+03  0.50400001928E-02 0. -1.
        1   -1    0    0  501    0  0.00000000000E+00  0.00000000000E+00 -0.60746730981E+03  0.60746730983E+03  0.50400001928E-02 0.  1.
    10030    2    1    2    0    0  0.00000000000E+00  0.00000000000E+00  0.32022153661E+03  0.15351561563E+04  0.15013868894E+04 0.  0.
        3    1    3    3  502    0  0.16566665014E+03  0.39055780487E+03 -0.47314110183E+03  0.63548670353E+03  0.10100000352E+00 0.  1.
       -3    1    3    3    0  502 -0.16566665014E+03 -0.39055780487E+03  0.79336263844E+03  0.89966945274E+03  0.10100000352E+00 0. -1.
</event>
<event>
 5   0  0.3070497E-05  0.1499807E+04  0.7818609E-02  0.8884581E-01
        2   -1    0    0  501    0  0.00000000000E+00  0.00000000000E+00  0.13168177166E+04  0.13168177166E+04  0.25500000920E-02 0. -1.
       -2   -1    0    0    0  501  0.00000000000E+00  0.00000000000E+00 -0.42705619918E+03  0.42705619918E+03  0.25500000920E-02 0.  1.
    10030    2    1    2    0    0  0.00000000000E+00  0.00000000000E+00  0.88976151741E+03  0.17438739158E+04  0.14998068796E+04 0.  0.
        4    1    3    3  502    0  0.12517107119E+03 -0.30420317466E+03  0.12284503557E+04  0.12717308118E+04  0.12699999809E+01 0. -1.
       -4    1    3    3    0  502 -0.12517107119E+03  0.30420317466E+03 -0.33868883825E+03  0.47214310394E+03  0.12699999809E+01 0.  1.
</event>
<event>
 5   0  0.2969498E-05  0.1507130E+04  0.7818609E-02  0.8879725E-01
        2   -1    0    0  501    0  0.00000000000E+00  0.00000000000E+00  0.13520731309E+04  0.13520731309E+04  0.25500000920E-02 0.  1.
       -2   -1    0    0    0  501  0.00000000000E+00  0.00000000000E+00 -0.41999230158E+03  0.41999230159E+03  0.25500000920E-02 0. -1.
    10030    2    1    2    0    0  0.00000000000E+00  0.00000000000E+00  0.93208082934E+03  0.17720654325E+04  0.15071301286E+04 0.  0.
        3    1    3    3  502    0  0.37474801083E+03  0.25585899841E+03  0.11734314149E+04  0.12581101679E+04  0.10100000352E+00 0.  1.
       -3    1    3    3    0  502 -0.37474801083E+03 -0.25585899841E+03 -0.24135058560E+03  0.51395526465E+03  0.10100000352E+00 0. -1.
</event>
<event>
 5   0  0.3018308E-05  0.1496669E+04  0.7818609E-02  0.8886671E-01
       -2   -1    0    0    0  501  0.00000000000E+00  0.00000000000E+00  0.28271242628E+03  0.28271242629E+03  0.25500000920E-02 0. -1.
        2   -1    0    0  501    0  0.00000000000E+00  0.00000000000E+00 -0.19808265727E+04  0.19808265727E+04  0.25500000920E-02 0.  1.
    10030    2    1    2    0    0  0.00000000000E+00  0.00000000000E+00 -0.16981141464E+04  0.22635389990E+04  0.14966686826E+04 0.  0.
        2    1    3    3  502    0  0.25317450754E+03  0.68818626879E+03 -0.62317636438E+03  0.96231307429E+03  0.25500000920E-02 0. -1.
       -2    1    3    3    0  502 -0.25317450754E+03 -0.68818626879E+03 -0.10749377820E+04  0.13012259247E+04  0.25500000920E-02 0.  1.
</event>
<event>
 5   0  0.3018308E-05  0.1499060E+04  0.7818609E-02  0.8885078E-01
        2   -1    0    0  501    0  0.00000000000E+00  0.00000000000E+00  0.19173311762E+04  0.19173311762E+04  0.25500000920E-02 0. -1.
       -2   -1    0    0    0  501  0.00000000000E+00  0.00000000000E+00 -0.29300888359E+03  0.29300888360E+03  0.25500000920E-02 0.  1.
    10030    2    1    2    0    0  0.00000000000E+00  0.00000000000E+00  0.16243222926E+04  0.22103400598E+04  0.14990597952E+04 0.  0.
        2    1    3    3  502    0  0.26010920873E+02 -0.24416786321E+03 -0.23201999879E+03  0.33782805282E+03  0.25500000920E-02 0.  1.
       -2    1    3    3    0  502 -0.26010920873E+02  0.24416786321E+03  0.18563422914E+04  0.18725120070E+04  0.25500000920E-02 0. -1.
</event>
<event>
 5   0  0.3070497E-05  0.1501185E+04  0.7818609E-02  0.8883665E-01
       -2   -1    0    0    0  501  0.00000000000E+00  0.00000000000E+00  0.26061671522E+03  0.26061671523E+03  0.25500000920E-02 0.  1.
        2   -1    0    0  501    0  0.00000000000E+00  0.00000000000E+00 -0.21617541007E+04  0.21617541007E+04  0.25500000920E-02 0. -1.
    10030    2    1    2    0    0  0.00000000000E+00  0.00000000000E+00 -0.19011373855E+04  0.24223708160E+04  0.15011852022E+04 0.  0.
        4    1    3    3  502    0  0.23480599098E+03 -0.71230914511E+03 -0.99814965686E+03  0.12485281423E+04  0.12699999809E+01 0.  1.
       -4    1    3    3    0  502 -0.23480599098E+03  0.71230914511E+03 -0.90298772866E+03  0.11738426737E+04  0.12699999809E+01 0. -1.
</event>
<event>
 5   0  0.3030702E-05  0.1499799E+04  0.7818609E-02  0.8884586E-01
        2   -1    0    0  501    0  0.00000000000E+00  0.00000000000E+00  0.11596237232E+04  0.11596237232E+04  0.25500000920E-02 0.  1.
       -2   -1    0    0    0  501  0.00000000000E+00  0.00000000000E+00 -0.48494145418E+03  0.48494145419E+03  0.25500000920E-02 0. -1.
    10030    2    1    2    0    0  0.00000000000E+00  0.00000000000E+00  0.67468226906E+03  0.16445651774E+04  0.14997994728E+04 0.  0.
        5    1    3    3  502    0  0.10012209167E+02  0.46384433766E+03  0.98333739559E+03  0.10873023211E+04  0.46999998093E+01 0.  1.
       -5    1    3    3    0  502 -0.10012209167E+02 -0.46384433766E+03 -0.30865512653E+03  0.55726285633E+03  0.46999998093E+01 0. -1.
</event>
<event>
 5   0  0.3030702E-05  0.1500024E+04  0.7818609E-02  0.8884437E-01
        2   -1    0    0  501    0  0.00000000000E+00  0.00000000000E+00  0.13889027797E+04  0.13889027797E+04  0.25500000920E-02 0. -1.
       -2   -1    0    0    0  501  0.00000000000E+00  0.00000000000E+00 -0.40500887461E+03  0.40500887462E+03  0.25500000920E-02 0.  1.
    10030    2    1    2    0    0  0.00000000000E+00  0.00000000000E+00  0.98389390507E+03  0.17939116543E+04  0.15000239355E+04 0.  0.
        5    1    3    3  502    0  0.93016382790E+02  0.62481043481E+03  0.97545415015E+03  0.11621415645E+04  0.46999998093E+01 0. -1.
       -5    1    3    3    0  502 -0.93016382790E+02 -0.62481043481E+03  0.84397549264E+01  0.63177008981E+03  0.46999998093E+01 0.  1.
</event>
<event>
 5   0  0.2969498E-05  0.1499809E+04  0.7818609E-02  0.8884580E-01
        2   -1    0    0  501    0  0.00000000000E+00  0.00000000000E+00  0.43611894724E+03  0.43611894725E+03  0.25500000920E-02 0. -1.
       -2   -1    0    0    0  501  0.00000000000E+00  0.00000000000E+00 -0.12894568097E+04  0.12894568097E+04  0.25500000920E-02 0.  1.
    10030    2    1    2    0    0  0.00000000000E+00  0.00000000000E+00 -0.85333786246E+03  0.17255757570E+04  0.14998087163E+04 0.  0.
        3    1    3    3  502    0  0.62559144292E+03 -0.39849817498E+03 -0.55370275684E+03  0.92560909787E+03  0.10100000352E+00 0.  1.
       -3    1    3    3    0  502 -0.62559144292E+03  0.39849817498E+03 -0.29963510563E+03  0.79996665909E+03  0.10100000352E+00 0. -1.
</event>
<event>
 5   0  0.1576214E-05  0.1499503E+04  0.7818609E-02  0.8884784E-01
       -1   -1    0    0    0  501  0.00000000000E+00  0.00000000000E+00  0.23591301281E+03  0.23591301287E+03  0.50400001928E-02 0.  1.
        1   -1    0    0  501    0  0.00000000000E+00  0.00000000000E+00 -0.23827729156E+04  0.23827729156E+04  0.50400001928E-02 0. -1.
    10030    2    1    2    0    0  0.00000000000E+00  0.00000000000E+00 -0.21468599028E+04  0.26186859285E+04  0.14995027675E+04 0.  0.
        1    1    3    3  502    0  0.27672990147E+03 -0.43659734084E+03 -0.20218395872E+04  0.20868713407E+04  0.50400001928E-02 0. -1.
       -1    1    3    3    0  502 -0.27672990147E+03  0.43659734084E+03 -0.12502031559E+03  0.53181458774E+03  0.50400001928E-02 0.  1.
</event>
<event>
 5   0  0.1576214E-05  0.1499962E+04  0.7818609E-02  0.8884478E-01
       -1   -1    0    0    0  501  0.00000000000E+00  0.00000000000E+00  0.14326706770E+04  0.14326706770E+04  0.50400001928E-02 0.  1.
        1   -1    0    0  501    0  0.00000000000E+00  0.00000000000E+00 -0.39260331821E+03  0.39260331825E+03  0.50400001928E-02 0. -1.
    10030    2    1    2    0    0  0.00000000000E+00  0.00000000000E+00  0.10400673588E+04  0.18252739953E+04  0.14999616818E+04 0.  0.
        1    1    3    3  502    0  0.66192306988E+01 -0.71371940832E+03  0.23980206767E+03  0.75295699725E+03  0.50400001928E-02 0. -1.
       -1    1    3    3    0  502 -0.66192306988E+01  0.71371940832E+03  0.80026529116E+03  0.10723169980E+04  0.50400001928E-02 0.  1.
</event>
<event>
 5   0  0.3018308E-05  0.1498587E+04  0.7818609E-02  0.8885393E-01
       -2   -1    0    0    0  501  0.00000000000E+00  0.00000000000E+00  0.35514592387E+03  0.35514592388E+03  0.25500000920E-02 0. -1.
        2   -1    0    0  501    0  0.00000000000E+00  0.00000000000E+00 -0.15808736501E+04  0.15808736502E+04  0.25500000920E-02 0.  1.
    10030    2    1    2    0    0  0.00000000000E+00  0.00000000000E+00 -0.12257277263E+04  0.19360195740E+04  0.14985871119E+04 0.  0.
        2    1    3    3  502    0  0.26708998698E+03  0.32581225104E+03 -0.14133709311E+04  0.14748247601E+04  0.25500000920E-02 0.  1.
       -2    1    3    3    0  502 -0.26708998698E+03 -0.32581225104E+03  0.18764320483E+03  0.46119481393E+03  0.25500000920E-02 0. -1.
</event>
<event>
 5   0  0.3070497E-05  0.1499988E+04  0.7818609E-02  0.8884461E-01
        2   -1    0    0  501    0  0.00000000000E+00  0.00000000000E+00  0.98944721588E+03  0.98944721589E+03  0.25500000920E-02 0. -1.
       -2   -1    0    0    0  501  0.00000000000E+00  0.00000000000E+00 -0.56849008642E+03  0.56849008642E+03  0.25500000920E-02 0.  1.
    10030    2    1    2    0    0  0.00000000000E+00  0.00000000000E+00  0.42095712946E+03  0.15579373023E+04  0.14999879110E+04 0.  0.
        4    1    3    3  502    0  0.18742162466E+03 -0.71696299454E+03  0.90578177540E+02  0.74657137641E+03  0.12699999809E+01 0.  1.
       -4    1    3    3    0  502 -0.18742162466E+03  0.71696299454E+03  0.33037895192E+03  0.81136592590E+03  0.12699999809E+01 0. -1.
</event>
<event>
 5   0  0.1533777E-05  0.1499773E+04  0.7818609E-02  0.8884604E-01
        1   -1    0    0  501    0  0.00000000000E+00  0.00000000000E+00  0.10969380788E+04  0.10969380788E+04  0.50400001928E-02 0.  1.
       -1   -1    0    0    0  501  0.00000000000E+00  0.00000000000E+00 -0.51263575981E+03  0.51263575983E+03  0.50400001928E-02 0. -1.
    10030    2    1    2    0    0  0.00000000000E+00  0.00000000000E+00  0.58430231898E+03  0.16095738386E+04  0.14997728968E+04 0.  0.
        5    1    3    3  502    0  0.25453375347E+03 -0.50238679498E+03  0.82350224732E+03  0.99767628255E+03  0.46999998093E+01 0.  1.
       -5    1    3    3    0  502 -0.25453375347E+03  0.50238679498E+03 -0.23919992834E+03  0.61189755608E+03  0.46999998093E+01 0. -1.
</event>
<event>
 5   0  0.1116613E-05  0.1498355E+04  0.7818609E-02  0.8885548E-01
        3   -1    0    0  501    0  0.00000000000E+00  0.00000000000E+00  0.19344500167E+04  0.19344500194E+04  0.10100000352E+00 0. -1.
       -3   -1    0    0    0  501  0.00000000000E+00  0.00000000000E+00 -0.29014272171E+03  0.29014273929E+03  0.10100000352E+00 0.  1.
    10030    2    1    2    0    0  0.00000000000E+00  0.00000000000E+00  0.16443072950E+04  0.22245927587E+04  0.14983545847E+04 0.  0.
        3    1    3    3  502    0 -0.12109987882E+03  0.13109916723E+03 -0.25812006132E+03  0.31381228235E+03  0.10100000352E+00 0.  1.
       -3    1    3    3    0  502  0.12109987882E+03 -0.13109916723E+03  0.19024273563E+04  0.19107804763E+04  0.10100000352E+00 0. -1.
</event>
<event>
 5   0  0.3093600E-05  0.1497020E+04  0.7818609E-02  0.8886437E-01
       -2   -1    0    0    0  501  0.00000000000E+00  0.00000000000E+00  0.93962475207E+03  0.93962475207E+03  0.25500000920E-02 0.  1.
        2   -1    0    0  501    0  0.00000000000E+00  0.00000000000E+00 -0.59626667326E+03  0.59626667327E+03  0.25500000920E-02 0. -1.
    10030    2    1    2    0    0  0.00000000000E+00  0.00000000000E+00  0.34335807880E+03  0.15358914253E+04  0.14970196058E+04 0.  0.
        1    1    3    3  502    0  0.62185575796E+03  0.29958341474E+03 -0.12534146954E+03  0.70154493092E+03  0.50400001928E-02 0. -1.
       -1    1    3    3    0  502 -0.62185575796E+03 -0.29958341474E+03  0.46869954835E+03  0.83434649441E+03  0.50400001928E-02 0.  1.
</event>
<event>
 5   0  0.1533777E-05  0.1499323E+04  0.7818609E-02  0.8884903E-01
        1   -1    0    0  501    0  0.00000000000E+00  0.00000000000E+00  0.55204354208E+03  0.55204354210E+03  0.50400001928E-02 0. -1.
       -1   -1    0    0    0  501  0.00000000000E+00  0.00000000000E+00 -0.10180221359E+04  0.10180221360E+04  0.50400001928E-02 0.  1.
    10030    2    1    2    0    0  0.00000000000E+00  0.00000000000E+00 -0.46597859386E+03  0.15700656781E+04  0.14993232418E+04 0.  0.
        5    1    3    3  502    0  0.13944813464E+03 -0.51229089596E+03 -0.78718824587E+03  0.94951312196E+03  0.46999998093E+01 0.  1.
       -5    1    3    3    0  502 -0.13944813464E+03  0.51229089596E+03  0.32120965201E+03  0.62055255610E+03  0.46999998093E+01 0. -1.
</event>
<event>
 5   0  0.1643498E-05  0.1500368E+04  0.7818609E-02  0.8884208E-01
       -1   -1    0    0    0  501  0.00000000000E+00  0.00000000000E+00  0.39698060859E+03  0.39698060862E+03  0.50400001928E-02 0. -1.
        1   -1    0    0  501    0  0.00000000000E+00  0.00000000000E+00 -0.14176411255E+04  0.14176411255E+04  0.50400001928E-02 0.  1.
    10030    2    1    2    0    0  0.00000000000E+00  0.00000000000E+00 -0.10206605169E+04  0.18146217341E+04  0.15003680039E+04 0.  0.
        4    1    3    3  502    0 -0.27332200442E+03  0.13642285488E+03 -0.13390102061E+04  0.13734140156E+04  0.12699999809E+01 0.  1.
       -4    1    3    3    0  502  0.27332200442E+03 -0.13642285488E+03  0.31834968913E+03  0.44120771855E+03  0.12699999809E+01 0. -1.
</event>
<event>
 5   0  0.1576214E-05  0.1500695E+04  0.7818609E-02  0.8883991E-01
       -1   -1    0    0    0  501  0.00000000000E+00  0.00000000000E+00  0.32537493522E+03  0.32537493526E+03  0.50400001928E-02 0.  1.
        1   -1    0    0  501    0  0.00000000000E+00  0.00000000000E+00 -0.17303768620E+04  0.17303768620E+04  0.50400001928E-02 0. -1.
    10030    2    1    2    0    0  0.00000000000E+00  0.00000000000E+00 -0.14050019268E+04  0.20557517973E+04  0.15006948516E+04 0.  0.
        1    1    3    3  502    0 -0.32103405289E+03 -0.44542353649E+03 -0.19159332930E+01  0.54906161840E+03  0.50400001928E-02 0.  1.
       -1    1    3    3    0  502  0.32103405289E+03  0.44542353649E+03 -0.14030859935E+04  0.15066901789E+04  0.50400001928E-02 0. -1.
</event>
<event>
 5   0  0.1576214E-05  0.1499848E+04  0.7818609E-02  0.8884554E-01
        1   -1    0    0  501    0  0.00000000000E+00  0.00000000000E+00  0.10148225930E+04  0.10148225930E+04  0.50400001928E-02 0.  1.
       -1   -1    0    0    0  501  0.00000000000E+00  0.00000000000E+00 -0.55417164563E+03  0.55417164565E+03  0.50400001928E-02 0. -1.
    10030    2    1    2    0    0  0.00000000000E+00  0.00000000000E+00  0.46065094735E+03  0.15689942386E+04  0.14998478675E+04 0.  0.
        1    1    3    3  502    0  0.52027239971E+03  0.27335097185E+03 -0.25696259233E+03  0.64143113239E+03  0.50400001928E-02 0. -1.
       -1    1    3    3    0  502 -0.52027239971E+03 -0.27335097185E+03  0.71761353968E+03  0.92756310625E+03  0.50400001928E-02 0.  1.
</event>
<event>
 5   0  0.1576214E-05  0.1499788E+04  0.7818609E-02  0.8884594E-01
       -1   -1    0    0    0  501  0.00000000000E+00  0.00000000000E+00  0.44190197060E+03  0.44190197063E+03  0.50400001928E-02 0.  1.
        1   -1    0    0  501    0  0.00000000000E+00  0.00000000000E+00 -0.12725470228E+04  0.12725470228E+04  0.50400001928E-02 0. -1.
    10030    2    1    2    0    0  0.00000000000E+00  0.00000000000E+00 -0.83064505219E+03  0.17144489934E+04  0.14997880345E+04 0.  0.
        1    1    3    3  502    0  0.45603562598E+03 -0.56306287963E+03 -0.19445106271E+03  0.75021297935E+03  0.50400001928E-02 0.  1.
       -1    1    3    3    0  502 -0.45603562598E+03  0.56306287963E+03 -0.63619398948E+03  0.96423601408E+03  0.50400001928E-02 0. -1.
</event>
<event>
 5   0  0.1580078E-05  0.1503223E+04  0.7818609E-02  0.8882313E-01
        1   -1    0    0  501    0  0.00000000000E+00  0.00000000000E+00  0.15650317835E+04  0.15650317835E+04  0.50400001928E-02 0. -1.
       -1   -1    0    0    0  501  0.00000000000E+00  0.00000000000E+00 -0.36096365237E+03  0.36096365241E+03  0.50400001928E-02 0.  1.
    10030    2    1    2    0    0  0.00000000000E+00  0.00000000000E+00  0.12040681311E+04  0.19259954359E+04  0.15032226564E+04 0.  0.
        2    1    3    3  502    0  0.41194614738E+03  0.43212533794E+03  0.11870559476E+04  0.13287338932E+04  0.25500000920E-02 0. -1.
       -2    1    3    3    0  502 -0.41194614738E+03 -0.43212533794E+03  0.17012183466E+02  0.59726154273E+03  0.25500000920E-02 0.  1.
</event>
<event>
 5   0  0.1533777E-05  0.1500550E+04  0.7818609E-02  0.8884087E-01
        1   -1    0    0  501    0  0.00000000000E+00  0.00000000000E+00  0.13996827125E+04  0.13996827125E+04  0.50400001928E-02 0. -1.
       -1   -1    0    0    0  501  0.00000000000E+00  0.00000000000E+00 -0.40217177361E+03  0.40217177364E+03  0.50400001928E-02 0.  1.
    10030    2    1    2    0    0  0.00000000000E+00  0.00000000000E+00  0.99751093885E+03  0.18018544861E+04  0.15005504044E+04 0.  0.
        5    1    3    3  502    0 -0.68147988953E+03  0.29580300495E+02  0.12361306234E+03  0.69324751221E+03  0.46999998093E+01 0. -1.
       -5    1    3    3    0  502  0.68147988953E+03 -0.29580300495E+02  0.87389787651E+03  0.11086069739E+04  0.46999998093E+01 0.  1.
</event>
<event>
 5   0  0.2969498E-05  0.1497502E+04  0.7818609E-02  0.8886116E-01
        2   -1    0    0  501    0  0.00000000000E+00  0.00000000000E+00  0.18182664054E+04  0.18182664054E+04  0.25500000920E-02 0. -1.
       -2   -1    0    0    0  501  0.00000000000E+00  0.00000000000E+00 -0.30833088509E+03  0.30833088510E+03  0.25500000920E-02 0.  1.
    10030    2    1    2    0    0  0.00000000000E+00  0.00000000000E+00  0.15099355204E+04  0.21265972905E+04  0.14975015060E+04 0.  0.
        3    1    3    3  502    0 -0.39057427835E+03  0.48958551252E+03  0.17223389832E+03  0.64954350655E+03  0.10100000352E+00 0.  1.
       -3    1    3    3    0  502  0.39057427835E+03 -0.48958551252E+03  0.13377016220E+04  0.14770537840E+04  0.10100000352E+00 0. -1.
</event>
<event>
 5   0  0.1588657E-05  0.1499254E+04  0.7818609E-02  0.8884949E-01
        1   -1    0    0  501    0  0.00000000000E+00  0.00000000000E+00  0.16283291937E+04  0.16283291937E+04  0.50400001928E-02 0. -1.
       -1   -1    0    0    0  501  0.00000000000E+00  0.00000000000E+00 -0.34510276444E+03  0.34510276448E+03  0.50400001928E-02 0.  1.
    10030    2    1    2    0    0  0.00000000000E+00  0.00000000000E+00  0.12832264292E+04  0.19734319582E+04  0.14992543563E+04 0.  0.
        3    1    3    3  502    0  0.35040429840E+03 -0.55020851276E+03  0.11277954622E+04  0.13028565519E+04  0.10100000352E+00 0. -1.
       -3    1    3    3    0  502 -0.35040429840E+03  0.55020851276E+03  0.15543096699E+03  0.67057540631E+03  0.10100000352E+00 0.  1.
</event>
<event>
 5   0  0.1580078E-05  0.1500624E+04  0.7818609E-02  0.8884038E-01
       -1   -1    0    0    0  501  0.00000000000E+00  0.00000000000E+00  0.72282042994E+03  0.72282042996E+03  0.50400001928E-02 0. -1.
        1   -1    0    0  501    0  0.00000000000E+00  0.00000000000E+00 -0.77884901213E+03  0.77884901215E+03  0.50400001928E-02 0.  1.
    10030    2    1    2    0    0  0.00000000000E+00  0.00000000000E+00 -0.56028582192E+02  0.15016694421E+04  0.15006238407E+04 0.  0.
        2    1    3    3  502    0 -0.30010239001E+02  0.35744191313E+03 -0.68748989933E+03  0.77544032484E+03  0.25500000920E-02 0.  1.
       -2    1    3    3    0  502  0.30010239001E+02 -0.35744191313E+03  0.63146131714E+03  0.72622911726E+03  0.25500000920E-02 0. -1.
</event>
<event>
 5   0  0.3030702E-05  0.1499057E+04  0.7818609E-02  0.8885080E-01
        2   -1    0    0  501    0  0.00000000000E+00  0.00000000000E+00  0.19981276312E+04  0.19981276312E+04  0.25500000920E-02 0. -1.
       -2   -1    0    0    0  501  0.00000000000E+00  0.00000000000E+00 -0.28115968428E+03  0.28115968429E+03  0.25500000920E-02 0.  1.
    10030    2    1    2    0    0  0.00000000000E+00  0.00000000000E+00  0.17169679470E+04  0.22792873155E+04  0.14990569488E+04 0.  0.
        5    1    3    3  502    0 -0.65063443118E+03  0.23649700352E+03  0.42171981293E+03  0.81063289245E+03  0.46999998093E+01 0.  1.
       -5    1    3    3    0  502  0.65063443118E+03 -0.23649700352E+03  0.12952481340E+04  0.14686544231E+04  0.46999998093E+01 0. -1.
</event>
<event>
 5   0  0.2969498E-05  0.1501534E+04  0.7818609E-02  0.8883433E-01
       -2   -1    0    0    0  501  0.00000000000E+00  0.00000000000E+00  0.49112134836E+03  0.49112134836E+03  0.25500000920E-02 0. -1.
        2   -1    0    0  501    0  0.00000000000E+00  0.00000000000E+00 -0.11476821193E+04  0.11476821193E+04  0.25500000920E-02 0.  1.
    10030    2    1    2    0    0  0.00000000000E+00  0.00000000000E+00 -0.65656077093E+03  0.16388034677E+04  0.15015341354E+04 0.  0.
        3    1    3    3  502    0  0.68502210329E+03  0.30723860446E+03 -0.32764618625E+03  0.81914765191E+03  0.10100000352E+00 0.  1.
       -3    1    3    3    0  502 -0.68502210329E+03 -0.30723860446E+03 -0.32891458468E+03  0.81965581575E+03  0.10100000352E+00 0. -1.
</event>
<event>
 5   0  0.1576214E-05  0.1500322E+04  0.7818609E-02  0.8884239E-01
       -1   -1    0    0    0  501  0.00000000000E+00  0.00000000000E+00  0.13984948393E+04  0.13984948393E+04  0.50400001928E-02 0.  1.
        1   -1    0    0  501    0  0.00000000000E+00  0.00000000000E+00 -0.40239080333E+03  0.40239080336E+03  0.50400001928E-02 0. -1.
    10030    2    1    2    0    0  0.00000000000E+00  0.00000000000E+00  0.99610403595E+03  0.18008856427E+04  0.15003219146E+04 0.  0.
        1    1    3    3  502    0 -0.68198878588E+03 -0.31231699098E+03  0.50949333277E+03  0.90677122974E+03  0.50400001928E-02 0. -1.
       -1    1    3    3    0  502  0.68198878588E+03  0.31231699098E+03  0.48661070318E+03  0.89411441292E+03  0.50400001928E-02 0.  1.
</event>
<event>
 5   0  0.3070497E-05  0.1499529E+04  0.7818609E-02  0.8884766E-01
       -2   -1    0    0    0  501  0.00000000000E+00  0.00000000000E+00  0.62020957914E+03  0.62020957915E+03  0.25500000920E-02 0.  1.
        2   -1    0    0  501    0  0.00000000000E+00  0.00000000000E+00 -0.90638259833E+03  0.90638259833E+03  0.25500000920E-02 0. -1.
    10030    2    1    2    0    0  0.00000000000E+00  0.00000000000E+00 -0.28617301919E+03  0.15265921775E+04  0.14995294860E+04 0.  0.
        4    1    3    3  502    0  0.39709570839E+03 -0.99100365499E+02 -0.78262751297E+03  0.88318362814E+03  0.12699999809E+01 0. -1.
       -4    1    3    3    0  502 -0.39709570839E+03  0.99100365499E+02  0.49645449378E+03  0.64340854934E+03  0.12699999809E+01 0.  1.
</event>
<event>
 5   0  0.3093600E-05  0.1499638E+04  0.7818609E-02  0.8884694E-01
       -2   -1    0    0    0  501  0.00000000000E+00  0.00000000000E+00  0.43142099992E+03  0.43142099993E+03  0.25500000920E-02 0.  1.
        2   -1    0    0  501    0  0.00000000000E+00  0.00000000000E+00 -0.13032009373E+04  0.13032009373E+04  0.25500000920E-02 0. -1.
    10030    2    1    2    0    0  0.00000000000E+00  0.00000000000E+00 -0.87177993733E+03  0.17346219372E+04  0.14996376248E+04 0.  0.
        1    1    3    3  502    0 -0.13346883804E+03 -0.68927042669E+03 -0.74043369805E+03  0.10203674402E+04  0.50400001928E-02 0. -1.
       -1    1    3    3    0  502  0.13346883804E+03  0.68927042669E+03 -0.13134623928E+03  0.71425449696E+03  0.50400001928E-02 0.  1.
</event>
<event>
 5   0  0.2969498E-05  0.1500191E+04  0.7818609E-02  0.8884326E-01
        2   -1    0    0  501    0  0.00000000000E+00  0.00000000000E+00  0.19153886206E+04  0.19153886206E+04  0.25500000920E-02 0.  1.
       -2   -1    0    0    0  501  0.00000000000E+00  0.00000000000E+00 -0.29374894480E+03  0.29374894481E+03  0.25500000920E-02 0. -1.
    10030    2    1    2    0    0  0.00000000000E+00  0.00000000000E+00  0.16216396758E+04  0.22091375654E+04  0.15001911694E+04 0.  0.
        3    1    3    3  502    0 -0.40019974698E+02  0.73422133598E+03  0.10290427302E+04  0.12647574943E+04  0.10100000352E+00 0.  1.
       -3    1    3    3    0  502  0.40019974698E+02 -0.73422133598E+03  0.59259694562E+03  0.94438007113E+03  0.10100000352E+00 0. -1.
</event>
<event>
 5   0  0.1533777E-05  0.1499973E+04  0.7818609E-02  0.8884471E-01
        1   -1    0    0  501    0  0.00000000000E+00  0.00000000000E+00  0.15212925598E+04  0.15212925598E+04  0.50400001928E-02 0.  1.
       -1   -1    0    0    0  501  0.00000000000E+00  0.00000000000E+00 -0.36973812765E+03  0.36973812768E+03  0.50400001928E-02 0. -1.
    10030    2    1    2    0    0  0.00000000000E+00  0.00000000000E+00  0.11515544322E+04  0.18910306875E+04  0.14999731501E+04 0.  0.
        5    1    3    3  502    0  0.43683277745E+03 -0.18699373656E+03 -0.15572587497E+03  0.50006216723E+03  0.46999998093E+01 0. -1.
       -5    1    3    3    0  502 -0.43683277745E+03  0.18699373656E+03  0.13072803072E+04  0.13909685203E+04  0.46999998093E+01 0.  1.
</event>
<event>
 5   0  0.1580078E-05  0.1502039E+04  0.7818609E-02  0.8883098E-01
        1   -1    0    0  501    0  0.00000000000E+00  0.00000000000E+00  0.62515787140E+03  0.62515787142E+03  0.50400001928E-02 0. -1.
       -1   -1    0    0    0  501  0.00000000000E+00  0.00000000000E+00 -0.90222024406E+03  0.90222024407E+03  0.50400001928E-02 0.  1.
    10030    2    1    2    0    0  0.00000000000E+00  0.00000000000E+00 -0.27706237266E+03  0.15273781155E+04  0.15020387310E+04 0.  0.
        2    1    3    3  502    0  0.50756819005E+03 -0.51196003608E+03 -0.35256128419E+03  0.80251355453E+03  0.25500000920E-02 0.  1.
       -2    1    3    3    0  502 -0.50756819005E+03  0.51196003608E+03  0.75498911521E+02  0.72486456096E+03  0.25500000920E-02 0. -1.
</event>
<event>
 5   0  0.1576214E-05  0.1499746E+04  0.7818609E-02  0.8884622E-01
        1   -1    0    0  501    0  0.00000000000E+00  0.00000000000E+00  0.30738205093E+03  0.30738205097E+03  0.50400001928E-02 0. -1.
       -1   -1    0    0    0  501  0.00000000000E+00  0.00000000000E+00 -0.18293495551E+04  0.18293495551E+04  0.50400001928E-02 0.  1.
    10030    2    1    2    0    0  0.00000000000E+00  0.00000000000E+00 -0.15219675042E+04  0.21367316061E+04  0.14997456026E+04 0.  0.
        1    1    3    3  502    0 -0.76010713483E+02 -0.74593895483E+03 -0.77569819566E+03  0.10788467193E+04  0.50400001928E-02 0.  1.
       -1    1    3    3    0  502  0.76010713483E+02  0.74593895483E+03 -0.74626930849E+03  0.10578848868E+04  0.50400001928E-02 0. -1.
</event>
<event>
 5   0  0.3018308E-05  0.1500102E+04  0.7818609E-02  0.8884385E-01
       -2   -1    0    0    0  501  0.00000000000E+00  0.00000000000E+00  0.55762428438E+03  0.55762428439E+03  0.25500000920E-02 0.  1.
        2   -1    0    0  501    0  0.00000000000E+00  0.00000000000E+00 -0.10088803041E+04  0.10088803041E+04  0.25500000920E-02 0. -1.
    10030    2    1    2    0    0  0.00000000000E+00  0.00000000000E+00 -0.45125601971E+03  0.15665045885E+04  0.15001015400E+04 0.  0.
        2    1    3    3  502    0 -0.12775726277E+03  0.28724516036E+02 -0.99685138362E+03  0.10054151864E+04  0.25500000920E-02 0. -1.
       -2    1    3    3    0  502  0.12775726277E+03 -0.28724516036E+02  0.54559536391E+03  0.56108940209E+03  0.25500000920E-02 0.  1.
</event>
<event>
 5   0  0.3070497E-05  0.1500141E+04  0.7818609E-02  0.8884359E-01
        2   -1    0    0  501    0  0.00000000000E+00  0.00000000000E+00  0.82522971058E+03  0.82522971059E+03  0.25500000920E-02 0. -1.
       -2   -1    0    0    0  501  0.00000000000E+00  0.00000000000E+00 -0.68175634162E+03  0.68175634163E+03  0.25500000920E-02 0.  1.
    10030    2    1    2    0    0  0.00000000000E+00  0.00000000000E+00  0.14347336896E+03  0.15069860522E+04  0.15001407780E+04 0.  0.
        4    1    3    3  502    0  0.18370012255E+03  0.14695727272E+03 -0.64373639186E+03  0.68537605017E+03  0.12699999809E+01 0.  1.
       -4    1    3    3    0  502 -0.18370012255E+03 -0.14695727272E+03  0.78720976082E+03  0.82161000205E+03  0.12699999809E+01 0. -1.
</event>
<event>
 5   0  0.1580078E-05  0.1500577E+04  0.7818609E-02  0.8884069E-01
        1   -1    0    0  501    0  0.00000000000E+00  0.00000000000E+00  0.18814830243E+04  0.18814830243E+04  0.50400001928E-02 0. -1.
       -1   -1    0    0    0  501  0.00000000000E+00  0.00000000000E+00 -0.29919629865E+03  0.29919629869E+03  0.50400001928E-02 0.  1.
    10030    2    1    2    0    0  0.00000000000E+00  0.00000000000E+00  0.15822867256E+04  0.21806793230E+04  0.15005768982E+04 0.  0.
        2    1    3    3  502    0  0.19602783651E+03 -0.12173949729E+02 -0.26117548566E+03  0.32678395318E+03  0.25500000920E-02 0.  1.
       -2    1    3    3    0  502 -0.19602783651E+03  0.12173949729E+02  0.18434622113E+04  0.18538953698E+04  0.25500000920E-02 0. -1.
</event>
<event>
 5   0  0.1533777E-05  0.1499817E+04  0.7818609E-02  0.8884575E-01
        1   -1    0    0  501    0  0.00000000000E+00  0.00000000000E+00  0.90913406474E+03  0.90913406475E+03  0.50400001928E-02 0.  1.
       -1   -1    0    0    0  501  0.00000000000E+00  0.00000000000E+00 -0.61856982193E+03  0.61856982195E+03  0.50400001928E-02 0. -1.
    10030    2    1    2    0    0  0.00000000000E+00  0.00000000000E+00  0.29056424281E+03  0.15277038867E+04  0.14998171843E+04 0.  0.
        5    1    3    3  502    0 -0.53926842813E+03  0.21124570580E+02  0.67562030673E+03  0.86472051781E+03  0.46999998093E+01 0.  1.
       -5    1    3    3    0  502  0.53926842813E+03 -0.21124570580E+02 -0.38505606392E+03  0.66298336889E+03  0.46999998093E+01 0. -1.
</event>
<event>
 5   0  0.1580078E-05  0.1503921E+04  0.7818609E-02  0.8881849E-01
       -1   -1    0    0    0  501  0.00000000000E+00  0.00000000000E+00  0.39115640326E+03  0.39115640329E+03  0.50400001928E-02 0.  1.
        1   -1    0    0  501    0  0.00000000000E+00  0.00000000000E+00 -0.14455724185E+04  0.14455724185E+04  0.50400001928E-02 0. -1.
    10030    2    1    2    0    0  0.00000000000E+00  0.00000000000E+00 -0.10544160152E+04  0.18367288218E+04  0.15039214180E+04 0.  0.
        2    1    3    3  502    0  0.56617411887E+03 -0.46950866801E+03 -0.71818867003E+03  0.10280012101E+04  0.25500000920E-02 0.  1.
       -2    1    3    3    0  502 -0.56617411887E+03  0.46950866801E+03 -0.33622734517E+03  0.80872761166E+03  0.25500000920E-02 0. -1.
</event>
<event>
 5   0  0.1116613E-05  0.1496450E+04  0.7818609E-02  0.8886817E-01
       -3   -1    0    0    0  501  0.00000000000E+00  0.00000000000E+00  0.30109707206E+03  0.30109708900E+03  0.10100000352E+00 0.  1.
        3   -1    0    0  501    0  0.00000000000E+00  0.00000000000E+00 -0.18593357926E+04  0.18593357954E+04  0.10100000352E+00 0. -1.
    10030    2    1    2    0    0  0.00000000000E+00  0.00000000000E+00 -0.15582387206E+04  0.21604328844E+04  0.14964499115E+04 0.  0.
        3    1    3    3  502    0  0.52565253427E+03  0.80135030177E+02 -0.15391015448E+04  0.16283629157E+04  0.10100000352E+00 0. -1.
       -3    1    3    3    0  502 -0.52565253427E+03 -0.80135030177E+02 -0.19137175758E+02  0.53206996865E+03  0.10100000352E+00 0.  1.
</event>
<event>
 5   0  0.3018308E-05  0.1497503E+04  0.7818609E-02  0.8886115E-01
        2   -1    0    0  501    0  0.00000000000E+00  0.00000000000E+00  0.66078411138E+03  0.66078411139E+03  0.25500000920E-02 0. -1.
       -2   -1    0    0    0  501  0.00000000000E+00  0.00000000000E+00 -0.84843014999E+03  0.84843014999E+03  0.25500000920E-02 0.  1.
    10030    2    1    2    0    0  0.00000000000E+00  0.00000000000E+00 -0.18764603861E+03  0.15092142614E+04  0.14975034728E+04 0.  0.
        2    1    3    3  502    0 -0.74101261224E+03  0.10064584582E+03 -0.13153064907E+03  0.75929545596E+03  0.25500000920E-02 0.  1.
       -2    1    3    3    0  502  0.74101261224E+03 -0.10064584582E+03 -0.56115389539E+02  0.74991880543E+03  0.25500000920E-02 0. -1.
</event>
<event>
 5   0  0.2969498E-05  0.1499633E+04  0.7818609E-02  0.8884697E-01
       -2   -1    0    0    0  501  0.00000000000E+00  0.00000000000E+00  0.40843752933E+03  0.40843752933E+03  0.25500000920E-02 0.  1.
        2   -1    0    0  501    0  0.00000000000E+00  0.00000000000E+00 -0.13765254754E+04  0.13765254754E+04  0.25500000920E-02 0. -1.
    10030    2    1    2    0    0  0.00000000000E+00  0.00000000000E+00 -0.96808794603E+03  0.17849630047E+04  0.14996328407E+04 0.  0.
        3    1    3    3  502    0 -0.17297602647E+03 -0.65774371162E+03 -0.85983127451E+03  0.10962925370E+04  0.10100000352E+00 0. -1.
       -3    1    3    3    0  502  0.17297602647E+03  0.65774371162E+03 -0.10825667152E+03  0.68867046767E+03  0.10100000352E+00 0.  1.
</event>
<event>
 5   0  0.3018308E-05  0.1499926E+04  0.7818609E-02  0.8884502E-01
        2   -1    0    0  501    0  0.00000000000E+00  0.00000000000E+00  0.66415618481E+03  0.66415618481E+03  0.25500000920E-02 0.  1.
       -2   -1    0    0    0  501  0.00000000000E+00  0.00000000000E+00 -0.84685577584E+03  0.84685577585E+03  0.25500000920E-02 0. -1.
    10030    2    1    2    0    0  0.00000000000E+00  0.00000000000E+00 -0.18269959104E+03  0.15110119607E+04  0.14999259997E+04 0.  0.
        2    1    3    3  502    0  0.57202534768E+03  0.47113153981E+03 -0.20738171500E+03  0.76953564044E+03  0.25500000920E-02 0.  1.
       -2    1    3    3    0  502 -0.57202534768E+03 -0.47113153981E+03  0.24682123958E+02  0.74147632021E+03  0.25500000920E-02 0. -1.
</event>
<event>
 5   0  0.1588657E-05  0.1499271E+04  0.7818609E-02  0.8884938E-01
        1   -1    0    0  501    0  0.00000000000E+00  0.00000000000E+00  0.13521803811E+04  0.13521803811E+04  0.50400001928E-02 0. -1.
       -1   -1    0    0    0  501  0.00000000000E+00  0.00000000000E+00 -0.41559052634E+03  0.41559052637E+03  0.50400001928E-02 0.  1.
    10030    2    1    2    0    0  0.00000000000E+00  0.00000000000E+00  0.93658985473E+03  0.17677709075E+04  0.14992709646E+04 0.  0.
        3    1    3    3  502    0 -0.40127228620E+03  0.60000321399E+03  0.70683807482E+03  0.10102689635E+04  0.10100000352E+00 0. -1.
       -3    1    3    3    0  502  0.40127228620E+03 -0.60000321399E+03  0.22975177992E+03  0.75750194393E+03  0.10100000352E+00 0.  1.
</event>
<event>
 5   0  0.1533777E-05  0.1499405E+04  0.7818609E-02  0.8884849E-01
       -1   -1    0    0    0  501  0.00000000000E+00  0.00000000000E+00  0.61340593631E+03  0.61340593633E+03  0.50400001928E-02 0. -1.
        1   -1    0    0  501    0  0.00000000000E+00  0.00000000000E+00 -0.91628386792E+03  0.91628386794E+03  0.50400001928E-02 0.  1.
    10030    2    1    2    0    0  0.00000000000E+00  0.00000000000E+00 -0.30287793162E+03  0.15296898043E+04  0.14994051673E+04 0.  0.
        5    1    3    3  502    0  0.61006173336E+02 -0.33502516498E+03 -0.83281213746E+03  0.89975650075E+03  0.46999998093E+01 0.  1.
       -5    1    3    3    0  502 -0.61006173336E+02  0.33502516498E+03  0.52993420584E+03  0.62993330351E+03  0.46999998093E+01 0. -1.
</event>
<event>
 5   0  0.3030702E-05  0.1501838E+04  0.7818609E-02  0.8883232E-01
        2   -1    0    0  501    0  0.00000000000E+00  0.00000000000E+00  0.56170290606E+03  0.56170290606E+03  0.25500000920E-02 0. -1.
       -2   -1    0    0    0  501  0.00000000000E+00  0.00000000000E+00 -0.10038740613E+04  0.10038740613E+04  0.25500000920E-02 0.  1.
    10030    2    1    2    0    0  0.00000000000E+00  0.00000000000E+00 -0.44217115526E+03  0.15655769674E+04  0.15018375113E+04 0.  0.
        5    1    3    3  502    0 -0.28614047762E+03  0.61450830483E+03  0.11567297299E+03  0.68767663645E+03  0.46999998093E+01 0. -1.
       -5    1    3    3    0  502  0.28614047762E+03 -0.61450830483E+03 -0.55784412825E+03  0.87790033094E+03  0.46999998093E+01 0.  1.
</event>
<event>
 5   0  0.1533777E-05  0.1501392E+04  0.7818609E-02  0.8883528E-01
        1   -1    0    0  501    0  0.00000000000E+00  0.00000000000E+00  0.12956365689E+04  0.12956365689E+04  0.50400001928E-02 0.  1.
       -1   -1    0    0    0  501  0.00000000000E+00  0.00000000000E+00 -0.43495573468E+03  0.43495573471E+03  0.50400001928E-02 0. -1.
    10030    2    1    2    0    0  0.00000000000E+00  0.00000000000E+00  0.86068083422E+03  0.17305923036E+04  0.15013920950E+04 0.  0.
        5    1    3    3  502    0 -0.13872547589E+03  0.47310674229E+03 -0.22215765820E+03  0.54078726164E+03  0.46999998093E+01 0. -1.
       -5    1    3    3    0  502  0.13872547589E+03 -0.47310674229E+03  0.10828384924E+04  0.11898050420E+04  0.46999998093E+01 0.  1.
</event>
<event>
 5   0  0.1580078E-05  0.1499002E+04  0.7818609E-02  0.8885117E-01
       -1   -1    0    0    0  501  0.00000000000E+00  0.00000000000E+00  0.64025045791E+03  0.64025045793E+03  0.50400001928E-02 0.  1.
        1   -1    0    0  501    0  0.00000000000E+00  0.00000000000E+00 -0.87739404695E+03  0.87739404696E+03  0.50400001928E-02 0. -1.
    10030    2    1    2    0    0  0.00000000000E+00  0.00000000000E+00 -0.23714358904E+03  0.15176445049E+04  0.14990022553E+04 0.  0.
        2    1    3    3  502    0  0.43771964184E+03  0.21168322117E+03  0.45891086481E+03  0.66858615961E+03  0.25500000920E-02 0.  1.
       -2    1    3    3    0  502 -0.43771964184E+03 -0.21168322117E+03 -0.69605445385E+03  0.84905834529E+03  0.25500000920E-02 0. -1.
</event>
<event>
 5   0  0.3030702E-05  0.1499849E+04  0.7818609E-02  0.8884554E-01
       -2   -1    0    0    0  501  0.00000000000E+00  0.00000000000E+00  0.20631703007E+03  0.20631703008E+03  0.25500000920E-02 0.  1.
        2   -1    0    0  501    0  0.00000000000E+00  0.00000000000E+00 -0.27258363756E+04  0.27258363756E+04  0.25500000920E-02 0. -1.
    10030    2    1    2    0    0  0.00000000000E+00  0.00000000000E+00 -0.25195193455E+04  0.29321534057E+04  0.14998486130E+04 0.  0.
        5    1    3    3  502    0  0.68976545193E+02 -0.47805017905E+03 -0.13829275075E+03  0.50243080357E+03  0.46999998093E+01 0.  1.
       -5    1    3    3    0  502 -0.68976545193E+02  0.47805017905E+03 -0.23812265948E+04  0.24297226021E+04  0.46999998093E+01 0. -1.
</event>
<event>
 5   0  0.1576214E-05  0.1500382E+04  0.7818609E-02  0.8884199E-01
       -1   -1    0    0    0  501  0.00000000000E+00  0.00000000000E+00  0.49962685061E+03  0.49962685063E+03  0.50400001928E-02 0. -1.
        1   -1    0    0  501    0  0.00000000000E+00  0.00000000000E+00 -0.11264138443E+04  0.11264138443E+04  0.50400001928E-02 0.  1.
    10030    2    1    2    0    0  0.00000000000E+00  0.00000000000E+00 -0.62678699371E+03  0.16260406950E+04  0.15003820867E+04 0.  0.
        1    1    3    3  502    0 -0.19972140174E+03 -0.31081801655E+03  0.39419729990E+03  0.54026659067E+03  0.50400001928E-02 0. -1.
       -1    1    3    3    0  502  0.19972140174E+03  0.31081801655E+03 -0.10209842936E+04  0.10857741043E+04  0.50400001928E-02 0.  1.
</event>
<event>
 5   0  0.2969498E-05  0.1498915E+04  0.7818609E-02  0.8885175E-01
        2   -1    0    0  501    0  0.00000000000E+00  0.00000000000E+00  0.10082014801E+04  0.10082014801E+04  0.25500000920E-02 0.  1.
       -2   -1    0    0    0  501  0.00000000000E+00  0.00000000000E+00 -0.55711701414E+03  0.55711701415E+03  0.25500000920E-02 0. -1.
    10030    2    1    2    0    0  0.00000000000E+00  0.00000000000E+00  0.45108446599E+03  0.15653184943E+04  0.14989145383E+04 0.  0.
        3    1    3    3  502    0 -0.21860978488E+03  0.21036353497E+03  0.94120732295E+03  0.98889548987E+03  0.10100000352E+00 0.  1.
       -3    1    3    3    0  502  0.21860978488E+03 -0.21036353497E+03 -0.49012285697E+03  0.57642300441E+03  0.10100000352E+00 0. -1.
</event>
<event>
 5   0  0.3093600E-05  0.1500650E+04  0.7818609E-02  0.8884021E-01
       -2   -1    0    0    0  501  0.00000000000E+00  0.00000000000E+00  0.65982034969E+03  0.65982034969E+03  0.25500000920E-02 0. -1.
        2   -1    0    0  501    0  0.00000000000E+00  0.00000000000E+00 -0.85324368051E+03  0.85324368051E+03  0.25500000920E-02 0.  1.
    10030    2    1    2    0    0  0.00000000000E+00  0.00000000000E+00 -0.19342333082E+03  0.15130640302E+04  0.15006499174E+04 0.  0.
        1    1    3    3  502    0  0.35690125666E+03  0.59180783060E+03 -0.39131454655E+03  0.79419272833E+03  0.50400001928E-02 0. -1.
       -1    1    3    3    0  502 -0.35690125666E+03 -0.59180783060E+03  0.19789121573E+03  0.71887130187E+03  0.50400001928E-02 0.  1.
</event>
<event>
 5   0  0.2969498E-05  0.1500359E+04  0.7818609E-02  0.8884214E-01
       -2   -1    0    0    0  501  0.00000000000E+00  0.00000000000E+00  0.98162416194E+03  0.98162416194E+03  0.25500000920E-02 0. -1.
        2   -1    0    0  501    0  0.00000000000E+00  0.00000000000E+00 -0.57330409537E+03  0.57330409537E+03  0.25500000920E-02 0.  1.
    10030    2    1    2    0    0  0.00000000000E+00  0.00000000000E+00  0.40832006657E+03  0.15549282573E+04  0.15003588266E+04 0.  0.
        3    1    3    3  502    0  0.47690604295E+03  0.27069785855E+03 -0.32636920097E+03  0.63814854851E+03  0.10100000352E+00 0.  1.
       -3    1    3    3    0  502 -0.47690604295E+03 -0.27069785855E+03  0.73468926754E+03  0.91677970880E+03  0.10100000352E+00 0. -1.
</event>
<event>
 5   0  0.1580078E-05  0.1498336E+04  0.7818609E-02  0.8885560E-01
        1   -1    0    0  501    0  0.00000000000E+00  0.00000000000E+00  0.74420286424E+03  0.74420286426E+03  0.50400001928E-02 0.  1.
       -1   -1    0    0    0  501  0.00000000000E+00  0.00000000000E+00 -0.75416668021E+03  0.75416668023E+03  0.50400001928E-02 0. -1.
    10030    2    1    2    0    0  0.00000000000E+00  0.00000000000E+00 -0.99638159748E+01  0.14983695445E+04  0.14983364156E+04 0.  0.
        2    1    3    3  502    0 -0.55456791980E+03  0.43846804639E+03  0.24292112895E+03  0.74753627355E+03  0.25500000920E-02 0.  1.
       -2    1    3    3    0  502  0.55456791980E+03 -0.43846804639E+03 -0.25288494492E+03  0.75083327094E+03  0.25500000920E-02 0. -1.
</event>
<event>
 5   0  0.3070497E-05  0.1499623E+04  0.7818609E-02  0.8884704E-01
        2   -1    0    0  501    0  0.00000000000E+00  0.00000000000E+00  0.11176494794E+04  0.11176494794E+04  0.25500000920E-02 0.  1.
       -2   -1    0    0    0  501  0.00000000000E+00  0.00000000000E+00 -0.50303517035E+03  0.50303517036E+03  0.25500000920E-02 0. -1.
    10030    2    1    2    0    0  0.00000000000E+00  0.00000000000E+00  0.61461430900E+03  0.16206846497E+04  0.14996226142E+04 0.  0.
        4    1    3    3  502    0 -0.55638874669E+03  0.69076803769E+00  0.85052390594E+03  0.10163471071E+04  0.12699999809E+01 0.  1.
       -4    1    3    3    0  502  0.55638874669E+03 -0.69076803769E+00 -0.23590959694E+03  0.60433754263E+03  0.12699999809E+01 0. -1.
</event>
<event>
 5   0  0.1533777E-05  0.1500218E+04  0.7818609E-02  0.8884308E-01
        1   -1    0    0  501    0  0.00000000000E+00  0.00000000000E+00  0.79086397463E+03  0.79086397465E+03  0.50400001928E-02 0.  1.
       -1   -1    0    0    0  501  0.00000000000E+00  0.00000000000E+00 -0.71145456037E+03  0.71145456039E+03  0.50400001928E-02 0. -1.
    10030    2    1    2    0    0  0.00000000000E+00  0.00000000000E+00  0.79409414260E+02  0.15023185350E+04  0.15002183593E+04 0.  0.
        5    1    3    3  502    0 -0.67193216698E+03 -0.39458088788E+02  0.37121483784E+03  0.76868219937E+03  0.46999998093E+01 0.  1.
       -5    1    3    3    0  502  0.67193216698E+03  0.39458088788E+02 -0.29180542358E+03  0.73363633567E+03  0.46999998093E+01 0. -1.
</event>
<event>
 5   0  0.1580078E-05  0.1492558E+04  0.7818609E-02  0.8889417E-01
        1   -1    0    0  501    0  0.00000000000E+00  0.00000000000E+00  0.91130885070E+03  0.91130885071E+03  0.50400001928E-02 0. -1.
       -1   -1    0    0    0  501  0.00000000000E+00  0.00000000000E+00 -0.61113488041E+03  0.61113488043E+03  0.50400001928E-02 0.  1.
    10030    2    1    2    0    0  0.00000000000E+00  0.00000000000E+00  0.30017397029E+03  0.15224437311E+04  0.14925583748E+04 0.  0.
        2    1    3    3  502    0  0.12936980218E+03 -0.71876778451E+03  0.30668276654E+03  0.79209721188E+03  0.25500000920E-02 0.  1.
       -2    1    3    3    0  502 -0.12936980218E+03  0.71876778451E+03 -0.65087962572E+01  0.73034651926E+03  0.25500000920E-02 0. -1.
</event>
<event>
 5   0  0.1116613E-05  0.1500133E+04  0.7818609E-02  0.8884364E-01
       -3   -1    0    0    0  501  0.00000000000E+00  0.00000000000E+00  0.98902532719E+03  0.98902533235E+03  0.10100000352E+00 0. -1.
        3   -1    0    0  501    0  0.00000000000E+00  0.00000000000E+00 -0.56884271072E+03  0.56884271969E+03  0.10100000352E+00 0.  1.
    10030    2    1    2    0    0  0.00000000000E+00  0.00000000000E+00  0.42018261647E+03  0.15578680520E+04  0.15001331395E+04 0.  0.
        1    1    3    3  502    0 -0.51268537307E+03  0.52739415229E+03  0.57433875739E+02  0.73775980762E+03  0.50400001928E-02 0.  1.
       -1    1    3    3    0  502  0.51268537307E+03 -0.52739415229E+03  0.36274874073E+03  0.82010824442E+03  0.50400001928E-02 0. -1.
</event>
<event>
 5   0  0.1580078E-05  0.1498534E+04  0.7818609E-02  0.8885428E-01
        1   -1    0    0  501    0  0.00000000000E+00  0.00000000000E+00  0.38815967293E+03  0.38815967296E+03  0.50400001928E-02 0.  1.
       -1   -1    0    0    0  501  0.00000000000E+00  0.00000000000E+00 -0.14463151765E+04  0.14463151765E+04  0.50400001928E-02 0. -1.
    10030    2    1    2    0    0  0.00000000000E+00  0.00000000000E+00 -0.10581555036E+04  0.18344748495E+04  0.14985342517E+04 0.  0.
        2    1    3    3  502    0  0.53630990866E+03  0.49941572033E+03 -0.33802398107E+03  0.80703444265E+03  0.25500000920E-02 0.  1.
       -2    1    3    3    0  502 -0.53630990866E+03 -0.49941572033E+03 -0.72013152250E+03  0.10274404068E+04  0.25500000920E-02 0. -1.
</event>
<event>
 5   0  0.1588657E-05  0.1499271E+04  0.7818609E-02  0.8884938E-01
        1   -1    0    0  501    0  0.00000000000E+00  0.00000000000E+00  0.84048218253E+03  0.84048218255E+03  0.50400001928E-02 0. -1.
       -1   -1    0    0    0  501  0.00000000000E+00  0.00000000000E+00 -0.66860864644E+03  0.66860864646E+03  0.50400001928E-02 0.  1.
    10030    2    1    2    0    0  0.00000000000E+00  0.00000000000E+00  0.17187353609E+03  0.15090908290E+04  0.14992713623E+04 0.  0.
        3    1    3    3  502    0  0.30628449317E+03 -0.46251836173E+03  0.59344159603E+03  0.81234620932E+03  0.10100000352E+00 0. -1.
       -3    1    3    3    0  502 -0.30628449317E+03  0.46251836173E+03 -0.42156805995E+03  0.69674461969E+03  0.10100000352E+00 0.  1.
</event>
<event>
 5   0  0.1533777E-05  0.1500005E+04  0.7818609E-02  0.8884449E-01
       -1   -1    0    0    0  501  0.00000000000E+00  0.00000000000E+00  0.50602292223E+03  0.50602292226E+03  0.50400001928E-02 0. -1.
        1   -1    0    0  501    0  0.00000000000E+00  0.00000000000E+00 -0.11116176432E+04  0.11116176432E+04  0.50400001928E-02 0.  1.
    10030    2    1    2    0    0  0.00000000000E+00  0.00000000000E+00 -0.60559472100E+03  0.16176405655E+04  0.15000053443E+04 0.  0.
        5    1    3    3  502    0  0.71683033086E+03 -0.59590127370E+02 -0.73812758333E+02  0.72309551223E+03  0.46999998093E+01 0. -1.
       -5    1    3    3    0  502 -0.71683033086E+03  0.59590127370E+02 -0.53178196267E+03  0.89454505327E+03  0.46999998093E+01 0.  1.
</event>
<event>
 5   0  0.3030702E-05  0.1500458E+04  0.7818609E-02  0.8884148E-01
       -2   -1    0    0    0  501  0.00000000000E+00  0.00000000000E+00  0.61188362619E+03  0.61188362620E+03  0.25500000920E-02 0.  1.
        2   -1    0    0  501    0  0.00000000000E+00  0.00000000000E+00 -0.91985410910E+03  0.91985410911E+03  0.25500000920E-02 0. -1.
    10030    2    1    2    0    0  0.00000000000E+00  0.00000000000E+00 -0.30797048291E+03  0.15317377353E+04  0.15004581538E+04 0.  0.
        5    1    3    3  502    0  0.11949946002E+03  0.24320026284E+03  0.56016621656E+03  0.62228190473E+03  0.46999998093E+01 0.  1.
       -5    1    3    3    0  502 -0.11949946002E+03 -0.24320026284E+03 -0.86813669947E+03  0.90945583057E+03  0.46999998093E+01 0. -1.
</event>
<event>
 5   0  0.1576214E-05  0.1499731E+04  0.7818609E-02  0.8884632E-01
       -1   -1    0    0    0  501  0.00000000000E+00  0.00000000000E+00  0.16400664588E+04  0.16400664588E+04  0.50400001928E-02 0.  1.
        1   -1    0    0  501    0  0.00000000000E+00  0.00000000000E+00 -0.34285087883E+03  0.34285087887E+03  0.50400001928E-02 0. -1.
    10030    2    1    2    0    0  0.00000000000E+00  0.00000000000E+00  0.12972155800E+04  0.19829173377E+04  0.14997309449E+04 0.  0.
        1    1    3    3  502    0 -0.28656964622E+03  0.50645792884E+03  0.23289157295E+02  0.58237803933E+03  0.50400001928E-02 0. -1.
       -1    1    3    3    0  502  0.28656964622E+03 -0.50645792884E+03  0.12739264227E+04  0.14005392983E+04  0.50400001928E-02 0.  1.
</event>
<event>
 5   0  0.1533777E-05  0.1500448E+04  0.7818609E-02  0.8884155E-01
        1   -1    0    0  501    0  0.00000000000E+00  0.00000000000E+00  0.76875164817E+03  0.76875164819E+03  0.50400001928E-02 0.  1.
       -1   -1    0    0    0  501  0.00000000000E+00  0.00000000000E+00 -0.73214272531E+03  0.73214272532E+03  0.50400001928E-02 0. -1.
    10030    2    1    2    0    0  0.00000000000E+00  0.00000000000E+00  0.36608922865E+02  0.15008943735E+04  0.15004478355E+04 0.  0.
        5    1    3    3  502    0 -0.17126621273E+03 -0.55571392951E+03  0.49243259906E+03  0.76201183829E+03  0.46999998093E+01 0.  1.
       -5    1    3    3    0  502  0.17126621273E+03  0.55571392951E+03 -0.45582367619E+03  0.73888253522E+03  0.46999998093E+01 0. -1.
</event>
<event>
 5   0  0.1643498E-05  0.1500380E+04  0.7818609E-02  0.8884200E-01
        1   -1    0    0  501    0  0.00000000000E+00  0.00000000000E+00  0.10000074806E+04  0.10000074806E+04  0.50400001928E-02 0. -1.
       -1   -1    0    0    0  501  0.00000000000E+00  0.00000000000E+00 -0.56278066335E+03  0.56278066337E+03  0.50400001928E-02 0.  1.
    10030    2    1    2    0    0  0.00000000000E+00  0.00000000000E+00  0.43722681725E+03  0.15627881440E+04  0.15003797830E+04 0.  0.
        4    1    3    3  502    0  0.55445668033E+03 -0.20226545818E+03  0.70096271757E+03  0.91634265985E+03  0.12699999809E+01 0. -1.
       -4    1    3    3    0  502 -0.55445668033E+03  0.20226545818E+03 -0.26373590032E+03  0.64644548413E+03  0.12699999809E+01 0.  1.
</event>
<event>
 5   0  0.1580078E-05  0.1500072E+04  0.7818609E-02  0.8884405E-01
       -1   -1    0    0    0  501  0.00000000000E+00  0.00000000000E+00  0.75563858554E+03  0.75563858555E+03  0.50400001928E-02 0. -1.
        1   -1    0    0  501    0  0.00000000000E+00  0.00000000000E+00 -0.74447492501E+03  0.74447492503E+03  0.50400001928E-02 0.  1.
    10030    2    1    2    0    0  0.00000000000E+00  0.00000000000E+00  0.11163660526E+02  0.15001135106E+04  0.15000719707E+04 0.  0.
        2    1    3    3  502    0 -0.63055750010E+03  0.39339729629E+03  0.10652909381E+03  0.75080799243E+03  0.25500000920E-02 0. -1.
       -2    1    3    3    0  502  0.63055750010E+03 -0.39339729629E+03 -0.95365433286E+02  0.74930551815E+03  0.25500000920E-02 0.  1.
</event>
<event>
 5   0  0.3018308E-05  0.1500158E+04  0.7818609E-02  0.8884348E-01
       -2   -1    0    0    0  501  0.00000000000E+00  0.00000000000E+00  0.30957246514E+03  0.30957246515E+03  0.25500000920E-02 0.  1.
        2   -1    0    0  501    0  0.00000000000E+00  0.00000000000E+00 -0.18174054873E+04  0.18174054873E+04  0.25500000920E-02 0. -1.
    10030    2    1    2    0    0  0.00000000000E+00  0.00000000000E+00 -0.15078330222E+04  0.21269779525E+04  0.15001582542E+04 0.  0.
        2    1    3    3  502    0 -0.34168271632E+03 -0.66322732825E+03 -0.64408109384E+03  0.98562570128E+03  0.25500000920E-02 0. -1.
       -2    1    3    3    0  502  0.34168271632E+03  0.66322732825E+03 -0.86375192832E+03  0.11413522512E+04  0.25500000920E-02 0.  1.
</event>
<event>
 5   0  0.2969498E-05  0.1499979E+04  0.7818609E-02  0.8884467E-01
        2   -1    0    0  501    0  0.00000000000E+00  0.00000000000E+00  0.63189312396E+03  0.63189312397E+03  0.25500000920E-02 0. -1.
       -2   -1    0    0    0  501  0.00000000000E+00  0.00000000000E+00 -0.89015702953E+03  0.89015702953E+03  0.25500000920E-02 0.  1.
    10030    2    1    2    0    0  0.00000000000E+00  0.00000000000E+00 -0.25826390556E+03  0.15220501535E+04  0.14999788081E+04 0.  0.
        3    1    3    3  502    0  0.67523779629E+03  0.19112347358E+03 -0.39761901237E+03  0.80658239064E+03  0.10100000352E+00 0.  1.
       -3    1    3    3    0  502 -0.67523779629E+03 -0.19112347358E+03  0.13935510681E+03  0.71546776286E+03  0.10100000352E+00 0. -1.
</event>
<event>
 5   0  0.3070497E-05  0.1500151E+04  0.7818609E-02  0.8884352E-01
       -2   -1    0    0    0  501  0.00000000000E+00  0.00000000000E+00  0.10721977791E+04  0.10721977791E+04  0.25500000920E-02 0. -1.
        2   -1    0    0  501    0  0.00000000000E+00  0.00000000000E+00 -0.52472906082E+03  0.52472906083E+03  0.25500000920E-02 0.  1.
    10030    2    1    2    0    0  0.00000000000E+00  0.00000000000E+00  0.54746871832E+03  0.15969268400E+04  0.15001511040E+04 0.  0.
        4    1    3    3  502    0 -0.25953967837E+02 -0.13262425301E+03  0.10591303808E+04  0.10677179297E+04  0.12699999809E+01 0. -1.
       -4    1    3    3    0  502  0.25953967837E+02  0.13262425301E+03 -0.51166166250E+03  0.52920891027E+03  0.12699999809E+01 0.  1.
</event>
<event>
 5   0  0.1533777E-05  0.1500818E+04  0.7818609E-02  0.8883909E-01
       -1   -1    0    0    0  501  0.00000000000E+00  0.00000000000E+00  0.34999713771E+03  0.34999713775E+03  0.50400001928E-02 0.  1.
        1   -1    0    0  501    0  0.00000000000E+00  0.00000000000E+00 -0.16089101733E+04  0.16089101733E+04  0.50400001928E-02 0. -1.
    10030    2    1    2    0    0  0.00000000000E+00  0.00000000000E+00 -0.12589130355E+04  0.19589073110E+04  0.15008183841E+04 0.  0.
        5    1    3    3  502    0 -0.71387453218E+03 -0.22799264152E+03 -0.57900023101E+03  0.94702737542E+03  0.46999998093E+01 0. -1.
       -5    1    3    3    0  502  0.71387453218E+03  0.22799264152E+03 -0.67991280454E+03  0.10118799356E+04  0.46999998093E+01 0.  1.
</event>
<event>
 5   0  0.3093600E-05  0.1501038E+04  0.7818609E-02  0.8883763E-01
       -2   -1    0    0    0  501  0.00000000000E+00  0.00000000000E+00  0.64297847767E+03  0.64297847768E+03  0.25500000920E-02 0.  1.
        2   -1    0    0  501    0  0.00000000000E+00  0.00000000000E+00 -0.87604633211E+03  0.87604633211E+03  0.25500000920E-02 0. -1.
    10030    2    1    2    0    0  0.00000000000E+00  0.00000000000E+00 -0.23306785443E+03  0.15190248098E+04  0.15010382234E+04 0.  0.
        1    1    3    3  502    0  0.40761702541E+03  0.58623642054E+03 -0.35050591095E+03  0.79541132366E+03  0.50400001928E-02 0. -1.
       -1    1    3    3    0  502 -0.40761702541E+03 -0.58623642054E+03  0.11743805651E+03  0.72361348613E+03  0.50400001928E-02 0.  1.
</event>
<event>
 5   0  0.3030702E-05  0.1499296E+04  0.7818609E-02  0.8884921E-01
        2   -1    0    0  501    0  0.00000000000E+00  0.00000000000E+00  0.15285735042E+04  0.15285735043E+04  0.25500000920E-02 0. -1.
       -2   -1    0    0    0  501  0.00000000000E+00  0.00000000000E+00 -0.36764477579E+03  0.36764477579E+03  0.25500000920E-02 0.  1.
    10030    2    1    2    0    0  0.00000000000E+00  0.00000000000E+00  0.11609287285E+04  0.18962182800E+04  0.14992959191E+04 0.  0.
        5    1    3    3  502    0 -0.69411047790E+03  0.28309248475E+03  0.57491349962E+03  0.94471071366E+03  0.46999998093E+01 0.  1.
       -5    1    3    3    0  502  0.69411047790E+03 -0.28309248475E+03  0.58601522885E+03  0.95150756639E+03  0.46999998093E+01 0. -1.
</event>
<event>
 5   0  0.1643498E-05  0.1500075E+04  0.7818609E-02  0.8884403E-01
       -1   -1    0    0    0  501  0.00000000000E+00  0.00000000000E+00  0.14996658549E+04  0.14996658549E+04  0.50400001928E-02 0.  1.
        1   -1    0    0  501    0  0.00000000000E+00  0.00000000000E+00 -0.37512110033E+03  0.37512110037E+03  0.50400001928E-02 0. -1.
    10030    2    1    2    0    0  0.00000000000E+00  0.00000000000E+00  0.11245447546E+04  0.18747869553E+04  0.15000750723E+04 0.  0.
        4    1    3    3  502    0  0.35993558215E+03 -0.30693570072E+03  0.12897258319E+04  0.13737385057E+04  0.12699999809E+01 0.  1.
       -4    1    3    3    0  502 -0.35993558215E+03  0.30693570072E+03 -0.16518107728E+03  0.50104844962E+03  0.12699999809E+01 0. -1.
</event>
<event>
 5   0  0.1580078E-05  0.1500092E+04  0.7818609E-02  0.8884392E-01
        1   -1    0    0  501    0  0.00000000000E+00  0.00000000000E+00  0.13587110810E+04  0.13587110810E+04  0.50400001928E-02 0.  1.
       -1   -1    0    0    0  501  0.00000000000E+00  0.00000000000E+00 -0.41404583050E+03  0.41404583053E+03  0.50400001928E-02 0. -1.
    10030    2    1    2    0    0  0.00000000000E+00  0.00000000000E+00  0.94466525049E+03  0.17727569115E+04  0.15000915412E+04 0.  0.
        2    1    3    3  502    0  0.28899801720E+03  0.18220804152E+03  0.12614204454E+04  0.13068669268E+04  0.25500000920E-02 0.  1.
       -2    1    3    3    0  502 -0.28899801720E+03 -0.18220804152E+03 -0.31675519491E+03  0.46588998470E+03  0.25500000920E-02 0. -1.
</event>
<event>
 5   0  0.1580078E-05  0.1500036E+04  0.7818609E-02  0.8884429E-01
       -1   -1    0    0    0  501  0.00000000000E+00  0.00000000000E+00  0.94341333615E+03  0.94341333616E+03  0.50400001928E-02 0. -1.
        1   -1    0    0  501    0  0.00000000000E+00  0.00000000000E+00 -0.59626772489E+03  0.59626772491E+03  0.50400001928E-02 0.  1.
    10030    2    1    2    0    0  0.00000000000E+00  0.00000000000E+00  0.34714561126E+03  0.15396810611E+04  0.15000358977E+04 0.  0.
        2    1    3    3  502    0 -0.45013674268E+03 -0.15659313676E+03  0.76800081660E+03  0.90386379057E+03  0.25500000920E-02 0. -1.
       -2    1    3    3    0  502  0.45013674268E+03  0.15659313676E+03 -0.42085520535E+03  0.63581727050E+03  0.25500000920E-02 0.  1.
</event>
<event>
 5   0  0.1588657E-05  0.1500072E+04  0.7818609E-02  0.8884405E-01
       -1   -1    0    0    0  501  0.00000000000E+00  0.00000000000E+00  0.73594456168E+03  0.73594456169E+03  0.50400001928E-02 0.  1.
        1   -1    0    0  501    0  0.00000000000E+00  0.00000000000E+00 -0.76439769174E+03  0.76439769175E+03  0.50400001928E-02 0. -1.
    10030    2    1    2    0    0  0.00000000000E+00  0.00000000000E+00 -0.28453130060E+02  0.15003422534E+04  0.15000724305E+04 0.  0.
        3    1    3    3  502    0 -0.44782594914E+03 -0.53441923985E+03  0.26223283038E+03  0.74492823290E+03  0.10100000352E+00 0.  1.
       -3    1    3    3    0  502  0.44782594914E+03  0.53441923985E+03 -0.29068596044E+03  0.75541402055E+03  0.10100000352E+00 0. -1.
</event>
<event>
 5   0  0.1580078E-05  0.1500821E+04  0.7818609E-02  0.8883907E-01
       -1   -1    0    0    0  501  0.00000000000E+00  0.00000000000E+00  0.49014883261E+03  0.49014883264E+03  0.50400001928E-02 0. -1.
        1   -1    0    0  501    0  0.00000000000E+00  0.00000000000E+00 -0.11488675191E+04  0.11488675191E+04  0.50400001928E-02 0.  1.
    10030    2    1    2    0    0  0.00000000000E+00  0.00000000000E+00 -0.65871868646E+03  0.16390163517E+04  0.15008212063E+04 0.  0.
        2    1    3    3  502    0 -0.57278262878E+03 -0.30403309754E+03 -0.74175502147E+03  0.98524949943E+03  0.25500000920E-02 0.  1.
       -2    1    3    3    0  502  0.57278262878E+03  0.30403309754E+03  0.83036335008E+02  0.65376685230E+03  0.25500000920E-02 0. -1.
</event>
<event>
 5   0  0.3018308E-05  0.1500202E+04  0.7818609E-02  0.8884319E-01
       -2   -1    0    0    0  501  0.00000000000E+00  0.00000000000E+00  0.48306955386E+03  0.48306955387E+03  0.25500000920E-02 0.  1.
        2   -1    0    0  501    0  0.00000000000E+00  0.00000000000E+00 -0.11647421612E+04  0.11647421612E+04  0.25500000920E-02 0. -1.
    10030    2    1    2    0    0  0.00000000000E+00  0.00000000000E+00 -0.68167260736E+03  0.16478117151E+04  0.15002019547E+04 0.  0.
        2    1    3    3  502    0  0.52738950284E+03 -0.40397007687E+03  0.41745225048E+02  0.66563817088E+03  0.25500000920E-02 0.  1.
       -2    1    3    3    0  502 -0.52738950284E+03  0.40397007687E+03 -0.72341783241E+03  0.98217354422E+03  0.25500000920E-02 0. -1.
</event>
<event>
 5   0  0.3018308E-05  0.1499922E+04  0.7818609E-02  0.8884505E-01
       -2   -1    0    0    0  501  0.00000000000E+00  0.00000000000E+00  0.97648518154E+03  0.97648518154E+03  0.25500000920E-02 0. -1.
        2   -1    0    0  501    0  0.00000000000E+00  0.00000000000E+00 -0.57598542424E+03  0.57598542425E+03  0.25500000920E-02 0.  1.
    10030    2    1    2    0    0  0.00000000000E+00  0.00000000000E+00  0.40049975730E+03  0.15524706058E+04  0.14999216400E+04 0.  0.
        2    1    3    3  502    0 -0.29656827584E+03  0.34920937983E+03 -0.41430378910E+03  0.61769536413E+03  0.25500000920E-02 0.  1.
       -2    1    3    3    0  502  0.29656827584E+03 -0.34920937983E+03  0.81480354640E+03  0.93477524166E+03  0.25500000920E-02 0. -1.
</event>
<event>
 5   0  0.2969498E-05  0.1501038E+04  0.7818609E-02  0.8883763E-01
       -2   -1    0    0    0  501  0.00000000000E+00  0.00000000000E+00  0.66675004394E+03  0.66675004395E+03  0.25500000920E-02 0. -1.
        2   -1    0    0  501    0  0.00000000000E+00  0.00000000000E+00 -0.84481197377E+03  0.84481197378E+03  0.25500000920E-02 0.  1.
    10030    2    1    2    0    0  0.00000000000E+00  0.00000000000E+00 -0.17806192983E+03  0.15115620177E+04  0.15010375354E+04 0.  0.
        3    1    3    3  502    0 -0.34209374929E+03 -0.59139810418E+02 -0.75909306875E+03  0.83471429107E+03  0.10100000352E+00 0.  1.
       -3    1    3    3    0  502  0.34209374929E+03  0.59139810418E+02  0.58103113892E+03  0.67684772666E+03  0.10100000352E+00 0. -1.
</event>
<event>
 5   0  0.1576214E-05  0.1500806E+04  0.7818609E-02  0.8883917E-01
        1   -1    0    0  501    0  0.00000000000E+00  0.00000000000E+00  0.16036175313E+04  0.16036175313E+04  0.50400001928E-02 0. -1.
       -1   -1    0    0    0  501  0.00000000000E+00  0.00000000000E+00 -0.35114660274E+03  0.35114660278E+03  0.50400001928E-02 0.  1.
    10030    2    1    2    0    0  0.00000000000E+00  0.00000000000E+00  0.12524709286E+04  0.19547641341E+04  0.15008062477E+04 0.  0.
        1    1    3    3  502    0 -0.43037055253E+03  0.27385021129E+03 -0.90590461748E+02  0.51809205986E+03  0.50400001928E-02 0.  1.
       -1    1    3    3    0  502  0.43037055253E+03 -0.27385021129E+03  0.13430613903E+04  0.14366720743E+04  0.50400001928E-02 0. -1.
</event>
<event>
 5   0  0.1580078E-05  0.1500327E+04  0.7818609E-02  0.8884236E-01
        1   -1    0    0  501    0  0.00000000000E+00  0.00000000000E+00  0.15294010417E+04  0.15294010417E+04  0.50400001928E-02 0.  1.
       -1   -1    0    0    0  501  0.00000000000E+00  0.00000000000E+00 -0.36795133440E+03  0.36795133444E+03  0.50400001928E-02 0. -1.
    10030    2    1    2    0    0  0.00000000000E+00  0.00000000000E+00  0.11614497073E+04  0.18973523761E+04  0.15003268366E+04 0.  0.
        2    1    3    3  502    0  0.33732869239E+02  0.54324348945E+03 -0.72113467317E+02  0.54904621615E+03  0.25500000920E-02 0. -1.
       -2    1    3    3    0  502 -0.33732869239E+02 -0.54324348945E+03  0.12335631746E+04  0.13483061600E+04  0.25500000920E-02 0.  1.
</event>
<event>
 5   0  0.1580078E-05  0.1500495E+04  0.7818609E-02  0.8884124E-01
       -1   -1    0    0    0  501  0.00000000000E+00  0.00000000000E+00  0.54446620501E+03  0.54446620504E+03  0.50400001928E-02 0. -1.
        1   -1    0    0  501    0  0.00000000000E+00  0.00000000000E+00 -0.10338045017E+04  0.10338045017E+04  0.50400001928E-02 0.  1.
    10030    2    1    2    0    0  0.00000000000E+00  0.00000000000E+00 -0.48933829665E+03  0.15782707067E+04  0.15004954032E+04 0.  0.
        2    1    3    3  502    0 -0.44998673436E+03  0.17506381573E+03  0.35932140981E+03  0.60186981668E+03  0.25500000920E-02 0. -1.
       -2    1    3    3    0  502  0.44998673436E+03 -0.17506381573E+03 -0.84865970647E+03  0.97640089003E+03  0.25500000920E-02 0.  1.
</event>
<event>
 5   0  0.2969498E-05  0.1505040E+04  0.7818609E-02  0.8881108E-01
       -2   -1    0    0    0  501  0.00000000000E+00  0.00000000000E+00  0.63738317300E+03  0.63738317301E+03  0.25500000920E-02 0. -1.
        2   -1    0    0  501    0  0.00000000000E+00  0.00000000000E+00 -0.88845495691E+03  0.88845495691E+03  0.25500000920E-02 0.  1.
    10030    2    1    2    0    0  0.00000000000E+00  0.00000000000E+00 -0.25107178390E+03  0.15258381299E+04  0.15050398526E+04 0.  0.
        3    1    3    3  502    0  0.14543887008E+03  0.47347011067E+03  0.44882623689E+03  0.66840961375E+03  0.10100000352E+00 0. -1.
       -3    1    3    3    0  502 -0.14543887008E+03 -0.47347011067E+03 -0.69989802079E+03  0.85742851617E+03  0.10100000352E+00 0.  1.
</event>
<event>
 5   0  0.3018308E-05  0.1500504E+04  0.7818609E-02  0.8884118E-01
       -2   -1    0    0    0  501  0.00000000000E+00  0.00000000000E+00  0.80643573875E+03  0.80643573875E+03  0.25500000920E-02 0. -1.
        2   -1    0    0  501    0  0.00000000000E+00  0.00000000000E+00 -0.69798270684E+03  0.69798270684E+03  0.25500000920E-02 0.  1.
    10030    2    1    2    0    0  0.00000000000E+00  0.00000000000E+00  0.10845303191E+03  0.15044184456E+04  0.15005041817E+04 0.  0.
        2    1    3    3  502    0 -0.39474998315E+03  0.93620866253E+02 -0.57851865928E+03  0.70659483082E+03  0.25500000920E-02 0.  1.
       -2    1    3    3    0  502  0.39474998315E+03 -0.93620866253E+02  0.68697169119E+03  0.79782361478E+03  0.25500000920E-02 0. -1.
</event>
<event>
 5   0  0.3018308E-05  0.1500182E+04  0.7818609E-02  0.8884332E-01
       -2   -1    0    0    0  501  0.00000000000E+00  0.00000000000E+00  0.61325739698E+03  0.61325739698E+03  0.25500000920E-02 0.  1.
        2   -1    0    0  501    0  0.00000000000E+00  0.00000000000E+00 -0.91745585022E+03  0.91745585023E+03  0.25500000920E-02 0. -1.
    10030    2    1    2    0    0  0.00000000000E+00  0.00000000000E+00 -0.30419845325E+03  0.15307132472E+04  0.15001821044E+04 0.  0.
        2    1    3    3  502    0  0.49818200388E+02 -0.61982984166E+03 -0.58011903875E+03  0.85041694764E+03  0.25500000920E-02 0. -1.
       -2    1    3    3    0  502 -0.49818200388E+02  0.61982984166E+03  0.27592058551E+03  0.68029629957E+03  0.25500000920E-02 0.  1.
</event>
<event>
 5   0  0.1643498E-05  0.1499999E+04  0.7818609E-02  0.8884454E-01
        1   -1    0    0  501    0  0.00000000000E+00  0.00000000000E+00  0.71804946399E+03  0.71804946400E+03  0.50400001928E-02 0.  1.
       -1   -1    0    0    0  501  0.00000000000E+00  0.00000000000E+00 -0.78337122810E+03  0.78337122811E+03  0.50400001928E-02 0. -1.
    10030    2    1    2    0    0  0.00000000000E+00  0.00000000000E+00 -0.65321764110E+02  0.15014206921E+04  0.14999990539E+04 0.  0.
        4    1    3    3  502    0  0.36472488327E+03 -0.38059235786E+03  0.50134535191E+03  0.72747753101E+03  0.12699999809E+01 0.  1.
       -4    1    3    3    0  502 -0.36472488327E+03  0.38059235786E+03 -0.56666711602E+03  0.77394316110E+03  0.12699999809E+01 0. -1.
</event>
<event>
 5   0  0.1116613E-05  0.1499166E+04  0.7818609E-02  0.8885008E-01
        3   -1    0    0  501    0  0.00000000000E+00  0.00000000000E+00  0.67395811491E+03  0.67395812248E+03  0.10100000352E+00 0.  1.
       -3   -1    0    0    0  501  0.00000000000E+00  0.00000000000E+00 -0.83369407261E+03  0.83369407873E+03  0.10100000352E+00 0. -1.
    10030    2    1    2    0    0  0.00000000000E+00  0.00000000000E+00 -0.15973595770E+03  0.15076522012E+04  0.14991662962E+04 0.  0.
        2    1    3    3  502    0 -0.72300968106E+03  0.10541270210E+03  0.88471462124E+02  0.73599051372E+03  0.25500000920E-02 0. -1.
       -2    1    3    3    0  502  0.72300968106E+03 -0.10541270210E+03 -0.24820741982E+03  0.77166168749E+03  0.25500000920E-02 0.  1.
</event>
<event>
 5   0  0.3093600E-05  0.1500627E+04  0.7818609E-02  0.8884036E-01
        2   -1    0    0  501    0  0.00000000000E+00  0.00000000000E+00  0.42282308838E+03  0.42282308838E+03  0.25500000920E-02 0. -1.
       -2   -1    0    0    0  501  0.00000000000E+00  0.00000000000E+00 -0.13314555354E+04  0.13314555354E+04  0.25500000920E-02 0.  1.
    10030    2    1    2    0    0  0.00000000000E+00  0.00000000000E+00 -0.90863244704E+03  0.17542786238E+04  0.15006267244E+04 0.  0.
        1    1    3    3  502    0 -0.11669013258E+03  0.14124002926E+02 -0.13206255644E+04  0.13258461282E+04  0.50400001928E-02 0.  1.
       -1    1    3    3    0  502  0.11669013258E+03 -0.14124002926E+02  0.41199311733E+03  0.42843249556E+03  0.50400001928E-02 0. -1.
</event>
<event>
 5   0  0.2969498E-05  0.1501550E+04  0.7818609E-02  0.8883423E-01
        2   -1    0    0  501    0  0.00000000000E+00  0.00000000000E+00  0.17216869713E+04  0.17216869713E+04  0.25500000920E-02 0. -1.
       -2   -1    0    0    0  501  0.00000000000E+00  0.00000000000E+00 -0.32738980409E+03  0.32738980410E+03  0.25500000920E-02 0.  1.
    10030    2    1    2    0    0  0.00000000000E+00  0.00000000000E+00  0.13942971672E+04  0.20490767754E+04  0.15015495466E+04 0.  0.
        3    1    3    3  502    0  0.34827920317E+03 -0.63914878124E+03  0.44606500341E+03  0.85368821322E+03  0.10100000352E+00 0.  1.
       -3    1    3    3    0  502 -0.34827920317E+03  0.63914878124E+03  0.94823216376E+03  0.11953885621E+04  0.10100000352E+00 0. -1.
</event>
<event>
 5   0  0.1580078E-05  0.1497320E+04  0.7818609E-02  0.8886237E-01
       -1   -1    0    0    0  501  0.00000000000E+00  0.00000000000E+00  0.80188242622E+03  0.80188242623E+03  0.50400001928E-02 0. -1.
        1   -1    0    0  501    0  0.00000000000E+00  0.00000000000E+00 -0.69896963531E+03  0.69896963533E+03  0.50400001928E-02 0.  1.
    10030    2    1    2    0    0  0.00000000000E+00  0.00000000000E+00  0.10291279090E+03  0.15008520616E+04  0.14973195611E+04 0.  0.
        2    1    3    3  502    0 -0.54740165960E+03 -0.50074960692E+03  0.15215594493E+03  0.75733095629E+03  0.25500000920E-02 0. -1.
       -2    1    3    3    0  502  0.54740165960E+03  0.50074960692E+03 -0.49243154026E+02  0.74352110528E+03  0.25500000920E-02 0.  1.
</event>
<event>
 5   0  0.2969498E-05  0.1499391E+04  0.7818609E-02  0.8884858E-01
       -2   -1    0    0    0  501  0.00000000000E+00  0.00000000000E+00  0.78913998029E+03  0.78913998029E+03  0.25500000920E-02 0. -1.
        2   -1    0    0  501    0  0.00000000000E+00  0.00000000000E+00 -0.71222284544E+03  0.71222284545E+03  0.25500000920E-02 0.  1.
    10030    2    1    2    0    0  0.00000000000E+00  0.00000000000E+00  0.76917134846E+02  0.15013628257E+04  0.14993912394E+04 0.  0.
        3    1    3    3  502    0 -0.67630485354E+03  0.26937459846E+03  0.21783815637E+03  0.75987130608E+03  0.10100000352E+00 0. -1.
       -3    1    3    3    0  502  0.67630485354E+03 -0.26937459846E+03 -0.14092102153E+03  0.74149151966E+03  0.10100000352E+00 0.  1.
</event>
<event>
 5   0  0.3018308E-05  0.1502627E+04  0.7818609E-02  0.8882708E-01
        2   -1    0    0  501    0  0.00000000000E+00  0.00000000000E+00  0.89766690314E+03  0.89766690315E+03  0.25500000920E-02 0.  1.
       -2   -1    0    0    0  501  0.00000000000E+00  0.00000000000E+00 -0.62882161353E+03  0.62882161353E+03  0.25500000920E-02 0. -1.
    10030    2    1    2    0    0  0.00000000000E+00  0.00000000000E+00  0.26884528962E+03  0.15264885167E+04  0.15026274993E+04 0.  0.
        2    1    3    3  502    0  0.57733324036E+03  0.24076072348E+03 -0.28835042843E+03  0.68878542811E+03  0.25500000920E-02 0. -1.
       -2    1    3    3    0  502 -0.57733324036E+03 -0.24076072348E+03  0.55719571804E+03  0.83770308857E+03  0.25500000920E-02 0.  1.
</event>
<event>
 5   0  0.3030702E-05  0.1500202E+04  0.7818609E-02  0.8884318E-01
        2   -1    0    0  501    0  0.00000000000E+00  0.00000000000E+00  0.86038665445E+03  0.86038665445E+03  0.25500000920E-02 0.  1.
       -2   -1    0    0    0  501  0.00000000000E+00  0.00000000000E+00 -0.65395226784E+03  0.65395226784E+03  0.25500000920E-02 0. -1.
    10030    2    1    2    0    0  0.00000000000E+00  0.00000000000E+00  0.20643438661E+03  0.15143389223E+04  0.15002023915E+04 0.  0.
        5    1    3    3  502    0 -0.52380047223E+03 -0.16060553461E+03 -0.41392734595E+03  0.68667241839E+03  0.46999998093E+01 0. -1.
       -5    1    3    3    0  502  0.52380047223E+03  0.16060553461E+03  0.62036173256E+03  0.82766650390E+03  0.46999998093E+01 0.  1.
</event>
<event>
 5   0  0.1533777E-05  0.1501767E+04  0.7818609E-02  0.8883278E-01
        1   -1    0    0  501    0  0.00000000000E+00  0.00000000000E+00  0.12131142157E+04  0.12131142157E+04  0.50400001928E-02 0.  1.
       -1   -1    0    0    0  501  0.00000000000E+00  0.00000000000E+00 -0.46477600056E+03  0.46477600058E+03  0.50400001928E-02 0. -1.
    10030    2    1    2    0    0  0.00000000000E+00  0.00000000000E+00  0.74833821511E+03  0.16778902163E+04  0.15017674566E+04 0.  0.
        5    1    3    3  502    0  0.59449275784E+03 -0.26263860071E+03  0.79430627282E+03  0.10263260782E+04  0.46999998093E+01 0.  1.
       -5    1    3    3    0  502 -0.59449275784E+03  0.26263860071E+03 -0.45968057704E+02  0.65156413809E+03  0.46999998093E+01 0. -1.
</event>
<event>
 5   0  0.1533777E-05  0.1500059E+04  0.7818609E-02  0.8884414E-01
        1   -1    0    0  501    0  0.00000000000E+00  0.00000000000E+00  0.10946089193E+04  0.10946089194E+04  0.50400001928E-02 0. -1.
       -1   -1    0    0    0  501  0.00000000000E+00  0.00000000000E+00 -0.51392252420E+03  0.51392252423E+03  0.50400001928E-02 0.  1.
    10030    2    1    2    0    0  0.00000000000E+00  0.00000000000E+00  0.58068639514E+03  0.16085314436E+04  0.15000589040E+04 0.  0.
        5    1    3    3  502    0  0.32396846268E+03  0.26390633022E+03  0.95821377621E+03  0.10453697178E+04  0.46999998093E+01 0. -1.
       -5    1    3    3    0  502 -0.32396846268E+03 -0.26390633022E+03 -0.37752738107E+03  0.56316172580E+03  0.46999998093E+01 0.  1.
</event>
<event>
 5   0  0.3093600E-05  0.1501034E+04  0.7818609E-02  0.8883766E-01
       -2   -1    0    0    0  501  0.00000000000E+00  0.00000000000E+00  0.81839737905E+03  0.81839737906E+03  0.25500000920E-02 0.  1.
        2   -1    0    0  501    0  0.00000000000E+00  0.00000000000E+00 -0.68826639142E+03  0.68826639142E+03  0.25500000920E-02 0. -1.
    10030    2    1    2    0    0  0.00000000000E+00  0.00000000000E+00  0.13013098764E+03  0.15066637705E+04  0.15010335250E+04 0.  0.
        1    1    3    3  502    0 -0.30377877974E+03 -0.90954777646E+01 -0.62373814614E+03  0.69383971471E+03  0.50400001928E-02 0. -1.
       -1    1    3    3    0  502  0.30377877974E+03  0.90954777646E+01  0.75386913378E+03  0.81282405576E+03  0.50400001928E-02 0.  1.
</event>
<event>
 5   0  0.1643498E-05  0.1498772E+04  0.7818609E-02  0.8885270E-01
        1   -1    0    0  501    0  0.00000000000E+00  0.00000000000E+00  0.24006589789E+04  0.24006589789E+04  0.50400001928E-02 0. -1.
       -1   -1    0    0    0  501  0.00000000000E+00  0.00000000000E+00 -0.23392725807E+03  0.23392725813E+03  0.50400001928E-02 0.  1.
    10030    2    1    2    0    0  0.00000000000E+00  0.00000000000E+00  0.21667317208E+04  0.26345862370E+04  0.14987722610E+04 0.  0.
        4    1    3    3  502    0 -0.73651587826E+03 -0.34130812781E+02  0.84780745716E+03  0.11235655960E+04  0.12699999809E+01 0.  1.
       -4    1    3    3    0  502  0.73651587826E+03  0.34130812781E+02  0.13189242637E+04  0.15110206410E+04  0.12699999809E+01 0. -1.
</event>
<event>
 5   0  0.3018308E-05  0.1500105E+04  0.7818609E-02  0.8884383E-01
       -2   -1    0    0    0  501  0.00000000000E+00  0.00000000000E+00  0.82992547483E+03  0.82992547483E+03  0.25500000920E-02 0.  1.
        2   -1    0    0  501    0  0.00000000000E+00  0.00000000000E+00 -0.67786622658E+03  0.67786622659E+03  0.25500000920E-02 0. -1.
    10030    2    1    2    0    0  0.00000000000E+00  0.00000000000E+00  0.15205924825E+03  0.15077917014E+04  0.15001045963E+04 0.  0.
        2    1    3    3  502    0 -0.41083161532E+03 -0.62751604469E+03  0.71597096046E+02  0.75344883479E+03  0.25500000920E-02 0.  1.
       -2    1    3    3    0  502  0.41083161532E+03  0.62751604469E+03  0.80462152203E+02  0.75434286662E+03  0.25500000920E-02 0. -1.
</event>
<event>
 5   0  0.1576214E-05  0.1499909E+04  0.7818609E-02  0.8884514E-01
        1   -1    0    0  501    0  0.00000000000E+00  0.00000000000E+00  0.97154295808E+03  0.97154295809E+03  0.50400001928E-02 0.  1.
       -1   -1    0    0    0  501  0.00000000000E+00  0.00000000000E+00 -0.57890542600E+03  0.57890542602E+03  0.50400001928E-02 0. -1.
    10030    2    1    2    0    0  0.00000000000E+00  0.00000000000E+00  0.39263753208E+03  0.15504483841E+04  0.14999086506E+04 0.  0.
        1    1    3    3  502    0 -0.85457368086E+02  0.74230818946E+03  0.26256467910E+03  0.79200039182E+03  0.50400001928E-02 0. -1.
       -1    1    3    3    0  502  0.85457368086E+02 -0.74230818946E+03  0.13007285298E+03  0.75844799229E+03  0.50400001928E-02 0.  1.
</event>
<event>
 5   0  0.3070497E-05  0.1500133E+04  0.7818609E-02  0.8884365E-01
        2   -1    0    0  501    0  0.00000000000E+00  0.00000000000E+00  0.95274345410E+03  0.95274345411E+03  0.25500000920E-02 0. -1.
       -2   -1    0    0    0  501  0.00000000000E+00  0.00000000000E+00 -0.59050467456E+03  0.59050467456E+03  0.25500000920E-02 0.  1.
    10030    2    1    2    0    0  0.00000000000E+00  0.00000000000E+00  0.36223877955E+03  0.15432481287E+04  0.15001326119E+04 0.  0.
        4    1    3    3  502    0  0.39896768223E+03  0.20185881979E+03 -0.43841484372E+03  0.62620394656E+03  0.12699999809E+01 0.  1.
       -4    1    3    3    0  502 -0.39896768223E+03 -0.20185881979E+03  0.80065362327E+03  0.91704418211E+03  0.12699999809E+01 0. -1.
</event>
<event>
 5   0  0.1643498E-05  0.1500019E+04  0.7818609E-02  0.8884440E-01
        1   -1    0    0  501    0  0.00000000000E+00  0.00000000000E+00  0.65400178064E+03  0.65400178066E+03  0.50400001928E-02 0. -1.
       -1   -1    0    0    0  501  0.00000000000E+00  0.00000000000E+00 -0.86011108269E+03  0.86011108271E+03  0.50400001928E-02 0.  1.
    10030    2    1    2    0    0  0.00000000000E+00  0.00000000000E+00 -0.20610930206E+03  0.15141128634E+04  0.15000189061E+04 0.  0.
        4    1    3    3  502    0 -0.42546342300E+03  0.17501322594E+01 -0.72650706569E+03  0.84192417514E+03  0.12699999809E+01 0.  1.
       -4    1    3    3    0  502  0.42546342300E+03 -0.17501322594E+01  0.52039776364E+03  0.67218868823E+03  0.12699999809E+01 0. -1.
</event>
<event>
 5   0  0.1116613E-05  0.1499452E+04  0.7818609E-02  0.8884818E-01
       -4   -1    0    0    0  501  0.00000000000E+00  0.00000000000E+00  0.62627536375E+03  0.62627665144E+03  0.12699999809E+01 0.  1.
        4   -1    0    0  501    0  0.00000000000E+00  0.00000000000E+00 -0.89750784465E+03  0.89750874319E+03  0.12699999809E+01 0. -1.
    10030    2    1    2    0    0  0.00000000000E+00  0.00000000000E+00 -0.27123248090E+03  0.15237853946E+04  0.14994515231E+04 0.  0.
        4    1    3    3  502    0  0.72888099167E+03  0.16832311109E+03 -0.84937759885E+02  0.75287197165E+03  0.12699999809E+01 0.  1.
       -4    1    3    3    0  502 -0.72888099167E+03 -0.16832311109E+03 -0.18629472101E+03  0.77091342298E+03  0.12699999809E+01 0. -1.
</event>
<event>
 5   0  0.1643498E-05  0.1499920E+04  0.7818609E-02  0.8884506E-01
        1   -1    0    0  501    0  0.00000000000E+00  0.00000000000E+00  0.99250112999E+03  0.99250113000E+03  0.50400001928E-02 0. -1.
       -1   -1    0    0    0  501  0.00000000000E+00  0.00000000000E+00 -0.56668943472E+03  0.56668943474E+03  0.50400001928E-02 0.  1.
    10030    2    1    2    0    0  0.00000000000E+00  0.00000000000E+00  0.42581169527E+03  0.15591905647E+04  0.14999198703E+04 0.  0.
        4    1    3    3  502    0  0.42803891928E+03  0.61370525602E+03  0.16003510642E+03  0.76515639308E+03  0.12699999809E+01 0.  1.
       -4    1    3    3    0  502 -0.42803891928E+03 -0.61370525602E+03  0.26577658885E+03  0.79403417166E+03  0.12699999809E+01 0. -1.
</event>
<event>
 5   0  0.1533777E-05  0.1500111E+04  0.7818609E-02  0.8884379E-01
       -1   -1    0    0    0  501  0.00000000000E+00  0.00000000000E+00  0.27620284466E+03  0.27620284470E+03  0.50400001928E-02 0.  1.
        1   -1    0    0  501    0  0.00000000000E+00  0.00000000000E+00 -0.20368490139E+04  0.20368490139E+04  0.50400001928E-02 0. -1.
    10030    2    1    2    0    0  0.00000000000E+00  0.00000000000E+00 -0.17606461692E+04  0.23130518586E+04  0.15001113183E+04 0.  0.
        5    1    3    3  502    0  0.63065292340E+03  0.34318088833E+03 -0.54581108806E+03  0.90190247020E+03  0.46999998093E+01 0.  1.
       -5    1    3    3    0  502 -0.63065292340E+03 -0.34318088833E+03 -0.12148350811E+04  0.14111493884E+04  0.46999998093E+01 0. -1.
</event>
<event>
 5   0  0.3093600E-05  0.1499017E+04  0.7818609E-02  0.8885107E-01
        2   -1    0    0  501    0  0.00000000000E+00  0.00000000000E+00  0.74899395602E+03  0.74899395602E+03  0.25500000920E-02 0.  1.
       -2   -1    0    0    0  501  0.00000000000E+00  0.00000000000E+00 -0.75002297855E+03  0.75002297855E+03  0.25500000920E-02 0. -1.
    10030    2    1    2    0    0  0.00000000000E+00  0.00000000000E+00 -0.10290225278E+01  0.14990169346E+04  0.14990165814E+04 0.  0.
        1    1    3    3  502    0  0.15674328044E+03  0.17392806258E+02 -0.73324363251E+03  0.75001146012E+03  0.50400001928E-02 0. -1.
       -1    1    3    3    0  502 -0.15674328044E+03 -0.17392806258E+02  0.73221460998E+03  0.74900547445E+03  0.50400001928E-02 0.  1.
</event>
<event>
 5   0  0.1588657E-05  0.1499636E+04  0.7818609E-02  0.8884695E-01
       -1   -1    0    0    0  501  0.00000000000E+00  0.00000000000E+00  0.30631939692E+03  0.30631939696E+03  0.50400001928E-02 0.  1.
        1   -1    0    0  501    0  0.00000000000E+00  0.00000000000E+00 -0.18354280901E+04  0.18354280902E+04  0.50400001928E-02 0. -1.
    10030    2    1    2    0    0  0.00000000000E+00  0.00000000000E+00 -0.15291086932E+04  0.21417474871E+04  0.14996362568E+04 0.  0.
        3    1    3    3  502    0 -0.44304653803E+03  0.60414441534E+03 -0.72061596736E+03  0.10395037720E+04  0.10100000352E+00 0.  1.
       -3    1    3    3    0  502  0.44304653803E+03 -0.60414441534E+03 -0.80849272588E+03  0.11022437151E+04  0.10100000352E+00 0. -1.
</event>
<event>
 5   0  0.3093600E-05  0.1500877E+04  0.7818609E-02  0.8883870E-01
        2   -1    0    0  501    0  0.00000000000E+00  0.00000000000E+00  0.15959800144E+04  0.15959800144E+04  0.25500000920E-02 0.  1.
       -2   -1    0    0    0  501  0.00000000000E+00  0.00000000000E+00 -0.35286009615E+03  0.35286009616E+03  0.25500000920E-02 0. -1.
    10030    2    1    2    0    0  0.00000000000E+00  0.00000000000E+00  0.12431199183E+04  0.19488401106E+04  0.15008766257E+04 0.  0.
        1    1    3    3  502    0  0.35025665309E+03 -0.29723441109E+03  0.13920774627E+04  0.14659153046E+04  0.50400001928E-02 0.  1.
       -1    1    3    3    0  502 -0.35025665309E+03  0.29723441109E+03 -0.14895754440E+03  0.48292480598E+03  0.50400001928E-02 0. -1.
</event>
<event>
 5   0  0.1588657E-05  0.1501161E+04  0.7818609E-02  0.8883681E-01
       -1   -1    0    0    0  501  0.00000000000E+00  0.00000000000E+00  0.16216848435E+04  0.16216848435E+04  0.50400001928E-02 0. -1.
        1   -1    0    0  501    0  0.00000000000E+00  0.00000000000E+00 -0.34739856547E+03  0.34739856550E+03  0.50400001928E-02 0.  1.
    10030    2    1    2    0    0  0.00000000000E+00  0.00000000000E+00  0.12742862780E+04  0.19690834090E+04  0.15011608685E+04 0.  0.
        3    1    3    3  502    0  0.57052615494E+03 -0.17541678067E+02  0.12764751321E+04  0.13982834395E+04  0.10100000352E+00 0. -1.
       -3    1    3    3    0  502 -0.57052615494E+03  0.17541678067E+02 -0.21888541008E+01  0.57079996954E+03  0.10100000352E+00 0.  1.
</event>
<event>
 5   0  0.1533777E-05  0.1499732E+04  0.7818609E-02  0.8884631E-01
       -1   -1    0    0    0  501  0.00000000000E+00  0.00000000000E+00  0.40559301666E+03  0.40559301669E+03  0.50400001928E-02 0. -1.
        1   -1    0    0  501    0  0.00000000000E+00  0.00000000000E+00 -0.13863620004E+04  0.13863620004E+04  0.50400001928E-02 0.  1.
    10030    2    1    2    0    0  0.00000000000E+00  0.00000000000E+00 -0.98076898377E+03  0.17919550171E+04  0.14997316373E+04 0.  0.
        5    1    3    3  502    0 -0.50370060878E+03 -0.19607477594E+03  0.13061255837E+03  0.55609473244E+03  0.46999998093E+01 0. -1.
       -5    1    3    3    0  502  0.50370060878E+03  0.19607477594E+03 -0.11113815421E+04  0.12358602847E+04  0.46999998093E+01 0.  1.
</event>
<event>
 5   0  0.3070497E-05  0.1499637E+04  0.7818609E-02  0.8884694E-01
        2   -1    0    0  501    0  0.00000000000E+00  0.00000000000E+00  0.93512599167E+03  0.93512599167E+03  0.25500000920E-02 0.  1.
       -2   -1    0    0    0  501  0.00000000000E+00  0.00000000000E+00 -0.60123223752E+03  0.60123223753E+03  0.25500000920E-02 0. -1.
    10030    2    1    2    0    0  0.00000000000E+00  0.00000000000E+00  0.33389375414E+03  0.15363582292E+04  0.14996371459E+04 0.  0.
        4    1    3    3  502    0  0.35547354649E+03  0.20066058258E+03  0.81131572346E+03  0.90821854621E+03  0.12699999809E+01 0.  1.
       -4    1    3    3    0  502 -0.35547354649E+03 -0.20066058258E+03 -0.47742196931E+03  0.62813968298E+03  0.12699999809E+01 0. -1.
</event>
<event>
 5   0  0.3018308E-05  0.1500031E+04  0.7818609E-02  0.8884432E-01
       -2   -1    0    0    0  501  0.00000000000E+00  0.00000000000E+00  0.59551650639E+03  0.59551650639E+03  0.25500000920E-02 0. -1.
        2   -1    0    0  501    0  0.00000000000E+00  0.00000000000E+00 -0.94459710199E+03  0.94459710199E+03  0.25500000920E-02 0.  1.
    10030    2    1    2    0    0  0.00000000000E+00  0.00000000000E+00 -0.34908059560E+03  0.15401136084E+04  0.15000308879E+04 0.  0.
        2    1    3    3  502    0 -0.27394146817E+02  0.29387380767E+03 -0.88246510184E+03  0.93051432557E+03  0.25500000920E-02 0.  1.
       -2    1    3    3    0  502  0.27394146817E+02 -0.29387380767E+03  0.53338450624E+03  0.60959928282E+03  0.25500000920E-02 0. -1.
</event>
<event>
 5   0  0.1643498E-05  0.1501762E+04  0.7818609E-02  0.8883282E-01
        1   -1    0    0  501    0  0.00000000000E+00  0.00000000000E+00  0.58328918290E+03  0.58328918292E+03  0.50400001928E-02 0.  1.
       -1   -1    0    0    0  501  0.00000000000E+00  0.00000000000E+00 -0.96662553724E+03  0.96662553725E+03  0.50400001928E-02 0. -1.
    10030    2    1    2    0    0  0.00000000000E+00  0.00000000000E+00 -0.38333635434E+03  0.15499147202E+04  0.15017619250E+04 0.  0.
        4    1    3    3  502    0  0.13071055065E+03  0.51393426799E+03 -0.74032162802E+03  0.91065438322E+03  0.12699999809E+01 0. -1.
       -4    1    3    3    0  502 -0.13071055065E+03 -0.51393426799E+03  0.35698527369E+03  0.63926033695E+03  0.12699999809E+01 0.  1.
</event>
<event>
 5   0  0.3030702E-05  0.1499102E+04  0.7818609E-02  0.8885051E-01
       -2   -1    0    0    0  501  0.00000000000E+00  0.00000000000E+00  0.46148792700E+03  0.46148792700E+03  0.25500000920E-02 0.  1.
        2   -1    0    0  501    0  0.00000000000E+00  0.00000000000E+00 -0.12174239919E+04  0.12174239919E+04  0.25500000920E-02 0. -1.
    10030    2    1    2    0    0  0.00000000000E+00  0.00000000000E+00 -0.75593606487E+03  0.16789119189E+04  0.14991016967E+04 0.  0.
        5    1    3    3  502    0 -0.50751700243E+03 -0.43542112801E+03  0.12278502141E+01  0.66872166413E+03  0.46999998093E+01 0.  1.
       -5    1    3    3    0  502  0.50751700243E+03  0.43542112801E+03 -0.75716391509E+03  0.10101902547E+04  0.46999998093E+01 0. -1.
</event>
<event>
 5   0  0.1576214E-05  0.1499413E+04  0.7818609E-02  0.8884843E-01
        1   -1    0    0  501    0  0.00000000000E+00  0.00000000000E+00  0.95540536494E+03  0.95540536496E+03  0.50400001928E-02 0.  1.
       -1   -1    0    0    0  501  0.00000000000E+00  0.00000000000E+00 -0.58829481411E+03  0.58829481413E+03  0.50400001928E-02 0. -1.
    10030    2    1    2    0    0  0.00000000000E+00  0.00000000000E+00  0.36711055084E+03  0.15437001791E+04  0.14994132474E+04 0.  0.
        1    1    3    3  502    0 -0.11661107995E+01 -0.42909257448E+03 -0.44936938917E+03  0.62133295843E+03  0.50400001928E-02 0. -1.
       -1    1    3    3    0  502  0.11661107995E+01  0.42909257448E+03  0.81647994000E+03  0.92236722065E+03  0.50400001928E-02 0.  1.
</event>
<event>
 5   0  0.3070497E-05  0.1500008E+04  0.7818609E-02  0.8884448E-01
        2   -1    0    0  501    0  0.00000000000E+00  0.00000000000E+00  0.11181835797E+04  0.11181835797E+04  0.25500000920E-02 0. -1.
       -2   -1    0    0    0  501  0.00000000000E+00  0.00000000000E+00 -0.50305317065E+03  0.50305317065E+03  0.25500000920E-02 0.  1.
    10030    2    1    2    0    0  0.00000000000E+00  0.00000000000E+00  0.61513040904E+03  0.16212367503E+04  0.15000077268E+04 0.  0.
        4    1    3    3  502    0  0.20540915781E+02  0.32719202626E+03 -0.42150916058E+03  0.53399263724E+03  0.12699999809E+01 0.  1.
       -4    1    3    3    0  502 -0.20540915781E+02 -0.32719202626E+03  0.10366395696E+04  0.10872441131E+04  0.12699999809E+01 0. -1.
</event>
<event>
 5   0  0.1580078E-05  0.1499565E+04  0.7818609E-02  0.8884742E-01
        1   -1    0    0  501    0  0.00000000000E+00  0.00000000000E+00  0.15480932758E+04  0.15480932758E+04  0.50400001928E-02 0.  1.
       -1   -1    0    0    0  501  0.00000000000E+00  0.00000000000E+00 -0.36313962780E+03  0.36313962783E+03  0.50400001928E-02 0. -1.
    10030    2    1    2    0    0  0.00000000000E+00  0.00000000000E+00  0.11849536480E+04  0.19112329037E+04  0.14995652917E+04 0.  0.
        2    1    3    3  502    0 -0.64956826810E+02  0.51400440040E+03  0.12832575388E+04  0.13838966088E+04  0.25500000920E-02 0.  1.
       -2    1    3    3    0  502  0.64956826810E+02 -0.51400440040E+03 -0.98303890726E+02  0.52733629490E+03  0.25500000920E-02 0. -1.
</event>
<event>
 5   0  0.1580078E-05  0.1500320E+04  0.7818609E-02  0.8884240E-01
       -1   -1    0    0    0  501  0.00000000000E+00  0.00000000000E+00  0.10058320490E+04  0.10058320490E+04  0.50400001928E-02 0.  1.
        1   -1    0    0  501    0  0.00000000000E+00  0.00000000000E+00 -0.55947710308E+03  0.55947710311E+03  0.50400001928E-02 0. -1.
    10030    2    1    2    0    0  0.00000000000E+00  0.00000000000E+00  0.44635494590E+03  0.15653091521E+04  0.15003199672E+04 0.  0.
        2    1    3    3  502    0 -0.12188851043E+03 -0.43324149556E+03 -0.40297347977E+03  0.60410481529E+03  0.25500000920E-02 0. -1.
       -2    1    3    3    0  502  0.12188851043E+03  0.43324149556E+03  0.84932842568E+03  0.96120433682E+03  0.25500000920E-02 0.  1.
</event>
<event>
 5   0  0.3018308E-05  0.1499179E+04  0.7818609E-02  0.8884999E-01
       -2   -1    0    0    0  501  0.00000000000E+00  0.00000000000E+00  0.57051761814E+03  0.57051761814E+03  0.25500000920E-02 0. -1.
        2   -1    0    0  501    0  0.00000000000E+00  0.00000000000E+00 -0.98486786009E+03  0.98486786010E+03  0.25500000920E-02 0.  1.
    10030    2    1    2    0    0  0.00000000000E+00  0.00000000000E+00 -0.41435024195E+03  0.15553854782E+04  0.14991790630E+04 0.  0.
        2    1    3    3  502    0  0.23389640394E+03  0.40664989920E+03  0.39939175580E+03  0.61610505833E+03  0.25500000920E-02 0. -1.
       -2    1    3    3    0  502 -0.23389640394E+03 -0.40664989920E+03 -0.81374199776E+03  0.93928041990E+03  0.25500000920E-02 0.  1.
</event>
<event>
 5   0  0.1533777E-05  0.1500540E+04  0.7818609E-02  0.8884094E-01
       -1   -1    0    0    0  501  0.00000000000E+00  0.00000000000E+00  0.50366783489E+03  0.50366783492E+03  0.50400001928E-02 0. -1.
        1   -1    0    0  501    0  0.00000000000E+00  0.00000000000E+00 -0.11176114964E+04  0.11176114964E+04  0.50400001928E-02 0.  1.
    10030    2    1    2    0    0  0.00000000000E+00  0.00000000000E+00 -0.61394366149E+03  0.16212793313E+04  0.15005398531E+04 0.  0.
        5    1    3    3  502    0 -0.66583057500E+03  0.34405378851E+03 -0.26986440028E+03  0.79658787872E+03  0.46999998093E+01 0. -1.
       -5    1    3    3    0  502  0.66583057500E+03 -0.34405378851E+03 -0.34407926121E+03  0.82469145260E+03  0.46999998093E+01 0.  1.
</event>
<event>
 5   0  0.1643498E-05  0.1499800E+04  0.7818609E-02  0.8884586E-01
        1   -1    0    0  501    0  0.00000000000E+00  0.00000000000E+00  0.13526085421E+04  0.13526085421E+04  0.50400001928E-02 0. -1.
       -1   -1    0    0    0  501  0.00000000000E+00  0.00000000000E+00 -0.41575238622E+03  0.41575238625E+03  0.50400001928E-02 0.  1.
    10030    2    1    2    0    0  0.00000000000E+00  0.00000000000E+00  0.93685615589E+03  0.17683609284E+04  0.14998002921E+04 0.  0.
        4    1    3    3  502    0 -0.50170586965E+03 -0.53468067739E+03  0.65394405060E+03  0.98246457475E+03  0.12699999809E+01 0. -1.
       -4    1    3    3    0  502  0.50170586965E+03  0.53468067739E+03  0.28291210529E+03  0.78589635362E+03  0.12699999809E+01 0.  1.
</event>
<event>
 5   0  0.1533777E-05  0.1499921E+04  0.7818609E-02  0.8884505E-01
        1   -1    0    0  501    0  0.00000000000E+00  0.00000000000E+00  0.64390141180E+03  0.64390141182E+03  0.50400001928E-02 0.  1.
       -1   -1    0    0    0  501  0.00000000000E+00  0.00000000000E+00 -0.87348933847E+03  0.87348933849E+03  0.50400001928E-02 0. -1.
    10030    2    1    2    0    0  0.00000000000E+00  0.00000000000E+00 -0.22958792667E+03  0.15173907503E+04  0.14999213556E+04 0.  0.
        5    1    3    3  502    0  0.61834123764E+03  0.15643242650E+03 -0.51385235210E+03  0.81907467302E+03  0.46999998093E+01 0. -1.
       -5    1    3    3    0  502 -0.61834123764E+03 -0.15643242650E+03  0.28426442543E+03  0.69831607728E+03  0.46999998093E+01 0.  1.
</event>
<event>
 5   0  0.3018308E-05  0.1499164E+04  0.7818609E-02  0.8885009E-01
        2   -1    0    0  501    0  0.00000000000E+00  0.00000000000E+00  0.95753356775E+03  0.95753356775E+03  0.25500000920E-02 0. -1.
       -2   -1    0    0    0  501  0.00000000000E+00  0.00000000000E+00 -0.58679207618E+03  0.58679207618E+03  0.25500000920E-02 0.  1.
    10030    2    1    2    0    0  0.00000000000E+00  0.00000000000E+00  0.37074149157E+03  0.15443256439E+04  0.14991639140E+04 0.  0.
        2    1    3    3  502    0  0.26876621699E+03 -0.21300223825E+03 -0.50124256684E+03  0.60732968288E+03  0.25500000920E-02 0.  1.
       -2    1    3    3    0  502 -0.26876621699E+03  0.21300223825E+03  0.87198405841E+03  0.93699596105E+03  0.25500000920E-02 0. -1.
</event>
<event>
 5   0  0.3018308E-05  0.1500087E+04  0.7818609E-02  0.8884395E-01
        2   -1    0    0  501    0  0.00000000000E+00  0.00000000000E+00  0.11199305661E+04  0.11199305661E+04  0.25500000920E-02 0. -1.
       -2   -1    0    0    0  501  0.00000000000E+00  0.00000000000E+00 -0.50232141325E+03  0.50232141326E+03  0.25500000920E-02 0.  1.
    10030    2    1    2    0    0  0.00000000000E+00  0.00000000000E+00  0.61760915286E+03  0.16222519794E+04  0.15000868038E+04 0.  0.
        2    1    3    3  502    0  0.58754652217E+03 -0.21276913701E+03 -0.13980807432E+03  0.64033422447E+03  0.25500000920E-02 0.  1.
       -2    1    3    3    0  502 -0.58754652217E+03  0.21276913701E+03  0.75741722718E+03  0.98191775491E+03  0.25500000920E-02 0. -1.
</event>
<event>
 5   0  0.1576214E-05  0.1500104E+04  0.7818609E-02  0.8884384E-01
        1   -1    0    0  501    0  0.00000000000E+00  0.00000000000E+00  0.16871851210E+04  0.16871851210E+04  0.50400001928E-02 0.  1.
       -1   -1    0    0    0  501  0.00000000000E+00  0.00000000000E+00 -0.33344184509E+03  0.33344184513E+03  0.50400001928E-02 0. -1.
    10030    2    1    2    0    0  0.00000000000E+00  0.00000000000E+00  0.13537432759E+04  0.20206269661E+04  0.15001041561E+04 0.  0.
        1    1    3    3  502    0  0.14988433563E+03  0.59638963493E+03  0.12553446660E+04  0.13978684277E+04  0.50400001928E-02 0. -1.
       -1    1    3    3    0  502 -0.14988433563E+03 -0.59638963493E+03  0.98398609911E+02  0.62275853842E+03  0.50400001928E-02 0.  1.
</event>
<event>
 5   0  0.2969498E-05  0.1500331E+04  0.7818609E-02  0.8884233E-01
       -2   -1    0    0    0  501  0.00000000000E+00  0.00000000000E+00  0.53219729163E+03  0.53219729164E+03  0.25500000920E-02 0. -1.
        2   -1    0    0  501    0  0.00000000000E+00  0.00000000000E+00 -0.10574047883E+04  0.10574047883E+04  0.25500000920E-02 0.  1.
    10030    2    1    2    0    0  0.00000000000E+00  0.00000000000E+00 -0.52520749663E+03  0.15896020799E+04  0.15003305829E+04 0.  0.
        3    1    3    3  502    0  0.68458236048E+03  0.82545046360E+02  0.50408957760E+02  0.69138105715E+03  0.10100000352E+00 0. -1.
       -3    1    3    3    0  502 -0.68458236048E+03 -0.82545046360E+02 -0.57561645439E+03  0.89822102276E+03  0.10100000352E+00 0.  1.
</event>
<event>
 5   0  0.2969498E-05  0.1500448E+04  0.7818609E-02  0.8884155E-01
        2   -1    0    0  501    0  0.00000000000E+00  0.00000000000E+00  0.81811752815E+03  0.81811752815E+03  0.25500000920E-02 0.  1.
       -2   -1    0    0    0  501  0.00000000000E+00  0.00000000000E+00 -0.68796444709E+03  0.68796444710E+03  0.25500000920E-02 0. -1.
    10030    2    1    2    0    0  0.00000000000E+00  0.00000000000E+00  0.13015308105E+03  0.15060819752E+04  0.15004476304E+04 0.  0.
        3    1    3    3  502    0 -0.74271225335E+03 -0.65465314145E+02 -0.18474023915E+02  0.74582068782E+03  0.10100000352E+00 0. -1.
       -3    1    3    3    0  502  0.74271225335E+03  0.65465314145E+02  0.14862710497E+03  0.76026128743E+03  0.10100000352E+00 0.  1.
</event>
<event>
 5   0  0.3070497E-05  0.1500094E+04  0.7818609E-02  0.8884390E-01
       -2   -1    0    0    0  501  0.00000000000E+00  0.00000000000E+00  0.32367755785E+03  0.32367755786E+03  0.25500000920E-02 0.  1.
        2   -1    0    0  501    0  0.00000000000E+00  0.00000000000E+00 -0.17380584955E+04  0.17380584955E+04  0.25500000920E-02 0. -1.
    10030    2    1    2    0    0  0.00000000000E+00  0.00000000000E+00 -0.14143809377E+04  0.20617360534E+04  0.15000940360E+04 0.  0.
        4    1    3    3  502    0  0.35043444183E+03 -0.52796674135E+03 -0.12586945683E+04  0.14092078651E+04  0.12699999809E+01 0. -1.
       -4    1    3    3    0  502 -0.35043444183E+03  0.52796674135E+03 -0.15568636941E+03  0.65252818829E+03  0.12699999809E+01 0.  1.
</event>
<event>
 5   0  0.1643498E-05  0.1500620E+04  0.7818609E-02  0.8884041E-01
       -1   -1    0    0    0  501  0.00000000000E+00  0.00000000000E+00  0.40505289114E+03  0.40505289118E+03  0.50400001928E-02 0.  1.
        1   -1    0    0  501    0  0.00000000000E+00  0.00000000000E+00 -0.13898557987E+04  0.13898557987E+04  0.50400001928E-02 0. -1.
    10030    2    1    2    0    0  0.00000000000E+00  0.00000000000E+00 -0.98480290753E+03  0.17949086899E+04  0.15006200179E+04 0.  0.
        4    1    3    3  502    0 -0.41315251975E+03 -0.42192260343E+03 -0.10460470453E+04  0.12012200971E+04  0.12699999809E+01 0. -1.
       -4    1    3    3    0  502  0.41315251975E+03  0.42192260343E+03  0.61244137744E+02  0.59368859275E+03  0.12699999809E+01 0.  1.
</event>
<event>
 5   0  0.1643498E-05  0.1499905E+04  0.7818609E-02  0.8884516E-01
        1   -1    0    0  501    0  0.00000000000E+00  0.00000000000E+00  0.62224294017E+03  0.62224294019E+03  0.50400001928E-02 0. -1.
       -1   -1    0    0    0  501  0.00000000000E+00  0.00000000000E+00 -0.90387330846E+03  0.90387330847E+03  0.50400001928E-02 0.  1.
    10030    2    1    2    0    0  0.00000000000E+00  0.00000000000E+00 -0.28163036829E+03  0.15261162487E+04  0.14999050437E+04 0.  0.
        4    1    3    3  502    0 -0.30424795214E+03 -0.33363411930E+03  0.46843810805E+03  0.65062617217E+03  0.12699999809E+01 0. -1.
       -4    1    3    3    0  502  0.30424795214E+03  0.33363411930E+03 -0.75006847634E+03  0.87549007649E+03  0.12699999809E+01 0.  1.
</event>
<event>
 5   0  0.3030702E-05  0.1499781E+04  0.7818609E-02  0.8884599E-01
        2   -1    0    0  501    0  0.00000000000E+00  0.00000000000E+00  0.16423178371E+04  0.16423178371E+04  0.25500000920E-02 0.  1.
       -2   -1    0    0    0  501  0.00000000000E+00  0.00000000000E+00 -0.34240351198E+03  0.34240351199E+03  0.25500000920E-02 0. -1.
    10030    2    1    2    0    0  0.00000000000E+00  0.00000000000E+00  0.12999143251E+04  0.19847213491E+04  0.14997805109E+04 0.  0.
        5    1    3    3  502    0  0.70590099577E+03  0.17929526918E+02  0.98394190338E+03  0.12111075274E+04  0.46999998093E+01 0.  1.
       -5    1    3    3    0  502 -0.70590099577E+03 -0.17929526918E+02  0.31597242173E+03  0.77361382166E+03  0.46999998093E+01 0. -1.
</event>
<event>
 5   0  0.1643498E-05  0.1500131E+04  0.7818609E-02  0.8884366E-01
       -1   -1    0    0    0  501  0.00000000000E+00  0.00000000000E+00  0.42402719359E+03  0.42402719362E+03  0.50400001928E-02 0. -1.
        1   -1    0    0  501    0  0.00000000000E+00  0.00000000000E+00 -0.13267981494E+04  0.13267981495E+04  0.50400001928E-02 0.  1.
    10030    2    1    2    0    0  0.00000000000E+00  0.00000000000E+00 -0.90277095586E+03  0.17508253431E+04  0.15001313220E+04 0.  0.
        4    1    3    3  502    0 -0.19611242603E+03 -0.59961777360E+03  0.22117040298E+02  0.63126249249E+03  0.12699999809E+01 0. -1.
       -4    1    3    3    0  502  0.19611242603E+03  0.59961777360E+03 -0.92488799616E+03  0.11195628506E+04  0.12699999809E+01 0.  1.
</event>
<event>
 5   0  0.2969498E-05  0.1491664E+04  0.7818609E-02  0.8890015E-01
       -2   -1    0    0    0  501  0.00000000000E+00  0.00000000000E+00  0.37899512525E+03  0.37899512525E+03  0.25500000920E-02 0. -1.
        2   -1    0    0  501    0  0.00000000000E+00  0.00000000000E+00 -0.14677374720E+04  0.14677374720E+04  0.25500000920E-02 0.  1.
    10030    2    1    2    0    0  0.00000000000E+00  0.00000000000E+00 -0.10887423467E+04  0.18467325972E+04  0.14916639662E+04 0.  0.
        3    1    3    3  502    0 -0.33520168896E+03  0.11787188644E+02 -0.13690980348E+04  0.14095845307E+04  0.10100000352E+00 0.  1.
       -3    1    3    3    0  502  0.33520168896E+03 -0.11787188644E+02  0.28035568803E+03  0.43714806657E+03  0.10100000352E+00 0. -1.
</event>
<event>
 5   0  0.3030702E-05  0.1499871E+04  0.7818609E-02  0.8884539E-01
       -2   -1    0    0    0  501  0.00000000000E+00  0.00000000000E+00  0.80676453817E+03  0.80676453818E+03  0.25500000920E-02 0. -1.
        2   -1    0    0  501    0  0.00000000000E+00  0.00000000000E+00 -0.69710917272E+03  0.69710917272E+03  0.25500000920E-02 0.  1.
    10030    2    1    2    0    0  0.00000000000E+00  0.00000000000E+00  0.10965536546E+03  0.15038737109E+04  0.14998706075E+04 0.  0.
        5    1    3    3  502    0  0.37923142036E+03 -0.17208692410E+03  0.68015116058E+03  0.79753248891E+03  0.46999998093E+01 0. -1.
       -5    1    3    3    0  502 -0.37923142036E+03  0.17208692410E+03 -0.57049579512E+03  0.70634122199E+03  0.46999998093E+01 0.  1.
</event>
<event>
 5   0  0.1643498E-05  0.1499972E+04  0.7818609E-02  0.8884472E-01
       -1   -1    0    0    0  501  0.00000000000E+00  0.00000000000E+00  0.64769893356E+03  0.64769893358E+03  0.50400001928E-02 0. -1.
        1   -1    0    0  501    0  0.00000000000E+00  0.00000000000E+00 -0.86842638698E+03  0.86842638700E+03  0.50400001928E-02 0.  1.
    10030    2    1    2    0    0  0.00000000000E+00  0.00000000000E+00 -0.22072745342E+03  0.15161253206E+04  0.14999717927E+04 0.  0.
        4    1    3    3  502    0 -0.32039980949E+03  0.24301560270E+03 -0.75024100813E+03  0.85122018554E+03  0.12699999809E+01 0.  1.
       -4    1    3    3    0  502  0.32039980949E+03 -0.24301560270E+03  0.52951355471E+03  0.66490513504E+03  0.12699999809E+01 0. -1.
</event>
<event>
 5   0  0.1588657E-05  0.1499935E+04  0.7818609E-02  0.8884496E-01
        1   -1    0    0  501    0  0.00000000000E+00  0.00000000000E+00  0.12942374710E+04  0.12942374710E+04  0.50400001928E-02 0.  1.
       -1   -1    0    0    0  501  0.00000000000E+00  0.00000000000E+00 -0.43458122140E+03  0.43458122143E+03  0.50400001928E-02 0. -1.
    10030    2    1    2    0    0  0.00000000000E+00  0.00000000000E+00  0.85965624962E+03  0.17288186925E+04  0.14999350666E+04 0.  0.
        3    1    3    3  502    0  0.35435651478E+03 -0.28521881607E+03  0.11170815872E+04  0.12061465895E+04  0.10100000352E+00 0.  1.
       -3    1    3    3    0  502 -0.35435651478E+03  0.28521881607E+03 -0.25742533759E+03  0.52267210299E+03  0.10100000352E+00 0. -1.
</event>
<event>
 5   0  0.1643498E-05  0.1500111E+04  0.7818609E-02  0.8884379E-01
       -1   -1    0    0    0  501  0.00000000000E+00  0.00000000000E+00  0.68206675117E+03  0.68206675119E+03  0.50400001928E-02 0.  1.
        1   -1    0    0  501    0  0.00000000000E+00  0.00000000000E+00 -0.82482095587E+03  0.82482095588E+03  0.50400001928E-02 0. -1.
    10030    2    1    2    0    0  0.00000000000E+00  0.00000000000E+00 -0.14275420470E+03  0.15068877071E+04  0.15001105955E+04 0.  0.
        4    1    3    3  502    0 -0.56236811587E+03  0.14204949466E+03  0.40631875108E+03  0.70818959118E+03  0.12699999809E+01 0.  1.
       -4    1    3    3    0  502  0.56236811587E+03 -0.14204949466E+03 -0.54907295578E+03  0.79869811590E+03  0.12699999809E+01 0. -1.
</event>
<event>
 5   0  0.3030702E-05  0.1498966E+04  0.7818609E-02  0.8885141E-01
        2   -1    0    0  501    0  0.00000000000E+00  0.00000000000E+00  0.11148389404E+04  0.11148389404E+04  0.25500000920E-02 0.  1.
       -2   -1    0    0    0  501  0.00000000000E+00  0.00000000000E+00 -0.50386182484E+03  0.50386182485E+03  0.25500000920E-02 0. -1.
    10030    2    1    2    0    0  0.00000000000E+00  0.00000000000E+00  0.61097711553E+03  0.16187007652E+04  0.14989660208E+04 0.  0.
        5    1    3    3  502    0  0.56747388384E+03  0.27079014549E+03 -0.13494925315E+03  0.64310753584E+03  0.46999998093E+01 0. -1.
       -5    1    3    3    0  502 -0.56747388384E+03 -0.27079014549E+03  0.74592636868E+03  0.97559322938E+03  0.46999998093E+01 0.  1.
</event>
<event>
 5   0  0.1643498E-05  0.1499937E+04  0.7818609E-02  0.8884495E-01
        1   -1    0    0  501    0  0.00000000000E+00  0.00000000000E+00  0.12997272395E+04  0.12997272395E+04  0.50400001928E-02 0. -1.
       -1   -1    0    0    0  501  0.00000000000E+00  0.00000000000E+00 -0.43274648606E+03  0.43274648609E+03  0.50400001928E-02 0.  1.
    10030    2    1    2    0    0  0.00000000000E+00  0.00000000000E+00  0.86698075342E+03  0.17324737256E+04  0.14999365263E+04 0.  0.
        4    1    3    3  502    0 -0.10045897511E+03 -0.26755502220E+03 -0.36738298777E+03  0.46545630105E+03  0.12699999809E+01 0.  1.
       -4    1    3    3    0  502  0.10045897511E+03  0.26755502220E+03  0.12343637412E+04  0.12670174245E+04  0.12699999809E+01 0. -1.
</event>
<event>
 5   0  0.1116613E-05  0.1499613E+04  0.7818609E-02  0.8884710E-01
       -3   -1    0    0    0  501  0.00000000000E+00  0.00000000000E+00  0.52907161653E+03  0.52907162617E+03  0.10100000352E+00 0.  1.
        3   -1    0    0  501    0  0.00000000000E+00  0.00000000000E+00 -0.10626348700E+04  0.10626348748E+04  0.10100000352E+00 0. -1.
    10030    2    1    2    0    0  0.00000000000E+00  0.00000000000E+00 -0.53356325348E+03  0.15917065010E+04  0.14996132301E+04 0.  0.
        3    1    3    3  502    0 -0.18706257880E+03  0.63303207711E+03 -0.64427407735E+03  0.92239423024E+03  0.10100000352E+00 0. -1.
       -3    1    3    3    0  502  0.18706257880E+03 -0.63303207711E+03  0.11071082387E+03  0.66931227073E+03  0.10100000352E+00 0.  1.
</event>
<event>
 5   0  0.1580078E-05  0.1499883E+04  0.7818609E-02  0.8884531E-01
       -1   -1    0    0    0  501  0.00000000000E+00  0.00000000000E+00  0.95055565885E+03  0.95055565887E+03  0.50400001928E-02 0.  1.
        1   -1    0    0  501    0  0.00000000000E+00  0.00000000000E+00 -0.59166663427E+03  0.59166663429E+03  0.50400001928E-02 0. -1.
    10030    2    1    2    0    0  0.00000000000E+00  0.00000000000E+00  0.35888902459E+03  0.15422222932E+04  0.14998827519E+04 0.  0.
        2    1    3    3  502    0  0.63531425582E+03  0.39702012329E+03  0.14438078089E+03  0.76295150032E+03  0.25500000920E-02 0. -1.
       -2    1    3    3    0  502 -0.63531425582E+03 -0.39702012329E+03  0.21450824370E+03  0.77927079284E+03  0.25500000920E-02 0.  1.
</event>
<event>
 5   0  0.1533777E-05  0.1499584E+04  0.7818609E-02  0.8884730E-01
       -1   -1    0    0    0  501  0.00000000000E+00  0.00000000000E+00  0.36753205299E+03  0.36753205302E+03  0.50400001928E-02 0.  1.
        1   -1    0    0  501    0  0.00000000000E+00  0.00000000000E+00 -0.15296298543E+04  0.15296298543E+04  0.50400001928E-02 0. -1.
    10030    2    1    2    0    0  0.00000000000E+00  0.00000000000E+00 -0.11620978013E+04  0.18971619073E+04  0.14995839432E+04 0.  0.
        5    1    3    3  502    0 -0.50598326118E+02 -0.70272994470E+03 -0.90551436869E+03  0.11473307839E+04  0.46999998093E+01 0. -1.
       -5    1    3    3    0  502  0.50598326118E+02  0.70272994470E+03 -0.25658343264E+03  0.74983112344E+03  0.46999998093E+01 0.  1.
</event>
<event>
 5   0  0.3018308E-05  0.1499791E+04  0.7818609E-02  0.8884592E-01
        2   -1    0    0  501    0  0.00000000000E+00  0.00000000000E+00  0.15720254887E+04  0.15720254887E+04  0.25500000920E-02 0. -1.
       -2   -1    0    0    0  501  0.00000000000E+00  0.00000000000E+00 -0.35771888334E+03  0.35771888335E+03  0.25500000920E-02 0.  1.
    10030    2    1    2    0    0  0.00000000000E+00  0.00000000000E+00  0.12143066053E+04  0.19297443720E+04  0.14997909220E+04 0.  0.
        2    1    3    3  502    0  0.24238182664E+03  0.70923590097E+03  0.63810552119E+03  0.98434910946E+03  0.25500000920E-02 0. -1.
       -2    1    3    3    0  502 -0.24238182664E+03 -0.70923590097E+03  0.57620108414E+03  0.94539526256E+03  0.25500000920E-02 0.  1.
</event>
<event>
 5   0  0.3070497E-05  0.1499772E+04  0.7818609E-02  0.8884604E-01
       -2   -1    0    0    0  501  0.00000000000E+00  0.00000000000E+00  0.23232041352E+03  0.23232041353E+03  0.25500000920E-02 0. -1.
        2   -1    0    0  501    0  0.00000000000E+00  0.00000000000E+00 -0.24204893744E+04  0.24204893744E+04  0.25500000920E-02 0.  1.
    10030    2    1    2    0    0  0.00000000000E+00  0.00000000000E+00 -0.21881689609E+04  0.26528097879E+04  0.14997721059E+04 0.  0.
        4    1    3    3  502    0 -0.65948207066E+03 -0.11824573611E+03 -0.49836396884E+03  0.83502509781E+03  0.12699999809E+01 0. -1.
       -4    1    3    3    0  502  0.65948207066E+03  0.11824573611E+03 -0.16898049920E+04  0.18177846901E+04  0.12699999809E+01 0.  1.
</event>
<event>
 5   0  0.2969498E-05  0.1499959E+04  0.7818609E-02  0.8884480E-01
       -2   -1    0    0    0  501  0.00000000000E+00  0.00000000000E+00  0.93309606953E+03  0.93309606953E+03  0.25500000920E-02 0.  1.
        2   -1    0    0  501    0  0.00000000000E+00  0.00000000000E+00 -0.60279914911E+03  0.60279914912E+03  0.25500000920E-02 0. -1.
    10030    2    1    2    0    0  0.00000000000E+00  0.00000000000E+00  0.33029692042E+03  0.15358952186E+04  0.14999593551E+04 0.  0.
        3    1    3    3  502    0  0.16157731375E+03 -0.70008049470E+03 -0.55061009009E+02  0.72059118250E+03  0.10100000352E+00 0. -1.
       -3    1    3    3    0  502 -0.16157731375E+03  0.70008049470E+03  0.38535792943E+03  0.81530403615E+03  0.10100000352E+00 0.  1.
</event>
<event>
 5   0  0.1576214E-05  0.1500391E+04  0.7818609E-02  0.8884193E-01
        1   -1    0    0  501    0  0.00000000000E+00  0.00000000000E+00  0.69339682306E+03  0.69339682308E+03  0.50400001928E-02 0.  1.
       -1   -1    0    0    0  501  0.00000000000E+00  0.00000000000E+00 -0.81164714920E+03  0.81164714922E+03  0.50400001928E-02 0. -1.
    10030    2    1    2    0    0  0.00000000000E+00  0.00000000000E+00 -0.11825032615E+03  0.15050439723E+04  0.15003913553E+04 0.  0.
        1    1    3    3  502    0 -0.44038284190E+03 -0.60262710548E+03 -0.13483821569E+03  0.75847071145E+03  0.50400001928E-02 0.  1.
       -1    1    3    3    0  502  0.44038284190E+03  0.60262710548E+03  0.16587889546E+02  0.74657326084E+03  0.50400001928E-02 0. -1.
</event>
<event>
 5   0  0.1588657E-05  0.1499555E+04  0.7818609E-02  0.8884749E-01
        1   -1    0    0  501    0  0.00000000000E+00  0.00000000000E+00  0.18785430726E+04  0.18785430726E+04  0.50400001928E-02 0. -1.
       -1   -1    0    0    0  501  0.00000000000E+00  0.00000000000E+00 -0.29925654712E+03  0.29925654716E+03  0.50400001928E-02 0.  1.
    10030    2    1    2    0    0  0.00000000000E+00  0.00000000000E+00  0.15792865255E+04  0.21777996198E+04  0.14995550188E+04 0.  0.
        3    1    3    3  502    0  0.45316270261E+03  0.45136134903E+03  0.13578661374E+04  0.15009610120E+04  0.10100000352E+00 0. -1.
       -3    1    3    3    0  502 -0.45316270261E+03 -0.45136134903E+03  0.22142038810E+03  0.67683860773E+03  0.10100000352E+00 0.  1.
</event>
<event>
 5   0  0.1533777E-05  0.1499689E+04  0.7818609E-02  0.8884660E-01
        1   -1    0    0  501    0  0.00000000000E+00  0.00000000000E+00  0.65891585012E+03  0.65891585014E+03  0.50400001928E-02 0. -1.
       -1   -1    0    0    0  501  0.00000000000E+00  0.00000000000E+00 -0.85332084924E+03  0.85332084926E+03  0.50400001928E-02 0.  1.
    10030    2    1    2    0    0  0.00000000000E+00  0.00000000000E+00 -0.19440499913E+03  0.15122366994E+04  0.14996888115E+04 0.  0.
        5    1    3    3  502    0 -0.10704511496E+03 -0.38302891536E+03 -0.73818986778E+03  0.83852023084E+03  0.46999998093E+01 0.  1.
       -5    1    3    3    0  502  0.10704511496E+03  0.38302891536E+03  0.54378486865E+03  0.67371646856E+03  0.46999998093E+01 0. -1.
</event>
<event>
 5   0  0.1533777E-05  0.1500014E+04  0.7818609E-02  0.8884443E-01
        1   -1    0    0  501    0  0.00000000000E+00  0.00000000000E+00  0.11505896537E+04  0.11505896537E+04  0.50400001928E-02 0.  1.
       -1   -1    0    0    0  501  0.00000000000E+00  0.00000000000E+00 -0.48888910529E+03  0.48888910532E+03  0.50400001928E-02 0. -1.
    10030    2    1    2    0    0  0.00000000000E+00  0.00000000000E+00  0.66170054843E+03  0.16394787590E+04  0.15000143285E+04 0.  0.
        5    1    3    3  502    0  0.11246767195E+03  0.32193853303E+01  0.11412967392E+04  0.11468389942E+04  0.46999998093E+01 0.  1.
       -5    1    3    3    0  502 -0.11246767195E+03 -0.32193853303E+01 -0.47959619080E+03  0.49263976484E+03  0.46999998093E+01 0. -1.
</event>
<event>
 5   0  0.3018308E-05  0.1499692E+04  0.7818609E-02  0.8884657E-01
        2   -1    0    0  501    0  0.00000000000E+00  0.00000000000E+00  0.13461742894E+04  0.13461742894E+04  0.25500000920E-02 0. -1.
       -2   -1    0    0    0  501  0.00000000000E+00  0.00000000000E+00 -0.41767944868E+03  0.41767944868E+03  0.25500000920E-02 0.  1.
    10030    2    1    2    0    0  0.00000000000E+00  0.00000000000E+00  0.92849484068E+03  0.17638537380E+04  0.14996924151E+04 0.  0.
        2    1    3    3  502    0 -0.17488146392E+03  0.68139277925E+03  0.76956871886E+03  0.10426483871E+04  0.25500000920E-02 0.  1.
       -2    1    3    3    0  502  0.17488146392E+03 -0.68139277925E+03  0.15892612181E+03  0.72120535095E+03  0.25500000920E-02 0. -1.
</event>
<event>
 5   0  0.3018308E-05  0.1500498E+04  0.7818609E-02  0.8884122E-01
        2   -1    0    0  501    0  0.00000000000E+00  0.00000000000E+00  0.62087761074E+03  0.62087761074E+03  0.25500000920E-02 0. -1.
       -2   -1    0    0    0  501  0.00000000000E+00  0.00000000000E+00 -0.90657784087E+03  0.90657784087E+03  0.25500000920E-02 0.  1.
    10030    2    1    2    0    0  0.00000000000E+00  0.00000000000E+00 -0.28570023013E+03  0.15274554516E+04  0.15004984289E+04 0.  0.
        2    1    3    3  502    0  0.32483450328E+03 -0.67193024440E+03 -0.22081706580E+03  0.77831091757E+03  0.25500000920E-02 0. -1.
       -2    1    3    3    0  502 -0.32483450328E+03  0.67193024440E+03 -0.64883164335E+02  0.74914453404E+03  0.25500000920E-02 0.  1.
</event>
<event>
 5   0  0.1588657E-05  0.1500234E+04  0.7818609E-02  0.8884297E-01
        1   -1    0    0  501    0  0.00000000000E+00  0.00000000000E+00  0.99790421376E+03  0.99790421377E+03  0.50400001928E-02 0. -1.
       -1   -1    0    0    0  501  0.00000000000E+00  0.00000000000E+00 -0.56385706379E+03  0.56385706382E+03  0.50400001928E-02 0.  1.
    10030    2    1    2    0    0  0.00000000000E+00  0.00000000000E+00  0.43404714997E+03  0.15617612776E+04  0.15002337684E+04 0.  0.
        3    1    3    3  502    0  0.50272110587E+03 -0.27191279102E+03 -0.28870925814E+03  0.64032657460E+03  0.10100000352E+00 0.  1.
       -3    1    3    3    0  502 -0.50272110587E+03  0.27191279102E+03  0.72275640811E+03  0.92143470299E+03  0.10100000352E+00 0. -1.
</event>
<event>
 5   0  0.1576214E-05  0.1500325E+04  0.7818609E-02  0.8884237E-01
       -1   -1    0    0    0  501  0.00000000000E+00  0.00000000000E+00  0.37728235959E+03  0.37728235962E+03  0.50400001928E-02 0. -1.
        1   -1    0    0  501    0  0.00000000000E+00  0.00000000000E+00 -0.14915723568E+04  0.14915723568E+04  0.50400001928E-02 0.  1.
    10030    2    1    2    0    0  0.00000000000E+00  0.00000000000E+00 -0.11142899972E+04  0.18688547164E+04  0.15003252158E+04 0.  0.
        1    1    3    3  502    0 -0.31322858566E+03  0.40747406658E+03  0.12351874376E+03  0.52858692936E+03  0.50400001928E-02 0. -1.
       -1    1    3    3    0  502  0.31322858566E+03 -0.40747406658E+03 -0.12378087409E+04  0.13402677870E+04  0.50400001928E-02 0.  1.
</event>
<event>
 5   0  0.2969498E-05  0.1499204E+04  0.7818609E-02  0.8884982E-01
        2   -1    0    0  501    0  0.00000000000E+00  0.00000000000E+00  0.16019053962E+04  0.16019053962E+04  0.25500000920E-02 0. -1.
       -2   -1    0    0    0  501  0.00000000000E+00  0.00000000000E+00 -0.35077173942E+03  0.35077173943E+03  0.25500000920E-02 0.  1.
    10030    2    1    2    0    0  0.00000000000E+00  0.00000000000E+00  0.12511336567E+04  0.19526771356E+04  0.14992039784E+04 0.  0.
        3    1    3    3  502    0 -0.42726109713E+03 -0.45926264040E+03  0.91029499361E+02  0.63384587870E+03  0.10100000352E+00 0.  1.
       -3    1    3    3    0  502  0.42726109713E+03  0.45926264040E+03  0.11601041574E+04  0.13188312569E+04  0.10100000352E+00 0. -1.
</event>
<event>
 5   0  0.3030702E-05  0.1499896E+04  0.7818609E-02  0.8884522E-01
       -2   -1    0    0    0  501  0.00000000000E+00  0.00000000000E+00  0.30237001880E+03  0.30237001881E+03  0.25500000920E-02 0.  1.
        2   -1    0    0  501    0  0.00000000000E+00  0.00000000000E+00 -0.18600444236E+04  0.18600444236E+04  0.25500000920E-02 0. -1.
    10030    2    1    2    0    0  0.00000000000E+00  0.00000000000E+00 -0.15576744048E+04  0.21624144424E+04  0.14998955528E+04 0.  0.
        5    1    3    3  502    0  0.17570868522E+03  0.72893254869E+03 -0.79836025261E+03  0.10952704623E+04  0.46999998093E+01 0.  1.
       -5    1    3    3    0  502 -0.17570868522E+03 -0.72893254869E+03 -0.75931415215E+03  0.10671439801E+04  0.46999998093E+01 0. -1.
</event>
<event>
 5   0  0.1580078E-05  0.1500095E+04  0.7818609E-02  0.8884390E-01
       -1   -1    0    0    0  501  0.00000000000E+00  0.00000000000E+00  0.10085337756E+04  0.10085337757E+04  0.50400001928E-02 0.  1.
        1   -1    0    0  501    0  0.00000000000E+00  0.00000000000E+00 -0.55781110625E+03  0.55781110627E+03  0.50400001928E-02 0. -1.
    10030    2    1    2    0    0  0.00000000000E+00  0.00000000000E+00  0.45072266940E+03  0.15663448819E+04  0.15000951185E+04 0.  0.
        2    1    3    3  502    0  0.66614337767E+02  0.23820936485E+03 -0.51399960297E+03  0.57041806016E+03  0.25500000920E-02 0. -1.
       -2    1    3    3    0  502 -0.66614337767E+02 -0.23820936485E+03  0.96472227237E+03  0.99592682176E+03  0.25500000920E-02 0.  1.
</event>
<event>
 5   0  0.1580078E-05  0.1501367E+04  0.7818609E-02  0.8883544E-01
       -1   -1    0    0    0  501  0.00000000000E+00  0.00000000000E+00  0.13785440862E+04  0.13785440862E+04  0.50400001928E-02 0. -1.
        1   -1    0    0  501    0  0.00000000000E+00  0.00000000000E+00 -0.40878343459E+03  0.40878343462E+03  0.50400001928E-02 0.  1.
    10030    2    1    2    0    0  0.00000000000E+00  0.00000000000E+00  0.96976065158E+03  0.17873275208E+04  0.15013673585E+04 0.  0.
        2    1    3    3  502    0  0.21401685080E+02 -0.68396844703E+03  0.11746156176E+03  0.69431123219E+03  0.25500000920E-02 0. -1.
       -2    1    3    3    0  502 -0.21401685080E+02  0.68396844703E+03  0.85229908982E+03  0.10930162886E+04  0.25500000920E-02 0.  1.
</event>
<event>
 5   0  0.1588657E-05  0.1500319E+04  0.7818609E-02  0.8884241E-01
       -1   -1    0    0    0  501  0.00000000000E+00  0.00000000000E+00  0.82888261954E+03  0.82888261956E+03  0.50400001928E-02 0.  1.
        1   -1    0    0  501    0  0.00000000000E+00  0.00000000000E+00 -0.67891328853E+03  0.67891328855E+03  0.50400001928E-02 0. -1.
    10030    2    1    2    0    0  0.00000000000E+00  0.00000000000E+00  0.14996933101E+03  0.15077959081E+04  0.15003191995E+04 0.  0.
        3    1    3    3  502    0 -0.99171663591E+02 -0.46662969964E+03  0.65680073164E+03  0.81176690418E+03  0.10100000352E+00 0.  1.
       -3    1    3    3    0  502  0.99171663591E+02  0.46662969964E+03 -0.50683140063E+03  0.69602900393E+03  0.10100000352E+00 0. -1.
</event>
<event>
 5   0  0.2969498E-05  0.1500181E+04  0.7818609E-02  0.8884333E-01
        2   -1    0    0  501    0  0.00000000000E+00  0.00000000000E+00  0.18666735891E+04  0.18666735891E+04  0.25500000920E-02 0.  1.
       -2   -1    0    0    0  501  0.00000000000E+00  0.00000000000E+00 -0.30141073883E+03  0.30141073884E+03  0.25500000920E-02 0. -1.
    10030    2    1    2    0    0  0.00000000000E+00  0.00000000000E+00  0.15652628503E+04  0.21680843280E+04  0.15001806100E+04 0.  0.
        3    1    3    3  502    0 -0.65743682968E+02 -0.74304139032E+03  0.66881011860E+03  0.10018681173E+04  0.10100000352E+00 0. -1.
       -3    1    3    3    0  502  0.65743682968E+02  0.74304139032E+03  0.89645273169E+03  0.11662162106E+04  0.10100000352E+00 0.  1.
</event>
<event>
 5   0  0.1533777E-05  0.1500400E+04  0.7818609E-02  0.8884187E-01
       -1   -1    0    0    0  501  0.00000000000E+00  0.00000000000E+00  0.29886404518E+03  0.29886404522E+03  0.50400001928E-02 0.  1.
        1   -1    0    0  501    0  0.00000000000E+00  0.00000000000E+00 -0.18831309655E+04  0.18831309655E+04  0.50400001928E-02 0. -1.
    10030    2    1    2    0    0  0.00000000000E+00  0.00000000000E+00 -0.15842669203E+04  0.21819950107E+04  0.15004001306E+04 0.  0.
        5    1    3    3  502    0  0.50957065257E+03  0.54426089549E+03 -0.67136838052E+03  0.10033143897E+04  0.46999998093E+01 0.  1.
       -5    1    3    3    0  502 -0.50957065257E+03 -0.54426089549E+03 -0.91289853981E+03  0.11786806210E+04  0.46999998093E+01 0. -1.
</event>
<event>
 5   0  0.1580078E-05  0.1500095E+04  0.7818609E-02  0.8884390E-01
        1   -1    0    0  501    0  0.00000000000E+00  0.00000000000E+00  0.18308414705E+04  0.18308414705E+04  0.50400001928E-02 0.  1.
       -1   -1    0    0    0  501  0.00000000000E+00  0.00000000000E+00 -0.30727477422E+03  0.30727477426E+03  0.50400001928E-02 0. -1.
    10030    2    1    2    0    0  0.00000000000E+00  0.00000000000E+00  0.15235666963E+04  0.21381162447E+04  0.15000951963E+04 0.  0.
        2    1    3    3  502    0  0.57512347494E+03  0.36921573804E+03  0.12022145550E+04  0.13828980833E+04  0.25500000920E-02 0.  1.
       -2    1    3    3    0  502 -0.57512347494E+03 -0.36921573804E+03  0.32135214131E+03  0.75521816144E+03  0.25500000920E-02 0. -1.
</event>
<event>
 5   0  0.2969498E-05  0.1499566E+04  0.7818609E-02  0.8884741E-01
       -2   -1    0    0    0  501  0.00000000000E+00  0.00000000000E+00  0.21095968110E+03  0.21095968112E+03  0.25500000920E-02 0.  1.
        2   -1    0    0  501    0  0.00000000000E+00  0.00000000000E+00 -0.26648451704E+04  0.26648451704E+04  0.25500000920E-02 0. -1.
    10030    2    1    2    0    0  0.00000000000E+00  0.00000000000E+00 -0.24538854893E+04  0.28758048515E+04  0.14995664538E+04 0.  0.
        3    1    3    3  502    0 -0.80844153464E+02  0.15759473415E+03 -0.26241485449E+04  0.26301192888E+04  0.10100000352E+00 0. -1.
       -3    1    3    3    0  502  0.80844153464E+02 -0.15759473415E+03  0.17026305566E+03  0.24568556267E+03  0.10100000352E+00 0.  1.
</event>
<event>
 5   0  0.3030702E-05  0.1501582E+04  0.7818609E-02  0.8883402E-01
       -2   -1    0    0    0  501  0.00000000000E+00  0.00000000000E+00  0.50062269940E+03  0.50062269940E+03  0.25500000920E-02 0.  1.
        2   -1    0    0  501    0  0.00000000000E+00  0.00000000000E+00 -0.11259714137E+04  0.11259714137E+04  0.25500000920E-02 0. -1.
    10030    2    1    2    0    0  0.00000000000E+00  0.00000000000E+00 -0.62534871433E+03  0.16265941131E+04  0.15015816309E+04 0.  0.
        5    1    3    3  502    0 -0.23763489310E+03 -0.67661066256E+03 -0.55342110817E+03  0.90585282694E+03  0.46999998093E+01 0. -1.
       -5    1    3    3    0  502  0.23763489310E+03  0.67661066256E+03 -0.71927606159E+02  0.72074128620E+03  0.46999998093E+01 0.  1.
</event>
<event>
 5   0  0.3030702E-05  0.1501194E+04  0.7818609E-02  0.8883659E-01
        2   -1    0    0  501    0  0.00000000000E+00  0.00000000000E+00  0.77258702285E+03  0.77258702285E+03  0.25500000920E-02 0. -1.
       -2   -1    0    0    0  501  0.00000000000E+00  0.00000000000E+00 -0.72923269686E+03  0.72923269687E+03  0.25500000920E-02 0.  1.
    10030    2    1    2    0    0  0.00000000000E+00  0.00000000000E+00  0.43354325983E+02  0.15018197197E+04  0.15011938159E+04 0.  0.
        5    1    3    3  502    0 -0.13004269635E+03 -0.53253802165E+02  0.75929492910E+03  0.77220330851E+03  0.46999998093E+01 0. -1.
       -5    1    3    3    0  502  0.13004269635E+03  0.53253802165E+02 -0.71594060311E+03  0.72961641121E+03  0.46999998093E+01 0.  1.
</event>
<event>
 5   0  0.3030702E-05  0.1501419E+04  0.7818609E-02  0.8883510E-01
        2   -1    0    0  501    0  0.00000000000E+00  0.00000000000E+00  0.11275402390E+04  0.11275402390E+04  0.25500000920E-02 0.  1.
       -2   -1    0    0    0  501  0.00000000000E+00  0.00000000000E+00 -0.49981759616E+03  0.49981759616E+03  0.25500000920E-02 0. -1.
    10030    2    1    2    0    0  0.00000000000E+00  0.00000000000E+00  0.62772264282E+03  0.16273578351E+04  0.15014185983E+04 0.  0.
        5    1    3    3  502    0 -0.46519002597E+02 -0.64425290587E+03  0.72846005924E+03  0.97360257407E+03  0.46999998093E+01 0.  1.
       -5    1    3    3    0  502  0.46519002597E+02  0.64425290587E+03 -0.10073741642E+03  0.65375526108E+03  0.46999998093E+01 0. -1.
</event>
<event>
 5   0  0.3018308E-05  0.1499559E+04  0.7818609E-02  0.8884746E-01
       -2   -1    0    0    0  501  0.00000000000E+00  0.00000000000E+00  0.60472828746E+03  0.60472828747E+03  0.25500000920E-02 0. -1.
        2   -1    0    0  501    0  0.00000000000E+00  0.00000000000E+00 -0.92962273220E+03  0.92962273220E+03  0.25500000920E-02 0.  1.
    10030    2    1    2    0    0  0.00000000000E+00  0.00000000000E+00 -0.32489444474E+03  0.15343510197E+04  0.14995588189E+04 0.  0.
        2    1    3    3  502    0  0.50750044116E+03 -0.17430781662E+03  0.37337177707E+03  0.65371736755E+03  0.25500000920E-02 0. -1.
       -2    1    3    3    0  502 -0.50750044116E+03  0.17430781662E+03 -0.69826622181E+03  0.88063365212E+03  0.25500000920E-02 0.  1.
</event>
<event>
 5   0  0.3070497E-05  0.1498747E+04  0.7818609E-02  0.8885287E-01
        2   -1    0    0  501    0  0.00000000000E+00  0.00000000000E+00  0.16879400261E+04  0.16879400261E+04  0.25500000920E-02 0. -1.
       -2   -1    0    0    0  501  0.00000000000E+00  0.00000000000E+00 -0.33268981334E+03  0.33268981334E+03  0.25500000920E-02 0.  1.
    10030    2    1    2    0    0  0.00000000000E+00  0.00000000000E+00  0.13552502127E+04  0.20206298394E+04  0.14987467461E+04 0.  0.
        4    1    3    3  502    0 -0.21253777353E+03  0.71855047817E+03  0.68904475276E+03  0.10179741544E+04  0.12699999809E+01 0.  1.
       -4    1    3    3    0  502  0.21253777353E+03 -0.71855047817E+03  0.66620545997E+03  0.10026556850E+04  0.12699999809E+01 0. -1.
</event>
<event>
 5   0  0.3030702E-05  0.1499896E+04  0.7818609E-02  0.8884522E-01
        2   -1    0    0  501    0  0.00000000000E+00  0.00000000000E+00  0.59160044713E+03  0.59160044714E+03  0.25500000920E-02 0.  1.
       -2   -1    0    0    0  501  0.00000000000E+00  0.00000000000E+00 -0.95067942141E+03  0.95067942141E+03  0.25500000920E-02 0. -1.
    10030    2    1    2    0    0  0.00000000000E+00  0.00000000000E+00 -0.35907897427E+03  0.15422798685E+04  0.14998964908E+04 0.  0.
        5    1    3    3  502    0 -0.10018060435E+02 -0.52307536353E+03 -0.73202301986E+03  0.89977107592E+03  0.46999998093E+01 0. -1.
       -5    1    3    3    0  502  0.10018060435E+02  0.52307536353E+03  0.37294404558E+03  0.64250879263E+03  0.46999998093E+01 0.  1.
</event>
<event>
 5   0  0.3030702E-05  0.1497874E+04  0.7818609E-02  0.8885868E-01
        2   -1    0    0  501    0  0.00000000000E+00  0.00000000000E+00  0.23843402028E+04  0.23843402028E+04  0.25500000920E-02 0. -1.
       -2   -1    0    0    0  501  0.00000000000E+00  0.00000000000E+00 -0.23524596905E+03  0.23524596906E+03  0.25500000920E-02 0.  1.
    10030    2    1    2    0    0  0.00000000000E+00  0.00000000000E+00  0.21490942337E+04  0.26195861718E+04  0.14978737217E+04 0.  0.
        5    1    3    3  502    0 -0.34686098344E+03  0.48413263762E+03  0.28042274203E+03  0.65829777220E+03  0.46999998093E+01 0.  1.
       -5    1    3    3    0  502  0.34686098344E+03 -0.48413263762E+03  0.18686714917E+04  0.19612883996E+04  0.46999998093E+01 0. -1.
</event>
<event>
 5   0  0.3093600E-05  0.1500509E+04  0.7818609E-02  0.8884114E-01
       -2   -1    0    0    0  501  0.00000000000E+00  0.00000000000E+00  0.45966958481E+03  0.45966958481E+03  0.25500000920E-02 0. -1.
        2   -1    0    0  501    0  0.00000000000E+00  0.00000000000E+00 -0.12245361915E+04  0.12245361915E+04  0.25500000920E-02 0.  1.
    10030    2    1    2    0    0  0.00000000000E+00  0.00000000000E+00 -0.76486660673E+03  0.16842057764E+04  0.15005093039E+04 0.  0.
        1    1    3    3  502    0 -0.67744240809E+03  0.15599810810E+03 -0.65722244374E+02  0.69827146543E+03  0.50400001928E-02 0. -1.
       -1    1    3    3    0  502  0.67744240809E+03 -0.15599810810E+03 -0.69914436235E+03  0.98593431092E+03  0.50400001928E-02 0.  1.
</event>
<event>
 5   0  0.1116613E-05  0.1499373E+04  0.7818609E-02  0.8884870E-01
        3   -1    0    0  501    0  0.00000000000E+00  0.00000000000E+00  0.10416262420E+04  0.10416262469E+04  0.10100000352E+00 0. -1.
       -3   -1    0    0    0  501  0.00000000000E+00  0.00000000000E+00 -0.53956973324E+03  0.53956974270E+03  0.10100000352E+00 0.  1.
    10030    2    1    2    0    0  0.00000000000E+00  0.00000000000E+00  0.50205650877E+03  0.15811959896E+04  0.14993732089E+04 0.  0.
        4    1    3    3  502    0 -0.38470186386E+03 -0.50499450477E+03 -0.16949773782E+03  0.65707386947E+03  0.12699999809E+01 0.  1.
       -4    1    3    3    0  502  0.38470186386E+03  0.50499450477E+03  0.67155424660E+03  0.92412212014E+03  0.12699999809E+01 0. -1.
</event>
<event>
 5   0  0.3093600E-05  0.1499061E+04  0.7818609E-02  0.8885077E-01
       -2   -1    0    0    0  501  0.00000000000E+00  0.00000000000E+00  0.27052776390E+03  0.27052776391E+03  0.25500000920E-02 0. -1.
        2   -1    0    0  501    0  0.00000000000E+00  0.00000000000E+00 -0.20766673168E+04  0.20766673168E+04  0.25500000920E-02 0.  1.
    10030    2    1    2    0    0  0.00000000000E+00  0.00000000000E+00 -0.18061395529E+04  0.23471950807E+04  0.14990612604E+04 0.  0.
        1    1    3    3  502    0  0.11784419870E+02 -0.17013024130E+03  0.23974658756E+03  0.29421352421E+03  0.50400001928E-02 0. -1.
       -1    1    3    3    0  502 -0.11784419870E+02  0.17013024130E+03 -0.20458861405E+04  0.20529815565E+04  0.50400001928E-02 0.  1.
</event>
<event>
 5   0  0.1580078E-05  0.1500236E+04  0.7818609E-02  0.8884296E-01
       -1   -1    0    0    0  501  0.00000000000E+00  0.00000000000E+00  0.45014416347E+03  0.45014416349E+03  0.50400001928E-02 0.  1.
        1   -1    0    0  501    0  0.00000000000E+00  0.00000000000E+00 -0.12499926393E+04  0.12499926393E+04  0.50400001928E-02 0. -1.
    10030    2    1    2    0    0  0.00000000000E+00  0.00000000000E+00 -0.79984847579E+03  0.17001368028E+04  0.15002358361E+04 0.  0.
        2    1    3    3  502    0  0.78436035811E+02 -0.57809982561E+03  0.13441706914E+03  0.59868152516E+03  0.25500000920E-02 0.  1.
       -2    1    3    3    0  502 -0.78436035811E+02  0.57809982561E+03 -0.93426554494E+03  0.11014552776E+04  0.25500000920E-02 0. -1.
</event>
<event>
 5   0  0.2969498E-05  0.1504938E+04  0.7818609E-02  0.8881176E-01
        2   -1    0    0  501    0  0.00000000000E+00  0.00000000000E+00  0.71501433440E+03  0.71501433441E+03  0.25500000920E-02 0.  1.
       -2   -1    0    0    0  501  0.00000000000E+00  0.00000000000E+00 -0.79188530852E+03  0.79188530852E+03  0.25500000920E-02 0. -1.
    10030    2    1    2    0    0  0.00000000000E+00  0.00000000000E+00 -0.76870974116E+02  0.15068996429E+04  0.15049376689E+04 0.  0.
        3    1    3    3  502    0  0.21046943291E+03  0.14620719072E+03 -0.74684310261E+03  0.78958758534E+03  0.10100000352E+00 0. -1.
       -3    1    3    3    0  502 -0.21046943291E+03 -0.14620719072E+03  0.66997212849E+03  0.71731205759E+03  0.10100000352E+00 0.  1.
</event>
<event>
 5   0  0.1643498E-05  0.1495548E+04  0.7818609E-02  0.8887419E-01
       -1   -1    0    0    0  501  0.00000000000E+00  0.00000000000E+00  0.47967207933E+03  0.47967207936E+03  0.50400001928E-02 0.  1.
        1   -1    0    0  501    0  0.00000000000E+00  0.00000000000E+00 -0.11657253225E+04  0.11657253225E+04  0.50400001928E-02 0. -1.
    10030    2    1    2    0    0  0.00000000000E+00  0.00000000000E+00 -0.68605324313E+03  0.16453974018E+04  0.14955479122E+04 0.  0.
        4    1    3    3  502    0  0.46976190614E+03 -0.55281776817E+03 -0.14352796830E+03  0.73951715589E+03  0.12699999809E+01 0.  1.
       -4    1    3    3    0  502 -0.46976190614E+03  0.55281776817E+03 -0.54252527483E+03  0.90588024594E+03  0.12699999809E+01 0. -1.
</event>
<event>
 5   0  0.1576214E-05  0.1500058E+04  0.7818609E-02  0.8884414E-01
       -1   -1    0    0    0  501  0.00000000000E+00  0.00000000000E+00  0.82816353136E+03  0.82816353138E+03  0.50400001928E-02 0.  1.
        1   -1    0    0  501    0  0.00000000000E+00  0.00000000000E+00 -0.67926611430E+03  0.67926611432E+03  0.50400001928E-02 0. -1.
    10030    2    1    2    0    0  0.00000000000E+00  0.00000000000E+00  0.14889741706E+03  0.15074296457E+04  0.15000578975E+04 0.  0.
        1    1    3    3  502    0 -0.31040317984E+03  0.46760194479E+03  0.57442939049E+03  0.80310076423E+03  0.50400001928E-02 0.  1.
       -1    1    3    3    0  502  0.31040317984E+03 -0.46760194479E+03 -0.42553197343E+03  0.70432888146E+03  0.50400001928E-02 0. -1.
</event>
<event>
 5   0  0.1533777E-05  0.1500138E+04  0.7818609E-02  0.8884361E-01
       -1   -1    0    0    0  501  0.00000000000E+00  0.00000000000E+00  0.79371410164E+03  0.79371410166E+03  0.50400001928E-02 0.  1.
        1   -1    0    0  501    0  0.00000000000E+00  0.00000000000E+00 -0.70882354495E+03  0.70882354496E+03  0.50400001928E-02 0. -1.
    10030    2    1    2    0    0  0.00000000000E+00  0.00000000000E+00  0.84890556697E+02  0.15025376466E+04  0.15001376513E+04 0.  0.
        5    1    3    3  502    0 -0.72390991910E+03 -0.58338193934E+01 -0.15408675659E+03  0.74016513224E+03  0.46999998093E+01 0. -1.
       -5    1    3    3    0  502  0.72390991910E+03  0.58338193934E+01  0.23897731329E+03  0.76237251439E+03  0.46999998093E+01 0.  1.
</event>
<event>
 5   0  0.3070497E-05  0.1499823E+04  0.7818609E-02  0.8884571E-01
       -2   -1    0    0    0  501  0.00000000000E+00  0.00000000000E+00  0.63128841967E+03  0.63128841967E+03  0.25500000920E-02 0. -1.
        2   -1    0    0  501    0  0.00000000000E+00  0.00000000000E+00 -0.89082440766E+03  0.89082440767E+03  0.25500000920E-02 0.  1.
    10030    2    1    2    0    0  0.00000000000E+00  0.00000000000E+00 -0.25953598799E+03  0.15221128273E+04  0.14998228329E+04 0.  0.
        4    1    3    3  502    0 -0.28163970328E+02  0.69014387994E+03 -0.42612454290E+03  0.81158827198E+03  0.12699999809E+01 0.  1.
       -4    1    3    3    0  502  0.28163970328E+02 -0.69014387994E+03  0.16658855491E+03  0.71052455536E+03  0.12699999809E+01 0. -1.
</event>
<event>
 5   0  0.1580078E-05  0.1500301E+04  0.7818609E-02  0.8884253E-01
       -1   -1    0    0    0  501  0.00000000000E+00  0.00000000000E+00  0.31322089091E+03  0.31322089095E+03  0.50400001928E-02 0.  1.
        1   -1    0    0  501    0  0.00000000000E+00  0.00000000000E+00 -0.17965771049E+04  0.17965771050E+04  0.50400001928E-02 0. -1.
    10030    2    1    2    0    0  0.00000000000E+00  0.00000000000E+00 -0.14833562140E+04  0.21097979959E+04  0.15003006118E+04 0.  0.
        2    1    3    3  502    0 -0.68800187756E+01 -0.11057951797E+03 -0.17850080034E+04  0.17884431041E+04  0.25500000920E-02 0. -1.
       -2    1    3    3    0  502  0.68800187756E+01  0.11057951797E+03  0.30165178936E+03  0.32135489180E+03  0.25500000920E-02 0.  1.
</event>
<event>
 5   0  0.3018308E-05  0.1500956E+04  0.7818609E-02  0.8883817E-01
        2   -1    0    0  501    0  0.00000000000E+00  0.00000000000E+00  0.66350769156E+03  0.66350769157E+03  0.25500000920E-02 0.  1.
       -2   -1    0    0    0  501  0.00000000000E+00  0.00000000000E+00 -0.84884856368E+03  0.84884856368E+03  0.25500000920E-02 0. -1.
    10030    2    1    2    0    0  0.00000000000E+00  0.00000000000E+00 -0.18534087211E+03  0.15123562552E+04  0.15009564297E+04 0.  0.
        2    1    3    3  502    0  0.23145136057E+02  0.74485031911E+03 -0.32276835378E+01  0.74521682291E+03  0.25500000920E-02 0.  1.
       -2    1    3    3    0  502 -0.23145136057E+02 -0.74485031911E+03 -0.18211318857E+03  0.76713943234E+03  0.25500000920E-02 0. -1.
</event>
<event>
 5   0  0.3093600E-05  0.1499700E+04  0.7818609E-02  0.8884653E-01
        2   -1    0    0  501    0  0.00000000000E+00  0.00000000000E+00  0.16741015257E+04  0.16741015257E+04  0.25500000920E-02 0.  1.
       -2   -1    0    0    0  501  0.00000000000E+00  0.00000000000E+00 -0.33586666308E+03  0.33586666309E+03  0.25500000920E-02 0. -1.
    10030    2    1    2    0    0  0.00000000000E+00  0.00000000000E+00  0.13382348627E+04  0.20099681888E+04  0.14996998274E+04 0.  0.
        1    1    3    3  502    0 -0.27783820370E+03  0.12266682163E+03 -0.24974253452E+03  0.39320802400E+03  0.50400001928E-02 0. -1.
       -1    1    3    3    0  502  0.27783820370E+03 -0.12266682163E+03  0.15879773972E+04  0.16167601648E+04  0.50400001928E-02 0.  1.
</event>
<event>
 5   0  0.3030702E-05  0.1500266E+04  0.7818609E-02  0.8884276E-01
        2   -1    0    0  501    0  0.00000000000E+00  0.00000000000E+00  0.18120059618E+04  0.18120059618E+04  0.25500000920E-02 0. -1.
       -2   -1    0    0    0  501  0.00000000000E+00  0.00000000000E+00 -0.31053943428E+03  0.31053943429E+03  0.25500000920E-02 0.  1.
    10030    2    1    2    0    0  0.00000000000E+00  0.00000000000E+00  0.15014665276E+04  0.21225453961E+04  0.15002657182E+04 0.  0.
        5    1    3    3  502    0 -0.15644344430E+03 -0.47260351777E+03 -0.43118970577E+02  0.49970988773E+03  0.46999998093E+01 0.  1.
       -5    1    3    3    0  502  0.15644344430E+03  0.47260351777E+03  0.15445854981E+04  0.16228355084E+04  0.46999998093E+01 0. -1.
</event>
<event>
 5   0  0.1580078E-05  0.1501635E+04  0.7818609E-02  0.8883366E-01
        1   -1    0    0  501    0  0.00000000000E+00  0.00000000000E+00  0.11598136808E+04  0.11598136808E+04  0.50400001928E-02 0.  1.
       -1   -1    0    0    0  501  0.00000000000E+00  0.00000000000E+00 -0.48604949542E+03  0.48604949545E+03  0.50400001928E-02 0. -1.
    10030    2    1    2    0    0  0.00000000000E+00  0.00000000000E+00  0.67376418536E+03  0.16458631762E+04  0.15016349148E+04 0.  0.
        2    1    3    3  502    0  0.51648812343E+02 -0.27066271929E+03 -0.42862759395E+03  0.50955620076E+03  0.25500000920E-02 0. -1.
       -2    1    3    3    0  502 -0.51648812343E+02  0.27066271929E+03  0.11023917793E+04  0.11363069755E+04  0.25500000920E-02 0.  1.
</event>
<event>
 5   0  0.1643498E-05  0.1499022E+04  0.7818609E-02  0.8885104E-01
        1   -1    0    0  501    0  0.00000000000E+00  0.00000000000E+00  0.38750615696E+03  0.38750615699E+03  0.50400001928E-02 0. -1.
       -1   -1    0    0    0  501  0.00000000000E+00  0.00000000000E+00 -0.14496974407E+04  0.14496974407E+04  0.50400001928E-02 0.  1.
    10030    2    1    2    0    0  0.00000000000E+00  0.00000000000E+00 -0.10621912838E+04  0.18372035977E+04  0.14990219265E+04 0.  0.
        4    1    3    3  502    0  0.21149740077E+02  0.60029122706E+03  0.18335125532E+02  0.60094480489E+03  0.12699999809E+01 0. -1.
       -4    1    3    3    0  502 -0.21149740077E+02 -0.60029122706E+03 -0.10805264093E+04  0.12362587928E+04  0.12699999809E+01 0.  1.
</event>
<event>
 5   0  0.3070497E-05  0.1500232E+04  0.7818609E-02  0.8884299E-01
        2   -1    0    0  501    0  0.00000000000E+00  0.00000000000E+00  0.12799921186E+04  0.12799921186E+04  0.25500000920E-02 0.  1.
       -2   -1    0    0    0  501  0.00000000000E+00  0.00000000000E+00 -0.43959166752E+03  0.43959166753E+03  0.25500000920E-02 0. -1.
    10030    2    1    2    0    0  0.00000000000E+00  0.00000000000E+00  0.84040045105E+03  0.17195837861E+04  0.15002318085E+04 0.  0.
        4    1    3    3  502    0  0.12028022121E+02  0.55410285463E+03 -0.15917296254E+03  0.57663878791E+03  0.12699999809E+01 0. -1.
       -4    1    3    3    0  502 -0.12028022121E+02 -0.55410285463E+03  0.99957341359E+03  0.11429449982E+04  0.12699999809E+01 0.  1.
</event>
<event>
 5   0  0.2969498E-05  0.1500157E+04  0.7818609E-02  0.8884348E-01
       -2   -1    0    0    0  501  0.00000000000E+00  0.00000000000E+00  0.43688275475E+03  0.43688275476E+03  0.25500000920E-02 0. -1.
        2   -1    0    0  501    0  0.00000000000E+00  0.00000000000E+00 -0.12878010572E+04  0.12878010572E+04  0.25500000920E-02 0.  1.
    10030    2    1    2    0    0  0.00000000000E+00  0.00000000000E+00 -0.85091830247E+03  0.17246838120E+04  0.15001574230E+04 0.  0.
        3    1    3    3  502    0  0.42752927135E+03  0.15889270015E+03  0.25913916937E+03  0.52457724629E+03  0.10100000352E+00 0. -1.
       -3    1    3    3    0  502 -0.42752927135E+03 -0.15889270015E+03 -0.11100574718E+04  0.12001065657E+04  0.10100000352E+00 0.  1.
</event>
<event>
 5   0  0.1576214E-05  0.1499476E+04  0.7818609E-02  0.8884801E-01
       -1   -1    0    0    0  501  0.00000000000E+00  0.00000000000E+00  0.29418467597E+03  0.29418467601E+03  0.50400001928E-02 0. -1.
        1   -1    0    0  501    0  0.00000000000E+00  0.00000000000E+00 -0.19107297518E+04  0.19107297518E+04  0.50400001928E-02 0.  1.
    10030    2    1    2    0    0  0.00000000000E+00  0.00000000000E+00 -0.16165450758E+04  0.22049144278E+04  0.14994764592E+04 0.  0.
        1    1    3    3  502    0  0.10886797354E+03  0.72526238856E+01 -0.18989928407E+04  0.19021247713E+04  0.50400001928E-02 0.  1.
       -1    1    3    3    0  502 -0.10886797354E+03 -0.72526238856E+01  0.28244776489E+03  0.30278965658E+03  0.50400001928E-02 0. -1.
</event>
<event>
 5   0  0.1588657E-05  0.1498441E+04  0.7818609E-02  0.8885491E-01
        1   -1    0    0  501    0  0.00000000000E+00  0.00000000000E+00  0.52932170266E+03  0.52932170268E+03  0.50400001928E-02 0. -1.
       -1   -1    0    0    0  501  0.00000000000E+00  0.00000000000E+00 -0.10604724303E+04  0.10604724303E+04  0.50400001928E-02 0.  1.
    10030    2    1    2    0    0  0.00000000000E+00  0.00000000000E+00 -0.53115072761E+03  0.15897941330E+04  0.14984406194E+04 0.  0.
        3    1    3    3  502    0 -0.55748580274E+03 -0.56973212283E+02 -0.79318018162E+03  0.97117000463E+03  0.10100000352E+00 0.  1.
       -3    1    3    3    0  502  0.55748580274E+03  0.56973212283E+02  0.26202945401E+03  0.61862412833E+03  0.10100000352E+00 0. -1.
</event>
<event>
 5   0  0.1580078E-05  0.1499562E+04  0.7818609E-02  0.8884744E-01
        1   -1    0    0  501    0  0.00000000000E+00  0.00000000000E+00  0.76743201620E+03  0.76743201622E+03  0.50400001928E-02 0. -1.
       -1   -1    0    0    0  501  0.00000000000E+00  0.00000000000E+00 -0.73253620380E+03  0.73253620382E+03  0.50400001928E-02 0.  1.
    10030    2    1    2    0    0  0.00000000000E+00  0.00000000000E+00  0.34895812397E+02  0.14999682200E+04  0.14995622506E+04 0.  0.
        2    1    3    3  502    0 -0.41124020985E+03 -0.18506597413E+03  0.61661241758E+03  0.76392329360E+03  0.25500000920E-02 0. -1.
       -2    1    3    3    0  502  0.41124020985E+03  0.18506597413E+03 -0.58171660518E+03  0.73604492644E+03  0.25500000920E-02 0.  1.
</event>
<event>
 5   0  0.1580078E-05  0.1499937E+04  0.7818609E-02  0.8884495E-01
        1   -1    0    0  501    0  0.00000000000E+00  0.00000000000E+00  0.61450979922E+03  0.61450979924E+03  0.50400001928E-02 0.  1.
       -1   -1    0    0    0  501  0.00000000000E+00  0.00000000000E+00 -0.91528627426E+03  0.91528627427E+03  0.50400001928E-02 0. -1.
    10030    2    1    2    0    0  0.00000000000E+00  0.00000000000E+00 -0.30077647504E+03  0.15297960735E+04  0.14999365115E+04 0.  0.
        2    1    3    3  502    0 -0.14209218494E+03 -0.16826399589E+02 -0.90123605355E+03  0.91252383035E+03  0.25500000920E-02 0. -1.
       -2    1    3    3    0  502  0.14209218494E+03  0.16826399589E+02  0.60045957851E+03  0.61727224316E+03  0.25500000920E-02 0.  1.
</event>
<event>
 5   0  0.3030702E-05  0.1494922E+04  0.7818609E-02  0.8887837E-01
        2   -1    0    0  501    0  0.00000000000E+00  0.00000000000E+00  0.10711676762E+04  0.10711676762E+04  0.25500000920E-02 0.  1.
       -2   -1    0    0    0  501  0.00000000000E+00  0.00000000000E+00 -0.52157823110E+03  0.52157823111E+03  0.25500000920E-02 0. -1.
    10030    2    1    2    0    0  0.00000000000E+00  0.00000000000E+00  0.54958944509E+03  0.15927459073E+04  0.14949217261E+04 0.  0.
        5    1    3    3  502    0 -0.51735183024E+03  0.35469851574E+03  0.70785509207E+03  0.94580382463E+03  0.46999998093E+01 0.  1.
       -5    1    3    3    0  502  0.51735183024E+03 -0.35469851574E+03 -0.15826564698E+03  0.64694208267E+03  0.46999998093E+01 0. -1.
</event>
<event>
 5   0  0.1533777E-05  0.1500141E+04  0.7818609E-02  0.8884359E-01
       -1   -1    0    0    0  501  0.00000000000E+00  0.00000000000E+00  0.40863684169E+03  0.40863684172E+03  0.50400001928E-02 0.  1.
        1   -1    0    0  501    0  0.00000000000E+00  0.00000000000E+00 -0.13767874418E+04  0.13767874418E+04  0.50400001928E-02 0. -1.
    10030    2    1    2    0    0  0.00000000000E+00  0.00000000000E+00 -0.96815060008E+03  0.17854242835E+04  0.15001414226E+04 0.  0.
        5    1    3    3  502    0  0.14143285447E+03 -0.72272842273E+03 -0.31473464976E+03  0.80088676797E+03  0.46999998093E+01 0.  1.
       -5    1    3    3    0  502 -0.14143285447E+03  0.72272842273E+03 -0.65341595031E+03  0.98453751552E+03  0.46999998093E+01 0. -1.
</event>
<event>
 5   0  0.1588657E-05  0.1500149E+04  0.7818609E-02  0.8884354E-01
        1   -1    0    0  501    0  0.00000000000E+00  0.00000000000E+00  0.11579950158E+04  0.11579950158E+04  0.50400001928E-02 0.  1.
       -1   -1    0    0    0  501  0.00000000000E+00  0.00000000000E+00 -0.48585013423E+03  0.48585013426E+03  0.50400001928E-02 0. -1.
    10030    2    1    2    0    0  0.00000000000E+00  0.00000000000E+00  0.67214488154E+03  0.16438451500E+04  0.15001493711E+04 0.  0.
        3    1    3    3  502    0  0.46690835683E+03  0.57603155821E+03  0.21211636305E+03  0.77123869937E+03  0.10100000352E+00 0. -1.
       -3    1    3    3    0  502 -0.46690835683E+03 -0.57603155821E+03  0.46002851849E+03  0.87260645067E+03  0.10100000352E+00 0.  1.
</event>
<event>
 5   0  0.1533777E-05  0.1499872E+04  0.7818609E-02  0.8884538E-01
        1   -1    0    0  501    0  0.00000000000E+00  0.00000000000E+00  0.11775696442E+04  0.11775696442E+04  0.50400001928E-02 0. -1.
       -1   -1    0    0    0  501  0.00000000000E+00  0.00000000000E+00 -0.47759719704E+03  0.47759719706E+03  0.50400001928E-02 0.  1.
    10030    2    1    2    0    0  0.00000000000E+00  0.00000000000E+00  0.69997244715E+03  0.16551668413E+04  0.14998719431E+04 0.  0.
        5    1    3    3  502    0  0.20735885321E+03  0.71976552551E+03  0.30986586246E+03  0.81061646198E+03  0.46999998093E+01 0.  1.
       -5    1    3    3    0  502 -0.20735885321E+03 -0.71976552551E+03  0.39010658469E+03  0.84455037928E+03  0.46999998093E+01 0. -1.
</event>
<event>
 5   0  0.1576214E-05  0.1500439E+04  0.7818609E-02  0.8884161E-01
        1   -1    0    0  501    0  0.00000000000E+00  0.00000000000E+00  0.11111825298E+04  0.11111825299E+04  0.50400001928E-02 0.  1.
       -1   -1    0    0    0  501  0.00000000000E+00  0.00000000000E+00 -0.50651410560E+03  0.50651410563E+03  0.50400001928E-02 0. -1.
    10030    2    1    2    0    0  0.00000000000E+00  0.00000000000E+00  0.60466842424E+03  0.16176966355E+04  0.15004394360E+04 0.  0.
        1    1    3    3  502    0  0.66696558479E+02  0.39348309941E+03  0.98723630895E+03  0.10648534689E+04  0.50400001928E-02 0.  1.
       -1    1    3    3    0  502 -0.66696558479E+02 -0.39348309941E+03 -0.38256788471E+03  0.55284316661E+03  0.50400001928E-02 0. -1.
</event>
<event>
 5   0  0.3018308E-05  0.1499894E+04  0.7818609E-02  0.8884523E-01
       -2   -1    0    0    0  501  0.00000000000E+00  0.00000000000E+00  0.51515661204E+03  0.51515661205E+03  0.25500000920E-02 0. -1.
        2   -1    0    0  501    0  0.00000000000E+00  0.00000000000E+00 -0.10917465972E+04  0.10917465972E+04  0.25500000920E-02 0.  1.
    10030    2    1    2    0    0  0.00000000000E+00  0.00000000000E+00 -0.57658998520E+03  0.16069032093E+04  0.14998939673E+04 0.  0.
        2    1    3    3  502    0 -0.10756654365E+03  0.26722573090E+03  0.45352142310E+03  0.53727258797E+03  0.25500000920E-02 0. -1.
       -2    1    3    3    0  502  0.10756654365E+03 -0.26722573090E+03 -0.10301114083E+04  0.10696306213E+04  0.25500000920E-02 0.  1.
</event>
<event>
 5   0  0.3093600E-05  0.1500044E+04  0.7818609E-02  0.8884423E-01
        2   -1    0    0  501    0  0.00000000000E+00  0.00000000000E+00  0.30325771420E+04  0.30325771420E+04  0.25500000920E-02 0. -1.
       -2   -1    0    0    0  501  0.00000000000E+00  0.00000000000E+00 -0.18549675277E+03  0.18549675279E+03  0.25500000920E-02 0.  1.
    10030    2    1    2    0    0  0.00000000000E+00  0.00000000000E+00  0.28470803892E+04  0.32180738948E+04  0.15000442825E+04 0.  0.
        1    1    3    3  502    0  0.45583333114E+03  0.56879987341E+03  0.18025756161E+04  0.19443755228E+04  0.50400001928E-02 0. -1.
       -1    1    3    3    0  502 -0.45583333114E+03 -0.56879987341E+03  0.10445047732E+04  0.12736983720E+04  0.50400001928E-02 0.  1.
</event>
<event>
 5   0  0.1533777E-05  0.1496202E+04  0.7818609E-02  0.8886983E-01
        1   -1    0    0  501    0  0.00000000000E+00  0.00000000000E+00  0.10059122067E+04  0.10059122067E+04  0.50400001928E-02 0. -1.
       -1   -1    0    0    0  501  0.00000000000E+00  0.00000000000E+00 -0.55636542559E+03  0.55636542561E+03  0.50400001928E-02 0.  1.
    10030    2    1    2    0    0  0.00000000000E+00  0.00000000000E+00  0.44954678112E+03  0.15622776323E+04  0.14962015546E+04 0.  0.
        5    1    3    3  502    0 -0.53369973808E+03  0.52404194696E+03  0.23867724595E+03  0.78513966295E+03  0.46999998093E+01 0.  1.
       -5    1    3    3    0  502  0.53369973808E+03 -0.52404194696E+03  0.21086953516E+03  0.77713796938E+03  0.46999998093E+01 0. -1.
</event>
<event>
 5   0  0.1580078E-05  0.1499757E+04  0.7818609E-02  0.8884614E-01
       -1   -1    0    0    0  501  0.00000000000E+00  0.00000000000E+00  0.74160799947E+03  0.74160799949E+03  0.50400001928E-02 0. -1.
        1   -1    0    0  501    0  0.00000000000E+00  0.00000000000E+00 -0.75824143395E+03  0.75824143396E+03  0.50400001928E-02 0.  1.
    10030    2    1    2    0    0  0.00000000000E+00  0.00000000000E+00 -0.16633434474E+02  0.14998494334E+04  0.14997571976E+04 0.  0.
        2    1    3    3  502    0  0.35828818744E+03  0.39358405403E+02  0.64929379872E+03  0.74263177039E+03  0.25500000920E-02 0. -1.
       -2    1    3    3    0  502 -0.35828818744E+03 -0.39358405403E+02 -0.66592723319E+03  0.75721766306E+03  0.25500000920E-02 0.  1.
</event>
<event>
 5   0  0.1588657E-05  0.1507632E+04  0.7818609E-02  0.8879394E-01
        1   -1    0    0  501    0  0.00000000000E+00  0.00000000000E+00  0.10097029435E+04  0.10097029435E+04  0.50400001928E-02 0.  1.
       -1   -1    0    0    0  501  0.00000000000E+00  0.00000000000E+00 -0.56277781147E+03  0.56277781150E+03  0.50400001928E-02 0. -1.
    10030    2    1    2    0    0  0.00000000000E+00  0.00000000000E+00  0.44692513202E+03  0.15724807550E+04  0.15076318023E+04 0.  0.
        3    1    3    3  502    0 -0.66723024221E+03 -0.22699924860E+03  0.50238549075E+03  0.86551490253E+03  0.10100000352E+00 0.  1.
       -3    1    3    3    0  502  0.66723024221E+03  0.22699924860E+03 -0.55460358733E+02  0.70696585248E+03  0.10100000352E+00 0. -1.
</event>
<event>
 5   0  0.3018308E-05  0.1500297E+04  0.7818609E-02  0.8884255E-01
        2   -1    0    0  501    0  0.00000000000E+00  0.00000000000E+00  0.14981701932E+04  0.14981701932E+04  0.25500000920E-02 0. -1.
       -2   -1    0    0    0  501  0.00000000000E+00  0.00000000000E+00 -0.37560690174E+03  0.37560690174E+03  0.25500000920E-02 0.  1.
    10030    2    1    2    0    0  0.00000000000E+00  0.00000000000E+00  0.11225632914E+04  0.18737770949E+04  0.15002973899E+04 0.  0.
        2    1    3    3  502    0 -0.29900847500E+03  0.37955579710E+03 -0.15536712684E+03  0.50755060373E+03  0.25500000920E-02 0.  1.
       -2    1    3    3    0  502  0.29900847500E+03 -0.37955579710E+03  0.12779304183E+04  0.13662264912E+04  0.25500000920E-02 0. -1.
</event>
<event>
 5   0  0.2969498E-05  0.1505612E+04  0.7818609E-02  0.8880729E-01
        2   -1    0    0  501    0  0.00000000000E+00  0.00000000000E+00  0.50439756076E+03  0.50439756076E+03  0.25500000920E-02 0.  1.
       -2   -1    0    0    0  501  0.00000000000E+00  0.00000000000E+00 -0.11235525705E+04  0.11235525705E+04  0.25500000920E-02 0. -1.
    10030    2    1    2    0    0  0.00000000000E+00  0.00000000000E+00 -0.61915500972E+03  0.16279501312E+04  0.15056124016E+04 0.  0.
        3    1    3    3  502    0 -0.30082098529E+03  0.23429045403E+03  0.39226566242E+03  0.54704446086E+03  0.10100000352E+00 0.  1.
       -3    1    3    3    0  502  0.30082098529E+03 -0.23429045403E+03 -0.10114206721E+04  0.10809056704E+04  0.10100000352E+00 0. -1.
</event>
<event>
 5   0  0.1576214E-05  0.1500027E+04  0.7818609E-02  0.8884435E-01
        1   -1    0    0  501    0  0.00000000000E+00  0.00000000000E+00  0.14111273326E+04  0.14111273326E+04  0.50400001928E-02 0.  1.
       -1   -1    0    0    0  501  0.00000000000E+00  0.00000000000E+00 -0.39863190656E+03  0.39863190659E+03  0.50400001928E-02 0. -1.
    10030    2    1    2    0    0  0.00000000000E+00  0.00000000000E+00  0.10124954261E+04  0.18097592392E+04  0.15000271718E+04 0.  0.
        1    1    3    3  502    0  0.11141766193E+03 -0.39198806388E+03 -0.25340815358E+03  0.47987939104E+03  0.50400001928E-02 0. -1.
       -1    1    3    3    0  502 -0.11141766193E+03  0.39198806388E+03  0.12659035796E+04  0.13298798482E+04  0.50400001928E-02 0.  1.
</event>
<event>
 5   0  0.3018308E-05  0.1498777E+04  0.7818609E-02  0.8885267E-01
        2   -1    0    0  501    0  0.00000000000E+00  0.00000000000E+00  0.37494477563E+03  0.37494477564E+03  0.25500000920E-02 0.  1.
       -2   -1    0    0    0  501  0.00000000000E+00  0.00000000000E+00 -0.14977749566E+04  0.14977749566E+04  0.25500000920E-02 0. -1.
    10030    2    1    2    0    0  0.00000000000E+00  0.00000000000E+00 -0.11228301810E+04  0.18727197323E+04  0.14987766946E+04 0.  0.
        2    1    3    3  502    0 -0.45011092707E+03  0.85237319758E+02  0.17961003765E+03  0.49206200115E+03  0.25500000920E-02 0.  1.
       -2    1    3    3    0  502  0.45011092707E+03 -0.85237319758E+02 -0.13024402187E+04  0.13806577311E+04  0.25500000920E-02 0. -1.
</event>
<event>
 5   0  0.1643498E-05  0.1498746E+04  0.7818609E-02  0.8885287E-01
       -1   -1    0    0    0  501  0.00000000000E+00  0.00000000000E+00  0.68380343525E+03  0.68380343527E+03  0.50400001928E-02 0.  1.
        1   -1    0    0  501    0  0.00000000000E+00  0.00000000000E+00 -0.82123019643E+03  0.82123019645E+03  0.50400001928E-02 0. -1.
    10030    2    1    2    0    0  0.00000000000E+00  0.00000000000E+00 -0.13742676118E+03  0.15050336317E+04  0.14987461819E+04 0.  0.
        4    1    3    3  502    0  0.55778819115E+03  0.24348836569E+03  0.37032110911E+03  0.71242795226E+03  0.12699999809E+01 0.  1.
       -4    1    3    3    0  502 -0.55778819115E+03 -0.24348836569E+03 -0.50774787029E+03  0.79260567945E+03  0.12699999809E+01 0. -1.
</event>
<event>
 5   0  0.1116613E-05  0.1500012E+04  0.7818609E-02  0.8884445E-01
       -3   -1    0    0    0  501  0.00000000000E+00  0.00000000000E+00  0.15479170478E+04  0.15479170510E+04  0.10100000352E+00 0.  1.
        3   -1    0    0  501    0  0.00000000000E+00  0.00000000000E+00 -0.36339744471E+03  0.36339745874E+03  0.10100000352E+00 0. -1.
    10030    2    1    2    0    0  0.00000000000E+00  0.00000000000E+00  0.11845196030E+04  0.19113145098E+04  0.15000121551E+04 0.  0.
        5    1    3    3  502    0 -0.28161682842E+03  0.69186698738E+03  0.50679283817E+03  0.90268988977E+03  0.46999998093E+01 0.  1.
       -5    1    3    3    0  502  0.28161682842E+03 -0.69186698738E+03  0.67772676487E+03  0.10086246200E+04  0.46999998093E+01 0. -1.
</event>
<event>
 5   0  0.1588657E-05  0.1499144E+04  0.7818609E-02  0.8885022E-01
       -1   -1    0    0    0  501  0.00000000000E+00  0.00000000000E+00  0.91525561466E+03  0.91525561468E+03  0.50400001928E-02 0.  1.
        1   -1    0    0  501    0  0.00000000000E+00  0.00000000000E+00 -0.61388103059E+03  0.61388103061E+03  0.50400001928E-02 0. -1.
    10030    2    1    2    0    0  0.00000000000E+00  0.00000000000E+00  0.30137458407E+03  0.15291366453E+04  0.14991438357E+04 0.  0.
        3    1    3    3  502    0 -0.26673597047E+03  0.20665097860E+03  0.83341038108E+03  0.89912489588E+03  0.10100000352E+00 0.  1.
       -3    1    3    3    0  502  0.26673597047E+03 -0.20665097860E+03 -0.53203579701E+03  0.63001174941E+03  0.10100000352E+00 0. -1.
</event>
<event>
 5   0  0.3030702E-05  0.1499090E+04  0.7818609E-02  0.8885058E-01
       -2   -1    0    0    0  501  0.00000000000E+00  0.00000000000E+00  0.11014266150E+04  0.11014266150E+04  0.25500000920E-02 0. -1.
        2   -1    0    0  501    0  0.00000000000E+00  0.00000000000E+00 -0.51008208735E+03  0.51008208736E+03  0.25500000920E-02 0.  1.
    10030    2    1    2    0    0  0.00000000000E+00  0.00000000000E+00  0.59134452769E+03  0.16115087024E+04  0.14990903734E+04 0.  0.
        5    1    3    3  502    0  0.57410014319E+03 -0.85030935952E+02 -0.21421204148E+03  0.61865185944E+03  0.46999998093E+01 0.  1.
       -5    1    3    3    0  502 -0.57410014319E+03  0.85030935952E+02  0.80555656917E+03  0.99285684296E+03  0.46999998093E+01 0. -1.
</event>
<event>
 5   0  0.3018308E-05  0.1499963E+04  0.7818609E-02  0.8884477E-01
       -2   -1    0    0    0  501  0.00000000000E+00  0.00000000000E+00  0.41854866436E+03  0.41854866437E+03  0.25500000920E-02 0. -1.
        2   -1    0    0  501    0  0.00000000000E+00  0.00000000000E+00 -0.13438642223E+04  0.13438642223E+04  0.25500000920E-02 0.  1.
    10030    2    1    2    0    0  0.00000000000E+00  0.00000000000E+00 -0.92531555795E+03  0.17624128867E+04  0.14999634333E+04 0.  0.
        2    1    3    3  502    0 -0.18058051050E+03 -0.49497979304E+03 -0.10897644139E+04  0.12104547882E+04  0.25500000920E-02 0.  1.
       -2    1    3    3    0  502  0.18058051050E+03  0.49497979304E+03  0.16444885598E+03  0.55195809853E+03  0.25500000920E-02 0. -1.
</event>
<event>
 5   0  0.1116613E-05  0.1500190E+04  0.7818609E-02  0.8884326E-01
       -3   -1    0    0    0  501  0.00000000000E+00  0.00000000000E+00  0.34911797976E+03  0.34911799437E+03  0.10100000352E+00 0.  1.
        3   -1    0    0  501    0  0.00000000000E+00  0.00000000000E+00 -0.16116117469E+04  0.16116117501E+04  0.10100000352E+00 0. -1.
    10030    2    1    2    0    0  0.00000000000E+00  0.00000000000E+00 -0.12624937671E+04  0.19607297444E+04  0.15001901942E+04 0.  0.
        2    1    3    3  502    0 -0.14475340053E+03 -0.30011050845E+03  0.24708639883E+03  0.41481508259E+03  0.25500000920E-02 0.  1.
       -2    1    3    3    0  502  0.14475340053E+03  0.30011050845E+03 -0.15095801660E+04  0.15459146619E+04  0.25500000920E-02 0. -1.
</event>
<event>
 5   0  0.1533777E-05  0.1499443E+04  0.7818609E-02  0.8884823E-01
        1   -1    0    0  501    0  0.00000000000E+00  0.00000000000E+00  0.13191482699E+04  0.13191482699E+04  0.50400001928E-02 0.  1.
       -1   -1    0    0    0  501  0.00000000000E+00  0.00000000000E+00 -0.42609483277E+03  0.42609483280E+03  0.50400001928E-02 0. -1.
    10030    2    1    2    0    0  0.00000000000E+00  0.00000000000E+00  0.89305343713E+03  0.17452431027E+04  0.14994429119E+04 0.  0.
        5    1    3    3  502    0  0.61699544153E+03  0.14556001952E+03  0.91237279793E+03  0.11109983378E+04  0.46999998093E+01 0.  1.
       -5    1    3    3    0  502 -0.61699544153E+03 -0.14556001952E+03 -0.19319360795E+02  0.63424476494E+03  0.46999998093E+01 0. -1.
</event>
<event>
 5   0  0.1580078E-05  0.1500379E+04  0.7818609E-02  0.8884201E-01
       -1   -1    0    0    0  501  0.00000000000E+00  0.00000000000E+00  0.35056900179E+03  0.35056900183E+03  0.50400001928E-02 0. -1.
        1   -1    0    0  501    0  0.00000000000E+00  0.00000000000E+00 -0.16053449525E+04  0.16053449525E+04  0.50400001928E-02 0.  1.
    10030    2    1    2    0    0  0.00000000000E+00  0.00000000000E+00 -0.12547759507E+04  0.19559139543E+04  0.15003788556E+04 0.  0.
        2    1    3    3  502    0  0.19385059005E+03 -0.69505309637E+03 -0.89489032928E+03  0.11495675532E+04  0.25500000920E-02 0.  1.
       -2    1    3    3    0  502 -0.19385059005E+03  0.69505309637E+03 -0.35988562142E+03  0.80634640109E+03  0.25500000920E-02 0. -1.
</event>
<event>
 5   0  0.1576214E-05  0.1499963E+04  0.7818609E-02  0.8884478E-01
       -1   -1    0    0    0  501  0.00000000000E+00  0.00000000000E+00  0.84579447314E+03  0.84579447316E+03  0.50400001928E-02 0. -1.
        1   -1    0    0  501    0  0.00000000000E+00  0.00000000000E+00 -0.66502216728E+03  0.66502216730E+03  0.50400001928E-02 0.  1.
    10030    2    1    2    0    0  0.00000000000E+00  0.00000000000E+00  0.18077230586E+03  0.15108166405E+04  0.14999627644E+04 0.  0.
        1    1    3    3  502    0  0.31435756351E+03  0.16119970165E+03  0.75673662885E+03  0.83513851966E+03  0.50400001928E-02 0. -1.
       -1    1    3    3    0  502 -0.31435756351E+03 -0.16119970165E+03 -0.57596432298E+03  0.67567812080E+03  0.50400001928E-02 0.  1.
</event>
<event>
 5   0  0.3018308E-05  0.1500858E+04  0.7818609E-02  0.8883883E-01
       -2   -1    0    0    0  501  0.00000000000E+00  0.00000000000E+00  0.63632886679E+03  0.63632886680E+03  0.25500000920E-02 0. -1.
        2   -1    0    0  501    0  0.00000000000E+00  0.00000000000E+00 -0.88498842299E+03  0.88498842299E+03  0.25500000920E-02 0.  1.
    10030    2    1    2    0    0  0.00000000000E+00  0.00000000000E+00 -0.24865955620E+03  0.15213172898E+04  0.15008579951E+04 0.  0.
        2    1    3    3  502    0  0.68033331260E+03  0.11964013457E+03  0.17288478440E+03  0.71207887675E+03  0.25500000920E-02 0.  1.
       -2    1    3    3    0  502 -0.68033331260E+03 -0.11964013457E+03 -0.42154434060E+03  0.80923841303E+03  0.25500000920E-02 0. -1.
</event>
<event>
 5   0  0.1576214E-05  0.1499982E+04  0.7818609E-02  0.8884465E-01
       -1   -1    0    0    0  501  0.00000000000E+00  0.00000000000E+00  0.10422544241E+04  0.10422544241E+04  0.50400001928E-02 0. -1.
        1   -1    0    0  501    0  0.00000000000E+00  0.00000000000E+00 -0.53968250086E+03  0.53968250089E+03  0.50400001928E-02 0.  1.
    10030    2    1    2    0    0  0.00000000000E+00  0.00000000000E+00  0.50257192321E+03  0.15819369250E+04  0.14999819654E+04 0.  0.
        1    1    3    3  502    0 -0.77290956735E+02 -0.44873065102E+02 -0.53404642095E+03  0.54147304985E+03  0.50400001928E-02 0.  1.
       -1    1    3    3    0  502  0.77290956735E+02  0.44873065102E+02  0.10366183442E+04  0.10404638751E+04  0.50400001928E-02 0. -1.
</event>
<event>
 5   0  0.1116613E-05  0.1499692E+04  0.7818609E-02  0.8884657E-01
        4   -1    0    0  501    0  0.00000000000E+00  0.00000000000E+00  0.92377660441E+03  0.92377747741E+03  0.12699999809E+01 0.  1.
       -4   -1    0    0    0  501  0.00000000000E+00  0.00000000000E+00 -0.60866194888E+03  0.60866327384E+03  0.12699999809E+01 0. -1.
    10030    2    1    2    0    0  0.00000000000E+00  0.00000000000E+00  0.31511465553E+03  0.15324407512E+04  0.14996924384E+04 0.  0.
        2    1    3    3  502    0  0.65441579847E+03 -0.35951515718E+03  0.87071577191E+02  0.75172644299E+03  0.25500000920E-02 0. -1.
       -2    1    3    3    0  502 -0.65441579847E+03  0.35951515718E+03  0.22804307834E+03  0.78071430825E+03  0.25500000920E-02 0.  1.
</event>
<event>
 5   0  0.1588657E-05  0.1500411E+04  0.7818609E-02  0.8884180E-01
       -1   -1    0    0    0  501  0.00000000000E+00  0.00000000000E+00  0.60629773212E+03  0.60629773214E+03  0.50400001928E-02 0.  1.
        1   -1    0    0  501    0  0.00000000000E+00  0.00000000000E+00 -0.92827076285E+03  0.92827076286E+03  0.50400001928E-02 0. -1.
    10030    2    1    2    0    0  0.00000000000E+00  0.00000000000E+00 -0.32197303073E+03  0.15345684950E+04  0.15004112214E+04 0.  0.
        3    1    3    3  502    0 -0.70139583902E+03  0.19134340561E+03 -0.35023962267E+03  0.80699208506E+03  0.10100000352E+00 0. -1.
       -3    1    3    3    0  502  0.70139583902E+03 -0.19134340561E+03  0.28266591932E+02  0.72757640993E+03  0.10100000352E+00 0.  1.
</event>
<event>
 5   0  0.1116613E-05  0.1500789E+04  0.7818609E-02  0.8883928E-01
       -3   -1    0    0    0  501  0.00000000000E+00  0.00000000000E+00  0.12587181252E+04  0.12587181293E+04  0.10100000352E+00 0.  1.
        3   -1    0    0  501    0  0.00000000000E+00  0.00000000000E+00 -0.44735337453E+03  0.44735338593E+03  0.10100000352E+00 0. -1.
    10030    2    1    2    0    0  0.00000000000E+00  0.00000000000E+00  0.81136475068E+03  0.17060715152E+04  0.15007888780E+04 0.  0.
        2    1    3    3  502    0 -0.53135193379E+03  0.20925033317E+03 -0.14770015520E+03  0.58986092880E+03  0.25500000920E-02 0. -1.
       -2    1    3    3    0  502  0.53135193379E+03 -0.20925033317E+03  0.95906490589E+03  0.11162105864E+04  0.25500000920E-02 0.  1.
</event>
<event>
 5   0  0.1533777E-05  0.1500012E+04  0.7818609E-02  0.8884445E-01
        1   -1    0    0  501    0  0.00000000000E+00  0.00000000000E+00  0.91165047803E+03  0.91165047804E+03  0.50400001928E-02 0.  1.
       -1   -1    0    0    0  501  0.00000000000E+00  0.00000000000E+00 -0.61702261335E+03  0.61702261337E+03  0.50400001928E-02 0. -1.
    10030    2    1    2    0    0  0.00000000000E+00  0.00000000000E+00  0.29462786468E+03  0.15286730914E+04  0.15000119472E+04 0.  0.
        5    1    3    3  502    0  0.22171294139E+03 -0.44882523363E+03  0.71645241109E+03  0.87402909910E+03  0.46999998093E+01 0.  1.
       -5    1    3    3    0  502 -0.22171294139E+03  0.44882523363E+03 -0.42182454641E+03  0.65464399232E+03  0.46999998093E+01 0. -1.
</event>
<event>
 5   0  0.3018308E-05  0.1499537E+04  0.7818609E-02  0.8884761E-01
        2   -1    0    0  501    0  0.00000000000E+00  0.00000000000E+00  0.11024378874E+04  0.11024378874E+04  0.25500000920E-02 0.  1.
       -2   -1    0    0    0  501  0.00000000000E+00  0.00000000000E+00 -0.50991804123E+03  0.50991804123E+03  0.25500000920E-02 0. -1.
    10030    2    1    2    0    0  0.00000000000E+00  0.00000000000E+00  0.59251984613E+03  0.16123559286E+04  0.14995372194E+04 0.  0.
        2    1    3    3  502    0  0.32802151961E+03 -0.28464191759E+03 -0.36089632183E+03  0.56468158611E+03  0.25500000920E-02 0. -1.
       -2    1    3    3    0  502 -0.32802151961E+03  0.28464191759E+03  0.95341616796E+03  0.10476743425E+04  0.25500000920E-02 0.  1.
</event>
<event>
 5   0  0.1116613E-05  0.1500684E+04  0.7818609E-02  0.8883998E-01
        3   -1    0    0  501    0  0.00000000000E+00  0.00000000000E+00  0.25222891323E+04  0.25222891343E+04  0.10100000352E+00 0. -1.
       -3   -1    0    0    0  501  0.00000000000E+00  0.00000000000E+00 -0.22321501721E+03  0.22321504006E+03  0.10100000352E+00 0.  1.
    10030    2    1    2    0    0  0.00000000000E+00  0.00000000000E+00  0.22990741151E+04  0.27455041744E+04  0.15006836392E+04 0.  0.
        2    1    3    3  502    0  0.87189844352E+02 -0.32907671687E+03  0.23728699834E+04  0.23971661421E+04  0.25500000920E-02 0. -1.
       -2    1    3    3    0  502 -0.87189844352E+02  0.32907671687E+03 -0.73795868348E+02  0.34833803229E+03  0.25500000920E-02 0.  1.
</event>
<event>
 5   0  0.1576214E-05  0.1500880E+04  0.7818609E-02  0.8883868E-01
       -1   -1    0    0    0  501  0.00000000000E+00  0.00000000000E+00  0.12265945300E+04  0.12265945300E+04  0.50400001928E-02 0.  1.
        1   -1    0    0  501    0  0.00000000000E+00  0.00000000000E+00 -0.45912495369E+03  0.45912495372E+03  0.50400001928E-02 0. -1.
    10030    2    1    2    0    0  0.00000000000E+00  0.00000000000E+00  0.76746957633E+03  0.16857194838E+04  0.15008799510E+04 0.  0.
        1    1    3    3  502    0  0.40901478879E+03 -0.25239100579E+03 -0.26358194494E+03  0.54815121908E+03  0.50400001928E-02 0. -1.
       -1    1    3    3    0  502 -0.40901478879E+03  0.25239100579E+03  0.10310515213E+04  0.11375682647E+04  0.50400001928E-02 0.  1.
</event>
<event>
 5   0  0.3018308E-05  0.1500055E+04  0.7818609E-02  0.8884416E-01
       -2   -1    0    0    0  501  0.00000000000E+00  0.00000000000E+00  0.10428531851E+04  0.10428531851E+04  0.25500000920E-02 0.  1.
        2   -1    0    0  501    0  0.00000000000E+00  0.00000000000E+00 -0.53942520322E+03  0.53942520323E+03  0.25500000920E-02 0. -1.
    10030    2    1    2    0    0  0.00000000000E+00  0.00000000000E+00  0.50342798192E+03  0.15822783884E+04  0.15000550541E+04 0.  0.
        2    1    3    3  502    0  0.33248843341E+02  0.73527367640E+03  0.40387217572E+03  0.83955083176E+03  0.25500000920E-02 0.  1.
       -2    1    3    3    0  502 -0.33248843341E+02 -0.73527367640E+03  0.99555806205E+02  0.74272755661E+03  0.25500000920E-02 0. -1.
</event>
<event>
 5   0  0.1580078E-05  0.1499874E+04  0.7818609E-02  0.8884537E-01
        1   -1    0    0  501    0  0.00000000000E+00  0.00000000000E+00  0.15356435111E+04  0.15356435111E+04  0.50400001928E-02 0.  1.
       -1   -1    0    0    0  501  0.00000000000E+00  0.00000000000E+00 -0.36623432476E+03  0.36623432479E+03  0.50400001928E-02 0. -1.
    10030    2    1    2    0    0  0.00000000000E+00  0.00000000000E+00  0.11694091864E+04  0.19018778359E+04  0.14998738139E+04 0.  0.
        2    1    3    3  502    0  0.97317995463E+02  0.54779108946E+03  0.12223328093E+04  0.13429979027E+04  0.25500000920E-02 0.  1.
       -2    1    3    3    0  502 -0.97317995463E+02 -0.54779108946E+03 -0.52923622908E+02  0.55887993326E+03  0.25500000920E-02 0. -1.
</event>
<event>
 5   0  0.1580078E-05  0.1499851E+04  0.7818609E-02  0.8884552E-01
        1   -1    0    0  501    0  0.00000000000E+00  0.00000000000E+00  0.38428459482E+03  0.38428459485E+03  0.50400001928E-02 0.  1.
       -1   -1    0    0    0  501  0.00000000000E+00  0.00000000000E+00 -0.14634689211E+04  0.14634689211E+04  0.50400001928E-02 0. -1.
    10030    2    1    2    0    0  0.00000000000E+00  0.00000000000E+00 -0.10791843263E+04  0.18477535160E+04  0.14998514079E+04 0.  0.
        2    1    3    3  502    0 -0.31126699951E+02 -0.67685381685E+03 -0.14365889116E+03  0.69263109795E+03  0.25500000920E-02 0.  1.
       -2    1    3    3    0  502  0.31126699951E+02  0.67685381685E+03 -0.93552543514E+03  0.11551224180E+04  0.25500000920E-02 0. -1.
</event>
<event>
 5   0  0.1643498E-05  0.1499756E+04  0.7818609E-02  0.8884615E-01
       -1   -1    0    0    0  501  0.00000000000E+00  0.00000000000E+00  0.35894301227E+03  0.35894301230E+03  0.50400001928E-02 0.  1.
        1   -1    0    0  501    0  0.00000000000E+00  0.00000000000E+00 -0.15665919174E+04  0.15665919174E+04  0.50400001928E-02 0. -1.
    10030    2    1    2    0    0  0.00000000000E+00  0.00000000000E+00 -0.12076489051E+04  0.19255349297E+04  0.14997562760E+04 0.  0.
        4    1    3    3  502    0 -0.50168722580E+03 -0.34024259847E+03 -0.37073013721E+02  0.60731467922E+03  0.12699999809E+01 0.  1.
       -4    1    3    3    0  502  0.50168722580E+03  0.34024259847E+03 -0.11705758914E+04  0.13182202505E+04  0.12699999809E+01 0. -1.
</event>
<event>
 5   0  0.1643498E-05  0.1499769E+04  0.7818609E-02  0.8884607E-01
        1   -1    0    0  501    0  0.00000000000E+00  0.00000000000E+00  0.21808376650E+04  0.21808376650E+04  0.50400001928E-02 0.  1.
       -1   -1    0    0    0  501  0.00000000000E+00  0.00000000000E+00 -0.25784896702E+03  0.25784896707E+03  0.50400001928E-02 0. -1.
    10030    2    1    2    0    0  0.00000000000E+00  0.00000000000E+00  0.19229886980E+04  0.24386866321E+04  0.14997689678E+04 0.  0.
        4    1    3    3  502    0 -0.10970290533E+03 -0.71917329527E+03  0.12572380493E+04  0.14525474456E+04  0.12699999809E+01 0.  1.
       -4    1    3    3    0  502  0.10970290533E+03  0.71917329527E+03  0.66575064862E+03  0.98613918648E+03  0.12699999809E+01 0. -1.
</event>
<event>
 5   0  0.1533777E-05  0.1501420E+04  0.7818609E-02  0.8883509E-01
        1   -1    0    0  501    0  0.00000000000E+00  0.00000000000E+00  0.13592817058E+04  0.13592817058E+04  0.50400001928E-02 0.  1.
       -1   -1    0    0    0  501  0.00000000000E+00  0.00000000000E+00 -0.41460526924E+03  0.41460526927E+03  0.50400001928E-02 0. -1.
    10030    2    1    2    0    0  0.00000000000E+00  0.00000000000E+00  0.94467643656E+03  0.17738869751E+04  0.15014198049E+04 0.  0.
        5    1    3    3  502    0 -0.67508990852E+03  0.12140496624E+03  0.11192558796E+03  0.69500717813E+03  0.46999998093E+01 0. -1.
       -5    1    3    3    0  502  0.67508990852E+03 -0.12140496624E+03  0.83275084860E+03  0.10788797969E+04  0.46999998093E+01 0.  1.
</event>
<event>
 5   0  0.1588657E-05  0.1499239E+04  0.7818609E-02  0.8884959E-01
        1   -1    0    0  501    0  0.00000000000E+00  0.00000000000E+00  0.99850401641E+03  0.99850401642E+03  0.50400001928E-02 0. -1.
       -1   -1    0    0    0  501  0.00000000000E+00  0.00000000000E+00 -0.56277139247E+03  0.56277139249E+03  0.50400001928E-02 0.  1.
    10030    2    1    2    0    0  0.00000000000E+00  0.00000000000E+00  0.43573262394E+03  0.15612754089E+04  0.14992391347E+04 0.  0.
        3    1    3    3  502    0 -0.53346824929E+02 -0.43150304548E+03 -0.41804746548E+03  0.60316204753E+03  0.10100000352E+00 0.  1.
       -3    1    3    3    0  502  0.53346824929E+02  0.43150304548E+03  0.85378008941E+03  0.95811336139E+03  0.10100000352E+00 0. -1.
</event>
<event>
 5   0  0.3030702E-05  0.1498334E+04  0.7818609E-02  0.8885561E-01
        2   -1    0    0  501    0  0.00000000000E+00  0.00000000000E+00  0.36856467214E+03  0.36856467214E+03  0.25500000920E-02 0.  1.
       -2   -1    0    0    0  501  0.00000000000E+00  0.00000000000E+00 -0.15228028672E+04  0.15228028672E+04  0.25500000920E-02 0. -1.
    10030    2    1    2    0    0  0.00000000000E+00  0.00000000000E+00 -0.11542381950E+04  0.18913675393E+04  0.14983341943E+04 0.  0.
        5    1    3    3  502    0 -0.30001044262E+03 -0.59804424520E+03 -0.15172493260E+03  0.68607997352E+03  0.46999998093E+01 0.  1.
       -5    1    3    3    0  502  0.30001044262E+03  0.59804424520E+03 -0.10025132624E+04  0.12052875658E+04  0.46999998093E+01 0. -1.
</event>
<event>
 5   0  0.1533777E-05  0.1497159E+04  0.7818609E-02  0.8886345E-01
       -1   -1    0    0    0  501  0.00000000000E+00  0.00000000000E+00  0.12143620376E+04  0.12143620376E+04  0.50400001928E-02 0. -1.
        1   -1    0    0  501    0  0.00000000000E+00  0.00000000000E+00 -0.46145297266E+03  0.46145297269E+03  0.50400001928E-02 0.  1.
    10030    2    1    2    0    0  0.00000000000E+00  0.00000000000E+00  0.75290906493E+03  0.16758150103E+04  0.14971586051E+04 0.  0.
        5    1    3    3  502    0 -0.66736691505E+03  0.32243763314E+03  0.49387359271E+03  0.89066146326E+03  0.46999998093E+01 0. -1.
       -5    1    3    3    0  502  0.66736691505E+03 -0.32243763314E+03  0.25903547222E+03  0.78515354704E+03  0.46999998093E+01 0.  1.
</event>
<event>
 5   0  0.3093600E-05  0.1500036E+04  0.7818609E-02  0.8884429E-01
        2   -1    0    0  501    0  0.00000000000E+00  0.00000000000E+00  0.98430992044E+03  0.98430992044E+03  0.25500000920E-02 0. -1.
       -2   -1    0    0    0  501  0.00000000000E+00  0.00000000000E+00 -0.57149362200E+03  0.57149362201E+03  0.25500000920E-02 0.  1.
    10030    2    1    2    0    0  0.00000000000E+00  0.00000000000E+00  0.41281629843E+03  0.15558035425E+04  0.15000357884E+04 0.  0.
        1    1    3    3  502    0  0.16258373081E+03  0.72020787572E+03  0.69618663708E+02  0.74160610308E+03  0.50400001928E-02 0. -1.
       -1    1    3    3    0  502 -0.16258373081E+03 -0.72020787572E+03  0.34319763473E+03  0.81419743937E+03  0.50400001928E-02 0.  1.
</event>
<event>
 5   0  0.1588657E-05  0.1499757E+04  0.7818609E-02  0.8884615E-01
        1   -1    0    0  501    0  0.00000000000E+00  0.00000000000E+00  0.64192161865E+03  0.64192161867E+03  0.50400001928E-02 0. -1.
       -1   -1    0    0    0  501  0.00000000000E+00  0.00000000000E+00 -0.87599136440E+03  0.87599136441E+03  0.50400001928E-02 0.  1.
    10030    2    1    2    0    0  0.00000000000E+00  0.00000000000E+00 -0.23406974574E+03  0.15179129831E+04  0.14997570398E+04 0.  0.
        3    1    3    3  502    0 -0.67753174045E+03  0.11542050309E+03  0.18650686815E+03  0.71214884253E+03  0.10100000352E+00 0.  1.
       -3    1    3    3    0  502  0.67753174045E+03 -0.11542050309E+03 -0.42057661390E+03  0.80576414055E+03  0.10100000352E+00 0. -1.
</event>
<event>
 5   0  0.1643498E-05  0.1500001E+04  0.7818609E-02  0.8884452E-01
        1   -1    0    0  501    0  0.00000000000E+00  0.00000000000E+00  0.71736639931E+03  0.71736639933E+03  0.50400001928E-02 0. -1.
       -1   -1    0    0    0  501  0.00000000000E+00  0.00000000000E+00 -0.78411928358E+03  0.78411928359E+03  0.50400001928E-02 0.  1.
    10030    2    1    2    0    0  0.00000000000E+00  0.00000000000E+00 -0.66752884266E+02  0.15014856829E+04  0.15000011028E+04 0.  0.
        4    1    3    3  502    0  0.22728739563E+03 -0.71412474324E+03 -0.62825027242E+02  0.75205206340E+03  0.12699999809E+01 0.  1.
       -4    1    3    3    0  502 -0.22728739563E+03  0.71412474324E+03 -0.39278570244E+01  0.74943361953E+03  0.12699999809E+01 0. -1.
</event>
<event>
 5   0  0.3093600E-05  0.1500184E+04  0.7818609E-02  0.8884330E-01
        2   -1    0    0  501    0  0.00000000000E+00  0.00000000000E+00  0.12169059980E+04  0.12169059980E+04  0.25500000920E-02 0. -1.
       -2   -1    0    0    0  501  0.00000000000E+00  0.00000000000E+00 -0.46235132965E+03  0.46235132966E+03  0.25500000920E-02 0.  1.
    10030    2    1    2    0    0  0.00000000000E+00  0.00000000000E+00  0.75455466832E+03  0.16792573276E+04  0.15001841303E+04 0.  0.
        1    1    3    3  502    0  0.15684510157E+02 -0.73508410190E+03  0.54347029335E+03  0.91430552908E+03  0.50400001928E-02 0. -1.
       -1    1    3    3    0  502 -0.15684510157E+02  0.73508410190E+03  0.21108437497E+03  0.76495179855E+03  0.50400001928E-02 0.  1.
</event>
<event>
 5   0  0.2969498E-05  0.1500087E+04  0.7818609E-02  0.8884395E-01
        2   -1    0    0  501    0  0.00000000000E+00  0.00000000000E+00  0.44382821809E+03  0.44382821809E+03  0.25500000920E-02 0.  1.
       -2   -1    0    0    0  501  0.00000000000E+00  0.00000000000E+00 -0.12675288182E+04  0.12675288182E+04  0.25500000920E-02 0. -1.
    10030    2    1    2    0    0  0.00000000000E+00  0.00000000000E+00 -0.82370060016E+03  0.17113570363E+04  0.15000867399E+04 0.  0.
        3    1    3    3  502    0  0.39475445382E+03  0.18855403472E+03  0.28320174027E+03  0.52114003753E+03  0.10100000352E+00 0.  1.
       -3    1    3    3    0  502 -0.39475445382E+03 -0.18855403472E+03 -0.11069023404E+04  0.11902169988E+04  0.10100000352E+00 0. -1.
</event>
<event>
 5   0  0.3093600E-05  0.1499928E+04  0.7818609E-02  0.8884501E-01
       -2   -1    0    0    0  501  0.00000000000E+00  0.00000000000E+00  0.77701591109E+03  0.77701591109E+03  0.25500000920E-02 0. -1.
        2   -1    0    0  501    0  0.00000000000E+00  0.00000000000E+00 -0.72385415905E+03  0.72385415906E+03  0.25500000920E-02 0.  1.
    10030    2    1    2    0    0  0.00000000000E+00  0.00000000000E+00  0.53161752033E+02  0.15008700702E+04  0.14999282635E+04 0.  0.
        1    1    3    3  502    0  0.69937882949E+03 -0.19626277939E+03 -0.16007411117E+03  0.74382359925E+03  0.50400001928E-02 0.  1.
       -1    1    3    3    0  502 -0.69937882949E+03  0.19626277939E+03  0.21323586320E+03  0.75704647090E+03  0.50400001928E-02 0. -1.
</event>
<event>
 5   0  0.2969498E-05  0.1499699E+04  0.7818609E-02  0.8884653E-01
       -2   -1    0    0    0  501  0.00000000000E+00  0.00000000000E+00  0.36353033212E+03  0.36353033213E+03  0.25500000920E-02 0.  1.
        2   -1    0    0  501    0  0.00000000000E+00  0.00000000000E+00 -0.15467052292E+04  0.15467052292E+04  0.25500000920E-02 0. -1.
    10030    2    1    2    0    0  0.00000000000E+00  0.00000000000E+00 -0.11831748971E+04  0.19102355613E+04  0.14996989907E+04 0.  0.
        3    1    3    3  502    0 -0.34408892392E+03  0.44877860433E+03  0.35627153142E+02  0.56662926814E+03  0.10100000352E+00 0.  1.
       -3    1    3    3    0  502  0.34408892392E+03 -0.44877860433E+03 -0.12188020502E+04  0.13436062932E+04  0.10100000352E+00 0. -1.
</event>
<event>
 5   0  0.3018308E-05  0.1500049E+04  0.7818609E-02  0.8884421E-01
       -2   -1    0    0    0  501  0.00000000000E+00  0.00000000000E+00  0.58369840883E+03  0.58369840883E+03  0.25500000920E-02 0.  1.
        2   -1    0    0  501    0  0.00000000000E+00  0.00000000000E+00 -0.96374501601E+03  0.96374501601E+03  0.25500000920E-02 0. -1.
    10030    2    1    2    0    0  0.00000000000E+00  0.00000000000E+00 -0.38004660718E+03  0.15474434248E+04  0.15000485757E+04 0.  0.
        2    1    3    3  502    0  0.65127377941E+03 -0.33583992333E+03 -0.24998830411E+02  0.73319228813E+03  0.25500000920E-02 0. -1.
       -2    1    3    3    0  502 -0.65127377941E+03  0.33583992333E+03 -0.35504777677E+03  0.81425113671E+03  0.25500000920E-02 0.  1.
</event>
<event>
 5   0  0.3093600E-05  0.1498555E+04  0.7818609E-02  0.8885414E-01
       -2   -1    0    0    0  501  0.00000000000E+00  0.00000000000E+00  0.59465605418E+03  0.59465605419E+03  0.25500000920E-02 0. -1.
        2   -1    0    0  501    0  0.00000000000E+00  0.00000000000E+00 -0.94410395331E+03  0.94410395331E+03  0.25500000920E-02 0.  1.
    10030    2    1    2    0    0  0.00000000000E+00  0.00000000000E+00 -0.34944789912E+03  0.15387600075E+04  0.14985554799E+04 0.  0.
        1    1    3    3  502    0  0.41008647587E+03  0.17698051297E+03  0.44301761399E+03  0.62909270064E+03  0.50400001928E-02 0. -1.
       -1    1    3    3    0  502 -0.41008647587E+03 -0.17698051297E+03 -0.79246551311E+03  0.90966730686E+03  0.50400001928E-02 0.  1.
</event>
<event>
 5   0  0.1533777E-05  0.1498425E+04  0.7818609E-02  0.8885501E-01
        1   -1    0    0  501    0  0.00000000000E+00  0.00000000000E+00  0.11551500588E+04  0.11551500588E+04  0.50400001928E-02 0.  1.
       -1   -1    0    0    0  501  0.00000000000E+00  0.00000000000E+00 -0.48592769039E+03  0.48592769041E+03  0.50400001928E-02 0. -1.
    10030    2    1    2    0    0  0.00000000000E+00  0.00000000000E+00  0.66922236840E+03  0.16410777492E+04  0.14984250400E+04 0.  0.
        5    1    3    3  502    0 -0.20885444434E+03  0.62961971779E+02 -0.45036120312E+03  0.50043150588E+03  0.46999998093E+01 0. -1.
       -5    1    3    3    0  502  0.20885444434E+03 -0.62961971779E+02  0.11195835715E+04  0.11406462433E+04  0.46999998093E+01 0.  1.
</event>
<event>
 5   0  0.1533777E-05  0.1500272E+04  0.7818609E-02  0.8884272E-01
       -1   -1    0    0    0  501  0.00000000000E+00  0.00000000000E+00  0.91728784113E+03  0.91728784114E+03  0.50400001928E-02 0. -1.
        1   -1    0    0  501    0  0.00000000000E+00  0.00000000000E+00 -0.61344286862E+03  0.61344286864E+03  0.50400001928E-02 0.  1.
    10030    2    1    2    0    0  0.00000000000E+00  0.00000000000E+00  0.30384497250E+03  0.15307307098E+04  0.15002715549E+04 0.  0.
        5    1    3    3  502    0 -0.68904116471E+03  0.28899108722E+03  0.21950949001E+03  0.77878115113E+03  0.46999998093E+01 0. -1.
       -5    1    3    3    0  502  0.68904116471E+03 -0.28899108722E+03  0.84335482496E+02  0.75194955865E+03  0.46999998093E+01 0.  1.
</event>
<event>
 5   0  0.3018308E-05  0.1499981E+04  0.7818609E-02  0.8884466E-01
       -2   -1    0    0    0  501  0.00000000000E+00  0.00000000000E+00  0.54480325193E+03  0.54480325193E+03  0.25500000920E-02 0.  1.
        2   -1    0    0  501    0  0.00000000000E+00  0.00000000000E+00 -0.10324561203E+04  0.10324561203E+04  0.25500000920E-02 0. -1.
    10030    2    1    2    0    0  0.00000000000E+00  0.00000000000E+00 -0.48765286836E+03  0.15772593722E+04  0.14999806023E+04 0.  0.
        2    1    3    3  502    0  0.36116159122E+03 -0.24749584085E+03 -0.88412653248E+03  0.98659597184E+03  0.25500000920E-02 0. -1.
       -2    1    3    3    0  502 -0.36116159122E+03  0.24749584085E+03  0.39647366412E+03  0.59066340039E+03  0.25500000920E-02 0.  1.
</event>
<event>
 5   0  0.1588657E-05  0.1498850E+04  0.7818609E-02  0.8885218E-01
       -1   -1    0    0    0  501  0.00000000000E+00  0.00000000000E+00  0.51706648533E+03  0.51706648536E+03  0.50400001928E-02 0.  1.
        1   -1    0    0  501    0  0.00000000000E+00  0.00000000000E+00 -0.10862008191E+04  0.10862008191E+04  0.50400001928E-02 0. -1.
    10030    2    1    2    0    0  0.00000000000E+00  0.00000000000E+00 -0.56913433378E+03  0.16032673045E+04  0.14988502793E+04 0.  0.
        3    1    3    3  502    0 -0.22122237302E+03 -0.56304723536E+03  0.18860263647E+03  0.63366591533E+03  0.10100000352E+00 0.  1.
       -3    1    3    3    0  502  0.22122237302E+03  0.56304723536E+03 -0.75773697025E+03  0.96960138915E+03  0.10100000352E+00 0. -1.
</event>
<event>
 5   0  0.1533777E-05  0.1499349E+04  0.7818609E-02  0.8884886E-01
       -1   -1    0    0    0  501  0.00000000000E+00  0.00000000000E+00  0.98467064056E+03  0.98467064057E+03  0.50400001928E-02 0. -1.
        1   -1    0    0  501    0  0.00000000000E+00  0.00000000000E+00 -0.57076137312E+03  0.57076137315E+03  0.50400001928E-02 0.  1.
    10030    2    1    2    0    0  0.00000000000E+00  0.00000000000E+00  0.41390926743E+03  0.15554320137E+04  0.14993491480E+04 0.  0.
        5    1    3    3  502    0 -0.76553493723E+02 -0.56954859832E+03 -0.29244974933E+03  0.64482167235E+03  0.46999998093E+01 0.  1.
       -5    1    3    3    0  502  0.76553493723E+02  0.56954859832E+03  0.70635901676E+03  0.91061034137E+03  0.46999998093E+01 0. -1.
</event>
<event>
 5   0  0.1116613E-05  0.1500018E+04  0.7818609E-02  0.8884441E-01
        4   -1    0    0  501    0  0.00000000000E+00  0.00000000000E+00  0.11600477591E+04  0.11600484543E+04  0.12699999809E+01 0. -1.
       -4   -1    0    0    0  501  0.00000000000E+00  0.00000000000E+00 -0.48490399984E+03  0.48490566295E+03  0.12699999809E+01 0.  1.
    10030    2    1    2    0    0  0.00000000000E+00  0.00000000000E+00  0.67514375924E+03  0.16449541172E+04  0.15000183173E+04 0.  0.
        1    1    3    3  502    0 -0.10654545035E+03  0.70115228123E+03  0.60517317007E+03  0.93230950884E+03  0.50400001928E-02 0. -1.
       -1    1    3    3    0  502  0.10654545035E+03 -0.70115228123E+03  0.69970589166E+02  0.71264460837E+03  0.50400001928E-02 0.  1.
</event>
<event>
 5   0  0.2969498E-05  0.1497514E+04  0.7818609E-02  0.8886107E-01
       -2   -1    0    0    0  501  0.00000000000E+00  0.00000000000E+00  0.44943386820E+03  0.44943386820E+03  0.25500000920E-02 0. -1.
        2   -1    0    0  501    0  0.00000000000E+00  0.00000000000E+00 -0.12474302274E+04  0.12474302274E+04  0.25500000920E-02 0.  1.
    10030    2    1    2    0    0  0.00000000000E+00  0.00000000000E+00 -0.79799635921E+03  0.16968640956E+04  0.14975144639E+04 0.  0.
        3    1    3    3  502    0  0.16474437486E+03  0.61820249617E+02  0.42567286010E+03  0.46060812665E+03  0.10100000352E+00 0. -1.
       -3    1    3    3    0  502 -0.16474437486E+03 -0.61820249617E+02 -0.12236692193E+04  0.12362559690E+04  0.10100000352E+00 0.  1.
</event>
<event>
 5   0  0.1533777E-05  0.1499428E+04  0.7818609E-02  0.8884833E-01
        1   -1    0    0  501    0  0.00000000000E+00  0.00000000000E+00  0.15059563741E+04  0.15059563741E+04  0.50400001928E-02 0. -1.
       -1   -1    0    0    0  501  0.00000000000E+00  0.00000000000E+00 -0.37323189544E+03  0.37323189547E+03  0.50400001928E-02 0.  1.
    10030    2    1    2    0    0  0.00000000000E+00  0.00000000000E+00  0.11327244787E+04  0.18791882696E+04  0.14994278269E+04 0.  0.
        5    1    3    3  502    0  0.20214194978E+03  0.24895809628E+03 -0.28291433821E+03  0.42767290576E+03  0.46999998093E+01 0.  1.
       -5    1    3    3    0  502 -0.20214194978E+03 -0.24895809628E+03  0.14156388169E+04  0.14515153638E+04  0.46999998093E+01 0. -1.
</event>
<event>
 5   0  0.3018308E-05  0.1499509E+04  0.7818609E-02  0.8884779E-01
        2   -1    0    0  501    0  0.00000000000E+00  0.00000000000E+00  0.51960306233E+03  0.51960306233E+03  0.25500000920E-02 0. -1.
       -2   -1    0    0    0  501  0.00000000000E+00  0.00000000000E+00 -0.10818491659E+04  0.10818491659E+04  0.25500000920E-02 0.  1.
    10030    2    1    2    0    0  0.00000000000E+00  0.00000000000E+00 -0.56224610361E+03  0.16014522283E+04  0.14995094393E+04 0.  0.
        2    1    3    3  502    0  0.54401391874E+03  0.28996942806E+03 -0.73686419622E+03  0.96073006441E+03  0.25500000920E-02 0.  1.
       -2    1    3    3    0  502 -0.54401391874E+03 -0.28996942806E+03  0.17461809261E+03  0.64072216386E+03  0.25500000920E-02 0. -1.
</event>
<event>
 5   0  0.1576214E-05  0.1499971E+04  0.7818609E-02  0.8884472E-01
        1   -1    0    0  501    0  0.00000000000E+00  0.00000000000E+00  0.55827044377E+03  0.55827044379E+03  0.50400001928E-02 0.  1.
       -1   -1    0    0    0  501  0.00000000000E+00  0.00000000000E+00 -0.10075378587E+04  0.10075378587E+04  0.50400001928E-02 0. -1.
    10030    2    1    2    0    0  0.00000000000E+00  0.00000000000E+00 -0.44926741493E+03  0.15658083025E+04  0.14999714764E+04 0.  0.
        1    1    3    3  502    0  0.64632275174E+03  0.18673344069E+03  0.12139112626E+03  0.68362144704E+03  0.50400001928E-02 0.  1.
       -1    1    3    3    0  502 -0.64632275174E+03 -0.18673344069E+03 -0.57065854119E+03  0.88218685547E+03  0.50400001928E-02 0. -1.
</event>
<event>
 5   0  0.1116613E-05  0.1499438E+04  0.7818609E-02  0.8884826E-01
       -3   -1    0    0    0  501  0.00000000000E+00  0.00000000000E+00  0.91235056943E+03  0.91235057503E+03  0.10100000352E+00 0.  1.
        3   -1    0    0  501    0  0.00000000000E+00  0.00000000000E+00 -0.61607778722E+03  0.61607779550E+03  0.10100000352E+00 0. -1.
    10030    2    1    2    0    0  0.00000000000E+00  0.00000000000E+00  0.29627278221E+03  0.15284283705E+04  0.14994384690E+04 0.  0.
        3    1    3    3  502    0  0.17494118205E+03 -0.30708826760E+03 -0.52583624287E+03  0.63357034794E+03  0.10100000352E+00 0. -1.
       -3    1    3    3    0  502 -0.17494118205E+03  0.30708826760E+03  0.82210902508E+03  0.89485802259E+03  0.10100000352E+00 0.  1.
</event>
<event>
 5   0  0.2969498E-05  0.1499773E+04  0.7818609E-02  0.8884604E-01
       -2   -1    0    0    0  501  0.00000000000E+00  0.00000000000E+00  0.96238275003E+03  0.96238275004E+03  0.25500000920E-02 0. -1.
        2   -1    0    0  501    0  0.00000000000E+00  0.00000000000E+00 -0.58430967683E+03  0.58430967684E+03  0.25500000920E-02 0.  1.
    10030    2    1    2    0    0  0.00000000000E+00  0.00000000000E+00  0.37807307320E+03  0.15466924269E+04  0.14997727210E+04 0.  0.
        3    1    3    3  502    0 -0.24150835042E+03 -0.64198558075E+03 -0.12352567277E+03  0.69694359259E+03  0.10100000352E+00 0.  1.
       -3    1    3    3    0  502  0.24150835042E+03  0.64198558075E+03  0.50159874597E+03  0.84974883429E+03  0.10100000352E+00 0. -1.
</event>
<event>
 5   0  0.1580078E-05  0.1499840E+04  0.7818609E-02  0.8884559E-01
        1   -1    0    0  501    0  0.00000000000E+00  0.00000000000E+00  0.83248387815E+03  0.83248387817E+03  0.50400001928E-02 0. -1.
       -1   -1    0    0    0  501  0.00000000000E+00  0.00000000000E+00 -0.67554448943E+03  0.67554448945E+03  0.50400001928E-02 0.  1.
    10030    2    1    2    0    0  0.00000000000E+00  0.00000000000E+00  0.15693938872E+03  0.15080283676E+04  0.14998398534E+04 0.  0.
        2    1    3    3  502    0 -0.20707938207E+03 -0.32417673646E+03  0.72572915820E+03  0.82137399400E+03  0.25500000920E-02 0. -1.
       -2    1    3    3    0  502  0.20707938207E+03  0.32417673646E+03 -0.56878976948E+03  0.68665437362E+03  0.25500000920E-02 0.  1.
</event>
<event>
 5   0  0.1588657E-05  0.1499511E+04  0.7818609E-02  0.8884778E-01
       -1   -1    0    0    0  501  0.00000000000E+00  0.00000000000E+00  0.47068673975E+03  0.47068673978E+03  0.50400001928E-02 0. -1.
        1   -1    0    0  501    0  0.00000000000E+00  0.00000000000E+00 -0.11942838758E+04  0.11942838758E+04  0.50400001928E-02 0.  1.
    10030    2    1    2    0    0  0.00000000000E+00  0.00000000000E+00 -0.72359713600E+03  0.16649706155E+04  0.14995113655E+04 0.  0.
        3    1    3    3  502    0 -0.28521935563E+03  0.31534807653E+03 -0.10474643404E+04  0.11304760258E+04  0.10100000352E+00 0.  1.
       -3    1    3    3    0  502  0.28521935563E+03 -0.31534807653E+03  0.32386720441E+03  0.53449458977E+03  0.10100000352E+00 0. -1.
</event>
<event>
 5   0  0.1533777E-05  0.1499718E+04  0.7818609E-02  0.8884640E-01
        1   -1    0    0  501    0  0.00000000000E+00  0.00000000000E+00  0.71252067477E+03  0.71252067478E+03  0.50400001928E-02 0. -1.
       -1   -1    0    0    0  501  0.00000000000E+00  0.00000000000E+00 -0.78915434895E+03  0.78915434897E+03  0.50400001928E-02 0.  1.
    10030    2    1    2    0    0  0.00000000000E+00  0.00000000000E+00 -0.76633674188E+02  0.15016750238E+04  0.14997183592E+04 0.  0.
        5    1    3    3  502    0  0.15935544295E+03  0.15988337529E+03  0.67767542428E+03  0.71429890212E+03  0.46999998093E+01 0. -1.
       -5    1    3    3    0  502 -0.15935544295E+03 -0.15988337529E+03 -0.75430909847E+03  0.78737612164E+03  0.46999998093E+01 0.  1.
</event>
<event>
 5   0  0.1580078E-05  0.1500432E+04  0.7818609E-02  0.8884165E-01
       -1   -1    0    0    0  501  0.00000000000E+00  0.00000000000E+00  0.45544929542E+03  0.45544929544E+03  0.50400001928E-02 0. -1.
        1   -1    0    0  501    0  0.00000000000E+00  0.00000000000E+00 -0.12357563490E+04  0.12357563490E+04  0.50400001928E-02 0.  1.
    10030    2    1    2    0    0  0.00000000000E+00  0.00000000000E+00 -0.78030705356E+03  0.16912056444E+04  0.15004324156E+04 0.  0.
        2    1    3    3  502    0  0.74597880586E+02  0.73602187866E+03 -0.24968338884E+03  0.78079116563E+03  0.25500000920E-02 0. -1.
       -2    1    3    3    0  502 -0.74597880586E+02 -0.73602187866E+03 -0.53062366472E+03  0.91041447880E+03  0.25500000920E-02 0.  1.
</event>
<event>
 5   0  0.3070497E-05  0.1498679E+04  0.7818609E-02  0.8885332E-01
        2   -1    0    0  501    0  0.00000000000E+00  0.00000000000E+00  0.19235723066E+04  0.19235723066E+04  0.25500000920E-02 0. -1.
       -2   -1    0    0    0  501  0.00000000000E+00  0.00000000000E+00 -0.29190995214E+03  0.29190995215E+03  0.25500000920E-02 0.  1.
    10030    2    1    2    0    0  0.00000000000E+00  0.00000000000E+00  0.16316623544E+04  0.22154822587E+04  0.14986792852E+04 0.  0.
        4    1    3    3  502    0  0.22972914342E+03  0.56227102133E+02  0.18669475164E+04  0.18818691794E+04  0.12699999809E+01 0. -1.
       -4    1    3    3    0  502 -0.22972914342E+03 -0.56227102133E+02 -0.23528516199E+03  0.33361307934E+03  0.12699999809E+01 0.  1.
</event>
<event>
 5   0  0.1643498E-05  0.1500102E+04  0.7818609E-02  0.8884385E-01
        1   -1    0    0  501    0  0.00000000000E+00  0.00000000000E+00  0.89296596660E+03  0.89296596661E+03  0.50400001928E-02 0.  1.
       -1   -1    0    0    0  501  0.00000000000E+00  0.00000000000E+00 -0.63000848732E+03  0.63000848734E+03  0.50400001928E-02 0. -1.
    10030    2    1    2    0    0  0.00000000000E+00  0.00000000000E+00  0.26295747927E+03  0.15229744540E+04  0.15001015137E+04 0.  0.
        4    1    3    3  502    0 -0.22418099788E+03 -0.58660949219E+03 -0.28490487026E+03  0.68959423876E+03  0.12699999809E+01 0. -1.
       -4    1    3    3    0  502  0.22418099788E+03  0.58660949219E+03  0.54786234953E+03  0.83338021519E+03  0.12699999809E+01 0.  1.
</event>
<event>
 5   0  0.1533777E-05  0.1500072E+04  0.7818609E-02  0.8884405E-01
        1   -1    0    0  501    0  0.00000000000E+00  0.00000000000E+00  0.93395081783E+03  0.93395081785E+03  0.50400001928E-02 0. -1.
       -1   -1    0    0    0  501  0.00000000000E+00  0.00000000000E+00 -0.60233812791E+03  0.60233812793E+03  0.50400001928E-02 0.  1.
    10030    2    1    2    0    0  0.00000000000E+00  0.00000000000E+00  0.33161268992E+03  0.15362889458E+04  0.15000722479E+04 0.  0.
        5    1    3    3  502    0  0.61412311725E+03 -0.41984421931E+03  0.68024922605E+02  0.74703805240E+03  0.46999998093E+01 0.  1.
       -5    1    3    3    0  502 -0.61412311725E+03  0.41984421931E+03  0.26358776731E+03  0.78925089338E+03  0.46999998093E+01 0. -1.
</event>
<event>
 5   0  0.1580078E-05  0.1500022E+04  0.7818609E-02  0.8884438E-01
        1   -1    0    0  501    0  0.00000000000E+00  0.00000000000E+00  0.62773789328E+03  0.62773789330E+03  0.50400001928E-02 0. -1.
       -1   -1    0    0    0  501  0.00000000000E+00  0.00000000000E+00 -0.89610146735E+03  0.89610146736E+03  0.50400001928E-02 0.  1.
    10030    2    1    2    0    0  0.00000000000E+00  0.00000000000E+00 -0.26836357407E+03  0.15238393607E+04  0.15000224629E+04 0.  0.
        2    1    3    3  502    0  0.47414113043E+03  0.57381894141E+03 -0.22750362197E+03  0.77835460241E+03  0.25500000920E-02 0.  1.
       -2    1    3    3    0  502 -0.47414113043E+03 -0.57381894141E+03 -0.40859952100E+02  0.74548475824E+03  0.25500000920E-02 0. -1.
</event>
<event>
 5   0  0.3093600E-05  0.1502521E+04  0.7818609E-02  0.8882778E-01
       -2   -1    0    0    0  501  0.00000000000E+00  0.00000000000E+00  0.88160487623E+03  0.88160487624E+03  0.25500000920E-02 0. -1.
        2   -1    0    0  501    0  0.00000000000E+00  0.00000000000E+00 -0.64018719103E+03  0.64018719103E+03  0.25500000920E-02 0.  1.
    10030    2    1    2    0    0  0.00000000000E+00  0.00000000000E+00  0.24141768521E+03  0.15217920673E+04  0.15025207477E+04 0.  0.
        1    1    3    3  502    0 -0.48821764212E+03 -0.29351028107E+03  0.61677380701E+03  0.83959197245E+03  0.50400001928E-02 0. -1.
       -1    1    3    3    0  502  0.48821764212E+03  0.29351028107E+03 -0.37535612180E+03  0.68220009482E+03  0.50400001928E-02 0.  1.
</event>
<event>
 5   0  0.2969498E-05  0.1503034E+04  0.7818609E-02  0.8882438E-01
        2   -1    0    0  501    0  0.00000000000E+00  0.00000000000E+00  0.61400527459E+03  0.61400527460E+03  0.25500000920E-02 0. -1.
       -2   -1    0    0    0  501  0.00000000000E+00  0.00000000000E+00 -0.91982533952E+03  0.91982533952E+03  0.25500000920E-02 0.  1.
    10030    2    1    2    0    0  0.00000000000E+00  0.00000000000E+00 -0.30582006493E+03  0.15338306141E+04  0.15030337457E+04 0.  0.
        3    1    3    3  502    0 -0.37319576301E+03  0.17086819040E+03 -0.79533781476E+03  0.89500461776E+03  0.10100000352E+00 0.  1.
       -3    1    3    3    0  502  0.37319576301E+03 -0.17086819040E+03  0.48951774984E+03  0.63882599636E+03  0.10100000352E+00 0. -1.
</event>
<event>
 5   0  0.2969498E-05  0.1500447E+04  0.7818609E-02  0.8884156E-01
       -2   -1    0    0    0  501  0.00000000000E+00  0.00000000000E+00  0.53837869445E+03  0.53837869446E+03  0.25500000920E-02 0.  1.
        2   -1    0    0  501    0  0.00000000000E+00  0.00000000000E+00 -0.10454264855E+04  0.10454264855E+04  0.25500000920E-02 0. -1.
    10030    2    1    2    0    0  0.00000000000E+00  0.00000000000E+00 -0.50704779105E+03  0.15838051800E+04  0.15004470619E+04 0.  0.
        3    1    3    3  502    0 -0.33907695967E+03 -0.66634740222E+03 -0.18808548725E+03  0.77095279086E+03  0.10100000352E+00 0.  1.
       -3    1    3    3    0  502  0.33907695967E+03  0.66634740222E+03 -0.31896230381E+03  0.81285238911E+03  0.10100000352E+00 0. -1.
</event>
<event>
 5   0  0.1643498E-05  0.1499643E+04  0.7818609E-02  0.8884691E-01
       -1   -1    0    0    0  501  0.00000000000E+00  0.00000000000E+00  0.96881900519E+03  0.96881900520E+03  0.50400001928E-02 0. -1.
        1   -1    0    0  501    0  0.00000000000E+00  0.00000000000E+00 -0.58032728565E+03  0.58032728567E+03  0.50400001928E-02 0.  1.
    10030    2    1    2    0    0  0.00000000000E+00  0.00000000000E+00  0.38849171954E+03  0.15491462909E+04  0.14996427623E+04 0.  0.
        4    1    3    3  502    0  0.52724686379E+02 -0.61978205534E+03 -0.23828922435E+03  0.66610288696E+03  0.12699999809E+01 0.  1.
       -4    1    3    3    0  502 -0.52724686379E+02  0.61978205534E+03  0.62678094389E+03  0.88304340391E+03  0.12699999809E+01 0. -1.
</event>
<event>
 5   0  0.3093600E-05  0.1500083E+04  0.7818609E-02  0.8884397E-01
        2   -1    0    0  501    0  0.00000000000E+00  0.00000000000E+00  0.17900586531E+04  0.17900586531E+04  0.25500000920E-02 0. -1.
       -2   -1    0    0    0  501  0.00000000000E+00  0.00000000000E+00 -0.31427043995E+03  0.31427043996E+03  0.25500000920E-02 0.  1.
    10030    2    1    2    0    0  0.00000000000E+00  0.00000000000E+00  0.14757882131E+04  0.21043290930E+04  0.15000833583E+04 0.  0.
        1    1    3    3  502    0  0.55074284934E+01 -0.58106574338E+03  0.14031488259E+04  0.15187147058E+04  0.50400001928E-02 0. -1.
       -1    1    3    3    0  502 -0.55074284934E+01  0.58106574338E+03  0.72639387173E+02  0.58561438720E+03  0.50400001928E-02 0.  1.
</event>
<event>
 5   0  0.1580078E-05  0.1500973E+04  0.7818609E-02  0.8883806E-01
        1   -1    0    0  501    0  0.00000000000E+00  0.00000000000E+00  0.83060878813E+03  0.83060878815E+03  0.50400001928E-02 0.  1.
       -1   -1    0    0    0  501  0.00000000000E+00  0.00000000000E+00 -0.67809338878E+03  0.67809338880E+03  0.50400001928E-02 0. -1.
    10030    2    1    2    0    0  0.00000000000E+00  0.00000000000E+00  0.15251539936E+03  0.15087021769E+04  0.15009734547E+04 0.  0.
        2    1    3    3  502    0  0.71690729039E+02  0.74705030163E+03  0.73672664411E+02  0.75408976606E+03  0.25500000920E-02 0. -1.
       -2    1    3    3    0  502 -0.71690729039E+02 -0.74705030163E+03  0.78842734945E+02  0.75461241088E+03  0.25500000920E-02 0.  1.
</event>
<event>
 5   0  0.1576214E-05  0.1499265E+04  0.7818609E-02  0.8884942E-01
       -1   -1    0    0    0  501  0.00000000000E+00  0.00000000000E+00  0.41683330924E+03  0.41683330927E+03  0.50400001928E-02 0. -1.
        1   -1    0    0  501    0  0.00000000000E+00  0.00000000000E+00 -0.13481376649E+04  0.13481376649E+04  0.50400001928E-02 0.  1.
    10030    2    1    2    0    0  0.00000000000E+00  0.00000000000E+00 -0.93130435565E+03  0.17649709742E+04  0.14992647321E+04 0.  0.
        1    1    3    3  502    0 -0.42056017150E+03 -0.53812038342E+03 -0.82945884887E+03  0.10744516680E+04  0.50400001928E-02 0.  1.
       -1    1    3    3    0  502  0.42056017150E+03  0.53812038342E+03 -0.10184550678E+03  0.69051930616E+03  0.50400001928E-02 0. -1.
</event>
<event>
 5   0  0.1533777E-05  0.1500186E+04  0.7818609E-02  0.8884329E-01
        1   -1    0    0  501    0  0.00000000000E+00  0.00000000000E+00  0.12416853040E+04  0.12416853040E+04  0.50400001928E-02 0. -1.
       -1   -1    0    0    0  501  0.00000000000E+00  0.00000000000E+00 -0.45312588658E+03  0.45312588661E+03  0.50400001928E-02 0.  1.
    10030    2    1    2    0    0  0.00000000000E+00  0.00000000000E+00  0.78855941743E+03  0.16948111906E+04  0.15001863274E+04 0.  0.
        5    1    3    3  502    0 -0.50947197296E+03 -0.29298445678E+03  0.92080847942E+03  0.10923881768E+04  0.46999998093E+01 0.  1.
       -5    1    3    3    0  502  0.50947197296E+03  0.29298445678E+03 -0.13224906199E+03  0.60242301378E+03  0.46999998093E+01 0. -1.
</event>
<event>
 5   0  0.3018308E-05  0.1500182E+04  0.7818609E-02  0.8884332E-01
        2   -1    0    0  501    0  0.00000000000E+00  0.00000000000E+00  0.10869810554E+04  0.10869810554E+04  0.25500000920E-02 0.  1.
       -2   -1    0    0    0  501  0.00000000000E+00  0.00000000000E+00 -0.51761371482E+03  0.51761371482E+03  0.25500000920E-02 0. -1.
    10030    2    1    2    0    0  0.00000000000E+00  0.00000000000E+00  0.56936734057E+03  0.16045947702E+04  0.15001817250E+04 0.  0.
        2    1    3    3  502    0 -0.45413164508E+02  0.69269912341E+03  0.58861180592E+03  0.91014190605E+03  0.25500000920E-02 0.  1.
       -2    1    3    3    0  502  0.45413164508E+02 -0.69269912341E+03 -0.19244465348E+02  0.69445286416E+03  0.25500000920E-02 0. -1.
</event>
<event>
 5   0  0.3093600E-05  0.1500148E+04  0.7818609E-02  0.8884355E-01
       -2   -1    0    0    0  501  0.00000000000E+00  0.00000000000E+00  0.36742566630E+03  0.36742566631E+03  0.25500000920E-02 0. -1.
        2   -1    0    0  501    0  0.00000000000E+00  0.00000000000E+00 -0.15312238731E+04  0.15312238731E+04  0.25500000920E-02 0.  1.
    10030    2    1    2    0    0  0.00000000000E+00  0.00000000000E+00 -0.11637982068E+04  0.18986495394E+04  0.15001479285E+04 0.  0.
        1    1    3    3  502    0 -0.68976448740E+03 -0.29080533046E+03 -0.64217558598E+03  0.98627190549E+03  0.50400001928E-02 0.  1.
       -1    1    3    3    0  502  0.68976448740E+03  0.29080533046E+03 -0.52162262083E+03  0.91237763393E+03  0.50400001928E-02 0. -1.
</event>
<event>
 5   0  0.3030702E-05  0.1500970E+04  0.7818609E-02  0.8883808E-01
        2   -1    0    0  501    0  0.00000000000E+00  0.00000000000E+00  0.12089510345E+04  0.12089510345E+04  0.25500000920E-02 0. -1.
       -2   -1    0    0    0  501  0.00000000000E+00  0.00000000000E+00 -0.46588144888E+03  0.46588144888E+03  0.25500000920E-02 0.  1.
    10030    2    1    2    0    0  0.00000000000E+00  0.00000000000E+00  0.74306958564E+03  0.16748324834E+04  0.15009701657E+04 0.  0.
        5    1    3    3  502    0 -0.66110161846E+03 -0.16049484195E+03  0.72508287916E+03  0.99427421563E+03  0.46999998093E+01 0. -1.
       -5    1    3    3    0  502  0.66110161846E+03  0.16049484195E+03  0.17986706481E+02  0.68055826777E+03  0.46999998093E+01 0.  1.
</event>
<event>
 5   0  0.1116613E-05  0.1500043E+04  0.7818609E-02  0.8884424E-01
       -3   -1    0    0    0  501  0.00000000000E+00  0.00000000000E+00  0.27590602965E+03  0.27590604814E+03  0.10100000352E+00 0.  1.
        3   -1    0    0  501    0  0.00000000000E+00  0.00000000000E+00 -0.20388540948E+04  0.20388540973E+04  0.10100000352E+00 0. -1.
    10030    2    1    2    0    0  0.00000000000E+00  0.00000000000E+00 -0.17629480651E+04  0.23147601454E+04  0.15000428829E+04 0.  0.
        4    1    3    3  502    0 -0.55557257199E+03 -0.49990908206E+03 -0.78436010183E+03  0.10834169813E+04  0.12699999809E+01 0.  1.
       -4    1    3    3    0  502  0.55557257199E+03  0.49990908206E+03 -0.97858796330E+03  0.12313431641E+04  0.12699999809E+01 0. -1.
</event>
<event>
 5   0  0.1116613E-05  0.1500061E+04  0.7818609E-02  0.8884413E-01
        4   -1    0    0  501    0  0.00000000000E+00  0.00000000000E+00  0.24800206057E+03  0.24800531234E+03  0.12699999809E+01 0.  1.
       -4   -1    0    0    0  501  0.00000000000E+00  0.00000000000E+00 -0.22682912172E+04  0.22682915727E+04  0.12699999809E+01 0. -1.
    10030    2    1    2    0    0  0.00000000000E+00  0.00000000000E+00 -0.20202891566E+04  0.25162968851E+04  0.15000605779E+04 0.  0.
        5    1    3    3  502    0 -0.60162974811E+03 -0.20381094475E+03 -0.16790847415E+04  0.17952283738E+04  0.46999998093E+01 0. -1.
       -5    1    3    3    0  502  0.60162974811E+03  0.20381094475E+03 -0.34120441512E+03  0.72106851125E+03  0.46999998093E+01 0.  1.
</event>
<event>
 5   0  0.3070497E-05  0.1499802E+04  0.7818609E-02  0.8884585E-01
       -2   -1    0    0    0  501  0.00000000000E+00  0.00000000000E+00  0.12305565699E+04  0.12305565699E+04  0.25500000920E-02 0.  1.
        2   -1    0    0  501    0  0.00000000000E+00  0.00000000000E+00 -0.45698952310E+03  0.45698952310E+03  0.25500000920E-02 0. -1.
    10030    2    1    2    0    0  0.00000000000E+00  0.00000000000E+00  0.77356704678E+03  0.16875460930E+04  0.14998019336E+04 0.  0.
        4    1    3    3  502    0 -0.62854881360E+03  0.39766271178E+03  0.49435798338E+03  0.89308491872E+03  0.12699999809E+01 0. -1.
       -4    1    3    3    0  502  0.62854881360E+03 -0.39766271178E+03  0.27920906340E+03  0.79446117426E+03  0.12699999809E+01 0.  1.
</event>
<event>
 5   0  0.3093600E-05  0.1499886E+04  0.7818609E-02  0.8884528E-01
       -2   -1    0    0    0  501  0.00000000000E+00  0.00000000000E+00  0.28969700486E+03  0.28969700487E+03  0.25500000920E-02 0. -1.
        2   -1    0    0  501    0  0.00000000000E+00  0.00000000000E+00 -0.19413899787E+04  0.19413899787E+04  0.25500000920E-02 0.  1.
    10030    2    1    2    0    0  0.00000000000E+00  0.00000000000E+00 -0.16516929738E+04  0.22310869836E+04  0.14998864785E+04 0.  0.
        1    1    3    3  502    0 -0.48973494274E+03 -0.56788226333E+03 -0.83950262629E+03  0.11256532498E+04  0.50400001928E-02 0.  1.
       -1    1    3    3    0  502  0.48973494274E+03  0.56788226333E+03 -0.81219034756E+03  0.11054337338E+04  0.50400001928E-02 0. -1.
</event>
<event>
 5   0  0.1576214E-05  0.1502689E+04  0.7818609E-02  0.8882667E-01
       -1   -1    0    0    0  501  0.00000000000E+00  0.00000000000E+00  0.92942917333E+03  0.92942917335E+03  0.50400001928E-02 0.  1.
        1   -1    0    0  501    0  0.00000000000E+00  0.00000000000E+00 -0.60738189730E+03  0.60738189733E+03  0.50400001928E-02 0. -1.
    10030    2    1    2    0    0  0.00000000000E+00  0.00000000000E+00  0.32204727603E+03  0.15368110707E+04  0.15026888630E+04 0.  0.
        1    1    3    3  502    0  0.24821340139E+03  0.23728255605E+02 -0.56383394169E+03  0.61650761274E+03  0.50400001928E-02 0. -1.
       -1    1    3    3    0  502 -0.24821340139E+03 -0.23728255605E+02  0.88588121772E+03  0.92030345793E+03  0.50400001928E-02 0.  1.
</event>
<event>
 5   0  0.1533777E-05  0.1503375E+04  0.7818609E-02  0.8882212E-01
       -1   -1    0    0    0  501  0.00000000000E+00  0.00000000000E+00  0.32417087421E+03  0.32417087425E+03  0.50400001928E-02 0.  1.
        1   -1    0    0  501    0  0.00000000000E+00  0.00000000000E+00 -0.17430130844E+04  0.17430130844E+04  0.50400001928E-02 0. -1.
    10030    2    1    2    0    0  0.00000000000E+00  0.00000000000E+00 -0.14188422102E+04  0.20671839587E+04  0.15033749704E+04 0.  0.
        5    1    3    3  502    0  0.16493596010E+03  0.64899550831E+03 -0.23986748648E+03  0.71130692518E+03  0.46999998093E+01 0.  1.
       -5    1    3    3    0  502 -0.16493596010E+03 -0.64899550831E+03 -0.11789747237E+04  0.13558770335E+04  0.46999998093E+01 0. -1.
</event>
<event>
 5   0  0.3030702E-05  0.1500635E+04  0.7818609E-02  0.8884031E-01
       -2   -1    0    0    0  501  0.00000000000E+00  0.00000000000E+00  0.38367693562E+03  0.38367693563E+03  0.25500000920E-02 0. -1.
        2   -1    0    0  501    0  0.00000000000E+00  0.00000000000E+00 -0.14673183670E+04  0.14673183670E+04  0.25500000920E-02 0.  1.
    10030    2    1    2    0    0  0.00000000000E+00  0.00000000000E+00 -0.10836414314E+04  0.18509953027E+04  0.15006348185E+04 0.  0.
        5    1    3    3  502    0  0.44429179324E+03  0.60460470139E+03 -0.54610820240E+03  0.92800770536E+03  0.46999998093E+01 0.  1.
       -5    1    3    3    0  502 -0.44429179324E+03 -0.60460470139E+03 -0.53753322901E+03  0.92298759730E+03  0.46999998093E+01 0. -1.
</event>
<event>
 5   0  0.3030702E-05  0.1499642E+04  0.7818609E-02  0.8884691E-01
       -2   -1    0    0    0  501  0.00000000000E+00  0.00000000000E+00  0.39693588698E+03  0.39693588699E+03  0.25500000920E-02 0.  1.
        2   -1    0    0  501    0  0.00000000000E+00  0.00000000000E+00 -0.14164285346E+04  0.14164285346E+04  0.25500000920E-02 0. -1.
    10030    2    1    2    0    0  0.00000000000E+00  0.00000000000E+00 -0.10194926476E+04  0.18133644216E+04  0.14996417128E+04 0.  0.
        5    1    3    3  502    0 -0.40667808028E+03  0.12609178046E+03  0.23655840423E+03  0.48710180321E+03  0.46999998093E+01 0.  1.
       -5    1    3    3    0  502  0.40667808028E+03 -0.12609178046E+03 -0.12560510518E+04  0.13262626184E+04  0.46999998093E+01 0. -1.
</event>
<event>
 5   0  0.3030702E-05  0.1501335E+04  0.7818609E-02  0.8883566E-01
       -2   -1    0    0    0  501  0.00000000000E+00  0.00000000000E+00  0.52492427319E+03  0.52492427319E+03  0.25500000920E-02 0. -1.
        2   -1    0    0  501    0  0.00000000000E+00  0.00000000000E+00 -0.10734908531E+04  0.10734908531E+04  0.25500000920E-02 0.  1.
    10030    2    1    2    0    0  0.00000000000E+00  0.00000000000E+00 -0.54856657990E+03  0.15984151263E+04  0.15013346141E+04 0.  0.
        5    1    3    3  502    0 -0.35995191452E+03 -0.11452445693E+03  0.41635230827E+03  0.56218552685E+03  0.46999998093E+01 0. -1.
       -5    1    3    3    0  502  0.35995191452E+03  0.11452445693E+03 -0.96491888817E+03  0.10362295994E+04  0.46999998093E+01 0.  1.
</event>
<event>
 5   0  0.3070497E-05  0.1500508E+04  0.7818609E-02  0.8884115E-01
       -2   -1    0    0    0  501  0.00000000000E+00  0.00000000000E+00  0.68303498329E+03  0.68303498329E+03  0.25500000920E-02 0.  1.
        2   -1    0    0  501    0  0.00000000000E+00  0.00000000000E+00 -0.82408786086E+03  0.82408786086E+03  0.25500000920E-02 0. -1.
    10030    2    1    2    0    0  0.00000000000E+00  0.00000000000E+00 -0.14105287757E+03  0.15071228442E+04  0.15005076984E+04 0.  0.
        4    1    3    3  502    0 -0.50702261787E+03 -0.52615486679E+03  0.10042481015E+03  0.73756195284E+03  0.12699999809E+01 0.  1.
       -4    1    3    3    0  502  0.50702261787E+03  0.52615486679E+03 -0.24147768772E+03  0.76956089132E+03  0.12699999809E+01 0. -1.
</event>
<event>
 5   0  0.3070497E-05  0.1499845E+04  0.7818609E-02  0.8884556E-01
        2   -1    0    0  501    0  0.00000000000E+00  0.00000000000E+00  0.17797040336E+04  0.17797040337E+04  0.25500000920E-02 0.  1.
       -2   -1    0    0    0  501  0.00000000000E+00  0.00000000000E+00 -0.31599849240E+03  0.31599849241E+03  0.25500000920E-02 0. -1.
    10030    2    1    2    0    0  0.00000000000E+00  0.00000000000E+00  0.14637055412E+04  0.20957025261E+04  0.14998450474E+04 0.  0.
        4    1    3    3  502    0  0.67964592237E+03 -0.23105093365E+03  0.42867513779E+03  0.83610232651E+03  0.12699999809E+01 0. -1.
       -4    1    3    3    0  502 -0.67964592237E+03  0.23105093365E+03  0.10350304035E+04  0.12596001996E+04  0.12699999809E+01 0.  1.
</event>
<event>
 5   0  0.1533777E-05  0.1498916E+04  0.7818609E-02  0.8885174E-01
        1   -1    0    0  501    0  0.00000000000E+00  0.00000000000E+00  0.39560635659E+03  0.39560635662E+03  0.50400001928E-02 0. -1.
       -1   -1    0    0    0  501  0.00000000000E+00  0.00000000000E+00 -0.14198141324E+04  0.14198141324E+04  0.50400001928E-02 0.  1.
    10030    2    1    2    0    0  0.00000000000E+00  0.00000000000E+00 -0.10242077758E+04  0.18154204891E+04  0.14989162698E+04 0.  0.
        5    1    3    3  502    0  0.71767465041E+03 -0.10380806108E+03 -0.28283889892E+03  0.77836556330E+03  0.46999998093E+01 0. -1.
       -5    1    3    3    0  502 -0.71767465041E+03  0.10380806108E+03 -0.74136887692E+03  0.10370549258E+04  0.46999998093E+01 0.  1.
</event>
<event>
 5   0  0.2969498E-05  0.1500108E+04  0.7818609E-02  0.8884381E-01
       -2   -1    0    0    0  501  0.00000000000E+00  0.00000000000E+00  0.11740907341E+04  0.11740907341E+04  0.25500000920E-02 0.  1.
        2   -1    0    0  501    0  0.00000000000E+00  0.00000000000E+00 -0.47916327094E+03  0.47916327095E+03  0.25500000920E-02 0. -1.
    10030    2    1    2    0    0  0.00000000000E+00  0.00000000000E+00  0.69492746316E+03  0.16532540051E+04  0.15001082048E+04 0.  0.
        3    1    3    3  502    0  0.43618467696E+03  0.26152495945E+03 -0.26011547572E+03  0.57123764559E+03  0.10100000352E+00 0. -1.
       -3    1    3    3    0  502 -0.43618467696E+03 -0.26152495945E+03  0.95504293888E+03  0.10820163595E+04  0.10100000352E+00 0.  1.
</event>
<event>
 5   0  0.3018308E-05  0.1498274E+04  0.7818609E-02  0.8885601E-01
        2   -1    0    0  501    0  0.00000000000E+00  0.00000000000E+00  0.82316011175E+03  0.82316011175E+03  0.25500000920E-02 0. -1.
       -2   -1    0    0    0  501  0.00000000000E+00  0.00000000000E+00 -0.68177074640E+03  0.68177074640E+03  0.25500000920E-02 0.  1.
    10030    2    1    2    0    0  0.00000000000E+00  0.00000000000E+00  0.14138936535E+03  0.15049308582E+04  0.14982743191E+04 0.  0.
        2    1    3    3  502    0  0.16520685235E+03 -0.46301516268E+03  0.63847603623E+03  0.80580890649E+03  0.25500000920E-02 0. -1.
       -2    1    3    3    0  502 -0.16520685235E+03  0.46301516268E+03 -0.49708667088E+03  0.69912195167E+03  0.25500000920E-02 0.  1.
</event>
<event>
 5   0  0.1588657E-05  0.1500288E+04  0.7818609E-02  0.8884261E-01
       -1   -1    0    0    0  501  0.00000000000E+00  0.00000000000E+00  0.95570516578E+03  0.95570516580E+03  0.50400001928E-02 0.  1.
        1   -1    0    0  501    0  0.00000000000E+00  0.00000000000E+00 -0.58879665721E+03  0.58879665723E+03  0.50400001928E-02 0. -1.
    10030    2    1    2    0    0  0.00000000000E+00  0.00000000000E+00  0.36690850857E+03  0.15445018230E+04  0.15002879816E+04 0.  0.
        3    1    3    3  502    0  0.31343696231E+03  0.83066905218E+02  0.87983068606E+03  0.93768058869E+03  0.10100000352E+00 0.  1.
       -3    1    3    3    0  502 -0.31343696231E+03 -0.83066905218E+02 -0.51292217748E+03  0.60682123434E+03  0.10100000352E+00 0. -1.
</event>
<event>
 5   0  0.3030702E-05  0.1500882E+04  0.7818609E-02  0.8883867E-01
       -2   -1    0    0    0  501  0.00000000000E+00  0.00000000000E+00  0.18683221565E+04  0.18683221565E+04  0.25500000920E-02 0. -1.
        2   -1    0    0  501    0  0.00000000000E+00  0.00000000000E+00 -0.30142642092E+03  0.30142642094E+03  0.25500000920E-02 0.  1.
    10030    2    1    2    0    0  0.00000000000E+00  0.00000000000E+00  0.15668957356E+04  0.21697485775E+04  0.15008819551E+04 0.  0.
        5    1    3    3  502    0  0.31226326494E+03  0.40651094111E+03  0.15757638925E+04  0.16570496150E+04  0.46999998093E+01 0. -1.
       -5    1    3    3    0  502 -0.31226326494E+03 -0.40651094111E+03 -0.88681568612E+01  0.51269896244E+03  0.46999998093E+01 0.  1.
</event>
<event>
 5   0  0.3018308E-05  0.1500896E+04  0.7818609E-02  0.8883857E-01
        2   -1    0    0  501    0  0.00000000000E+00  0.00000000000E+00  0.84483033998E+03  0.84483033999E+03  0.25500000920E-02 0.  1.
       -2   -1    0    0    0  501  0.00000000000E+00  0.00000000000E+00 -0.66660974350E+03  0.66660974350E+03  0.25500000920E-02 0. -1.
    10030    2    1    2    0    0  0.00000000000E+00  0.00000000000E+00  0.17822059648E+03  0.15114400835E+04  0.15008959141E+04 0.  0.
        2    1    3    3  502    0 -0.63782620224E+03 -0.30181082025E+03 -0.16814494212E+03  0.72538593662E+03  0.25500000920E-02 0.  1.
       -2    1    3    3    0  502  0.63782620224E+03  0.30181082025E+03  0.34636553860E+03  0.78605414687E+03  0.25500000920E-02 0. -1.
</event>
<event>
 5   0  0.1576214E-05  0.1494857E+04  0.7818609E-02  0.8887880E-01
        1   -1    0    0  501    0  0.00000000000E+00  0.00000000000E+00  0.10624729662E+04  0.10624729662E+04  0.50400001928E-02 0. -1.
       -1   -1    0    0    0  501  0.00000000000E+00  0.00000000000E+00 -0.52580072059E+03  0.52580072061E+03  0.50400001928E-02 0.  1.
    10030    2    1    2    0    0  0.00000000000E+00  0.00000000000E+00  0.53667224559E+03  0.15882736868E+04  0.14948565834E+04 0.  0.
        1    1    3    3  502    0  0.33099987373E+03  0.60475683589E+03 -0.38423110145E+02  0.69048394796E+03  0.50400001928E-02 0.  1.
       -1    1    3    3    0  502 -0.33099987373E+03 -0.60475683589E+03  0.57509535574E+03  0.89778973885E+03  0.50400001928E-02 0. -1.
</event>
<event>
 5   0  0.3030702E-05  0.1500223E+04  0.7818609E-02  0.8884304E-01
       -2   -1    0    0    0  501  0.00000000000E+00  0.00000000000E+00  0.55479038030E+03  0.55479038031E+03  0.25500000920E-02 0. -1.
        2   -1    0    0  501    0  0.00000000000E+00  0.00000000000E+00 -0.10141984931E+04  0.10141984931E+04  0.25500000920E-02 0.  1.
    10030    2    1    2    0    0  0.00000000000E+00  0.00000000000E+00 -0.45940811278E+03  0.15689888734E+04  0.15002234069E+04 0.  0.
        5    1    3    3  502    0  0.59043156378E+03 -0.47384747084E+02  0.25159765087E+03  0.64356679039E+03  0.46999998093E+01 0. -1.
       -5    1    3    3    0  502 -0.59043156378E+03  0.47384747084E+02 -0.71100576365E+03  0.92542208301E+03  0.46999998093E+01 0.  1.
</event>
<event>
 5   0  0.1116613E-05  0.1492843E+04  0.7818609E-02  0.8889226E-01
       -4   -1    0    0    0  501  0.00000000000E+00  0.00000000000E+00  0.43426462946E+03  0.43426648650E+03  0.12699999809E+01 0.  1.
        4   -1    0    0  501    0  0.00000000000E+00  0.00000000000E+00 -0.12829571152E+04  0.12829577438E+04  0.12699999809E+01 0. -1.
    10030    2    1    2    0    0  0.00000000000E+00  0.00000000000E+00 -0.84869248575E+03  0.17172242303E+04  0.14928429662E+04 0.  0.
        4    1    3    3  502    0 -0.51203584939E+03 -0.50563531135E+03 -0.65237260356E+03  0.97130809011E+03  0.12699999809E+01 0.  1.
       -4    1    3    3    0  502  0.51203584939E+03  0.50563531135E+03 -0.19631988219E+03  0.74591614018E+03  0.12699999809E+01 0. -1.
</event>
<event>
 5   0  0.2969498E-05  0.1500059E+04  0.7818609E-02  0.8884414E-01
       -2   -1    0    0    0  501  0.00000000000E+00  0.00000000000E+00  0.61295329439E+03  0.61295329439E+03  0.25500000920E-02 0. -1.
        2   -1    0    0  501    0  0.00000000000E+00  0.00000000000E+00 -0.91775988128E+03  0.91775988128E+03  0.25500000920E-02 0.  1.
    10030    2    1    2    0    0  0.00000000000E+00  0.00000000000E+00 -0.30480658689E+03  0.15307131757E+04  0.15000585891E+04 0.  0.
        3    1    3    3  502    0  0.12198382154E+03 -0.31712708628E+03  0.52991208620E+03  0.62948905540E+03  0.10100000352E+00 0. -1.
       -3    1    3    3    0  502 -0.12198382154E+03  0.31712708628E+03 -0.83471867309E+03  0.90122412028E+03  0.10100000352E+00 0.  1.
</event>
<event>
 5   0  0.1580078E-05  0.1500149E+04  0.7818609E-02  0.8884354E-01
       -1   -1    0    0    0  501  0.00000000000E+00  0.00000000000E+00  0.11510829002E+04  0.11510829002E+04  0.50400001928E-02 0. -1.
        1   -1    0    0  501    0  0.00000000000E+00  0.00000000000E+00 -0.48876718187E+03  0.48876718190E+03  0.50400001928E-02 0.  1.
    10030    2    1    2    0    0  0.00000000000E+00  0.00000000000E+00  0.66231571830E+03  0.16398500821E+04  0.15001487196E+04 0.  0.
        2    1    3    3  502    0  0.21397428440E+03  0.39366429411E+03  0.98872045895E+03  0.10855066636E+04  0.25500000920E-02 0. -1.
       -2    1    3    3    0  502 -0.21397428440E+03 -0.39366429411E+03 -0.32640474066E+03  0.55434341844E+03  0.25500000920E-02 0.  1.
</event>
<event>
 5   0  0.1533777E-05  0.1499282E+04  0.7818609E-02  0.8884931E-01
       -1   -1    0    0    0  501  0.00000000000E+00  0.00000000000E+00  0.47980175692E+03  0.47980175695E+03  0.50400001928E-02 0.  1.
        1   -1    0    0  501    0  0.00000000000E+00  0.00000000000E+00 -0.11712363802E+04  0.11712363802E+04  0.50400001928E-02 0. -1.
    10030    2    1    2    0    0  0.00000000000E+00  0.00000000000E+00 -0.69143462327E+03  0.16510381372E+04  0.14992815253E+04 0.  0.
        5    1    3    3  502    0  0.19866312302E+03 -0.63495355821E+03 -0.72608646216E+03  0.98481302695E+03  0.46999998093E+01 0. -1.
       -5    1    3    3    0  502 -0.19866312302E+03  0.63495355821E+03  0.34651838885E+02  0.66622511020E+03  0.46999998093E+01 0.  1.
</event>
<event>
 5   0  0.3018308E-05  0.1502165E+04  0.7818609E-02  0.8883014E-01
       -2   -1    0    0    0  501  0.00000000000E+00  0.00000000000E+00  0.11346060204E+04  0.11346060204E+04  0.25500000920E-02 0.  1.
        2   -1    0    0  501    0  0.00000000000E+00  0.00000000000E+00 -0.49719918527E+03  0.49719918528E+03  0.25500000920E-02 0. -1.
    10030    2    1    2    0    0  0.00000000000E+00  0.00000000000E+00  0.63740683511E+03  0.16318052057E+04  0.15021653557E+04 0.  0.
        2    1    3    3  502    0  0.24386327180E+03  0.22572837419E+03 -0.41300188797E+03  0.53008787359E+03  0.25500000920E-02 0. -1.
       -2    1    3    3    0  502 -0.24386327180E+03 -0.22572837419E+03  0.10504087231E+04  0.11017173321E+04  0.25500000920E-02 0.  1.
</event>
<event>
 5   0  0.3093600E-05  0.1499719E+04  0.7818609E-02  0.8884639E-01
        2   -1    0    0  501    0  0.00000000000E+00  0.00000000000E+00  0.16552411686E+04  0.16552411686E+04  0.25500000920E-02 0.  1.
       -2   -1    0    0    0  501  0.00000000000E+00  0.00000000000E+00 -0.33970253345E+03  0.33970253346E+03  0.25500000920E-02 0. -1.
    10030    2    1    2    0    0  0.00000000000E+00  0.00000000000E+00  0.13155386352E+04  0.19949437021E+04  0.14997194651E+04 0.  0.
        1    1    3    3  502    0  0.36725097727E+03  0.29787658410E+03 -0.11637006317E+03  0.48697610957E+03  0.50400001928E-02 0. -1.
       -1    1    3    3    0  502 -0.36725097727E+03 -0.29787658410E+03  0.14319086983E+04  0.15079675925E+04  0.50400001928E-02 0.  1.
</event>
<event>
 5   0  0.1580078E-05  0.1499563E+04  0.7818609E-02  0.8884744E-01
        1   -1    0    0  501    0  0.00000000000E+00  0.00000000000E+00  0.63411271565E+03  0.63411271567E+03  0.50400001928E-02 0.  1.
       -1   -1    0    0    0  501  0.00000000000E+00  0.00000000000E+00 -0.88654926797E+03  0.88654926799E+03  0.50400001928E-02 0. -1.
    10030    2    1    2    0    0  0.00000000000E+00  0.00000000000E+00 -0.25243655233E+03  0.15206619837E+04  0.14995628215E+04 0.  0.
        2    1    3    3  502    0 -0.62069517331E+03  0.41173099741E+03 -0.39059832534E+02  0.74586230828E+03  0.25500000920E-02 0.  1.
       -2    1    3    3    0  502  0.62069517331E+03 -0.41173099741E+03 -0.21337671979E+03  0.77479967537E+03  0.25500000920E-02 0. -1.
</event>
<event>
 5   0  0.1588657E-05  0.1500762E+04  0.7818609E-02  0.8883946E-01
        1   -1    0    0  501    0  0.00000000000E+00  0.00000000000E+00  0.87766011605E+03  0.87766011607E+03  0.50400001928E-02 0.  1.
       -1   -1    0    0    0  501  0.00000000000E+00  0.00000000000E+00 -0.64155988082E+03  0.64155988084E+03  0.50400001928E-02 0. -1.
    10030    2    1    2    0    0  0.00000000000E+00  0.00000000000E+00  0.23610023523E+03  0.15192199969E+04  0.15007618325E+04 0.  0.
        3    1    3    3  502    0 -0.21024245840E+03  0.41135251420E+03 -0.48054211641E+03  0.66658346671E+03  0.10100000352E+00 0. -1.
       -3    1    3    3    0  502  0.21024245840E+03 -0.41135251420E+03  0.71664235164E+03  0.85263653019E+03  0.10100000352E+00 0.  1.
</event>
<event>
 5   0  0.3018308E-05  0.1500540E+04  0.7818609E-02  0.8884094E-01
        2   -1    0    0  501    0  0.00000000000E+00  0.00000000000E+00  0.11241325558E+04  0.11241325558E+04  0.25500000920E-02 0.  1.
       -2   -1    0    0    0  501  0.00000000000E+00  0.00000000000E+00 -0.50074633884E+03  0.50074633885E+03  0.25500000920E-02 0. -1.
    10030    2    1    2    0    0  0.00000000000E+00  0.00000000000E+00  0.62338621698E+03  0.16248788947E+04  0.15005402517E+04 0.  0.
        2    1    3    3  502    0 -0.69581098268E+03  0.70692286225E+02  0.17610798350E+02  0.69961451041E+03  0.25500000920E-02 0. -1.
       -2    1    3    3    0  502  0.69581098268E+03 -0.70692286225E+02  0.60577541863E+03  0.92526438426E+03  0.25500000920E-02 0.  1.
</event>
<event>
 5   0  0.1576214E-05  0.1499753E+04  0.7818609E-02  0.8884617E-01
        1   -1    0    0  501    0  0.00000000000E+00  0.00000000000E+00  0.16365970877E+04  0.16365970877E+04  0.50400001928E-02 0. -1.
       -1   -1    0    0    0  501  0.00000000000E+00  0.00000000000E+00 -0.34358759655E+03  0.34358759659E+03  0.50400001928E-02 0.  1.
    10030    2    1    2    0    0  0.00000000000E+00  0.00000000000E+00  0.12930094912E+04  0.19801846843E+04  0.14997525928E+04 0.  0.
        1    1    3    3  502    0 -0.38543159478E+03  0.34533714778E+03 -0.70014954447E+02  0.52222347109E+03  0.50400001928E-02 0.  1.
       -1    1    3    3    0  502  0.38543159478E+03 -0.34533714778E+03  0.13630244456E+04  0.14579612132E+04  0.50400001928E-02 0. -1.
</event>
<event>
 5   0  0.1576214E-05  0.1500017E+04  0.7818609E-02  0.8884442E-01
        1   -1    0    0  501    0  0.00000000000E+00  0.00000000000E+00  0.48555717890E+03  0.48555717893E+03  0.50400001928E-02 0. -1.
       -1   -1    0    0    0  501  0.00000000000E+00  0.00000000000E+00 -0.11584886338E+04  0.11584886338E+04  0.50400001928E-02 0.  1.
    10030    2    1    2    0    0  0.00000000000E+00  0.00000000000E+00 -0.67293145485E+03  0.16440458127E+04  0.15000166303E+04 0.  0.
        1    1    3    3  502    0  0.12020573969E+02 -0.60404824172E+03 -0.82353918599E+03  0.10213890363E+04  0.50400001928E-02 0.  1.
       -1    1    3    3    0  502 -0.12020573969E+02  0.60404824172E+03  0.15060773114E+03  0.62265677643E+03  0.50400001928E-02 0. -1.
</event>
<event>
 5   0  0.1580078E-05  0.1499904E+04  0.7818609E-02  0.8884517E-01
        1   -1    0    0  501    0  0.00000000000E+00  0.00000000000E+00  0.12051977564E+04  0.12051977564E+04  0.50400001928E-02 0. -1.
       -1   -1    0    0    0  501  0.00000000000E+00  0.00000000000E+00 -0.46666850033E+03  0.46666850036E+03  0.50400001928E-02 0.  1.
    10030    2    1    2    0    0  0.00000000000E+00  0.00000000000E+00  0.73852925610E+03  0.16718662568E+04  0.14999037697E+04 0.  0.
        2    1    3    3  502    0  0.63648095701E+03 -0.32702801648E+03  0.61943442583E+03  0.94644299358E+03  0.25500000920E-02 0. -1.
       -2    1    3    3    0  502 -0.63648095701E+03  0.32702801648E+03  0.11909483027E+03  0.72542326321E+03  0.25500000920E-02 0.  1.
</event>
<event>
 5   0  0.3070497E-05  0.1500679E+04  0.7818609E-02  0.8884001E-01
       -2   -1    0    0    0  501  0.00000000000E+00  0.00000000000E+00  0.29921518599E+03  0.29921518600E+03  0.25500000920E-02 0. -1.
        2   -1    0    0  501    0  0.00000000000E+00  0.00000000000E+00 -0.18816204585E+04  0.18816204585E+04  0.25500000920E-02 0.  1.
    10030    2    1    2    0    0  0.00000000000E+00  0.00000000000E+00 -0.15824052725E+04  0.21808356445E+04  0.15006790669E+04 0.  0.
        4    1    3    3  502    0  0.71302817498E+03  0.90361084153E+02 -0.47805378957E+03  0.86319832163E+03  0.12699999809E+01 0. -1.
       -4    1    3    3    0  502 -0.71302817498E+03 -0.90361084153E+02 -0.11043514829E+04  0.13176373228E+04  0.12699999809E+01 0.  1.
</event>
<event>
 5   0  0.1116613E-05  0.1499927E+04  0.7818609E-02  0.8884501E-01
        4   -1    0    0  501    0  0.00000000000E+00  0.00000000000E+00  0.72657672194E+03  0.72657783187E+03  0.12699999809E+01 0.  1.
       -4   -1    0    0    0  501  0.00000000000E+00  0.00000000000E+00 -0.77410110168E+03  0.77410214347E+03  0.12699999809E+01 0. -1.
    10030    2    1    2    0    0  0.00000000000E+00  0.00000000000E+00 -0.47524379744E+02  0.15006799753E+04  0.14999272721E+04 0.  0.
        3    1    3    3  502    0 -0.29121175232E+03  0.44706137732E+03  0.50354810529E+03  0.73364082787E+03  0.10100000352E+00 0.  1.
       -3    1    3    3    0  502  0.29121175232E+03 -0.44706137732E+03 -0.55107248504E+03  0.76703914747E+03  0.10100000352E+00 0. -1.
</event>
<event>
 5   0  0.3070497E-05  0.1502251E+04  0.7818609E-02  0.8882957E-01
       -2   -1    0    0    0  501  0.00000000000E+00  0.00000000000E+00  0.36900966166E+03  0.36900966167E+03  0.25500000920E-02 0.  1.
        2   -1    0    0  501    0  0.00000000000E+00  0.00000000000E+00 -0.15289289936E+04  0.15289289936E+04  0.25500000920E-02 0. -1.
    10030    2    1    2    0    0  0.00000000000E+00  0.00000000000E+00 -0.11599193320E+04  0.18979386553E+04  0.15022510718E+04 0.  0.
        4    1    3    3  502    0 -0.60419083476E+03 -0.77365107039E+02 -0.24702991775E+02  0.60962593063E+03  0.12699999809E+01 0.  1.
       -4    1    3    3    0  502  0.60419083476E+03  0.77365107039E+02 -0.11352163402E+04  0.12883127247E+04  0.12699999809E+01 0. -1.
</event>
<event>
 5   0  0.3093600E-05  0.1500924E+04  0.7818609E-02  0.8883839E-01
        2   -1    0    0  501    0  0.00000000000E+00  0.00000000000E+00  0.10816043145E+04  0.10816043145E+04  0.25500000920E-02 0. -1.
       -2   -1    0    0    0  501  0.00000000000E+00  0.00000000000E+00 -0.52070162591E+03  0.52070162592E+03  0.25500000920E-02 0.  1.
    10030    2    1    2    0    0  0.00000000000E+00  0.00000000000E+00  0.56090268857E+03  0.16023059404E+04  0.15009238823E+04 0.  0.
        1    1    3    3  502    0 -0.28590841697E+03  0.67831730659E+03  0.43638306103E+03  0.85573837549E+03  0.50400001928E-02 0.  1.
       -1    1    3    3    0  502  0.28590841697E+03 -0.67831730659E+03  0.12451962754E+03  0.74656756491E+03  0.50400001928E-02 0. -1.
</event>
<event>
 5   0  0.1116613E-05  0.1498245E+04  0.7818609E-02  0.8885621E-01
        4   -1    0    0  501    0  0.00000000000E+00  0.00000000000E+00  0.12070490186E+04  0.12070496867E+04  0.12699999809E+01 0.  1.
       -4   -1    0    0    0  501  0.00000000000E+00  0.00000000000E+00 -0.46492081084E+03  0.46492254544E+03  0.12699999809E+01 0. -1.
    10030    2    1    2    0    0  0.00000000000E+00  0.00000000000E+00  0.74212820777E+03  0.16719722322E+04  0.14982445956E+04 0.  0.
        4    1    3    3  502    0 -0.62342417045E+03  0.36124610723E+02 -0.90703526687E+02  0.63102410925E+03  0.12699999809E+01 0. -1.
       -4    1    3    3    0  502  0.62342417045E+03 -0.36124610723E+02  0.83283173446E+03  0.10409481229E+04  0.12699999809E+01 0.  1.
</event>
<event>
 5   0  0.2969498E-05  0.1498547E+04  0.7818609E-02  0.8885420E-01
       -2   -1    0    0    0  501  0.00000000000E+00  0.00000000000E+00  0.39932182432E+03  0.39932182433E+03  0.25500000920E-02 0. -1.
        2   -1    0    0  501    0  0.00000000000E+00  0.00000000000E+00 -0.14059110894E+04  0.14059110894E+04  0.25500000920E-02 0.  1.
    10030    2    1    2    0    0  0.00000000000E+00  0.00000000000E+00 -0.10065892650E+04  0.18052329137E+04  0.14985472713E+04 0.  0.
        3    1    3    3  502    0  0.25212238562E+03 -0.62156255184E+03 -0.90555800307E+03  0.11269165942E+04  0.10100000352E+00 0.  1.
       -3    1    3    3    0  502 -0.25212238562E+03  0.62156255184E+03 -0.10103126197E+03  0.67831631949E+03  0.10100000352E+00 0. -1.
</event>
<event>
 5   0  0.3070497E-05  0.1499158E+04  0.7818609E-02  0.8885013E-01
        2   -1    0    0  501    0  0.00000000000E+00  0.00000000000E+00  0.52517698388E+03  0.52517698388E+03  0.25500000920E-02 0.  1.
       -2   -1    0    0    0  501  0.00000000000E+00  0.00000000000E+00 -0.10698658395E+04  0.10698658395E+04  0.25500000920E-02 0. -1.
    10030    2    1    2    0    0  0.00000000000E+00  0.00000000000E+00 -0.54468885567E+03  0.15950428234E+04  0.14991583169E+04 0.  0.
        4    1    3    3  502    0 -0.41334050604E+03 -0.51093972805E+03  0.11120872782E+03  0.66654240202E+03  0.12699999809E+01 0.  1.
       -4    1    3    3    0  502  0.41334050604E+03  0.51093972805E+03 -0.65589758349E+03  0.92850042142E+03  0.12699999809E+01 0. -1.
</event>
<event>
 5   0  0.1588657E-05  0.1500203E+04  0.7818609E-02  0.8884318E-01
       -1   -1    0    0    0  501  0.00000000000E+00  0.00000000000E+00  0.13815021652E+04  0.13815021653E+04  0.50400001928E-02 0. -1.
        1   -1    0    0  501    0  0.00000000000E+00  0.00000000000E+00 -0.40727563868E+03  0.40727563872E+03  0.50400001928E-02 0.  1.
    10030    2    1    2    0    0  0.00000000000E+00  0.00000000000E+00  0.97422652656E+03  0.17887778040E+04  0.15002028886E+04 0.  0.
        3    1    3    3  502    0 -0.80673963495E+02 -0.72444032426E+03  0.27606234116E+03  0.77944371073E+03  0.10100000352E+00 0. -1.
       -3    1    3    3    0  502  0.80673963495E+02  0.72444032426E+03  0.69816418541E+03  0.10093340932E+04  0.10100000352E+00 0.  1.
</event>
<event>
 5   0  0.1580078E-05  0.1498825E+04  0.7818609E-02  0.8885234E-01
        1   -1    0    0  501    0  0.00000000000E+00  0.00000000000E+00  0.10387497051E+04  0.10387497051E+04  0.50400001928E-02 0. -1.
       -1   -1    0    0    0  501  0.00000000000E+00  0.00000000000E+00 -0.54066866944E+03  0.54066866946E+03  0.50400001928E-02 0.  1.
    10030    2    1    2    0    0  0.00000000000E+00  0.00000000000E+00  0.49808103561E+03  0.15794183745E+04  0.14988254347E+04 0.  0.
        2    1    3    3  502    0 -0.70996086529E+03  0.80143760039E+01  0.50174950488E+03  0.86940279854E+03  0.25500000920E-02 0. -1.
       -2    1    3    3    0  502  0.70996086529E+03 -0.80143760039E+01 -0.36684692678E+01  0.71001557598E+03  0.25500000920E-02 0.  1.
</event>
<event>
 5   0  0.1533777E-05  0.1502090E+04  0.7818609E-02  0.8883064E-01
        1   -1    0    0  501    0  0.00000000000E+00  0.00000000000E+00  0.11792341621E+04  0.11792341621E+04  0.50400001928E-02 0. -1.
       -1   -1    0    0    0  501  0.00000000000E+00  0.00000000000E+00 -0.47833497242E+03  0.47833497245E+03  0.50400001928E-02 0.  1.
    10030    2    1    2    0    0  0.00000000000E+00  0.00000000000E+00  0.70089918963E+03  0.16575691345E+04  0.15020904639E+04 0.  0.
        5    1    3    3  502    0  0.28392603566E+03 -0.56575987145E+03  0.79644799732E+03  0.10173739373E+04  0.46999998093E+01 0. -1.
       -5    1    3    3    0  502 -0.28392603566E+03  0.56575987145E+03 -0.95548807688E+02  0.64019519720E+03  0.46999998093E+01 0.  1.
</event>
<event>
 5   0  0.3070497E-05  0.1500357E+04  0.7818609E-02  0.8884216E-01
       -2   -1    0    0    0  501  0.00000000000E+00  0.00000000000E+00  0.44745806815E+03  0.44745806815E+03  0.25500000920E-02 0.  1.
        2   -1    0    0  501    0  0.00000000000E+00  0.00000000000E+00 -0.12576988916E+04  0.12576988916E+04  0.25500000920E-02 0. -1.
    10030    2    1    2    0    0  0.00000000000E+00  0.00000000000E+00 -0.81024082346E+03  0.17051569598E+04  0.15003566461E+04 0.  0.
        4    1    3    3  502    0  0.48387837795E+03 -0.49147070609E+03 -0.74050217890E+03  0.10119421078E+04  0.12699999809E+01 0. -1.
       -4    1    3    3    0  502 -0.48387837795E+03  0.49147070609E+03 -0.69738644556E+02  0.69321485200E+03  0.12699999809E+01 0.  1.
</event>
<event>
 5   0  0.1576214E-05  0.1499651E+04  0.7818609E-02  0.8884685E-01
        1   -1    0    0  501    0  0.00000000000E+00  0.00000000000E+00  0.83154607421E+03  0.83154607422E+03  0.50400001928E-02 0.  1.
       -1   -1    0    0    0  501  0.00000000000E+00  0.00000000000E+00 -0.67613611760E+03  0.67613611761E+03  0.50400001928E-02 0. -1.
    10030    2    1    2    0    0  0.00000000000E+00  0.00000000000E+00  0.15540995661E+03  0.15076821918E+04  0.14996510717E+04 0.  0.
        1    1    3    3  502    0 -0.61902524079E+03 -0.23186434943E+03  0.43355675382E+03  0.79052184289E+03  0.50400001928E-02 0.  1.
       -1    1    3    3    0  502  0.61902524079E+03  0.23186434943E+03 -0.27814679721E+03  0.71716034895E+03  0.50400001928E-02 0. -1.
</event>
<event>
 5   0  0.1533777E-05  0.1500839E+04  0.7818609E-02  0.8883895E-01
        1   -1    0    0  501    0  0.00000000000E+00  0.00000000000E+00  0.59326721570E+03  0.59326721572E+03  0.50400001928E-02 0. -1.
       -1   -1    0    0    0  501  0.00000000000E+00  0.00000000000E+00 -0.94920018141E+03  0.94920018142E+03  0.50400001928E-02 0.  1.
    10030    2    1    2    0    0  0.00000000000E+00  0.00000000000E+00 -0.35593296571E+03  0.15424673971E+04  0.15008388971E+04 0.  0.
        5    1    3    3  502    0  0.63930997916E+03  0.17517061290E+03  0.18350663882E+03  0.68782175712E+03  0.46999998093E+01 0. -1.
       -5    1    3    3    0  502 -0.63930997916E+03 -0.17517061290E+03 -0.53943960453E+03  0.85464564002E+03  0.46999998093E+01 0.  1.
</event>
<event>
 5   0  0.1576214E-05  0.1499042E+04  0.7818609E-02  0.8885090E-01
        1   -1    0    0  501    0  0.00000000000E+00  0.00000000000E+00  0.17519270596E+04  0.17519270596E+04  0.50400001928E-02 0.  1.
       -1   -1    0    0    0  501  0.00000000000E+00  0.00000000000E+00 -0.32066493312E+03  0.32066493316E+03  0.50400001928E-02 0. -1.
    10030    2    1    2    0    0  0.00000000000E+00  0.00000000000E+00  0.14312621265E+04  0.20725919928E+04  0.14990417919E+04 0.  0.
        1    1    3    3  502    0  0.54586070287E+01  0.52903998912E+03 -0.18415013673E+02  0.52938853335E+03  0.50400001928E-02 0. -1.
       -1    1    3    3    0  502 -0.54586070287E+01 -0.52903998912E+03  0.14496771401E+04  0.15432034594E+04  0.50400001928E-02 0.  1.
</event>
<event>
 5   0  0.1580078E-05  0.1499452E+04  0.7818609E-02  0.8884817E-01
       -1   -1    0    0    0  501  0.00000000000E+00  0.00000000000E+00  0.59613943800E+03  0.59613943802E+03  0.50400001928E-02 0.  1.
        1   -1    0    0  501    0  0.00000000000E+00  0.00000000000E+00 -0.94288217610E+03  0.94288217612E+03  0.50400001928E-02 0. -1.
    10030    2    1    2    0    0  0.00000000000E+00  0.00000000000E+00 -0.34674273810E+03  0.15390216141E+04  0.14994522341E+04 0.  0.
        2    1    3    3  502    0  0.16872357793E+03 -0.71539513700E+03 -0.32502503212E+03  0.80367849249E+03  0.25500000920E-02 0. -1.
       -2    1    3    3    0  502 -0.16872357793E+03  0.71539513700E+03 -0.21717705983E+02  0.73534312164E+03  0.25500000920E-02 0.  1.
</event>
<event>
 5   0  0.3030702E-05  0.1500080E+04  0.7818609E-02  0.8884399E-01
       -2   -1    0    0    0  501  0.00000000000E+00  0.00000000000E+00  0.11413639230E+04  0.11413639230E+04  0.25500000920E-02 0. -1.
        2   -1    0    0  501    0  0.00000000000E+00  0.00000000000E+00 -0.49288423869E+03  0.49288423870E+03  0.25500000920E-02 0.  1.
    10030    2    1    2    0    0  0.00000000000E+00  0.00000000000E+00  0.64847968433E+03  0.16342481617E+04  0.15000803822E+04 0.  0.
        5    1    3    3  502    0  0.25903119843E+03 -0.28812485540E+03  0.10238820797E+04  0.10947464077E+04  0.46999998093E+01 0. -1.
       -5    1    3    3    0  502 -0.25903119843E+03  0.28812485540E+03 -0.37540239541E+03  0.53950175397E+03  0.46999998093E+01 0.  1.
</event>
<event>
 5   0  0.3070497E-05  0.1502125E+04  0.7818609E-02  0.8883041E-01
        2   -1    0    0  501    0  0.00000000000E+00  0.00000000000E+00  0.10667916695E+04  0.10667916695E+04  0.25500000920E-02 0. -1.
       -2   -1    0    0    0  501  0.00000000000E+00  0.00000000000E+00 -0.52877665504E+03  0.52877665505E+03  0.25500000920E-02 0.  1.
    10030    2    1    2    0    0  0.00000000000E+00  0.00000000000E+00  0.53801501447E+03  0.15955683246E+04  0.15021245363E+04 0.  0.
        4    1    3    3  502    0  0.37426536076E+03  0.64221433801E+03  0.38330768263E+03  0.83632542032E+03  0.12699999809E+01 0.  1.
       -4    1    3    3    0  502 -0.37426536076E+03 -0.64221433801E+03  0.15470733184E+03  0.75924290424E+03  0.12699999809E+01 0. -1.
</event>
<event>
 5   0  0.1588657E-05  0.1499257E+04  0.7818609E-02  0.8884947E-01
       -1   -1    0    0    0  501  0.00000000000E+00  0.00000000000E+00  0.62695047147E+03  0.62695047149E+03  0.50400001928E-02 0.  1.
        1   -1    0    0  501    0  0.00000000000E+00  0.00000000000E+00 -0.89631179754E+03  0.89631179756E+03  0.50400001928E-02 0. -1.
    10030    2    1    2    0    0  0.00000000000E+00  0.00000000000E+00 -0.26936132607E+03  0.15232622690E+04  0.14992572882E+04 0.  0.
        3    1    3    3  502    0 -0.43723576042E+03  0.55457013962E+03 -0.39014222854E+03  0.80680488263E+03  0.10100000352E+00 0. -1.
       -3    1    3    3    0  502  0.43723576042E+03 -0.55457013962E+03  0.12078090248E+03  0.71645738642E+03  0.10100000352E+00 0.  1.
</event>
<event>
 5   0  0.1580078E-05  0.1499387E+04  0.7818609E-02  0.8884861E-01
       -1   -1    0    0    0  501  0.00000000000E+00  0.00000000000E+00  0.12840304908E+04  0.12840304908E+04  0.50400001928E-02 0.  1.
        1   -1    0    0  501    0  0.00000000000E+00  0.00000000000E+00 -0.43771548551E+03  0.43771548554E+03  0.50400001928E-02 0. -1.
    10030    2    1    2    0    0  0.00000000000E+00  0.00000000000E+00  0.84631500532E+03  0.17217459764E+04  0.14993865809E+04 0.  0.
        2    1    3    3  502    0 -0.86422913198E+02 -0.74183208235E+03  0.34824227327E+03  0.82404880876E+03  0.25500000920E-02 0.  1.
       -2    1    3    3    0  502  0.86422913198E+02  0.74183208235E+03  0.49807273204E+03  0.89769716761E+03  0.25500000920E-02 0. -1.
</event>
<event>
 5   0  0.3070497E-05  0.1500433E+04  0.7818609E-02  0.8884165E-01
       -2   -1    0    0    0  501  0.00000000000E+00  0.00000000000E+00  0.79825656780E+03  0.79825656780E+03  0.25500000920E-02 0. -1.
        2   -1    0    0  501    0  0.00000000000E+00  0.00000000000E+00 -0.70506744769E+03  0.70506744769E+03  0.25500000920E-02 0.  1.
    10030    2    1    2    0    0  0.00000000000E+00  0.00000000000E+00  0.93189120109E+02  0.15033240155E+04  0.15004328987E+04 0.  0.
        4    1    3    3  502    0 -0.19130405208E+03 -0.71890967359E+03 -0.50518715860E+02  0.74564208081E+03  0.12699999809E+01 0.  1.
       -4    1    3    3    0  502  0.19130405208E+03  0.71890967359E+03  0.14370783597E+03  0.75768193468E+03  0.12699999809E+01 0. -1.
</event>
<event>
 5   0  0.1576214E-05  0.1499657E+04  0.7818609E-02  0.8884681E-01
        1   -1    0    0  501    0  0.00000000000E+00  0.00000000000E+00  0.98864525376E+03  0.98864525378E+03  0.50400001928E-02 0.  1.
       -1   -1    0    0    0  501  0.00000000000E+00  0.00000000000E+00 -0.56869985704E+03  0.56869985706E+03  0.50400001928E-02 0. -1.
    10030    2    1    2    0    0  0.00000000000E+00  0.00000000000E+00  0.41994539672E+03  0.15573451108E+04  0.14996565134E+04 0.  0.
        1    1    3    3  502    0 -0.59527342719E+03  0.43594561349E+03  0.71255065282E+02  0.74126669653E+03  0.50400001928E-02 0. -1.
       -1    1    3    3    0  502  0.59527342719E+03 -0.43594561349E+03  0.34869033144E+03  0.81607841431E+03  0.50400001928E-02 0.  1.
</event>
<event>
 5   0  0.3093600E-05  0.1499912E+04  0.7818609E-02  0.8884511E-01
       -2   -1    0    0    0  501  0.00000000000E+00  0.00000000000E+00  0.27399981984E+03  0.27399981985E+03  0.25500000920E-02 0. -1.
        2   -1    0    0  501    0  0.00000000000E+00  0.00000000000E+00 -0.20526815339E+04  0.20526815339E+04  0.25500000920E-02 0.  1.
    10030    2    1    2    0    0  0.00000000000E+00  0.00000000000E+00 -0.17786817140E+04  0.23266813537E+04  0.14999124914E+04 0.  0.
        1    1    3    3  502    0 -0.46068396619E+03  0.27777657027E+03 -0.16999060806E+04  0.17829947343E+04  0.50400001928E-02 0.  1.
       -1    1    3    3    0  502  0.46068396619E+03 -0.27777657027E+03 -0.78775633446E+02  0.54368661943E+03  0.50400001928E-02 0. -1.
</event>
<event>
 5   0  0.1576214E-05  0.1500000E+04  0.7818609E-02  0.8884453E-01
        1   -1    0    0  501    0  0.00000000000E+00  0.00000000000E+00  0.83987357550E+03  0.83987357552E+03  0.50400001928E-02 0.  1.
       -1   -1    0    0    0  501  0.00000000000E+00  0.00000000000E+00 -0.66974399659E+03  0.66974399661E+03  0.50400001928E-02 0. -1.
    10030    2    1    2    0    0  0.00000000000E+00  0.00000000000E+00  0.17012957891E+03  0.15096175721E+04  0.15000003802E+04 0.  0.
        1    1    3    3  502    0 -0.28266977086E+03 -0.68323249857E+03 -0.41404891138E+02  0.74055601510E+03  0.50400001928E-02 0. -1.
       -1    1    3    3    0  502  0.28266977086E+03  0.68323249857E+03  0.21153447005E+03  0.76906155703E+03  0.50400001928E-02 0.  1.
</event>
<event>
 5   0  0.1576214E-05  0.1500303E+04  0.7818609E-02  0.8884251E-01
        1   -1    0    0  501    0  0.00000000000E+00  0.00000000000E+00  0.11404962662E+04  0.11404962662E+04  0.50400001928E-02 0.  1.
       -1   -1    0    0    0  501  0.00000000000E+00  0.00000000000E+00 -0.49340568977E+03  0.49340568979E+03  0.50400001928E-02 0. -1.
    10030    2    1    2    0    0  0.00000000000E+00  0.00000000000E+00  0.64709057644E+03  0.16339019560E+04  0.15003030986E+04 0.  0.
        1    1    3    3  502    0  0.56430134760E+03  0.38610780374E+03 -0.12496322907E+02  0.68386504892E+03  0.50400001928E-02 0. -1.
       -1    1    3    3    0  502 -0.56430134760E+03 -0.38610780374E+03  0.65958689934E+03  0.95003690709E+03  0.50400001928E-02 0.  1.
</event>
<event>
 5   0  0.3030702E-05  0.1495054E+04  0.7818609E-02  0.8887749E-01
        2   -1    0    0  501    0  0.00000000000E+00  0.00000000000E+00  0.22521990888E+04  0.22521990888E+04  0.25500000920E-02 0.  1.
       -2   -1    0    0    0  501  0.00000000000E+00  0.00000000000E+00 -0.24811146325E+03  0.24811146327E+03  0.25500000920E-02 0. -1.
    10030    2    1    2    0    0  0.00000000000E+00  0.00000000000E+00  0.20040876256E+04  0.25003105521E+04  0.14950537268E+04 0.  0.
        5    1    3    3  502    0 -0.25405347821E+03  0.15886940030E+03  0.21473450140E+04  0.21681548274E+04  0.46999998093E+01 0.  1.
       -5    1    3    3    0  502  0.25405347821E+03 -0.15886940030E+03 -0.14325738844E+03  0.33215572475E+03  0.46999998093E+01 0. -1.
</event>
<event>
 5   0  0.1533777E-05  0.1500352E+04  0.7818609E-02  0.8884219E-01
        1   -1    0    0  501    0  0.00000000000E+00  0.00000000000E+00  0.82827665825E+03  0.82827665826E+03  0.50400001928E-02 0.  1.
       -1   -1    0    0    0  501  0.00000000000E+00  0.00000000000E+00 -0.67943948966E+03  0.67943948968E+03  0.50400001928E-02 0. -1.
    10030    2    1    2    0    0  0.00000000000E+00  0.00000000000E+00  0.14883716859E+03  0.15077161479E+04  0.15003517854E+04 0.  0.
        5    1    3    3  502    0 -0.19267753293E+03 -0.36087240917E+03  0.70630405242E+03  0.81623589229E+03  0.46999998093E+01 0.  1.
       -5    1    3    3    0  502  0.19267753293E+03  0.36087240917E+03 -0.55746688383E+03  0.69148025565E+03  0.46999998093E+01 0. -1.
</event>
<event>
 5   0  0.2969498E-05  0.1502897E+04  0.7818609E-02  0.8882529E-01
       -2   -1    0    0    0  501  0.00000000000E+00  0.00000000000E+00  0.27486455542E+03  0.27486455543E+03  0.25500000920E-02 0. -1.
        2   -1    0    0  501    0  0.00000000000E+00  0.00000000000E+00 -0.20543754161E+04  0.20543754161E+04  0.25500000920E-02 0.  1.
    10030    2    1    2    0    0  0.00000000000E+00  0.00000000000E+00 -0.17795108607E+04  0.23292399715E+04  0.15028971827E+04 0.  0.
        3    1    3    3  502    0 -0.24648504569E+03  0.84044856768E+02 -0.19822026856E+04  0.19992363324E+04  0.10100000352E+00 0.  1.
       -3    1    3    3    0  502  0.24648504569E+03 -0.84044856768E+02  0.20269182498E+03  0.33000363909E+03  0.10100000352E+00 0. -1.
</event>
<event>
 5   0  0.3070497E-05  0.1499770E+04  0.7818609E-02  0.8884606E-01
        2   -1    0    0  501    0  0.00000000000E+00  0.00000000000E+00  0.16296090779E+04  0.16296090779E+04  0.25500000920E-02 0. -1.
       -2   -1    0    0    0  501  0.00000000000E+00  0.00000000000E+00 -0.34506882690E+03  0.34506882691E+03  0.25500000920E-02 0.  1.
    10030    2    1    2    0    0  0.00000000000E+00  0.00000000000E+00  0.12845402510E+04  0.19746779048E+04  0.14997697061E+04 0.  0.
        4    1    3    3  502    0 -0.74712302636E+03 -0.42937567662E+02  0.57927364582E+03  0.94635935082E+03  0.12699999809E+01 0.  1.
       -4    1    3    3    0  502  0.74712302636E+03  0.42937567662E+02  0.70526660518E+03  0.10283185540E+04  0.12699999809E+01 0. -1.
</event>
<event>
 5   0  0.2969498E-05  0.1501629E+04  0.7818609E-02  0.8883370E-01
        2   -1    0    0  501    0  0.00000000000E+00  0.00000000000E+00  0.12426859999E+04  0.12426859999E+04  0.25500000920E-02 0.  1.
       -2   -1    0    0    0  501  0.00000000000E+00  0.00000000000E+00 -0.45363211509E+03  0.45363211510E+03  0.25500000920E-02 0. -1.
    10030    2    1    2    0    0  0.00000000000E+00  0.00000000000E+00  0.78905388477E+03  0.16963181150E+04  0.15016288203E+04 0.  0.
        3    1    3    3  502    0 -0.24313464450E+03  0.39890663005E+03  0.10585099817E+04  0.11570152749E+04  0.10100000352E+00 0.  1.
       -3    1    3    3    0  502  0.24313464450E+03 -0.39890663005E+03 -0.26945609695E+03  0.53930284001E+03  0.10100000352E+00 0. -1.
</event>
<event>
 5   0  0.3093600E-05  0.1499850E+04  0.7818609E-02  0.8884553E-01
        2   -1    0    0  501    0  0.00000000000E+00  0.00000000000E+00  0.13886496582E+04  0.13886496582E+04  0.25500000920E-02 0. -1.
       -2   -1    0    0    0  501  0.00000000000E+00  0.00000000000E+00 -0.40498887882E+03  0.40498887883E+03  0.25500000920E-02 0.  1.
    10030    2    1    2    0    0  0.00000000000E+00  0.00000000000E+00  0.98366077942E+03  0.17936385371E+04  0.14998502168E+04 0.  0.
        1    1    3    3  502    0  0.56868343733E+03  0.34145651562E+03  0.91020716583E+03  0.11262639516E+04  0.50400001928E-02 0. -1.
       -1    1    3    3    0  502 -0.56868343733E+03 -0.34145651562E+03  0.73453613583E+02  0.66737458546E+03  0.50400001928E-02 0.  1.
</event>
<event>
 5   0  0.1580078E-05  0.1497654E+04  0.7818609E-02  0.8886014E-01
        1   -1    0    0  501    0  0.00000000000E+00  0.00000000000E+00  0.12373699530E+04  0.12373699530E+04  0.50400001928E-02 0. -1.
       -1   -1    0    0    0  501  0.00000000000E+00  0.00000000000E+00 -0.45317250153E+03  0.45317250156E+03  0.50400001928E-02 0.  1.
    10030    2    1    2    0    0  0.00000000000E+00  0.00000000000E+00  0.78419745148E+03  0.16905424546E+04  0.14976542150E+04 0.  0.
        2    1    3    3  502    0  0.45332677987E+03 -0.19940823564E+03 -0.24191079561E+03  0.55117115929E+03  0.25500000920E-02 0.  1.
       -2    1    3    3    0  502 -0.45332677987E+03  0.19940823564E+03  0.10261082471E+04  0.11393712953E+04  0.25500000920E-02 0. -1.
</event>
<event>
 5   0  0.1643498E-05  0.1500477E+04  0.7818609E-02  0.8884136E-01
        1   -1    0    0  501    0  0.00000000000E+00  0.00000000000E+00  0.78784792685E+03  0.78784792686E+03  0.50400001928E-02 0.  1.
       -1   -1    0    0    0  501  0.00000000000E+00  0.00000000000E+00 -0.71442440078E+03  0.71442440079E+03  0.50400001928E-02 0. -1.
    10030    2    1    2    0    0  0.00000000000E+00  0.00000000000E+00  0.73423526072E+02  0.15022723277E+04  0.15004769683E+04 0.  0.
        4    1    3    3  502    0 -0.29450050733E+03 -0.66958076216E+03 -0.13018269565E+03  0.74297920093E+03  0.12699999809E+01 0. -1.
       -4    1    3    3    0  502  0.29450050733E+03  0.66958076216E+03  0.20360622172E+03  0.75929312673E+03  0.12699999809E+01 0.  1.
</event>
<event>
 5   0  0.3030702E-05  0.1498111E+04  0.7818609E-02  0.8885710E-01
       -2   -1    0    0    0  501  0.00000000000E+00  0.00000000000E+00  0.40777716472E+03  0.40777716473E+03  0.25500000920E-02 0. -1.
        2   -1    0    0  501    0  0.00000000000E+00  0.00000000000E+00 -0.13759569331E+04  0.13759569331E+04  0.25500000920E-02 0.  1.
    10030    2    1    2    0    0  0.00000000000E+00  0.00000000000E+00 -0.96817976836E+03  0.17837340978E+04  0.14981105660E+04 0.  0.
        5    1    3    3  502    0 -0.28641298236E+03  0.42125775732E+03  0.16976474482E+03  0.53696615643E+03  0.46999998093E+01 0. -1.
       -5    1    3    3    0  502  0.28641298236E+03 -0.42125775732E+03 -0.11379445132E+04  0.12467679414E+04  0.46999998093E+01 0.  1.
</event>
<event>
 5   0  0.1576214E-05  0.1499735E+04  0.7818609E-02  0.8884629E-01
       -1   -1    0    0    0  501  0.00000000000E+00  0.00000000000E+00  0.56634084584E+03  0.56634084586E+03  0.50400001928E-02 0. -1.
        1   -1    0    0  501    0  0.00000000000E+00  0.00000000000E+00 -0.99286738046E+03  0.99286738047E+03  0.50400001928E-02 0.  1.
    10030    2    1    2    0    0  0.00000000000E+00  0.00000000000E+00 -0.42652653462E+03  0.15592082263E+04  0.14997351127E+04 0.  0.
        1    1    3    3  502    0 -0.76122289464E+02  0.69086599852E+03 -0.50586850101E+03  0.85964723649E+03  0.50400001928E-02 0. -1.
       -1    1    3    3    0  502  0.76122289464E+02 -0.69086599852E+03  0.79341966392E+02  0.69956098985E+03  0.50400001928E-02 0.  1.
</event>
<event>
 5   0  0.1643498E-05  0.1500573E+04  0.7818609E-02  0.8884072E-01
       -1   -1    0    0    0  501  0.00000000000E+00  0.00000000000E+00  0.67447763283E+03  0.67447763285E+03  0.50400001928E-02 0. -1.
        1   -1    0    0  501    0  0.00000000000E+00  0.00000000000E+00 -0.83461554323E+03  0.83461554325E+03  0.50400001928E-02 0.  1.
    10030    2    1    2    0    0  0.00000000000E+00  0.00000000000E+00 -0.16013791040E+03  0.15090931761E+04  0.15005725787E+04 0.  0.
        4    1    3    3  502    0  0.36543220203E+02 -0.72533080708E+03 -0.26952046748E+03  0.77465029654E+03  0.12699999809E+01 0.  1.
       -4    1    3    3    0  502 -0.36543220203E+02  0.72533080708E+03  0.10938255708E+03  0.73444287956E+03  0.12699999809E+01 0. -1.
</event>
<event>
 5   0  0.1533777E-05  0.1499695E+04  0.7818609E-02  0.8884656E-01
        1   -1    0    0  501    0  0.00000000000E+00  0.00000000000E+00  0.10799687518E+04  0.10799687518E+04  0.50400001928E-02 0.  1.
       -1   -1    0    0    0  501  0.00000000000E+00  0.00000000000E+00 -0.52063663405E+03  0.52063663408E+03  0.50400001928E-02 0. -1.
    10030    2    1    2    0    0  0.00000000000E+00  0.00000000000E+00  0.55933211777E+03  0.16006053859E+04  0.14996950301E+04 0.  0.
        5    1    3    3  502    0 -0.47664395706E+03  0.34650115173E+03  0.77454299573E+03  0.97323761343E+03  0.46999998093E+01 0.  1.
       -5    1    3    3    0  502  0.47664395706E+03 -0.34650115173E+03 -0.21521087796E+03  0.62736777248E+03  0.46999998093E+01 0. -1.
</event>
<event>
 5   0  0.3070497E-05  0.1501983E+04  0.7818609E-02  0.8883135E-01
       -2   -1    0    0    0  501  0.00000000000E+00  0.00000000000E+00  0.30335336844E+03  0.30335336845E+03  0.25500000920E-02 0. -1.
        2   -1    0    0  501    0  0.00000000000E+00  0.00000000000E+00 -0.18591800444E+04  0.18591800444E+04  0.25500000920E-02 0.  1.
    10030    2    1    2    0    0  0.00000000000E+00  0.00000000000E+00 -0.15558266760E+04  0.21625334129E+04  0.15019833941E+04 0.  0.
        4    1    3    3  502    0 -0.69957096131E+03  0.17780564171E+02 -0.11702943889E+04  0.13635638042E+04  0.12699999809E+01 0.  1.
       -4    1    3    3    0  502  0.69957096131E+03 -0.17780564171E+02 -0.38553228705E+03  0.79896960870E+03  0.12699999809E+01 0. -1.
</event>
<event>
 5   0  0.1576214E-05  0.1499568E+04  0.7818609E-02  0.8884740E-01
        1   -1    0    0  501    0  0.00000000000E+00  0.00000000000E+00  0.11398369911E+04  0.11398369911E+04  0.50400001928E-02 0. -1.
       -1   -1    0    0    0  501  0.00000000000E+00  0.00000000000E+00 -0.49320751380E+03  0.49320751382E+03  0.50400001928E-02 0.  1.
    10030    2    1    2    0    0  0.00000000000E+00  0.00000000000E+00  0.64662947734E+03  0.16330445050E+04  0.14995681626E+04 0.  0.
        1    1    3    3  502    0  0.16862900311E+03  0.46861454536E+02  0.11172801735E+04  0.11309052669E+04  0.50400001928E-02 0. -1.
       -1    1    3    3    0  502 -0.16862900311E+03 -0.46861454536E+02 -0.47065069614E+03  0.50213923808E+03  0.50400001928E-02 0.  1.
</event>
<event>
 5   0  0.3018308E-05  0.1500963E+04  0.7818609E-02  0.8883813E-01
        2   -1    0    0  501    0  0.00000000000E+00  0.00000000000E+00  0.24774143046E+04  0.24774143046E+04  0.25500000920E-02 0. -1.
       -2   -1    0    0    0  501  0.00000000000E+00  0.00000000000E+00 -0.22734291114E+03  0.22734291116E+03  0.25500000920E-02 0.  1.
    10030    2    1    2    0    0  0.00000000000E+00  0.00000000000E+00  0.22500713934E+04  0.27047572157E+04  0.15009631310E+04 0.  0.
        2    1    3    3  502    0  0.14175537282E+03 -0.34130536636E+03 -0.51996539460E+02  0.37321251179E+03  0.25500000920E-02 0.  1.
       -2    1    3    3    0  502 -0.14175537282E+03  0.34130536636E+03  0.23020679329E+04  0.23315447040E+04  0.25500000920E-02 0. -1.
</event>
<event>
 5   0  0.3030702E-05  0.1499570E+04  0.7818609E-02  0.8884739E-01
        2   -1    0    0  501    0  0.00000000000E+00  0.00000000000E+00  0.21319855002E+04  0.21319855002E+04  0.25500000920E-02 0. -1.
       -2   -1    0    0    0  501  0.00000000000E+00  0.00000000000E+00 -0.26368717195E+03  0.26368717196E+03  0.25500000920E-02 0.  1.
    10030    2    1    2    0    0  0.00000000000E+00  0.00000000000E+00  0.18682983283E+04  0.23956726722E+04  0.14995695745E+04 0.  0.
        5    1    3    3  502    0 -0.20899712076E+03  0.21619126372E+03  0.20314120276E+04  0.20535518924E+04  0.46999998093E+01 0. -1.
       -5    1    3    3    0  502  0.20899712076E+03 -0.21619126372E+03 -0.16311369936E+03  0.34212077972E+03  0.46999998093E+01 0.  1.
</event>
<event>
 5   0  0.1588657E-05  0.1499093E+04  0.7818609E-02  0.8885056E-01
        1   -1    0    0  501    0  0.00000000000E+00  0.00000000000E+00  0.58856070526E+03  0.58856070528E+03  0.50400001928E-02 0. -1.
       -1   -1    0    0    0  501  0.00000000000E+00  0.00000000000E+00 -0.95456547333E+03  0.95456547334E+03  0.50400001928E-02 0.  1.
    10030    2    1    2    0    0  0.00000000000E+00  0.00000000000E+00 -0.36600476807E+03  0.15431261786E+04  0.14990926966E+04 0.  0.
        3    1    3    3  502    0  0.66505210523E+03  0.20901913023E+03  0.10047071923E+03  0.70432781792E+03  0.10100000352E+00 0. -1.
       -3    1    3    3    0  502 -0.66505210523E+03 -0.20901913023E+03 -0.46647548729E+03  0.83879836070E+03  0.10100000352E+00 0.  1.
</event>
<event>
 5   0  0.1533777E-05  0.1500564E+04  0.7818609E-02  0.8884078E-01
       -1   -1    0    0    0  501  0.00000000000E+00  0.00000000000E+00  0.11010735512E+04  0.11010735512E+04  0.50400001928E-02 0. -1.
        1   -1    0    0  501    0  0.00000000000E+00  0.00000000000E+00 -0.51124908443E+03  0.51124908445E+03  0.50400001928E-02 0.  1.
    10030    2    1    2    0    0  0.00000000000E+00  0.00000000000E+00  0.58982446679E+03  0.16123226357E+04  0.15005636874E+04 0.  0.
        5    1    3    3  502    0 -0.76534674660E+02  0.71553518794E+03  0.66847876747E+02  0.72273016419E+03  0.46999998093E+01 0.  1.
       -5    1    3    3    0  502  0.76534674660E+02 -0.71553518794E+03  0.52297659004E+03  0.88959247149E+03  0.46999998093E+01 0. -1.
</event>
<event>
 5   0  0.3018308E-05  0.1499700E+04  0.7818609E-02  0.8884652E-01
       -2   -1    0    0    0  501  0.00000000000E+00  0.00000000000E+00  0.66886127680E+03  0.66886127681E+03  0.25500000920E-02 0. -1.
        2   -1    0    0  501    0  0.00000000000E+00  0.00000000000E+00 -0.84064522475E+03  0.84064522475E+03  0.25500000920E-02 0.  1.
    10030    2    1    2    0    0  0.00000000000E+00  0.00000000000E+00 -0.17178394794E+03  0.15095065016E+04  0.14997000212E+04 0.  0.
        2    1    3    3  502    0  0.88999160474E+02  0.67046276929E+03  0.24000579286E+03  0.71766562979E+03  0.25500000920E-02 0. -1.
       -2    1    3    3    0  502 -0.88999160474E+02 -0.67046276929E+03 -0.41178974080E+03  0.79184087177E+03  0.25500000920E-02 0.  1.
</event>
<event>
 5   0  0.1643498E-05  0.1499888E+04  0.7818609E-02  0.8884528E-01
       -1   -1    0    0    0  501  0.00000000000E+00  0.00000000000E+00  0.29149614564E+03  0.29149614569E+03  0.50400001928E-02 0.  1.
        1   -1    0    0  501    0  0.00000000000E+00  0.00000000000E+00 -0.19294105207E+04  0.19294105207E+04  0.50400001928E-02 0. -1.
    10030    2    1    2    0    0  0.00000000000E+00  0.00000000000E+00 -0.16379143750E+04  0.22209066664E+04  0.14998876360E+04 0.  0.
        4    1    3    3  502    0  0.24291344429E+03  0.44638895923E+02 -0.18674610783E+04  0.18837229266E+04  0.12699999809E+01 0. -1.
       -4    1    3    3    0  502 -0.24291344429E+03 -0.44638895923E+02  0.22954670328E+03  0.33718373972E+03  0.12699999809E+01 0.  1.
</event>
<event>
 5   0  0.2969498E-05  0.1499678E+04  0.7818609E-02  0.8884667E-01
       -2   -1    0    0    0  501  0.00000000000E+00  0.00000000000E+00  0.78244925902E+03  0.78244925902E+03  0.25500000920E-02 0. -1.
        2   -1    0    0  501    0  0.00000000000E+00  0.00000000000E+00 -0.71858767365E+03  0.71858767366E+03  0.25500000920E-02 0.  1.
    10030    2    1    2    0    0  0.00000000000E+00  0.00000000000E+00  0.63861585366E+02  0.15010369327E+04  0.14996778225E+04 0.  0.
        3    1    3    3  502    0 -0.51013991138E+03 -0.98316455685E+01 -0.51803873307E+03  0.72712002420E+03  0.10100000352E+00 0.  1.
       -3    1    3    3    0  502  0.51013991138E+03  0.98316455685E+01  0.58190031843E+03  0.77391690848E+03  0.10100000352E+00 0. -1.
</event>
<event>
 5   0  0.3030702E-05  0.1499280E+04  0.7818609E-02  0.8884932E-01
        2   -1    0    0  501    0  0.00000000000E+00  0.00000000000E+00  0.12818782949E+04  0.12818782949E+04  0.25500000920E-02 0. -1.
       -2   -1    0    0    0  501  0.00000000000E+00  0.00000000000E+00 -0.43838794866E+03  0.43838794867E+03  0.25500000920E-02 0.  1.
    10030    2    1    2    0    0  0.00000000000E+00  0.00000000000E+00  0.84349034628E+03  0.17202662436E+04  0.14992798220E+04 0.  0.
        5    1    3    3  502    0 -0.21098229558E+03 -0.68356078666E+03  0.16474653918E+03  0.73412014703E+03  0.46999998093E+01 0. -1.
       -5    1    3    3    0  502  0.21098229558E+03  0.68356078666E+03  0.67874380711E+03  0.98614609658E+03  0.46999998093E+01 0.  1.
</event>
<event>
 5   0  0.3093600E-05  0.1499262E+04  0.7818609E-02  0.8884944E-01
        2   -1    0    0  501    0  0.00000000000E+00  0.00000000000E+00  0.17667515509E+04  0.17667515509E+04  0.25500000920E-02 0.  1.
       -2   -1    0    0    0  501  0.00000000000E+00  0.00000000000E+00 -0.31806763498E+03  0.31806763499E+03  0.25500000920E-02 0. -1.
    10030    2    1    2    0    0  0.00000000000E+00  0.00000000000E+00  0.14486839159E+04  0.20848191859E+04  0.14992618015E+04 0.  0.
        1    1    3    3  502    0  0.41837016145E+02 -0.72275752946E+03  0.99476176847E+03  0.12303169341E+04  0.50400001928E-02 0.  1.
       -1    1    3    3    0  502 -0.41837016145E+02  0.72275752946E+03  0.45392214743E+03  0.85450225176E+03  0.50400001928E-02 0. -1.
</event>
<event>
 5   0  0.1643498E-05  0.1500553E+04  0.7818609E-02  0.8884085E-01
        1   -1    0    0  501    0  0.00000000000E+00  0.00000000000E+00  0.37760801772E+03  0.37760801776E+03  0.50400001928E-02 0.  1.
       -1   -1    0    0    0  501  0.00000000000E+00  0.00000000000E+00 -0.14907391803E+04  0.14907391803E+04  0.50400001928E-02 0. -1.
    10030    2    1    2    0    0  0.00000000000E+00  0.00000000000E+00 -0.11131311626E+04  0.18683471981E+04  0.15005533204E+04 0.  0.
        4    1    3    3  502    0  0.45921621300E+03 -0.57386196037E+03 -0.74422728687E+03  0.10459794201E+04  0.12699999809E+01 0. -1.
       -4    1    3    3    0  502 -0.45921621300E+03  0.57386196037E+03 -0.36890387573E+03  0.82236777799E+03  0.12699999809E+01 0.  1.
</event>
<event>
 5   0  0.3093600E-05  0.1496903E+04  0.7818609E-02  0.8886515E-01
        2   -1    0    0  501    0  0.00000000000E+00  0.00000000000E+00  0.97272968272E+03  0.97272968272E+03  0.25500000920E-02 0.  1.
       -2   -1    0    0    0  501  0.00000000000E+00  0.00000000000E+00 -0.57588383928E+03  0.57588383928E+03  0.25500000920E-02 0. -1.
    10030    2    1    2    0    0  0.00000000000E+00  0.00000000000E+00  0.39684584344E+03  0.15486135220E+04  0.14969025409E+04 0.  0.
        1    1    3    3  502    0 -0.17310114959E+03 -0.57191463148E+03 -0.26784488830E+03  0.65482153134E+03  0.50400001928E-02 0. -1.
       -1    1    3    3    0  502  0.17310114959E+03  0.57191463148E+03  0.66469073174E+03  0.89379199067E+03  0.50400001928E-02 0.  1.
</event>
<event>
 5   0  0.1576214E-05  0.1500550E+04  0.7818609E-02  0.8884087E-01
       -1   -1    0    0    0  501  0.00000000000E+00  0.00000000000E+00  0.10935210729E+04  0.10935210729E+04  0.50400001928E-02 0.  1.
        1   -1    0    0  501    0  0.00000000000E+00  0.00000000000E+00 -0.51477068123E+03  0.51477068125E+03  0.50400001928E-02 0. -1.
    10030    2    1    2    0    0  0.00000000000E+00  0.00000000000E+00  0.57875039166E+03  0.16082917542E+04  0.15005500160E+04 0.  0.
        1    1    3    3  502    0  0.62312857567E+03 -0.77883873918E+02 -0.15066095684E+03  0.64579706067E+03  0.50400001928E-02 0. -1.
       -1    1    3    3    0  502 -0.62312857567E+03  0.77883873918E+02  0.72941134850E+03  0.96249469348E+03  0.50400001928E-02 0.  1.
</event>
<event>
 5   0  0.3070497E-05  0.1499257E+04  0.7818609E-02  0.8884947E-01
       -2   -1    0    0    0  501  0.00000000000E+00  0.00000000000E+00  0.31300879328E+03  0.31300879329E+03  0.25500000920E-02 0. -1.
        2   -1    0    0  501    0  0.00000000000E+00  0.00000000000E+00 -0.17952945672E+04  0.17952945672E+04  0.25500000920E-02 0.  1.
    10030    2    1    2    0    0  0.00000000000E+00  0.00000000000E+00 -0.14822857739E+04  0.21083033605E+04  0.14992571308E+04 0.  0.
        4    1    3    3  502    0  0.74798103900E+03 -0.45807734154E+01 -0.67161249963E+03  0.10052669201E+04  0.12699999809E+01 0. -1.
       -4    1    3    3    0  502 -0.74798103900E+03  0.45807734154E+01 -0.81067327428E+03  0.11030364403E+04  0.12699999809E+01 0.  1.
</event>
<event>
 5   0  0.1576214E-05  0.1499833E+04  0.7818609E-02  0.8884564E-01
       -1   -1    0    0    0  501  0.00000000000E+00  0.00000000000E+00  0.99186636881E+03  0.99186636882E+03  0.50400001928E-02 0. -1.
        1   -1    0    0  501    0  0.00000000000E+00  0.00000000000E+00 -0.56698662152E+03  0.56698662154E+03  0.50400001928E-02 0.  1.
    10030    2    1    2    0    0  0.00000000000E+00  0.00000000000E+00  0.42487974729E+03  0.15588529904E+04  0.14998332727E+04 0.  0.
        1    1    3    3  502    0  0.23056055038E+02  0.30199126095E+03  0.92547141806E+03  0.97376981317E+03  0.50400001928E-02 0. -1.
       -1    1    3    3    0  502 -0.23056055038E+02 -0.30199126095E+03 -0.50059167077E+03  0.58508317720E+03  0.50400001928E-02 0.  1.
</event>
<event>
 5   0  0.3030702E-05  0.1500465E+04  0.7818609E-02  0.8884144E-01
        2   -1    0    0  501    0  0.00000000000E+00  0.00000000000E+00  0.86028271816E+03  0.86028271816E+03  0.25500000920E-02 0.  1.
       -2   -1    0    0    0  501  0.00000000000E+00  0.00000000000E+00 -0.65426014609E+03  0.65426014609E+03  0.25500000920E-02 0. -1.
    10030    2    1    2    0    0  0.00000000000E+00  0.00000000000E+00  0.20602257207E+03  0.15145428643E+04  0.15004648571E+04 0.  0.
        5    1    3    3  502    0  0.26746772746E+03  0.67479876906E+03 -0.88330573670E+02  0.73124328660E+03  0.46999998093E+01 0.  1.
       -5    1    3    3    0  502 -0.26746772746E+03 -0.67479876906E+03  0.29435314574E+03  0.78329957766E+03  0.46999998093E+01 0. -1.
</event>
<event>
 5   0  0.3030702E-05  0.1499837E+04  0.7818609E-02  0.8884561E-01
       -2   -1    0    0    0  501  0.00000000000E+00  0.00000000000E+00  0.32891284383E+03  0.32891284384E+03  0.25500000920E-02 0.  1.
        2   -1    0    0  501    0  0.00000000000E+00  0.00000000000E+00 -0.17098074456E+04  0.17098074456E+04  0.25500000920E-02 0. -1.
    10030    2    1    2    0    0  0.00000000000E+00  0.00000000000E+00 -0.13808946017E+04  0.20387202894E+04  0.14998368302E+04 0.  0.
        5    1    3    3  502    0 -0.49271010298E+03  0.47933156394E+03 -0.28303615938E+03  0.74340671996E+03  0.46999998093E+01 0.  1.
       -5    1    3    3    0  502  0.49271010298E+03 -0.47933156394E+03 -0.10978584424E+04  0.12953135695E+04  0.46999998093E+01 0. -1.
</event>
<event>
 5   0  0.3018308E-05  0.1499614E+04  0.7818609E-02  0.8884710E-01
        2   -1    0    0  501    0  0.00000000000E+00  0.00000000000E+00  0.14098941364E+04  0.14098941364E+04  0.25500000920E-02 0.  1.
       -2   -1    0    0    0  501  0.00000000000E+00  0.00000000000E+00 -0.39876088548E+03  0.39876088549E+03  0.25500000920E-02 0. -1.
    10030    2    1    2    0    0  0.00000000000E+00  0.00000000000E+00  0.10111332509E+04  0.18086550219E+04  0.14996141294E+04 0.  0.
        2    1    3    3  502    0 -0.79011415678E+02 -0.48125942907E+03  0.11924578708E+04  0.12883358318E+04  0.25500000920E-02 0.  1.
       -2    1    3    3    0  502  0.79011415678E+02  0.48125942907E+03 -0.18132461981E+03  0.52031919015E+03  0.25500000920E-02 0. -1.
</event>
<event>
 5   0  0.3018308E-05  0.1499664E+04  0.7818609E-02  0.8884677E-01
       -2   -1    0    0    0  501  0.00000000000E+00  0.00000000000E+00  0.78131916499E+03  0.78131916500E+03  0.25500000920E-02 0.  1.
        2   -1    0    0  501    0  0.00000000000E+00  0.00000000000E+00 -0.71961353589E+03  0.71961353589E+03  0.25500000920E-02 0. -1.
    10030    2    1    2    0    0  0.00000000000E+00  0.00000000000E+00  0.61705629101E+02  0.15009327009E+04  0.14996637583E+04 0.  0.
        2    1    3    3  502    0  0.65989660173E+03  0.31043738076E+03  0.20539348123E+03  0.75764198306E+03  0.25500000920E-02 0. -1.
       -2    1    3    3    0  502 -0.65989660173E+03 -0.31043738076E+03 -0.14368785213E+03  0.74329071783E+03  0.25500000920E-02 0.  1.
</event>
<event>
 5   0  0.3093600E-05  0.1500011E+04  0.7818609E-02  0.8884445E-01
       -2   -1    0    0    0  501  0.00000000000E+00  0.00000000000E+00  0.41848788147E+03  0.41848788148E+03  0.25500000920E-02 0.  1.
        2   -1    0    0  501    0  0.00000000000E+00  0.00000000000E+00 -0.13441454244E+04  0.13441454244E+04  0.25500000920E-02 0. -1.
    10030    2    1    2    0    0  0.00000000000E+00  0.00000000000E+00 -0.92565754297E+03  0.17626333059E+04  0.15000114281E+04 0.  0.
        1    1    3    3  502    0 -0.17602920824E+02 -0.23273723089E+03  0.37472553666E+03  0.44146994158E+03  0.50400001928E-02 0.  1.
       -1    1    3    3    0  502  0.17602920824E+02  0.23273723089E+03 -0.13003830796E+04  0.13211633643E+04  0.50400001928E-02 0. -1.
</event>
<event>
 5   0  0.1533777E-05  0.1499944E+04  0.7818609E-02  0.8884490E-01
        1   -1    0    0  501    0  0.00000000000E+00  0.00000000000E+00  0.78864623575E+03  0.78864623576E+03  0.50400001928E-02 0. -1.
       -1   -1    0    0    0  501  0.00000000000E+00  0.00000000000E+00 -0.71319406640E+03  0.71319406642E+03  0.50400001928E-02 0.  1.
    10030    2    1    2    0    0  0.00000000000E+00  0.00000000000E+00  0.75452169342E+02  0.15018403022E+04  0.14999437534E+04 0.  0.
        5    1    3    3  502    0 -0.50785456703E+03 -0.53305978200E+03 -0.10516642706E+03  0.74374125865E+03  0.46999998093E+01 0.  1.
       -5    1    3    3    0  502  0.50785456703E+03  0.53305978200E+03  0.18061859640E+03  0.75809904353E+03  0.46999998093E+01 0. -1.
</event>
<event>
 5   0  0.1588657E-05  0.1501570E+04  0.7818609E-02  0.8883410E-01
       -1   -1    0    0    0  501  0.00000000000E+00  0.00000000000E+00  0.79553660754E+03  0.79553660756E+03  0.50400001928E-02 0.  1.
        1   -1    0    0  501    0  0.00000000000E+00  0.00000000000E+00 -0.70855038358E+03  0.70855038360E+03  0.50400001928E-02 0. -1.
    10030    2    1    2    0    0  0.00000000000E+00  0.00000000000E+00  0.86986223958E+02  0.15040869912E+04  0.15015695368E+04 0.  0.
        3    1    3    3  502    0 -0.16333348009E+03  0.62020655792E+03 -0.34747365094E+03  0.72943262094E+03  0.10100000352E+00 0.  1.
       -3    1    3    3    0  502  0.16333348009E+03 -0.62020655792E+03  0.43445987489E+03  0.77465437022E+03  0.10100000352E+00 0. -1.
</event>
<event>
 5   0  0.1116613E-05  0.1501121E+04  0.7818609E-02  0.8883708E-01
       -3   -1    0    0    0  501  0.00000000000E+00  0.00000000000E+00  0.87930029122E+03  0.87930029702E+03  0.10100000352E+00 0. -1.
        3   -1    0    0  501    0  0.00000000000E+00  0.00000000000E+00 -0.64066954397E+03  0.64066955193E+03  0.10100000352E+00 0.  1.
    10030    2    1    2    0    0  0.00000000000E+00  0.00000000000E+00  0.23863074725E+03  0.15199698490E+04  0.15011208173E+04 0.  0.
        3    1    3    3  502    0 -0.34240774610E+03 -0.11420022545E+03 -0.54701780115E+03  0.65537259712E+03  0.10100000352E+00 0.  1.
       -3    1    3    3    0  502  0.34240774610E+03  0.11420022545E+03  0.78564854840E+03  0.86459725183E+03  0.10100000352E+00 0. -1.
</event>
<event>
 5   0  0.2969498E-05  0.1499741E+04  0.7818609E-02  0.8884625E-01
        2   -1    0    0  501    0  0.00000000000E+00  0.00000000000E+00  0.12563036323E+04  0.12563036323E+04  0.25500000920E-02 0. -1.
       -2   -1    0    0    0  501  0.00000000000E+00  0.00000000000E+00 -0.44758765807E+03  0.44758765808E+03  0.25500000920E-02 0.  1.
    10030    2    1    2    0    0  0.00000000000E+00  0.00000000000E+00  0.80871597427E+03  0.17038912904E+04  0.14997413119E+04 0.  0.
        3    1    3    3  502    0  0.21318967540E+03  0.89356852993E+00  0.12211472839E+04  0.12396174149E+04  0.10100000352E+00 0. -1.
       -3    1    3    3    0  502 -0.21318967540E+03 -0.89356852993E+00 -0.41243130960E+03  0.46427387554E+03  0.10100000352E+00 0.  1.
</event>
<event>
 5   0  0.1576214E-05  0.1500833E+04  0.7818609E-02  0.8883899E-01
        1   -1    0    0  501    0  0.00000000000E+00  0.00000000000E+00  0.16015903618E+04  0.16015903618E+04  0.50400001928E-02 0. -1.
       -1   -1    0    0    0  501  0.00000000000E+00  0.00000000000E+00 -0.35160366342E+03  0.35160366345E+03  0.50400001928E-02 0.  1.
    10030    2    1    2    0    0  0.00000000000E+00  0.00000000000E+00  0.12499866983E+04  0.19531940252E+04  0.15008331533E+04 0.  0.
        1    1    3    3  502    0 -0.43877940166E+03  0.56923177286E+03  0.90584659347E+03  0.11563348241E+04  0.50400001928E-02 0.  1.
       -1    1    3    3    0  502  0.43877940166E+03 -0.56923177286E+03  0.34414010487E+03  0.79685920109E+03  0.50400001928E-02 0. -1.
</event>
<event>
 5   0  0.3018308E-05  0.1500394E+04  0.7818609E-02  0.8884191E-01
       -2   -1    0    0    0  501  0.00000000000E+00  0.00000000000E+00  0.30203027594E+03  0.30203027595E+03  0.25500000920E-02 0. -1.
        2   -1    0    0  501    0  0.00000000000E+00  0.00000000000E+00 -0.18633737873E+04  0.18633737873E+04  0.25500000920E-02 0.  1.
    10030    2    1    2    0    0  0.00000000000E+00  0.00000000000E+00 -0.15613435114E+04  0.21654040633E+04  0.15003936806E+04 0.  0.
        2    1    3    3  502    0 -0.15494853903E+03 -0.15608798078E+03  0.25445568588E+03  0.33633347079E+03  0.25500000920E-02 0. -1.
       -2    1    3    3    0  502  0.15494853903E+03  0.15608798078E+03 -0.18157991973E+04  0.18290705925E+04  0.25500000920E-02 0.  1.
</event>
<event>
 5   0  0.1643498E-05  0.1500171E+04  0.7818609E-02  0.8884339E-01
        1   -1    0    0  501    0  0.00000000000E+00  0.00000000000E+00  0.51254351630E+03  0.51254351632E+03  0.50400001928E-02 0.  1.
       -1   -1    0    0    0  501  0.00000000000E+00  0.00000000000E+00 -0.10977181360E+04  0.10977181360E+04  0.50400001928E-02 0. -1.
    10030    2    1    2    0    0  0.00000000000E+00  0.00000000000E+00 -0.58517461971E+03  0.16102616523E+04  0.15001710747E+04 0.  0.
        4    1    3    3  502    0 -0.43812135276E+03 -0.20461724688E+03  0.32291113292E+03  0.58145657630E+03  0.12699999809E+01 0.  1.
       -4    1    3    3    0  502  0.43812135276E+03  0.20461724688E+03 -0.90808575263E+03  0.10288050760E+04  0.12699999809E+01 0. -1.
</event>
<event>
 5   0  0.1576214E-05  0.1500403E+04  0.7818609E-02  0.8884185E-01
       -1   -1    0    0    0  501  0.00000000000E+00  0.00000000000E+00  0.37075887155E+03  0.37075887158E+03  0.50400001928E-02 0.  1.
        1   -1    0    0  501    0  0.00000000000E+00  0.00000000000E+00 -0.15179745437E+04  0.15179745437E+04  0.50400001928E-02 0. -1.
    10030    2    1    2    0    0  0.00000000000E+00  0.00000000000E+00 -0.11472156722E+04  0.18887334153E+04  0.15004033177E+04 0.  0.
        1    1    3    3  502    0 -0.68260416201E+03  0.89411483989E+01 -0.96520750375E+03  0.11822241376E+04  0.50400001928E-02 0. -1.
       -1    1    3    3    0  502  0.68260416201E+03 -0.89411483989E+01 -0.18200816842E+03  0.70650927774E+03  0.50400001928E-02 0.  1.
</event>
<event>
 5   0  0.1580078E-05  0.1499915E+04  0.7818609E-02  0.8884510E-01
        1   -1    0    0  501    0  0.00000000000E+00  0.00000000000E+00  0.12030751925E+04  0.12030751925E+04  0.50400001928E-02 0. -1.
       -1   -1    0    0    0  501  0.00000000000E+00  0.00000000000E+00 -0.46749865874E+03  0.46749865877E+03  0.50400001928E-02 0.  1.
    10030    2    1    2    0    0  0.00000000000E+00  0.00000000000E+00  0.73557653380E+03  0.16705738513E+04  0.14999147161E+04 0.  0.
        2    1    3    3  502    0 -0.80623050819E+02  0.13685823432E+03 -0.44854868236E+03  0.47584259276E+03  0.25500000920E-02 0.  1.
       -2    1    3    3    0  502  0.80623050819E+02 -0.13685823432E+03  0.11841252162E+04  0.11947312586E+04  0.25500000920E-02 0. -1.
</event>
<event>
 5   0  0.1588657E-05  0.1499679E+04  0.7818609E-02  0.8884667E-01
        1   -1    0    0  501    0  0.00000000000E+00  0.00000000000E+00  0.21491044733E+04  0.21491044733E+04  0.50400001928E-02 0. -1.
       -1   -1    0    0    0  501  0.00000000000E+00  0.00000000000E+00 -0.26162479657E+03  0.26162479662E+03  0.50400001928E-02 0.  1.
    10030    2    1    2    0    0  0.00000000000E+00  0.00000000000E+00  0.18874796768E+04  0.24107292700E+04  0.14996786599E+04 0.  0.
        3    1    3    3  502    0  0.85066644821E+02 -0.73974584913E+03  0.10856988189E+04  0.13165113713E+04  0.10100000352E+00 0.  1.
       -3    1    3    3    0  502 -0.85066644821E+02  0.73974584913E+03  0.80178085789E+03  0.10942178986E+04  0.10100000352E+00 0. -1.
</event>
<event>
 5   0  0.3070497E-05  0.1499997E+04  0.7818609E-02  0.8884455E-01
        2   -1    0    0  501    0  0.00000000000E+00  0.00000000000E+00  0.53720213715E+03  0.53720213715E+03  0.25500000920E-02 0.  1.
       -2   -1    0    0    0  501  0.00000000000E+00  0.00000000000E+00 -0.10470876554E+04  0.10470876554E+04  0.25500000920E-02 0. -1.
    10030    2    1    2    0    0  0.00000000000E+00  0.00000000000E+00 -0.50988551827E+03  0.15842897926E+04  0.14999969684E+04 0.  0.
        4    1    3    3  502    0 -0.19695139181E+03  0.44270218902E+03 -0.85958210027E+03  0.98674114078E+03  0.12699999809E+01 0. -1.
       -4    1    3    3    0  502  0.19695139181E+03 -0.44270218902E+03  0.34969658200E+03  0.59754865179E+03  0.12699999809E+01 0.  1.
</event>
<event>
 5   0  0.3070497E-05  0.1500202E+04  0.7818609E-02  0.8884319E-01
       -2   -1    0    0    0  501  0.00000000000E+00  0.00000000000E+00  0.15154948625E+04  0.15154948625E+04  0.25500000920E-02 0.  1.
        2   -1    0    0  501    0  0.00000000000E+00  0.00000000000E+00 -0.37126567969E+03  0.37126567970E+03  0.25500000920E-02 0. -1.
    10030    2    1    2    0    0  0.00000000000E+00  0.00000000000E+00  0.11442291828E+04  0.18867605422E+04  0.15002016267E+04 0.  0.
        4    1    3    3  502    0  0.28494983494E+03  0.14285655333E+03 -0.28184812946E+03  0.42549310716E+03  0.12699999809E+01 0. -1.
       -4    1    3    3    0  502 -0.28494983494E+03 -0.14285655333E+03  0.14260773123E+04  0.14612674351E+04  0.12699999809E+01 0.  1.
</event>
<event>
 5   0  0.1580078E-05  0.1501060E+04  0.7818609E-02  0.8883749E-01
        1   -1    0    0  501    0  0.00000000000E+00  0.00000000000E+00  0.11550886947E+04  0.11550886947E+04  0.50400001928E-02 0.  1.
       -1   -1    0    0    0  501  0.00000000000E+00  0.00000000000E+00 -0.48766376955E+03  0.48766376958E+03  0.50400001928E-02 0. -1.
    10030    2    1    2    0    0  0.00000000000E+00  0.00000000000E+00  0.66742492516E+03  0.16427524643E+04  0.15010595019E+04 0.  0.
        2    1    3    3  502    0  0.34635426021E+03 -0.62433777843E+03  0.80493010302E+02  0.71849708410E+03  0.25500000920E-02 0. -1.
       -2    1    3    3    0  502 -0.34635426021E+03  0.62433777843E+03  0.58693191485E+03  0.92425538020E+03  0.25500000920E-02 0.  1.
</event>
<event>
 5   0  0.3070497E-05  0.1499354E+04  0.7818609E-02  0.8884882E-01
       -2   -1    0    0    0  501  0.00000000000E+00  0.00000000000E+00  0.40960640913E+03  0.40960640914E+03  0.25500000920E-02 0.  1.
        2   -1    0    0  501    0  0.00000000000E+00  0.00000000000E+00 -0.13720873653E+04  0.13720873653E+04  0.25500000920E-02 0. -1.
    10030    2    1    2    0    0  0.00000000000E+00  0.00000000000E+00 -0.96248095614E+03  0.17816937744E+04  0.14993542326E+04 0.  0.
        4    1    3    3  502    0 -0.70121663868E+03 -0.26243983037E+03 -0.43623001999E+03  0.86653198565E+03  0.12699999809E+01 0.  1.
       -4    1    3    3    0  502  0.70121663868E+03  0.26243983037E+03 -0.52625093616E+03  0.91516178877E+03  0.12699999809E+01 0. -1.
</event>
<event>
 5   0  0.3093600E-05  0.1499990E+04  0.7818609E-02  0.8884460E-01
       -2   -1    0    0    0  501  0.00000000000E+00  0.00000000000E+00  0.43154358758E+03  0.43154358758E+03  0.25500000920E-02 0. -1.
        2   -1    0    0  501    0  0.00000000000E+00  0.00000000000E+00 -0.13034431243E+04  0.13034431243E+04  0.25500000920E-02 0.  1.
    10030    2    1    2    0    0  0.00000000000E+00  0.00000000000E+00 -0.87189953671E+03  0.17349867119E+04  0.14999900294E+04 0.  0.
        1    1    3    3  502    0 -0.17902898125E+03  0.32742441544E+03 -0.11884354826E+04  0.12456472295E+04  0.50400001928E-02 0.  1.
       -1    1    3    3    0  502  0.17902898125E+03 -0.32742441544E+03  0.31653594590E+03  0.48933948239E+03  0.50400001928E-02 0. -1.
</event>
<event>
 5   0  0.3070497E-05  0.1500431E+04  0.7818609E-02  0.8884166E-01
       -2   -1    0    0    0  501  0.00000000000E+00  0.00000000000E+00  0.28678775295E+03  0.28678775296E+03  0.25500000920E-02 0. -1.
        2   -1    0    0  501    0  0.00000000000E+00  0.00000000000E+00 -0.19625082967E+04  0.19625082967E+04  0.25500000920E-02 0.  1.
    10030    2    1    2    0    0  0.00000000000E+00  0.00000000000E+00 -0.16757205437E+04  0.22492960496E+04  0.15004310641E+04 0.  0.
        4    1    3    3  502    0 -0.18821906661E+03 -0.25692416114E+03 -0.18561290919E+04  0.18832560262E+04  0.12699999809E+01 0.  1.
       -4    1    3    3    0  502  0.18821906661E+03  0.25692416114E+03  0.18040854815E+03  0.36604002344E+03  0.12699999809E+01 0. -1.
</event>
<event>
 5   0  0.1588657E-05  0.1497315E+04  0.7818609E-02  0.8886240E-01
        1   -1    0    0  501    0  0.00000000000E+00  0.00000000000E+00  0.44459145129E+03  0.44459145132E+03  0.50400001928E-02 0.  1.
       -1   -1    0    0    0  501  0.00000000000E+00  0.00000000000E+00 -0.12606809841E+04  0.12606809841E+04  0.50400001928E-02 0. -1.
    10030    2    1    2    0    0  0.00000000000E+00  0.00000000000E+00 -0.81608953282E+03  0.17052724355E+04  0.14973149146E+04 0.  0.
        3    1    3    3  502    0 -0.79439696578E+02  0.46310659477E+03  0.25575107615E+03  0.53496449103E+03  0.10100000352E+00 0.  1.
       -3    1    3    3    0  502  0.79439696578E+02 -0.46310659477E+03 -0.10718406090E+04  0.11703079444E+04  0.10100000352E+00 0. -1.
</event>
<event>
 5   0  0.3030702E-05  0.1500224E+04  0.7818609E-02  0.8884304E-01
        2   -1    0    0  501    0  0.00000000000E+00  0.00000000000E+00  0.85178846717E+03  0.85178846718E+03  0.25500000920E-02 0. -1.
       -2   -1    0    0    0  501  0.00000000000E+00  0.00000000000E+00 -0.66057259064E+03  0.66057259065E+03  0.25500000920E-02 0.  1.
    10030    2    1    2    0    0  0.00000000000E+00  0.00000000000E+00  0.19121587653E+03  0.15123610578E+04  0.15002241359E+04 0.  0.
        5    1    3    3  502    0 -0.63260165236E+03 -0.39155743573E+03 -0.78966171088E+00  0.74399246610E+03  0.46999998093E+01 0. -1.
       -5    1    3    3    0  502  0.63260165236E+03  0.39155743573E+03  0.19200553824E+03  0.76836859173E+03  0.46999998093E+01 0.  1.
</event>
<event>
 5   0  0.1533777E-05  0.1500073E+04  0.7818609E-02  0.8884405E-01
        1   -1    0    0  501    0  0.00000000000E+00  0.00000000000E+00  0.13708746501E+04  0.13708746501E+04  0.50400001928E-02 0.  1.
       -1   -1    0    0    0  501  0.00000000000E+00  0.00000000000E+00 -0.41036172314E+03  0.41036172317E+03  0.50400001928E-02 0. -1.
    10030    2    1    2    0    0  0.00000000000E+00  0.00000000000E+00  0.96051292696E+03  0.17812363733E+04  0.15000726431E+04 0.  0.
        5    1    3    3  502    0  0.24805571395E+03 -0.26022164757E+03 -0.30136471270E+03  0.46913721142E+03  0.46999998093E+01 0. -1.
       -5    1    3    3    0  502 -0.24805571395E+03  0.26022164757E+03  0.12618776397E+04  0.13120991619E+04  0.46999998093E+01 0.  1.
</event>
<event>
 5   0  0.1588657E-05  0.1499942E+04  0.7818609E-02  0.8884492E-01
        1   -1    0    0  501    0  0.00000000000E+00  0.00000000000E+00  0.11076760539E+04  0.11076760539E+04  0.50400001928E-02 0.  1.
       -1   -1    0    0    0  501  0.00000000000E+00  0.00000000000E+00 -0.50778060077E+03  0.50778060080E+03  0.50400001928E-02 0. -1.
    10030    2    1    2    0    0  0.00000000000E+00  0.00000000000E+00  0.59989545313E+03  0.16154566547E+04  0.14999418817E+04 0.  0.
        3    1    3    3  502    0 -0.54062926433E+03 -0.28898262327E+03 -0.16537347588E+03  0.63493255919E+03  0.10100000352E+00 0. -1.
       -3    1    3    3    0  502  0.54062926433E+03  0.28898262327E+03  0.76526892901E+03  0.98052409552E+03  0.10100000352E+00 0.  1.
</event>
<event>
 5   0  0.3030702E-05  0.1499994E+04  0.7818609E-02  0.8884457E-01
        2   -1    0    0  501    0  0.00000000000E+00  0.00000000000E+00  0.83648380406E+03  0.83648380407E+03  0.25500000920E-02 0. -1.
       -2   -1    0    0    0  501  0.00000000000E+00  0.00000000000E+00 -0.67245262424E+03  0.67245262425E+03  0.25500000920E-02 0.  1.
    10030    2    1    2    0    0  0.00000000000E+00  0.00000000000E+00  0.16403117982E+03  0.15089364283E+04  0.14999943056E+04 0.  0.
        5    1    3    3  502    0  0.65630020839E+03  0.25379543147E+02 -0.28221963248E+03  0.71487348230E+03  0.46999998093E+01 0.  1.
       -5    1    3    3    0  502 -0.65630020839E+03 -0.25379543147E+02  0.44625081230E+03  0.79406294601E+03  0.46999998093E+01 0. -1.
</event>
<event>
 5   0  0.1576214E-05  0.1499027E+04  0.7818609E-02  0.8885100E-01
        1   -1    0    0  501    0  0.00000000000E+00  0.00000000000E+00  0.65342872758E+03  0.65342872760E+03  0.50400001928E-02 0. -1.
       -1   -1    0    0    0  501  0.00000000000E+00  0.00000000000E+00 -0.85972723429E+03  0.85972723430E+03  0.50400001928E-02 0.  1.
    10030    2    1    2    0    0  0.00000000000E+00  0.00000000000E+00 -0.20629850671E+03  0.15131559619E+04  0.14990269815E+04 0.  0.
        1    1    3    3  502    0 -0.62323596488E+03  0.38775486018E+03 -0.25621481057E+03  0.77744641532E+03  0.50400001928E-02 0.  1.
       -1    1    3    3    0  502  0.62323596488E+03 -0.38775486018E+03  0.49916303858E+02  0.73570954658E+03  0.50400001928E-02 0. -1.
</event>
<event>
 5   0  0.1643498E-05  0.1500575E+04  0.7818609E-02  0.8884071E-01
       -1   -1    0    0    0  501  0.00000000000E+00  0.00000000000E+00  0.47497689470E+03  0.47497689472E+03  0.50400001928E-02 0.  1.
        1   -1    0    0  501    0  0.00000000000E+00  0.00000000000E+00 -0.11851764707E+04  0.11851764707E+04  0.50400001928E-02 0. -1.
    10030    2    1    2    0    0  0.00000000000E+00  0.00000000000E+00 -0.71019957602E+03  0.16601533654E+04  0.15005751427E+04 0.  0.
        4    1    3    3  502    0  0.58531434093E+03  0.10615371515E+03  0.15076516906E+03  0.61367193030E+03  0.12699999809E+01 0.  1.
       -4    1    3    3    0  502 -0.58531434093E+03 -0.10615371515E+03 -0.86096474508E+03  0.10464814351E+04  0.12699999809E+01 0. -1.
</event>
<event>
 5   0  0.1533777E-05  0.1500621E+04  0.7818609E-02  0.8884040E-01
        1   -1    0    0  501    0  0.00000000000E+00  0.00000000000E+00  0.87533410690E+03  0.87533410691E+03  0.50400001928E-02 0. -1.
       -1   -1    0    0    0  501  0.00000000000E+00  0.00000000000E+00 -0.64314387889E+03  0.64314387891E+03  0.50400001928E-02 0.  1.
    10030    2    1    2    0    0  0.00000000000E+00  0.00000000000E+00  0.23219022801E+03  0.15184779858E+04  0.15006209020E+04 0.  0.
        5    1    3    3  502    0 -0.16746839487E+03 -0.45679909341E+03  0.69405965234E+03  0.84761545881E+03  0.46999998093E+01 0. -1.
       -5    1    3    3    0  502  0.16746839487E+03  0.45679909341E+03 -0.46186942433E+03  0.67086252701E+03  0.46999998093E+01 0.  1.
</event>
<event>
 5   0  0.1576214E-05  0.1499580E+04  0.7818609E-02  0.8884732E-01
        1   -1    0    0  501    0  0.00000000000E+00  0.00000000000E+00  0.44212296357E+03  0.44212296360E+03  0.50400001928E-02 0.  1.
       -1   -1    0    0    0  501  0.00000000000E+00  0.00000000000E+00 -0.12715587776E+04  0.12715587776E+04  0.50400001928E-02 0. -1.
    10030    2    1    2    0    0  0.00000000000E+00  0.00000000000E+00 -0.82943581400E+03  0.17136817412E+04  0.14995803881E+04 0.  0.
        1    1    3    3  502    0 -0.61950428938E+03  0.33783823268E+03 -0.12501823185E+03  0.71662388625E+03  0.50400001928E-02 0. -1.
       -1    1    3    3    0  502  0.61950428938E+03 -0.33783823268E+03 -0.70441758215E+03  0.99705785493E+03  0.50400001928E-02 0.  1.
</event>
<event>
 5   0  0.1576214E-05  0.1497440E+04  0.7818609E-02  0.8886157E-01
       -1   -1    0    0    0  501  0.00000000000E+00  0.00000000000E+00  0.33250119909E+03  0.33250119913E+03  0.50400001928E-02 0. -1.
        1   -1    0    0  501    0  0.00000000000E+00  0.00000000000E+00 -0.16859526944E+04  0.16859526944E+04  0.50400001928E-02 0.  1.
    10030    2    1    2    0    0  0.00000000000E+00  0.00000000000E+00 -0.13534514953E+04  0.20184538935E+04  0.14974395381E+04 0.  0.
        1    1    3    3  502    0  0.39457079842E+03  0.62885690639E+03 -0.80765037907E+03  0.10970169819E+04  0.50400001928E-02 0.  1.
       -1    1    3    3    0  502 -0.39457079842E+03 -0.62885690639E+03 -0.54580111625E+03  0.92143691168E+03  0.50400001928E-02 0. -1.
</event>
<event>
 5   0  0.3070497E-05  0.1500022E+04  0.7818609E-02  0.8884438E-01
        2   -1    0    0  501    0  0.00000000000E+00  0.00000000000E+00  0.17475490562E+04  0.17475490562E+04  0.25500000920E-02 0.  1.
       -2   -1    0    0    0  501  0.00000000000E+00  0.00000000000E+00 -0.32188875156E+03  0.32188875157E+03  0.25500000920E-02 0. -1.
    10030    2    1    2    0    0  0.00000000000E+00  0.00000000000E+00  0.14256603046E+04  0.20694378078E+04  0.15000218452E+04 0.  0.
        4    1    3    3  502    0  0.30006905141E+03 -0.30323463769E+03  0.15638598824E+04  0.16210034009E+04  0.12699999809E+01 0.  1.
       -4    1    3    3    0  502 -0.30006905141E+03  0.30323463769E+03 -0.13819957771E+03  0.44843440690E+03  0.12699999809E+01 0. -1.
</event>
<event>
 5   0  0.1643498E-05  0.1500188E+04  0.7818609E-02  0.8884328E-01
        1   -1    0    0  501    0  0.00000000000E+00  0.00000000000E+00  0.64506173770E+03  0.64506173772E+03  0.50400001928E-02 0. -1.
       -1   -1    0    0    0  501  0.00000000000E+00  0.00000000000E+00 -0.87222762755E+03  0.87222762757E+03  0.50400001928E-02 0.  1.
    10030    2    1    2    0    0  0.00000000000E+00  0.00000000000E+00 -0.22716588985E+03  0.15172893653E+04  0.15001875471E+04 0.  0.
        4    1    3    3  502    0 -0.59058337180E+01 -0.31382260316E+03 -0.80261240270E+03  0.86180495878E+03  0.12699999809E+01 0.  1.
       -4    1    3    3    0  502  0.59058337180E+01  0.31382260316E+03  0.57544651284E+03  0.65548440650E+03  0.12699999809E+01 0. -1.
</event>
<event>
 5   0  0.1576214E-05  0.1499706E+04  0.7818609E-02  0.8884649E-01
       -1   -1    0    0    0  501  0.00000000000E+00  0.00000000000E+00  0.53251243896E+03  0.53251243898E+03  0.50400001928E-02 0. -1.
        1   -1    0    0  501    0  0.00000000000E+00  0.00000000000E+00 -0.10558989371E+04  0.10558989372E+04  0.50400001928E-02 0.  1.
    10030    2    1    2    0    0  0.00000000000E+00  0.00000000000E+00 -0.52338649819E+03  0.15884113761E+04  0.14997057289E+04 0.  0.
        1    1    3    3  502    0 -0.56460428562E+03 -0.22337848848E+03  0.20433623565E+03  0.64064752063E+03  0.50400001928E-02 0. -1.
       -1    1    3    3    0  502  0.56460428562E+03  0.22337848848E+03 -0.72772273383E+03  0.94776385552E+03  0.50400001928E-02 0.  1.
</event>
<event>
 5   0  0.1588657E-05  0.1500826E+04  0.7818609E-02  0.8883904E-01
        1   -1    0    0  501    0  0.00000000000E+00  0.00000000000E+00  0.71708076715E+03  0.71708076717E+03  0.50400001928E-02 0. -1.
       -1   -1    0    0    0  501  0.00000000000E+00  0.00000000000E+00 -0.78529439690E+03  0.78529439692E+03  0.50400001928E-02 0.  1.
    10030    2    1    2    0    0  0.00000000000E+00  0.00000000000E+00 -0.68213629748E+02  0.15023751641E+04  0.15008257842E+04 0.  0.
        3    1    3    3  502    0  0.12638000627E+03 -0.73498899381E+03  0.49278467337E+02  0.74740156847E+03  0.10100000352E+00 0. -1.
       -3    1    3    3    0  502 -0.12638000627E+03  0.73498899381E+03 -0.11749209709E+03  0.75497359562E+03  0.10100000352E+00 0.  1.
</event>
<event>
 5   0  0.1588657E-05  0.1499872E+04  0.7818609E-02  0.8884538E-01
        1   -1    0    0  501    0  0.00000000000E+00  0.00000000000E+00  0.68210333375E+03  0.68210333377E+03  0.50400001928E-02 0.  1.
       -1   -1    0    0    0  501  0.00000000000E+00  0.00000000000E+00 -0.82451395876E+03  0.82451395877E+03  0.50400001928E-02 0. -1.
    10030    2    1    2    0    0  0.00000000000E+00  0.00000000000E+00 -0.14241062501E+03  0.15066172925E+04  0.14998716212E+04 0.  0.
        3    1    3    3  502    0 -0.46891929809E+02  0.65970993376E+03 -0.42633127891E+03  0.78687636853E+03  0.10100000352E+00 0. -1.
       -3    1    3    3    0  502  0.46891929809E+02 -0.65970993376E+03  0.28392065390E+03  0.71974092401E+03  0.10100000352E+00 0.  1.
</event>
<event>
 5   0  0.3070497E-05  0.1499859E+04  0.7818609E-02  0.8884547E-01
        2   -1    0    0  501    0  0.00000000000E+00  0.00000000000E+00  0.39395611646E+03  0.39395611647E+03  0.25500000920E-02 0.  1.
       -2   -1    0    0    0  501  0.00000000000E+00  0.00000000000E+00 -0.14275556277E+04  0.14275556277E+04  0.25500000920E-02 0. -1.
    10030    2    1    2    0    0  0.00000000000E+00  0.00000000000E+00 -0.10335995113E+04  0.18215117442E+04  0.14998590216E+04 0.  0.
        4    1    3    3  502    0  0.57862317669E+03 -0.39264482244E+03 -0.18773408510E+03  0.72403068775E+03  0.12699999809E+01 0.  1.
       -4    1    3    3    0  502 -0.57862317669E+03  0.39264482244E+03 -0.84586542617E+03  0.10974810565E+04  0.12699999809E+01 0. -1.
</event>
<event>
 5   0  0.1580078E-05  0.1501027E+04  0.7818609E-02  0.8883770E-01
       -1   -1    0    0    0  501  0.00000000000E+00  0.00000000000E+00  0.35155383379E+03  0.35155383383E+03  0.50400001928E-02 0.  1.
        1   -1    0    0  501    0  0.00000000000E+00  0.00000000000E+00 -0.16022321221E+04  0.16022321221E+04  0.50400001928E-02 0. -1.
    10030    2    1    2    0    0  0.00000000000E+00  0.00000000000E+00 -0.12506782883E+04  0.19537859560E+04  0.15010274417E+04 0.  0.
        2    1    3    3  502    0  0.55894613548E+03 -0.29447208764E+03 -0.97999273761E+02  0.63932656009E+03  0.25500000920E-02 0. -1.
       -2    1    3    3    0  502 -0.55894613548E+03  0.29447208764E+03 -0.11526790146E+04  0.13144593959E+04  0.25500000920E-02 0.  1.
</event>
<event>
 5   0  0.1643498E-05  0.1499310E+04  0.7818609E-02  0.8884912E-01
        1   -1    0    0  501    0  0.00000000000E+00  0.00000000000E+00  0.16638444755E+04  0.16638444755E+04  0.50400001928E-02 0. -1.
       -1   -1    0    0    0  501  0.00000000000E+00  0.00000000000E+00 -0.33776139846E+03  0.33776139850E+03  0.50400001928E-02 0.  1.
    10030    2    1    2    0    0  0.00000000000E+00  0.00000000000E+00  0.13260830770E+04  0.20016058740E+04  0.14993097571E+04 0.  0.
        4    1    3    3  502    0 -0.27931158973E+03 -0.79982115653E+01 -0.26563795976E+03  0.38554386795E+03  0.12699999809E+01 0.  1.
       -4    1    3    3    0  502  0.27931158973E+03  0.79982115653E+01  0.15917210368E+04  0.16160620060E+04  0.12699999809E+01 0. -1.
</event>
<event>
 5   0  0.3070497E-05  0.1502904E+04  0.7818609E-02  0.8882524E-01
        2   -1    0    0  501    0  0.00000000000E+00  0.00000000000E+00  0.72427874798E+03  0.72427874798E+03  0.25500000920E-02 0.  1.
       -2   -1    0    0    0  501  0.00000000000E+00  0.00000000000E+00 -0.77964458174E+03  0.77964458174E+03  0.25500000920E-02 0. -1.
    10030    2    1    2    0    0  0.00000000000E+00  0.00000000000E+00 -0.55365833761E+02  0.15039233297E+04  0.15029038579E+04 0.  0.
        4    1    3    3  502    0 -0.13369046245E+03 -0.34700308601E+03 -0.68111445822E+03  0.77601726755E+03  0.12699999809E+01 0. -1.
       -4    1    3    3    0  502  0.13369046245E+03  0.34700308601E+03  0.62574862446E+03  0.72790606218E+03  0.12699999809E+01 0.  1.
</event>
<event>
 5   0  0.3030702E-05  0.1500624E+04  0.7818609E-02  0.8884038E-01
       -2   -1    0    0    0  501  0.00000000000E+00  0.00000000000E+00  0.26204840002E+03  0.26204840004E+03  0.25500000920E-02 0.  1.
        2   -1    0    0  501    0  0.00000000000E+00  0.00000000000E+00 -0.21483351721E+04  0.21483351721E+04  0.25500000920E-02 0. -1.
    10030    2    1    2    0    0  0.00000000000E+00  0.00000000000E+00 -0.18862867721E+04  0.24103835721E+04  0.15006235965E+04 0.  0.
        5    1    3    3  502    0  0.18102608243E+03  0.46435210537E+03 -0.42275971411E+02  0.50020262698E+03  0.46999998093E+01 0.  1.
       -5    1    3    3    0  502 -0.18102608243E+03 -0.46435210537E+03 -0.18440108007E+04  0.19101809452E+04  0.46999998093E+01 0. -1.
</event>
<event>
 5   0  0.1643498E-05  0.1499578E+04  0.7818609E-02  0.8884734E-01
       -1   -1    0    0    0  501  0.00000000000E+00  0.00000000000E+00  0.73482288132E+03  0.73482288134E+03  0.50400001928E-02 0. -1.
        1   -1    0    0  501    0  0.00000000000E+00  0.00000000000E+00 -0.76505993677E+03  0.76505993678E+03  0.50400001928E-02 0.  1.
    10030    2    1    2    0    0  0.00000000000E+00  0.00000000000E+00 -0.30237055444E+02  0.14998828181E+04  0.14995780035E+04 0.  0.
        4    1    3    3  502    0 -0.55787459902E+03 -0.37359199402E+03 -0.34893310974E+03  0.75667098147E+03  0.12699999809E+01 0.  1.
       -4    1    3    3    0  502  0.55787459902E+03  0.37359199402E+03  0.31869605429E+03  0.74321183666E+03  0.12699999809E+01 0. -1.
</event>
<event>
 5   0  0.3070497E-05  0.1500400E+04  0.7818609E-02  0.8884187E-01
       -2   -1    0    0    0  501  0.00000000000E+00  0.00000000000E+00  0.65284602217E+03  0.65284602218E+03  0.25500000920E-02 0.  1.
        2   -1    0    0  501    0  0.00000000000E+00  0.00000000000E+00 -0.86207185348E+03  0.86207185348E+03  0.25500000920E-02 0. -1.
    10030    2    1    2    0    0  0.00000000000E+00  0.00000000000E+00 -0.20922583130E+03  0.15149178757E+04  0.15004001871E+04 0.  0.
        4    1    3    3  502    0 -0.69520457872E+03  0.18991524087E+03 -0.31500708687E+03  0.78651654952E+03  0.12699999809E+01 0. -1.
       -4    1    3    3    0  502  0.69520457872E+03 -0.18991524087E+03  0.10578125557E+03  0.72840132614E+03  0.12699999809E+01 0.  1.
</event>
<event>
 5   0  0.2969498E-05  0.1500351E+04  0.7818609E-02  0.8884219E-01
        2   -1    0    0  501    0  0.00000000000E+00  0.00000000000E+00  0.38098008831E+03  0.38098008832E+03  0.25500000920E-02 0. -1.
       -2   -1    0    0    0  501  0.00000000000E+00  0.00000000000E+00 -0.14771468331E+04  0.14771468331E+04  0.25500000920E-02 0.  1.
    10030    2    1    2    0    0  0.00000000000E+00  0.00000000000E+00 -0.10961667448E+04  0.18581269214E+04  0.15003513334E+04 0.  0.
        3    1    3    3  502    0 -0.19369270661E+03 -0.68588081393E+03 -0.83803717536E+03  0.11001162089E+04  0.10100000352E+00 0.  1.
       -3    1    3    3    0  502  0.19369270661E+03  0.68588081393E+03 -0.25812956940E+03  0.75801071253E+03  0.10100000352E+00 0. -1.
</event>
<event>
 5   0  0.1533777E-05  0.1499993E+04  0.7818609E-02  0.8884458E-01
       -1   -1    0    0    0  501  0.00000000000E+00  0.00000000000E+00  0.93482351302E+03  0.93482351303E+03  0.50400001928E-02 0. -1.
        1   -1    0    0  501    0  0.00000000000E+00  0.00000000000E+00 -0.60171212751E+03  0.60171212753E+03  0.50400001928E-02 0.  1.
    10030    2    1    2    0    0  0.00000000000E+00  0.00000000000E+00  0.33311138552E+03  0.15365356406E+04  0.14999928598E+04 0.  0.
        5    1    3    3  502    0  0.64254776347E+02  0.48017599094E+03  0.75301960196E+03  0.89540955406E+03  0.46999998093E+01 0. -1.
       -5    1    3    3    0  502 -0.64254776347E+02 -0.48017599094E+03 -0.41990821645E+03  0.64112608650E+03  0.46999998093E+01 0.  1.
</event>
<event>
 5   0  0.3018308E-05  0.1499800E+04  0.7818609E-02  0.8884586E-01
        2   -1    0    0  501    0  0.00000000000E+00  0.00000000000E+00  0.61990048438E+03  0.61990048439E+03  0.25500000920E-02 0. -1.
       -2   -1    0    0    0  501  0.00000000000E+00  0.00000000000E+00 -0.90716205704E+03  0.90716205704E+03  0.25500000920E-02 0.  1.
    10030    2    1    2    0    0  0.00000000000E+00  0.00000000000E+00 -0.28726157265E+03  0.15270625414E+04  0.14998002515E+04 0.  0.
        2    1    3    3  502    0  0.23570601949E+03 -0.62843655740E+03  0.19690402672E+03  0.69947196516E+03  0.25500000920E-02 0.  1.
       -2    1    3    3    0  502 -0.23570601949E+03  0.62843655740E+03 -0.48416559937E+03  0.82759057627E+03  0.25500000920E-02 0. -1.
</event>
<event>
 5   0  0.1533777E-05  0.1500584E+04  0.7818609E-02  0.8884065E-01
        1   -1    0    0  501    0  0.00000000000E+00  0.00000000000E+00  0.64861950986E+03  0.64861950988E+03  0.50400001928E-02 0. -1.
       -1   -1    0    0    0  501  0.00000000000E+00  0.00000000000E+00 -0.86790147528E+03  0.86790147529E+03  0.50400001928E-02 0.  1.
    10030    2    1    2    0    0  0.00000000000E+00  0.00000000000E+00 -0.21928196542E+03  0.15165209852E+04  0.15005836591E+04 0.  0.
        5    1    3    3  502    0 -0.17609500638E+03  0.36602431105E+03  0.52787769392E+03  0.66607822160E+03  0.46999998093E+01 0. -1.
       -5    1    3    3    0  502  0.17609500638E+03 -0.36602431105E+03 -0.74715965935E+03  0.85044276357E+03  0.46999998093E+01 0.  1.
</event>
<event>
 5   0  0.3018308E-05  0.1500614E+04  0.7818609E-02  0.8884045E-01
        2   -1    0    0  501    0  0.00000000000E+00  0.00000000000E+00  0.72466265326E+03  0.72466265327E+03  0.25500000920E-02 0.  1.
       -2   -1    0    0    0  501  0.00000000000E+00  0.00000000000E+00 -0.77685891761E+03  0.77685891762E+03  0.25500000920E-02 0. -1.
    10030    2    1    2    0    0  0.00000000000E+00  0.00000000000E+00 -0.52196264350E+02  0.15015215709E+04  0.15006140669E+04 0.  0.
        2    1    3    3  502    0 -0.64984088226E+01  0.32792859769E+03  0.64912938854E+03  0.72728835930E+03  0.25500000920E-02 0.  1.
       -2    1    3    3    0  502  0.64984088226E+01 -0.32792859769E+03 -0.70132565289E+03  0.77423321158E+03  0.25500000920E-02 0. -1.
</event>
<event>
 5   0  0.1588657E-05  0.1498023E+04  0.7818609E-02  0.8885769E-01
       -1   -1    0    0    0  501  0.00000000000E+00  0.00000000000E+00  0.62019922951E+03  0.62019922953E+03  0.50400001928E-02 0. -1.
        1   -1    0    0  501    0  0.00000000000E+00  0.00000000000E+00 -0.90457696864E+03  0.90457696865E+03  0.50400001928E-02 0.  1.
    10030    2    1    2    0    0  0.00000000000E+00  0.00000000000E+00 -0.28437773912E+03  0.15247761982E+04  0.14980226153E+04 0.  0.
        3    1    3    3  502    0  0.12642085166E+03 -0.46276211252E+03  0.44331198979E+03  0.65318950927E+03  0.10100000352E+00 0. -1.
       -3    1    3    3    0  502 -0.12642085166E+03  0.46276211252E+03 -0.72768972892E+03  0.87158668891E+03  0.10100000352E+00 0.  1.
</event>
<event>
 5   0  0.2969498E-05  0.1501532E+04  0.7818609E-02  0.8883435E-01
        2   -1    0    0  501    0  0.00000000000E+00  0.00000000000E+00  0.57981267406E+03  0.57981267406E+03  0.25500000920E-02 0.  1.
       -2   -1    0    0    0  501  0.00000000000E+00  0.00000000000E+00 -0.97212384492E+03  0.97212384492E+03  0.25500000920E-02 0. -1.
    10030    2    1    2    0    0  0.00000000000E+00  0.00000000000E+00 -0.39231117086E+03  0.15519365190E+04  0.15015321855E+04 0.  0.
        3    1    3    3  502    0  0.28144972348E+03  0.99132778458E+02 -0.90819993621E+03  0.95596463791E+03  0.10100000352E+00 0. -1.
       -3    1    3    3    0  502 -0.28144972348E+03 -0.99132778458E+02  0.51588876535E+03  0.59597188107E+03  0.10100000352E+00 0.  1.
</event>
<event>
 5   0  0.1643498E-05  0.1498209E+04  0.7818609E-02  0.8885645E-01
       -1   -1    0    0    0  501  0.00000000000E+00  0.00000000000E+00  0.60111285449E+03  0.60111285451E+03  0.50400001928E-02 0. -1.
        1   -1    0    0  501    0  0.00000000000E+00  0.00000000000E+00 -0.93353065678E+03  0.93353065680E+03  0.50400001928E-02 0.  1.
    10030    2    1    2    0    0  0.00000000000E+00  0.00000000000E+00 -0.33241780229E+03  0.15346435113E+04  0.14982086342E+04 0.  0.
        4    1    3    3  502    0 -0.41704971938E+03  0.64123524498E+01  0.47116453132E+03  0.62926084828E+03  0.12699999809E+01 0. -1.
       -4    1    3    3    0  502  0.41704971938E+03 -0.64123524498E+01 -0.80358233362E+03  0.90538266302E+03  0.12699999809E+01 0.  1.
</event>
<event>
 5   0  0.1576214E-05  0.1498449E+04  0.7818609E-02  0.8885485E-01
        1   -1    0    0  501    0  0.00000000000E+00  0.00000000000E+00  0.11481915441E+04  0.11481915441E+04  0.50400001928E-02 0.  1.
       -1   -1    0    0    0  501  0.00000000000E+00  0.00000000000E+00 -0.48888818135E+03  0.48888818138E+03  0.50400001928E-02 0. -1.
    10030    2    1    2    0    0  0.00000000000E+00  0.00000000000E+00  0.65930336272E+03  0.16370797255E+04  0.14984488992E+04 0.  0.
        1    1    3    3  502    0 -0.53646219213E+02 -0.38298994353E+03 -0.37141527155E+03  0.53619820743E+03  0.50400001928E-02 0. -1.
       -1    1    3    3    0  502  0.53646219213E+02  0.38298994353E+03  0.10307186343E+04  0.11008815180E+04  0.50400001928E-02 0.  1.
</event>
<event>
 5   0  0.3018308E-05  0.1500419E+04  0.7818609E-02  0.8884174E-01
        2   -1    0    0  501    0  0.00000000000E+00  0.00000000000E+00  0.13126741008E+04  0.13126741008E+04  0.25500000920E-02 0.  1.
       -2   -1    0    0    0  501  0.00000000000E+00  0.00000000000E+00 -0.42875388180E+03  0.42875388180E+03  0.25500000920E-02 0. -1.
    10030    2    1    2    0    0  0.00000000000E+00  0.00000000000E+00  0.88392021901E+03  0.17414279826E+04  0.15004187632E+04 0.  0.
        2    1    3    3  502    0  0.45049011695E+03 -0.18276861827E+03  0.11051129125E+04  0.12073194534E+04  0.25500000920E-02 0.  1.
       -2    1    3    3    0  502 -0.45049011695E+03  0.18276861827E+03 -0.22119269348E+03  0.53410852918E+03  0.25500000920E-02 0. -1.
</event>
<event>
 5   0  0.1588657E-05  0.1497419E+04  0.7818609E-02  0.8886171E-01
        1   -1    0    0  501    0  0.00000000000E+00  0.00000000000E+00  0.10033951225E+04  0.10033951225E+04  0.50400001928E-02 0.  1.
       -1   -1    0    0    0  501  0.00000000000E+00  0.00000000000E+00 -0.55866901938E+03  0.55866901941E+03  0.50400001928E-02 0. -1.
    10030    2    1    2    0    0  0.00000000000E+00  0.00000000000E+00  0.44472610308E+03  0.15620641419E+04  0.14974188047E+04 0.  0.
        3    1    3    3  502    0 -0.39934300468E+03  0.53779163906E+03 -0.12654780979E+03  0.68169570983E+03  0.10100000352E+00 0. -1.
       -3    1    3    3    0  502  0.39934300468E+03 -0.53779163906E+03  0.57127391287E+03  0.88036843206E+03  0.10100000352E+00 0.  1.
</event>
<event>
 5   0  0.3070497E-05  0.1502644E+04  0.7818609E-02  0.8882697E-01
        2   -1    0    0  501    0  0.00000000000E+00  0.00000000000E+00  0.13789866071E+04  0.13789866071E+04  0.25500000920E-02 0. -1.
       -2   -1    0    0    0  501  0.00000000000E+00  0.00000000000E+00 -0.40934727212E+03  0.40934727213E+03  0.25500000920E-02 0.  1.
    10030    2    1    2    0    0  0.00000000000E+00  0.00000000000E+00  0.96963933500E+03  0.17883338793E+04  0.15026435451E+04 0.  0.
        4    1    3    3  502    0  0.26517823059E+03 -0.52107452834E+02 -0.34949805652E+03  0.44179767431E+03  0.12699999809E+01 0.  1.
       -4    1    3    3    0  502 -0.26517823059E+03  0.52107452834E+02  0.13191373915E+04  0.13465362049E+04  0.12699999809E+01 0. -1.
</event>
<event>
 5   0  0.2969498E-05  0.1500033E+04  0.7818609E-02  0.8884431E-01
        2   -1    0    0  501    0  0.00000000000E+00  0.00000000000E+00  0.58065725479E+03  0.58065725480E+03  0.25500000920E-02 0.  1.
       -2   -1    0    0    0  501  0.00000000000E+00  0.00000000000E+00 -0.96877287307E+03  0.96877287307E+03  0.25500000920E-02 0. -1.
    10030    2    1    2    0    0  0.00000000000E+00  0.00000000000E+00 -0.38811561828E+03  0.15494301279E+04  0.15000333290E+04 0.  0.
        3    1    3    3  502    0  0.51146463603E+03 -0.21559028077E+03 -0.71509904656E+03  0.90523030200E+03  0.10100000352E+00 0. -1.
       -3    1    3    3    0  502 -0.51146463603E+03  0.21559028077E+03  0.32698342828E+03  0.64419982587E+03  0.10100000352E+00 0.  1.
</event>
<event>
 5   0  0.1116613E-05  0.1501856E+04  0.7818609E-02  0.8883220E-01
        4   -1    0    0  501    0  0.00000000000E+00  0.00000000000E+00  0.10767467502E+04  0.10767474991E+04  0.12699999809E+01 0.  1.
       -4   -1    0    0    0  501  0.00000000000E+00  0.00000000000E+00 -0.52369870024E+03  0.52370024015E+03  0.12699999809E+01 0. -1.
    10030    2    1    2    0    0  0.00000000000E+00  0.00000000000E+00  0.55304804994E+03  0.16004477393E+04  0.15018557922E+04 0.  0.
        2    1    3    3  502    0 -0.60266663508E+03 -0.39251717983E+03  0.50660477266E+03  0.87973018885E+03  0.25500000920E-02 0.  1.
       -2    1    3    3    0  502  0.60266663508E+03  0.39251717983E+03  0.46443277281E+02  0.72071755044E+03  0.25500000920E-02 0. -1.
</event>
<event>
 5   0  0.1643498E-05  0.1500040E+04  0.7818609E-02  0.8884426E-01
        1   -1    0    0  501    0  0.00000000000E+00  0.00000000000E+00  0.10853024933E+04  0.10853024933E+04  0.50400001928E-02 0. -1.
       -1   -1    0    0    0  501  0.00000000000E+00  0.00000000000E+00 -0.51831653876E+03  0.51831653879E+03  0.50400001928E-02 0.  1.
    10030    2    1    2    0    0  0.00000000000E+00  0.00000000000E+00  0.56698595453E+03  0.16036190321E+04  0.15000403086E+04 0.  0.
        4    1    3    3  502    0  0.46454919690E+03 -0.15680072103E+03 -0.32326854995E+03  0.58727897183E+03  0.12699999809E+01 0.  1.
       -4    1    3    3    0  502 -0.46454919690E+03  0.15680072103E+03  0.89025450448E+03  0.10163400603E+04  0.12699999809E+01 0. -1.
</event>
<event>
 5   0  0.1588657E-05  0.1500017E+04  0.7818609E-02  0.8884441E-01
       -1   -1    0    0    0  501  0.00000000000E+00  0.00000000000E+00  0.41120377666E+03  0.41120377670E+03  0.50400001928E-02 0.  1.
        1   -1    0    0  501    0  0.00000000000E+00  0.00000000000E+00 -0.13679666473E+04  0.13679666473E+04  0.50400001928E-02 0. -1.
    10030    2    1    2    0    0  0.00000000000E+00  0.00000000000E+00 -0.95676287060E+03  0.17791704240E+04  0.15000174022E+04 0.  0.
        3    1    3    3  502    0  0.55225424672E+03 -0.47352757031E+03 -0.69482411626E+03  0.10059789638E+04  0.10100000352E+00 0. -1.
       -3    1    3    3    0  502 -0.55225424672E+03  0.47352757031E+03 -0.26193875434E+03  0.77319146017E+03  0.10100000352E+00 0.  1.
</event>
<event>
 5   0  0.1533777E-05  0.1500662E+04  0.7818609E-02  0.8884013E-01
        1   -1    0    0  501    0  0.00000000000E+00  0.00000000000E+00  0.81879150559E+03  0.81879150560E+03  0.50400001928E-02 0.  1.
       -1   -1    0    0    0  501  0.00000000000E+00  0.00000000000E+00 -0.68759466819E+03  0.68759466821E+03  0.50400001928E-02 0. -1.
    10030    2    1    2    0    0  0.00000000000E+00  0.00000000000E+00  0.13119683740E+03  0.15063861738E+04  0.15006620854E+04 0.  0.
        5    1    3    3  502    0 -0.69612995489E+03  0.20851112771E+03  0.25312851302E+03  0.76952578812E+03  0.46999998093E+01 0.  1.
       -5    1    3    3    0  502  0.69612995489E+03 -0.20851112771E+03 -0.12193167562E+03  0.73686038569E+03  0.46999998093E+01 0. -1.
</event>
<event>
 5   0  0.3070497E-05  0.1498978E+04  0.7818609E-02  0.8885132E-01
       -2   -1    0    0    0  501  0.00000000000E+00  0.00000000000E+00  0.34888786521E+03  0.34888786522E+03  0.25500000920E-02 0.  1.
        2   -1    0    0  501    0  0.00000000000E+00  0.00000000000E+00 -0.16100707020E+04  0.16100707020E+04  0.25500000920E-02 0. -1.
    10030    2    1    2    0    0  0.00000000000E+00  0.00000000000E+00 -0.12611828368E+04  0.19589585672E+04  0.14989784923E+04 0.  0.
        4    1    3    3  502    0  0.53766922309E+03 -0.49105036406E+03 -0.39859532329E+03  0.83011956858E+03  0.12699999809E+01 0. -1.
       -4    1    3    3    0  502 -0.53766922309E+03  0.49105036406E+03 -0.86258751351E+03  0.11288389986E+04  0.12699999809E+01 0.  1.
</event>
<event>
 5   0  0.3093600E-05  0.1500473E+04  0.7818609E-02  0.8884139E-01
       -2   -1    0    0    0  501  0.00000000000E+00  0.00000000000E+00  0.82324530899E+03  0.82324530900E+03  0.25500000920E-02 0. -1.
        2   -1    0    0  501    0  0.00000000000E+00  0.00000000000E+00 -0.68370217441E+03  0.68370217442E+03  0.25500000920E-02 0.  1.
    10030    2    1    2    0    0  0.00000000000E+00  0.00000000000E+00  0.13954313458E+03  0.15069474834E+04  0.15004727360E+04 0.  0.
        1    1    3    3  502    0 -0.20232405079E+03  0.35670644142E+03  0.70071819620E+03  0.81189931481E+03  0.50400001928E-02 0. -1.
       -1    1    3    3    0  502  0.20232405079E+03 -0.35670644142E+03 -0.56117506162E+03  0.69504816861E+03  0.50400001928E-02 0.  1.
</event>
<event>
 5   0  0.3030702E-05  0.1499968E+04  0.7818609E-02  0.8884474E-01
       -2   -1    0    0    0  501  0.00000000000E+00  0.00000000000E+00  0.42887155576E+03  0.42887155577E+03  0.25500000920E-02 0. -1.
        2   -1    0    0  501    0  0.00000000000E+00  0.00000000000E+00 -0.13115256740E+04  0.13115256740E+04  0.25500000920E-02 0.  1.
    10030    2    1    2    0    0  0.00000000000E+00  0.00000000000E+00 -0.88265411825E+03  0.17403972298E+04  0.14999680747E+04 0.  0.
        5    1    3    3  502    0 -0.67627673960E+03 -0.32073363323E+03 -0.49616438727E+03  0.89800973335E+03  0.46999998093E+01 0.  1.
       -5    1    3    3    0  502  0.67627673960E+03  0.32073363323E+03 -0.38648973098E+03  0.84238749644E+03  0.46999998093E+01 0. -1.
</event>
<event>
 5   0  0.3070497E-05  0.1500172E+04  0.7818609E-02  0.8884338E-01
       -2   -1    0    0    0  501  0.00000000000E+00  0.00000000000E+00  0.12581912396E+04  0.12581912396E+04  0.25500000920E-02 0.  1.
        2   -1    0    0  501    0  0.00000000000E+00  0.00000000000E+00 -0.44717310610E+03  0.44717310611E+03  0.25500000920E-02 0. -1.
    10030    2    1    2    0    0  0.00000000000E+00  0.00000000000E+00  0.81101813348E+03  0.17053643457E+04  0.15001723697E+04 0.  0.
        4    1    3    3  502    0  0.47835317674E+03  0.38700439616E+03 -0.82159168384E+02  0.62076235887E+03  0.12699999809E+01 0. -1.
       -4    1    3    3    0  502 -0.47835317674E+03 -0.38700439616E+03  0.89317730186E+03  0.10846019868E+04  0.12699999809E+01 0.  1.
</event>
<event>
 5   0  0.3018308E-05  0.1500092E+04  0.7818609E-02  0.8884392E-01
        2   -1    0    0  501    0  0.00000000000E+00  0.00000000000E+00  0.63559832758E+03  0.63559832758E+03  0.25500000920E-02 0. -1.
       -2   -1    0    0    0  501  0.00000000000E+00  0.00000000000E+00 -0.88510097869E+03  0.88510097870E+03  0.25500000920E-02 0.  1.
    10030    2    1    2    0    0  0.00000000000E+00  0.00000000000E+00 -0.24950265112E+03  0.15206993063E+04  0.15000915996E+04 0.  0.
        2    1    3    3  502    0  0.61094199657E+03 -0.34258783226E+03 -0.39667528424E+03  0.80496448811E+03  0.25500000920E-02 0.  1.
       -2    1    3    3    0  502 -0.61094199657E+03  0.34258783226E+03  0.14717263313E+03  0.71573481817E+03  0.25500000920E-02 0. -1.
</event>
<event>
 5   0  0.3030702E-05  0.1500206E+04  0.7818609E-02  0.8884316E-01
        2   -1    0    0  501    0  0.00000000000E+00  0.00000000000E+00  0.68306970000E+03  0.68306970000E+03  0.25500000920E-02 0.  1.
       -2   -1    0    0    0  501  0.00000000000E+00  0.00000000000E+00 -0.82371485461E+03  0.82371485461E+03  0.25500000920E-02 0. -1.
    10030    2    1    2    0    0  0.00000000000E+00  0.00000000000E+00 -0.14064515461E+03  0.15067845546E+04  0.15002061973E+04 0.  0.
        5    1    3    3  502    0 -0.32577388479E+03  0.66336247305E+03 -0.19915887816E+03  0.76541801874E+03  0.46999998093E+01 0.  1.
       -5    1    3    3    0  502  0.32577388479E+03 -0.66336247305E+03  0.58513723550E+02  0.74136653587E+03  0.46999998093E+01 0. -1.
</event>
<event>
 5   0  0.3030702E-05  0.1499466E+04  0.7818609E-02  0.8884808E-01
        2   -1    0    0  501    0  0.00000000000E+00  0.00000000000E+00  0.14711677844E+04  0.14711677844E+04  0.25500000920E-02 0.  1.
       -2   -1    0    0    0  501  0.00000000000E+00  0.00000000000E+00 -0.38207725657E+03  0.38207725658E+03  0.25500000920E-02 0. -1.
    10030    2    1    2    0    0  0.00000000000E+00  0.00000000000E+00  0.10890905278E+04  0.18532450410E+04  0.14994662397E+04 0.  0.
        5    1    3    3  502    0  0.10642931242E+02  0.52221480118E+03  0.12092632201E+04  0.13172551749E+04  0.46999998093E+01 0.  1.
       -5    1    3    3    0  502 -0.10642931242E+02 -0.52221480118E+03 -0.12017269221E+03  0.53598986605E+03  0.46999998093E+01 0. -1.
</event>
<event>
 5   0  0.1580078E-05  0.1500132E+04  0.7818609E-02  0.8884365E-01
        1   -1    0    0  501    0  0.00000000000E+00  0.00000000000E+00  0.71729609016E+03  0.71729609018E+03  0.50400001928E-02 0. -1.
       -1   -1    0    0    0  501  0.00000000000E+00  0.00000000000E+00 -0.78433300791E+03  0.78433300792E+03  0.50400001928E-02 0.  1.
    10030    2    1    2    0    0  0.00000000000E+00  0.00000000000E+00 -0.67036917749E+02  0.15016290981E+04  0.15001319942E+04 0.  0.
        2    1    3    3  502    0  0.62530458917E+03  0.82836367826E+02  0.37275764005E+03  0.73267724906E+03  0.25500000920E-02 0. -1.
       -2    1    3    3    0  502 -0.62530458917E+03 -0.82836367826E+02 -0.43979455780E+03  0.76895184904E+03  0.25500000920E-02 0.  1.
</event>
<event>
 5   0  0.1580078E-05  0.1501419E+04  0.7818609E-02  0.8883510E-01
       -1   -1    0    0    0  501  0.00000000000E+00  0.00000000000E+00  0.35818015948E+03  0.35818015951E+03  0.50400001928E-02 0. -1.
        1   -1    0    0  501    0  0.00000000000E+00  0.00000000000E+00 -0.15734114810E+04  0.15734114810E+04  0.50400001928E-02 0.  1.
    10030    2    1    2    0    0  0.00000000000E+00  0.00000000000E+00 -0.12152313215E+04  0.19315916405E+04  0.15014190291E+04 0.  0.
        2    1    3    3  502    0  0.28559960269E+02 -0.21418690974E+03 -0.15325381826E+04  0.15476966708E+04  0.25500000920E-02 0.  1.
       -2    1    3    3    0  502 -0.28559960269E+02  0.21418690974E+03  0.31730686112E+03  0.38389496969E+03  0.25500000920E-02 0. -1.
</event>
<event>
 5   0  0.1580078E-05  0.1500405E+04  0.7818609E-02  0.8884184E-01
        1   -1    0    0  501    0  0.00000000000E+00  0.00000000000E+00  0.57408036584E+03  0.57408036586E+03  0.50400001928E-02 0. -1.
       -1   -1    0    0    0  501  0.00000000000E+00  0.00000000000E+00 -0.98035656172E+03  0.98035656173E+03  0.50400001928E-02 0.  1.
    10030    2    1    2    0    0  0.00000000000E+00  0.00000000000E+00 -0.40627619588E+03  0.15544369276E+04  0.15004045503E+04 0.  0.
        2    1    3    3  502    0 -0.65399993904E+03 -0.20341571631E+03  0.11400606852E+03  0.69432791790E+03  0.25500000920E-02 0. -1.
       -2    1    3    3    0  502  0.65399993904E+03  0.20341571631E+03 -0.52028226439E+03  0.86010900969E+03  0.25500000920E-02 0.  1.
</event>
<event>
 5   0  0.1533777E-05  0.1500055E+04  0.7818609E-02  0.8884416E-01
       -1   -1    0    0    0  501  0.00000000000E+00  0.00000000000E+00  0.56007638611E+03  0.56007638613E+03  0.50400001928E-02 0. -1.
        1   -1    0    0  501    0  0.00000000000E+00  0.00000000000E+00 -0.10044007167E+04  0.10044007168E+04  0.50400001928E-02 0.  1.
    10030    2    1    2    0    0  0.00000000000E+00  0.00000000000E+00 -0.44432433063E+03  0.15644771029E+04  0.15000548306E+04 0.  0.
        5    1    3    3  502    0 -0.35279731171E+03 -0.48076383423E+03  0.25225730070E+03  0.64749953143E+03  0.46999998093E+01 0. -1.
       -5    1    3    3    0  502  0.35279731171E+03  0.48076383423E+03 -0.69658163133E+03  0.91697757145E+03  0.46999998093E+01 0.  1.
</event>
<event>
 5   0  0.2969498E-05  0.1499738E+04  0.7818609E-02  0.8884627E-01
        2   -1    0    0  501    0  0.00000000000E+00  0.00000000000E+00  0.17258551302E+04  0.17258551302E+04  0.25500000920E-02 0. -1.
       -2   -1    0    0    0  501  0.00000000000E+00  0.00000000000E+00 -0.32581157924E+03  0.32581157925E+03  0.25500000920E-02 0.  1.
    10030    2    1    2    0    0  0.00000000000E+00  0.00000000000E+00  0.14000435510E+04  0.20516667095E+04  0.14997380912E+04 0.  0.
        3    1    3    3  502    0  0.19611155623E+03  0.51682534662E+03  0.68605478901E+01  0.55282479929E+03  0.10100000352E+00 0.  1.
       -3    1    3    3    0  502 -0.19611155623E+03 -0.51682534662E+03  0.13931830031E+04  0.14988419102E+04  0.10100000352E+00 0. -1.
</event>
<event>
 5   0  0.1576214E-05  0.1501053E+04  0.7818609E-02  0.8883753E-01
        1   -1    0    0  501    0  0.00000000000E+00  0.00000000000E+00  0.36014889571E+03  0.36014889574E+03  0.50400001928E-02 0.  1.
       -1   -1    0    0    0  501  0.00000000000E+00  0.00000000000E+00 -0.15640474153E+04  0.15640474153E+04  0.50400001928E-02 0. -1.
    10030    2    1    2    0    0  0.00000000000E+00  0.00000000000E+00 -0.12038985196E+04  0.19241963110E+04  0.15010528965E+04 0.  0.
        1    1    3    3  502    0  0.43659425174E+03 -0.30613708517E+03  0.75100892911E+02  0.53849289662E+03  0.50400001928E-02 0.  1.
       -1    1    3    3    0  502 -0.43659425174E+03  0.30613708517E+03 -0.12789994125E+04  0.13857034144E+04  0.50400001928E-02 0. -1.
</event>
<event>
 5   0  0.1580078E-05  0.1500074E+04  0.7818609E-02  0.8884403E-01
       -1   -1    0    0    0  501  0.00000000000E+00  0.00000000000E+00  0.51687991745E+03  0.51687991748E+03  0.50400001928E-02 0. -1.
        1   -1    0    0  501    0  0.00000000000E+00  0.00000000000E+00 -0.10883685930E+04  0.10883685930E+04  0.50400001928E-02 0.  1.
    10030    2    1    2    0    0  0.00000000000E+00  0.00000000000E+00 -0.57148867553E+03  0.16052485105E+04  0.15000744895E+04 0.  0.
        2    1    3    3  502    0  0.27487852991E+03 -0.25919086530E+03 -0.97910604432E+03  0.10494697503E+04  0.25500000920E-02 0.  1.
       -2    1    3    3    0  502 -0.27487852991E+03  0.25919086530E+03  0.40761736879E+03  0.55577876012E+03  0.25500000920E-02 0. -1.
</event>
<event>
 5   0  0.1533777E-05  0.1500249E+04  0.7818609E-02  0.8884287E-01
       -1   -1    0    0    0  501  0.00000000000E+00  0.00000000000E+00  0.30919970407E+03  0.30919970411E+03  0.50400001928E-02 0.  1.
        1   -1    0    0  501    0  0.00000000000E+00  0.00000000000E+00 -0.18198164398E+04  0.18198164398E+04  0.50400001928E-02 0. -1.
    10030    2    1    2    0    0  0.00000000000E+00  0.00000000000E+00 -0.15106167357E+04  0.21290161439E+04  0.15002489189E+04 0.  0.
        5    1    3    3  502    0  0.18867163358E+03  0.20367400487E+03  0.23358178633E+03  0.36285345041E+03  0.46999998093E+01 0.  1.
       -5    1    3    3    0  502 -0.18867163358E+03 -0.20367400487E+03 -0.17441985220E+04  0.17661626935E+04  0.46999998093E+01 0. -1.
</event>
<event>
 5   0  0.3018308E-05  0.1499813E+04  0.7818609E-02  0.8884577E-01
       -2   -1    0    0    0  501  0.00000000000E+00  0.00000000000E+00  0.50763959278E+03  0.50763959278E+03  0.25500000920E-02 0. -1.
        2   -1    0    0  501    0  0.00000000000E+00  0.00000000000E+00 -0.11077932586E+04  0.11077932586E+04  0.25500000920E-02 0.  1.
    10030    2    1    2    0    0  0.00000000000E+00  0.00000000000E+00 -0.60015366586E+03  0.16154328514E+04  0.14998129466E+04 0.  0.
        2    1    3    3  502    0  0.68151317496E+03 -0.51653130673E+02  0.32308648279E+02  0.68423102993E+03  0.25500000920E-02 0. -1.
       -2    1    3    3    0  502 -0.68151317496E+03  0.51653130673E+02 -0.63246231414E+03  0.93120182150E+03  0.25500000920E-02 0.  1.
</event>
<event>
 5   0  0.3070497E-05  0.1500185E+04  0.7818609E-02  0.8884330E-01
       -2   -1    0    0    0  501  0.00000000000E+00  0.00000000000E+00  0.35991726010E+03  0.35991726011E+03  0.25500000920E-02 0. -1.
        2   -1    0    0  501    0  0.00000000000E+00  0.00000000000E+00 -0.15632440545E+04  0.15632440545E+04  0.25500000920E-02 0.  1.
    10030    2    1    2    0    0  0.00000000000E+00  0.00000000000E+00 -0.12033267944E+04  0.19231613147E+04  0.15001846779E+04 0.  0.
        4    1    3    3  502    0  0.12188808735E+03 -0.60931958633E+03 -0.11402498800E+04  0.12985755526E+04  0.12699999809E+01 0.  1.
       -4    1    3    3    0  502 -0.12188808735E+03  0.60931958633E+03 -0.63076914481E+02  0.62458576206E+03  0.12699999809E+01 0. -1.
</event>
<event>
 5   0  0.1588657E-05  0.1499983E+04  0.7818609E-02  0.8884464E-01
        1   -1    0    0  501    0  0.00000000000E+00  0.00000000000E+00  0.83311551979E+03  0.83311551980E+03  0.50400001928E-02 0.  1.
       -1   -1    0    0    0  501  0.00000000000E+00  0.00000000000E+00 -0.67516117784E+03  0.67516117786E+03  0.50400001928E-02 0. -1.
    10030    2    1    2    0    0  0.00000000000E+00  0.00000000000E+00  0.15795434194E+03  0.15082766977E+04  0.14999830074E+04 0.  0.
        3    1    3    3  502    0  0.10619717037E+02  0.58363936264E+03 -0.39451878522E+03  0.70455146448E+03  0.10100000352E+00 0. -1.
       -3    1    3    3    0  502 -0.10619717037E+02 -0.58363936264E+03  0.55247312716E+03  0.80372523318E+03  0.10100000352E+00 0.  1.
</event>
<event>
 5   0  0.3018308E-05  0.1500532E+04  0.7818609E-02  0.8884099E-01
       -2   -1    0    0    0  501  0.00000000000E+00  0.00000000000E+00  0.35345790424E+03  0.35345790425E+03  0.25500000920E-02 0. -1.
        2   -1    0    0  501    0  0.00000000000E+00  0.00000000000E+00 -0.15925493282E+04  0.15925493282E+04  0.25500000920E-02 0.  1.
    10030    2    1    2    0    0  0.00000000000E+00  0.00000000000E+00 -0.12390914239E+04  0.19460072324E+04  0.15005321029E+04 0.  0.
        2    1    3    3  502    0 -0.45554776292E+03  0.22267126981E+03  0.97608989481E+02  0.51636592988E+03  0.25500000920E-02 0. -1.
       -2    1    3    3    0  502  0.45554776292E+03 -0.22267126981E+03 -0.13367004134E+04  0.14296413026E+04  0.25500000920E-02 0.  1.
</event>
<event>
 5   0  0.1533777E-05  0.1499852E+04  0.7818609E-02  0.8884552E-01
        1   -1    0    0  501    0  0.00000000000E+00  0.00000000000E+00  0.16107346262E+04  0.16107346262E+04  0.50400001928E-02 0. -1.
       -1   -1    0    0    0  501  0.00000000000E+00  0.00000000000E+00 -0.34915042025E+03  0.34915042029E+03  0.50400001928E-02 0.  1.
    10030    2    1    2    0    0  0.00000000000E+00  0.00000000000E+00  0.12615842060E+04  0.19598850465E+04  0.14998515549E+04 0.  0.
        5    1    3    3  502    0 -0.65621590196E+03 -0.18501221998E+03  0.22273197801E+03  0.71727292961E+03  0.46999998093E+01 0.  1.
       -5    1    3    3    0  502  0.65621590196E+03  0.18501221998E+03  0.10388522279E+04  0.12426121169E+04  0.46999998093E+01 0. -1.
</event>
<event>
 5   0  0.1116613E-05  0.1499967E+04  0.7818609E-02  0.8884475E-01
        3   -1    0    0  501    0  0.00000000000E+00  0.00000000000E+00  0.73279515619E+03  0.73279516315E+03  0.10100000352E+00 0. -1.
       -3   -1    0    0    0  501  0.00000000000E+00  0.00000000000E+00 -0.76757511156E+03  0.76757511821E+03  0.10100000352E+00 0.  1.
    10030    2    1    2    0    0  0.00000000000E+00  0.00000000000E+00 -0.34779955371E+02  0.15003702814E+04  0.14999671116E+04 0.  0.
        3    1    3    3  502    0  0.50232568366E+03 -0.38021707625E+03 -0.42441359968E+03  0.75962032050E+03  0.10100000352E+00 0.  1.
       -3    1    3    3    0  502 -0.50232568366E+03  0.38021707625E+03  0.38963364431E+03  0.74074996086E+03  0.10100000352E+00 0. -1.
</event>
<event>
 5   0  0.1643498E-05  0.1499021E+04  0.7818609E-02  0.8885104E-01
        1   -1    0    0  501    0  0.00000000000E+00  0.00000000000E+00  0.13260818345E+04  0.13260818345E+04  0.50400001928E-02 0.  1.
       -1   -1    0    0    0  501  0.00000000000E+00  0.00000000000E+00 -0.42362863602E+03  0.42362863605E+03  0.50400001928E-02 0. -1.
    10030    2    1    2    0    0  0.00000000000E+00  0.00000000000E+00  0.90245319848E+03  0.17497104706E+04  0.14990213325E+04 0.  0.
        4    1    3    3  502    0 -0.49189652417E+03 -0.50506693709E+03  0.74814935894E+03  0.10279999405E+04  0.12699999809E+01 0.  1.
       -4    1    3    3    0  502  0.49189652417E+03  0.50506693709E+03  0.15430383954E+03  0.72171053008E+03  0.12699999809E+01 0. -1.
</event>
<event>
 5   0  0.1580078E-05  0.1500028E+04  0.7818609E-02  0.8884434E-01
       -1   -1    0    0    0  501  0.00000000000E+00  0.00000000000E+00  0.47831400124E+03  0.47831400126E+03  0.50400001928E-02 0.  1.
        1   -1    0    0  501    0  0.00000000000E+00  0.00000000000E+00 -0.11760495154E+04  0.11760495154E+04  0.50400001928E-02 0. -1.
    10030    2    1    2    0    0  0.00000000000E+00  0.00000000000E+00 -0.69773551416E+03  0.16543635167E+04  0.15000279323E+04 0.  0.
        2    1    3    3  502    0 -0.32177186711E+03 -0.20551946223E+03 -0.10608466053E+04  0.11274621518E+04  0.25500000920E-02 0. -1.
       -2    1    3    3    0  502  0.32177186711E+03  0.20551946223E+03  0.36311109111E+03  0.52690136488E+03  0.25500000920E-02 0.  1.
</event>
<event>
 5   0  0.1533777E-05  0.1500751E+04  0.7818609E-02  0.8883954E-01
        1   -1    0    0  501    0  0.00000000000E+00  0.00000000000E+00  0.10559358151E+04  0.10559358151E+04  0.50400001928E-02 0. -1.
       -1   -1    0    0    0  501  0.00000000000E+00  0.00000000000E+00 -0.53323608741E+03  0.53323608744E+03  0.50400001928E-02 0.  1.
    10030    2    1    2    0    0  0.00000000000E+00  0.00000000000E+00  0.52269972769E+03  0.15891719026E+04  0.15007505890E+04 0.  0.
        5    1    3    3  502    0 -0.73360194197E+03 -0.12226129759E+03  0.15587525425E+03  0.75989395249E+03  0.46999998093E+01 0.  1.
       -5    1    3    3    0  502  0.73360194197E+03  0.12226129759E+03  0.36682447345E+03  0.82927795006E+03  0.46999998093E+01 0. -1.
</event>
<event>
 5   0  0.1576214E-05  0.1500170E+04  0.7818609E-02  0.8884340E-01
        1   -1    0    0  501    0  0.00000000000E+00  0.00000000000E+00  0.64725863496E+03  0.64725863498E+03  0.50400001928E-02 0.  1.
       -1   -1    0    0    0  501  0.00000000000E+00  0.00000000000E+00 -0.86924627723E+03  0.86924627724E+03  0.50400001928E-02 0. -1.
    10030    2    1    2    0    0  0.00000000000E+00  0.00000000000E+00 -0.22198764227E+03  0.15165049122E+04  0.15001695356E+04 0.  0.
        1    1    3    3  502    0  0.22540002512E+03  0.10050549862E+02 -0.83412999734E+03  0.86410591791E+03  0.50400001928E-02 0. -1.
       -1    1    3    3    0  502 -0.22540002512E+03 -0.10050549862E+02  0.61214235508E+03  0.65239899431E+03  0.50400001928E-02 0.  1.
</event>
<event>
 5   0  0.2969498E-05  0.1499857E+04  0.7818609E-02  0.8884548E-01
        2   -1    0    0  501    0  0.00000000000E+00  0.00000000000E+00  0.18628691302E+04  0.18628691302E+04  0.25500000920E-02 0. -1.
       -2   -1    0    0    0  501  0.00000000000E+00  0.00000000000E+00 -0.30189591086E+03  0.30189591087E+03  0.25500000920E-02 0.  1.
    10030    2    1    2    0    0  0.00000000000E+00  0.00000000000E+00  0.15609732194E+04  0.21647650411E+04  0.14998567570E+04 0.  0.
        3    1    3    3  502    0 -0.17643434275E+03  0.55502410286E+03  0.14623847236E+04  0.15740870123E+04  0.10100000352E+00 0. -1.
       -3    1    3    3    0  502  0.17643434275E+03 -0.55502410286E+03  0.98588495737E+02  0.59067802883E+03  0.10100000352E+00 0.  1.
</event>
<event>
 5   0  0.2969498E-05  0.1500507E+04  0.7818609E-02  0.8884116E-01
       -2   -1    0    0    0  501  0.00000000000E+00  0.00000000000E+00  0.16484387697E+04  0.16484387697E+04  0.25500000920E-02 0.  1.
        2   -1    0    0  501    0  0.00000000000E+00  0.00000000000E+00 -0.34146273577E+03  0.34146273578E+03  0.25500000920E-02 0. -1.
    10030    2    1    2    0    0  0.00000000000E+00  0.00000000000E+00  0.13069760339E+04  0.19899015055E+04  0.15005071303E+04 0.  0.
        3    1    3    3  502    0  0.61659115624E+03  0.24656947967E+03  0.11165019023E+04  0.12990603028E+04  0.10100000352E+00 0. -1.
       -3    1    3    3    0  502 -0.61659115624E+03 -0.24656947967E+03  0.19047413158E+03  0.69084120264E+03  0.10100000352E+00 0.  1.
</event>
<event>
 5   0  0.1533777E-05  0.1500034E+04  0.7818609E-02  0.8884430E-01
        1   -1    0    0  501    0  0.00000000000E+00  0.00000000000E+00  0.49332701854E+03  0.49332701857E+03  0.50400001928E-02 0. -1.
       -1   -1    0    0    0  501  0.00000000000E+00  0.00000000000E+00 -0.11402692426E+04  0.11402692426E+04  0.50400001928E-02 0.  1.
    10030    2    1    2    0    0  0.00000000000E+00  0.00000000000E+00 -0.64694222404E+03  0.16335962612E+04  0.15000341674E+04 0.  0.
        5    1    3    3  502    0  0.17517060217E+03 -0.50764032580E+03 -0.89365378637E+03  0.10426037695E+04  0.46999998093E+01 0.  1.
       -5    1    3    3    0  502 -0.17517060217E+03  0.50764032580E+03  0.24671156233E+03  0.59099249169E+03  0.46999998093E+01 0. -1.
</event>
<event>
 5   0  0.1588657E-05  0.1499636E+04  0.7818609E-02  0.8884695E-01
       -1   -1    0    0    0  501  0.00000000000E+00  0.00000000000E+00  0.83542259201E+03  0.83542259203E+03  0.50400001928E-02 0.  1.
        1   -1    0    0  501    0  0.00000000000E+00  0.00000000000E+00 -0.67298552469E+03  0.67298552470E+03  0.50400001928E-02 0. -1.
    10030    2    1    2    0    0  0.00000000000E+00  0.00000000000E+00  0.16243706732E+03  0.15084081167E+04  0.14996363712E+04 0.  0.
        3    1    3    3  502    0  0.16835212595E+02 -0.73354693963E+03 -0.74128245497E+02  0.73747511416E+03  0.10100000352E+00 0.  1.
       -3    1    3    3    0  502 -0.16835212595E+02  0.73354693963E+03  0.23656531282E+03  0.77093300257E+03  0.10100000352E+00 0. -1.
</event>
<event>
 5   0  0.1588657E-05  0.1499507E+04  0.7818609E-02  0.8884781E-01
        1   -1    0    0  501    0  0.00000000000E+00  0.00000000000E+00  0.54362356363E+03  0.54362356365E+03  0.50400001928E-02 0.  1.
       -1   -1    0    0    0  501  0.00000000000E+00  0.00000000000E+00 -0.10340428943E+04  0.10340428943E+04  0.50400001928E-02 0. -1.
    10030    2    1    2    0    0  0.00000000000E+00  0.00000000000E+00 -0.49041933063E+03  0.15776664579E+04  0.14995066964E+04 0.  0.
        3    1    3    3  502    0 -0.62976948685E+03 -0.12258276443E+03 -0.65336575236E+03  0.91570899158E+03  0.10100000352E+00 0. -1.
       -3    1    3    3    0  502  0.62976948685E+03  0.12258276443E+03  0.16294642173E+03  0.66195746635E+03  0.10100000352E+00 0.  1.
</event>
<event>
 5   0  0.3018308E-05  0.1499348E+04  0.7818609E-02  0.8884887E-01
       -2   -1    0    0    0  501  0.00000000000E+00  0.00000000000E+00  0.37391218584E+03  0.37391218585E+03  0.25500000920E-02 0. -1.
        2   -1    0    0  501    0  0.00000000000E+00  0.00000000000E+00 -0.15030558381E+04  0.15030558381E+04  0.25500000920E-02 0.  1.
    10030    2    1    2    0    0  0.00000000000E+00  0.00000000000E+00 -0.11291436523E+04  0.18769680239E+04  0.14993477167E+04 0.  0.
        2    1    3    3  502    0 -0.52827743807E+02  0.19691341232E+03 -0.14676846897E+04  0.14817773149E+04  0.25500000920E-02 0.  1.
       -2    1    3    3    0  502  0.52827743807E+02 -0.19691341232E+03  0.33854103746E+03  0.39519070905E+03  0.25500000920E-02 0. -1.
</event>
<event>
 5   0  0.3018308E-05  0.1499485E+04  0.7818609E-02  0.8884796E-01
       -2   -1    0    0    0  501  0.00000000000E+00  0.00000000000E+00  0.57103405103E+03  0.57103405104E+03  0.25500000920E-02 0.  1.
        2   -1    0    0  501    0  0.00000000000E+00  0.00000000000E+00 -0.98437829573E+03  0.98437829574E+03  0.25500000920E-02 0. -1.
    10030    2    1    2    0    0  0.00000000000E+00  0.00000000000E+00 -0.41334424470E+03  0.15554123468E+04  0.14994846127E+04 0.  0.
        2    1    3    3  502    0 -0.68631385090E+03 -0.11331612176E+03  0.83486432655E+02  0.70059776608E+03  0.25500000920E-02 0.  1.
       -2    1    3    3    0  502  0.68631385090E+03  0.11331612176E+03 -0.49683067736E+03  0.85481458069E+03  0.25500000920E-02 0. -1.
</event>
<event>
 5   0  0.1643498E-05  0.1507956E+04  0.7818609E-02  0.8879179E-01
       -1   -1    0    0    0  501  0.00000000000E+00  0.00000000000E+00  0.56253349169E+03  0.56253349172E+03  0.50400001928E-02 0. -1.
        1   -1    0    0  501    0  0.00000000000E+00  0.00000000000E+00 -0.10105763506E+04  0.10105763506E+04  0.50400001928E-02 0.  1.
    10030    2    1    2    0    0  0.00000000000E+00  0.00000000000E+00 -0.44804285891E+03  0.15731098423E+04  0.15079562900E+04 0.  0.
        4    1    3    3  502    0 -0.38725490535E+03 -0.13161191083E+03 -0.88478664227E+03  0.97474974841E+03  0.12699999809E+01 0.  1.
       -4    1    3    3    0  502  0.38725490535E+03  0.13161191083E+03  0.43674378336E+03  0.59836009392E+03  0.12699999809E+01 0. -1.
</event>
<event>
 5   0  0.3093600E-05  0.1499571E+04  0.7818609E-02  0.8884739E-01
       -2   -1    0    0    0  501  0.00000000000E+00  0.00000000000E+00  0.38537859368E+03  0.38537859368E+03  0.25500000920E-02 0. -1.
        2   -1    0    0  501    0  0.00000000000E+00  0.00000000000E+00 -0.14587679299E+04  0.14587679299E+04  0.25500000920E-02 0.  1.
    10030    2    1    2    0    0  0.00000000000E+00  0.00000000000E+00 -0.10733893363E+04  0.18441465236E+04  0.14995705163E+04 0.  0.
        1    1    3    3  502    0  0.10125408890E+03  0.54937692377E+03 -0.11517221565E+04  0.12800512962E+04  0.50400001928E-02 0.  1.
       -1    1    3    3    0  502 -0.10125408890E+03 -0.54937692377E+03  0.78332820283E+02  0.56409522747E+03  0.50400001928E-02 0. -1.
</event>
<event>
 5   0  0.1116613E-05  0.1501461E+04  0.7818609E-02  0.8883482E-01
       -3   -1    0    0    0  501  0.00000000000E+00  0.00000000000E+00  0.15221535909E+04  0.15221535942E+04  0.10100000352E+00 0. -1.
        3   -1    0    0  501    0  0.00000000000E+00  0.00000000000E+00 -0.37026237042E+03  0.37026238420E+03  0.10100000352E+00 0.  1.
    10030    2    1    2    0    0  0.00000000000E+00  0.00000000000E+00  0.11518912205E+04  0.18924159784E+04  0.15014609058E+04 0.  0.
        1    1    3    3  502    0 -0.27242343339E+03  0.57901709041E+03  0.10707497659E+04  0.12473894257E+04  0.50400001928E-02 0. -1.
       -1    1    3    3    0  502  0.27242343339E+03 -0.57901709041E+03  0.81141454505E+02  0.64502655272E+03  0.50400001928E-02 0.  1.
</event>
<event>
 5   0  0.1116613E-05  0.1499624E+04  0.7818609E-02  0.8884703E-01
       -4   -1    0    0    0  501  0.00000000000E+00  0.00000000000E+00  0.11636809952E+04  0.11636816882E+04  0.12699999809E+01 0. -1.
        4   -1    0    0  501    0  0.00000000000E+00  0.00000000000E+00 -0.48313571438E+03  0.48313738357E+03  0.12699999809E+01 0.  1.
    10030    2    1    2    0    0  0.00000000000E+00  0.00000000000E+00  0.68054528082E+03  0.16468190718E+04  0.14996236781E+04 0.  0.
        2    1    3    3  502    0  0.32824174829E+03 -0.40228805073E+03 -0.25378700521E+03  0.57791536153E+03  0.25500000920E-02 0.  1.
       -2    1    3    3    0  502 -0.32824174829E+03  0.40228805073E+03  0.93433228602E+03  0.10689037103E+04  0.25500000920E-02 0. -1.
</event>
<event>
 5   0  0.1116613E-05  0.1499526E+04  0.7818609E-02  0.8884768E-01
        4   -1    0    0  501    0  0.00000000000E+00  0.00000000000E+00  0.12243344303E+04  0.12243350890E+04  0.12699999809E+01 0. -1.
       -4   -1    0    0    0  501  0.00000000000E+00  0.00000000000E+00 -0.45914120013E+03  0.45914295656E+03  0.12699999809E+01 0.  1.
    10030    2    1    2    0    0  0.00000000000E+00  0.00000000000E+00  0.76519323015E+03  0.16834780455E+04  0.14995258085E+04 0.  0.
        2    1    3    3  502    0  0.43914528944E+03 -0.60609703564E+03  0.33311980575E+03  0.81925027119E+03  0.25500000920E-02 0. -1.
       -2    1    3    3    0  502 -0.43914528944E+03  0.60609703564E+03  0.43207342441E+03  0.86422777434E+03  0.25500000920E-02 0.  1.
</event>
<event>
 5   0  0.3018308E-05  0.1499989E+04  0.7818609E-02  0.8884460E-01
       -2   -1    0    0    0  501  0.00000000000E+00  0.00000000000E+00  0.44148364725E+03  0.44148364725E+03  0.25500000920E-02 0.  1.
        2   -1    0    0  501    0  0.00000000000E+00  0.00000000000E+00 -0.12740947786E+04  0.12740947786E+04  0.25500000920E-02 0. -1.
    10030    2    1    2    0    0  0.00000000000E+00  0.00000000000E+00 -0.83261113131E+03  0.17155784258E+04  0.14999893463E+04 0.  0.
        2    1    3    3  502    0 -0.50664549111E+03 -0.42852044594E+03 -0.81607471913E+03  0.10518067187E+04  0.25500000920E-02 0. -1.
       -2    1    3    3    0  502  0.50664549111E+03  0.42852044594E+03 -0.16536412182E+02  0.66377170713E+03  0.25500000920E-02 0.  1.
</event>
<event>
 5   0  0.1533777E-05  0.1499957E+04  0.7818609E-02  0.8884481E-01
       -1   -1    0    0    0  501  0.00000000000E+00  0.00000000000E+00  0.71463096590E+03  0.71463096592E+03  0.50400001928E-02 0. -1.
        1   -1    0    0  501    0  0.00000000000E+00  0.00000000000E+00 -0.78707446189E+03  0.78707446191E+03  0.50400001928E-02 0.  1.
    10030    2    1    2    0    0  0.00000000000E+00  0.00000000000E+00 -0.72443495989E+02  0.15017054278E+04  0.14999570433E+04 0.  0.
        5    1    3    3  502    0 -0.71195107187E+02 -0.18356646633E+03  0.68827935020E+03  0.71590218938E+03  0.46999998093E+01 0. -1.
       -5    1    3    3    0  502  0.71195107187E+02  0.18356646633E+03 -0.76072284619E+03  0.78580323845E+03  0.46999998093E+01 0.  1.
</event>
<event>
 5   0  0.2969498E-05  0.1499553E+04  0.7818609E-02  0.8884750E-01
       -2   -1    0    0    0  501  0.00000000000E+00  0.00000000000E+00  0.45274854604E+03  0.45274854605E+03  0.25500000920E-02 0.  1.
        2   -1    0    0  501    0  0.00000000000E+00  0.00000000000E+00 -0.12416710277E+04  0.12416710277E+04  0.25500000920E-02 0. -1.
    10030    2    1    2    0    0  0.00000000000E+00  0.00000000000E+00 -0.78892248169E+03  0.16944195738E+04  0.14995529367E+04 0.  0.
        3    1    3    3  502    0 -0.74477525214E+03 -0.75462153848E+02 -0.34678821171E+03  0.82501320404E+03  0.10100000352E+00 0. -1.
       -3    1    3    3    0  502  0.74477525214E+03  0.75462153848E+02 -0.44213426998E+03  0.86940636975E+03  0.10100000352E+00 0.  1.
</event>
<event>
 5   0  0.1588657E-05  0.1499917E+04  0.7818609E-02  0.8884508E-01
        1   -1    0    0  501    0  0.00000000000E+00  0.00000000000E+00  0.21280275341E+04  0.21280275341E+04  0.50400001928E-02 0.  1.
       -1   -1    0    0    0  501  0.00000000000E+00  0.00000000000E+00 -0.26429991317E+03  0.26429991322E+03  0.50400001928E-02 0. -1.
    10030    2    1    2    0    0  0.00000000000E+00  0.00000000000E+00  0.18637276210E+04  0.23923274474E+04  0.14999166544E+04 0.  0.
        3    1    3    3  502    0 -0.59754507387E+02  0.48957895163E+03  0.18329594247E+04  0.18981565831E+04  0.10100000352E+00 0.  1.
       -3    1    3    3    0  502  0.59754507387E+02 -0.48957895163E+03  0.30768196275E+02  0.49417086431E+03  0.10100000352E+00 0. -1.
</event>
<event>
 5   0  0.3070497E-05  0.1504488E+04  0.7818609E-02  0.8881474E-01
        2   -1    0    0  501    0  0.00000000000E+00  0.00000000000E+00  0.12769003220E+04  0.12769003220E+04  0.25500000920E-02 0.  1.
       -2   -1    0    0    0  501  0.00000000000E+00  0.00000000000E+00 -0.44315978206E+03  0.44315978207E+03  0.25500000920E-02 0. -1.
    10030    2    1    2    0    0  0.00000000000E+00  0.00000000000E+00  0.83374053990E+03  0.17200601040E+04  0.15044877778E+04 0.  0.
        4    1    3    3  502    0  0.22330602705E+02 -0.27347580350E+03 -0.38390486552E+03  0.47188158428E+03  0.12699999809E+01 0. -1.
       -4    1    3    3    0  502 -0.22330602705E+02  0.27347580350E+03  0.12176454054E+04  0.12481785197E+04  0.12699999809E+01 0.  1.
</event>
<event>
 5   0  0.1580078E-05  0.1500279E+04  0.7818609E-02  0.8884268E-01
       -1   -1    0    0    0  501  0.00000000000E+00  0.00000000000E+00  0.73162089870E+03  0.73162089871E+03  0.50400001928E-02 0.  1.
        1   -1    0    0  501    0  0.00000000000E+00  0.00000000000E+00 -0.76912632942E+03  0.76912632944E+03  0.50400001928E-02 0. -1.
    10030    2    1    2    0    0  0.00000000000E+00  0.00000000000E+00 -0.37505430725E+02  0.15007472282E+04  0.15002785026E+04 0.  0.
        2    1    3    3  502    0  0.31379243262E+03  0.54505197893E+03  0.39022896307E+03  0.74015268298E+03  0.25500000920E-02 0.  1.
       -2    1    3    3    0  502 -0.31379243262E+03 -0.54505197893E+03 -0.42773439379E+03  0.76059454517E+03  0.25500000920E-02 0. -1.
</event>
<event>
 5   0  0.1576214E-05  0.1498991E+04  0.7818609E-02  0.8885124E-01
        1   -1    0    0  501    0  0.00000000000E+00  0.00000000000E+00  0.31182760255E+03  0.31182760259E+03  0.50400001928E-02 0.  1.
       -1   -1    0    0    0  501  0.00000000000E+00  0.00000000000E+00 -0.18014562696E+04  0.18014562696E+04  0.50400001928E-02 0. -1.
    10030    2    1    2    0    0  0.00000000000E+00  0.00000000000E+00 -0.14896286671E+04  0.21132838722E+04  0.14989913805E+04 0.  0.
        1    1    3    3  502    0  0.62315528447E+03  0.13949193575E+03 -0.19163329950E+03  0.66671120450E+03  0.50400001928E-02 0.  1.
       -1    1    3    3    0  502 -0.62315528447E+03 -0.13949193575E+03 -0.12979953676E+04  0.14465726677E+04  0.50400001928E-02 0. -1.
</event>
<event>
 5   0  0.3030702E-05  0.1499585E+04  0.7818609E-02  0.8884729E-01
       -2   -1    0    0    0  501  0.00000000000E+00  0.00000000000E+00  0.21709641968E+03  0.21709641970E+03  0.25500000920E-02 0.  1.
        2   -1    0    0  501    0  0.00000000000E+00  0.00000000000E+00 -0.25895801957E+04  0.25895801957E+04  0.25500000920E-02 0. -1.
    10030    2    1    2    0    0  0.00000000000E+00  0.00000000000E+00 -0.23724837760E+04  0.28066766154E+04  0.14995847278E+04 0.  0.
        5    1    3    3  502    0 -0.18080657017E+03 -0.24177246136E+03 -0.24707645206E+04  0.24891453041E+04  0.46999998093E+01 0. -1.
       -5    1    3    3    0  502  0.18080657017E+03  0.24177246136E+03  0.98280744568E+02  0.31753131127E+03  0.46999998093E+01 0.  1.
</event>
<event>
 5   0  0.1533777E-05  0.1498456E+04  0.7818609E-02  0.8885480E-01
        1   -1    0    0  501    0  0.00000000000E+00  0.00000000000E+00  0.33425666534E+03  0.33425666538E+03  0.50400001928E-02 0.  1.
       -1   -1    0    0    0  501  0.00000000000E+00  0.00000000000E+00 -0.16793758820E+04  0.16793758820E+04  0.50400001928E-02 0. -1.
    10030    2    1    2    0    0  0.00000000000E+00  0.00000000000E+00 -0.13451192167E+04  0.20136325474E+04  0.14984559816E+04 0.  0.
        5    1    3    3  502    0 -0.14667563422E+03  0.34860738532E+03 -0.15416593006E+04  0.15873803388E+04  0.46999998093E+01 0. -1.
       -5    1    3    3    0  502  0.14667563422E+03 -0.34860738532E+03  0.19654008393E+03  0.42625220863E+03  0.46999998093E+01 0.  1.
</event>
<event>
 5   0  0.2969498E-05  0.1498352E+04  0.7818609E-02  0.8885550E-01
        2   -1    0    0  501    0  0.00000000000E+00  0.00000000000E+00  0.16074132030E+04  0.16074132030E+04  0.25500000920E-02 0.  1.
       -2   -1    0    0    0  501  0.00000000000E+00  0.00000000000E+00 -0.34917264859E+03  0.34917264860E+03  0.25500000920E-02 0. -1.
    10030    2    1    2    0    0  0.00000000000E+00  0.00000000000E+00  0.12582405544E+04  0.19565858516E+04  0.14983520621E+04 0.  0.
        3    1    3    3  502    0 -0.44710292818E+02  0.62112706077E+03  0.85252508761E+02  0.62854262890E+03  0.10100000352E+00 0. -1.
       -3    1    3    3    0  502  0.44710292818E+02 -0.62112706077E+03  0.11729880456E+04  0.13280432227E+04  0.10100000352E+00 0.  1.
</event>
<event>
 5   0  0.3093600E-05  0.1501696E+04  0.7818609E-02  0.8883326E-01
        2   -1    0    0  501    0  0.00000000000E+00  0.00000000000E+00  0.81092204987E+03  0.81092204987E+03  0.25500000920E-02 0. -1.
       -2   -1    0    0    0  501  0.00000000000E+00  0.00000000000E+00 -0.69522458247E+03  0.69522458247E+03  0.25500000920E-02 0.  1.
    10030    2    1    2    0    0  0.00000000000E+00  0.00000000000E+00  0.11569746740E+03  0.15061466323E+04  0.15016962989E+04 0.  0.
        1    1    3    3  502    0 -0.74535292319E+03  0.55601013505E+02 -0.13990980673E+02  0.74755481430E+03  0.50400001928E-02 0. -1.
       -1    1    3    3    0  502  0.74535292319E+03 -0.55601013505E+02  0.12968844807E+03  0.75859181804E+03  0.50400001928E-02 0.  1.
</event>
<event>
 5   0  0.1580078E-05  0.1499974E+04  0.7818609E-02  0.8884470E-01
        1   -1    0    0  501    0  0.00000000000E+00  0.00000000000E+00  0.11727383497E+04  0.11727383497E+04  0.50400001928E-02 0.  1.
       -1   -1    0    0    0  501  0.00000000000E+00  0.00000000000E+00 -0.47963010072E+03  0.47963010075E+03  0.50400001928E-02 0. -1.
    10030    2    1    2    0    0  0.00000000000E+00  0.00000000000E+00  0.69310824894E+03  0.16523684504E+04  0.14999741502E+04 0.  0.
        2    1    3    3  502    0  0.42931800981E+03 -0.24308700229E+03 -0.27570283024E+03  0.56517014681E+03  0.25500000920E-02 0. -1.
       -2    1    3    3    0  502 -0.42931800981E+03  0.24308700229E+03  0.96881107919E+03  0.10871983036E+04  0.25500000920E-02 0.  1.
</event>
<event>
 5   0  0.1580078E-05  0.1499191E+04  0.7818609E-02  0.8884991E-01
       -1   -1    0    0    0  501  0.00000000000E+00  0.00000000000E+00  0.46912252821E+03  0.46912252824E+03  0.50400001928E-02 0. -1.
        1   -1    0    0  501    0  0.00000000000E+00  0.00000000000E+00 -0.11977548488E+04  0.11977548488E+04  0.50400001928E-02 0.  1.
    10030    2    1    2    0    0  0.00000000000E+00  0.00000000000E+00 -0.72863232061E+03  0.16668773771E+04  0.14991914926E+04 0.  0.
        2    1    3    3  502    0  0.52334100587E+03  0.48964955922E+03 -0.60854726783E+03  0.94019799854E+03  0.25500000920E-02 0.  1.
       -2    1    3    3    0  502 -0.52334100587E+03 -0.48964955922E+03 -0.12008505279E+03  0.72667937853E+03  0.25500000920E-02 0. -1.
</event>
<event>
 5   0  0.2969498E-05  0.1500645E+04  0.7818609E-02  0.8884024E-01
        2   -1    0    0  501    0  0.00000000000E+00  0.00000000000E+00  0.12662828227E+04  0.12662828227E+04  0.25500000920E-02 0.  1.
       -2   -1    0    0    0  501  0.00000000000E+00  0.00000000000E+00 -0.44459539826E+03  0.44459539827E+03  0.25500000920E-02 0. -1.
    10030    2    1    2    0    0  0.00000000000E+00  0.00000000000E+00  0.82168742442E+03  0.17108782210E+04  0.15006445494E+04 0.  0.
        3    1    3    3  502    0  0.39276498295E+03 -0.50142780797E+03 -0.41314986399E+02  0.63827981069E+03  0.10100000352E+00 0. -1.
       -3    1    3    3    0  502 -0.39276498295E+03  0.50142780797E+03  0.86300241082E+03  0.10725984103E+04  0.10100000352E+00 0.  1.
</event>
<event>
 5   0  0.3030702E-05  0.1498556E+04  0.7818609E-02  0.8885413E-01
        2   -1    0    0  501    0  0.00000000000E+00  0.00000000000E+00  0.29048067745E+04  0.29048067745E+04  0.25500000920E-02 0. -1.
       -2   -1    0    0    0  501  0.00000000000E+00  0.00000000000E+00 -0.19327199123E+03  0.19327199125E+03  0.25500000920E-02 0.  1.
    10030    2    1    2    0    0  0.00000000000E+00  0.00000000000E+00  0.27115347832E+04  0.30980787657E+04  0.14985563579E+04 0.  0.
        5    1    3    3  502    0 -0.47882476193E+03 -0.46668812897E+03  0.20547871960E+04  0.21608432320E+04  0.46999998093E+01 0. -1.
       -5    1    3    3    0  502  0.47882476193E+03  0.46668812897E+03  0.65674758722E+03  0.93723553372E+03  0.46999998093E+01 0.  1.
</event>
<event>
 5   0  0.1643498E-05  0.1498676E+04  0.7818609E-02  0.8885334E-01
       -1   -1    0    0    0  501  0.00000000000E+00  0.00000000000E+00  0.96555784016E+03  0.96555784017E+03  0.50400001928E-02 0. -1.
        1   -1    0    0  501    0  0.00000000000E+00  0.00000000000E+00 -0.58153717754E+03  0.58153717757E+03  0.50400001928E-02 0.  1.
    10030    2    1    2    0    0  0.00000000000E+00  0.00000000000E+00  0.38402066261E+03  0.15470950177E+04  0.14986764576E+04 0.  0.
        4    1    3    3  502    0 -0.42885235346E+03 -0.28027697197E+03 -0.37249923897E+03  0.63342467430E+03  0.12699999809E+01 0.  1.
       -4    1    3    3    0  502  0.42885235346E+03  0.28027697197E+03  0.75651990158E+03  0.91367034343E+03  0.12699999809E+01 0. -1.
</event>
<event>
 5   0  0.1643498E-05  0.1500293E+04  0.7818609E-02  0.8884258E-01
       -1   -1    0    0    0  501  0.00000000000E+00  0.00000000000E+00  0.22595972303E+04  0.22595972303E+04  0.50400001928E-02 0. -1.
        1   -1    0    0  501    0  0.00000000000E+00  0.00000000000E+00 -0.24903547186E+03  0.24903547191E+03  0.50400001928E-02 0.  1.
    10030    2    1    2    0    0  0.00000000000E+00  0.00000000000E+00  0.20105617585E+04  0.25086327023E+04  0.15002931214E+04 0.  0.
        4    1    3    3  502    0 -0.20496519396E+03  0.72154120559E+03  0.10207698902E+04  0.12667301306E+04  0.12699999809E+01 0. -1.
       -4    1    3    3    0  502  0.20496519396E+03 -0.72154120559E+03  0.98979186831E+03  0.12419025717E+04  0.12699999809E+01 0.  1.
</event>
<event>
 5   0  0.1576214E-05  0.1500028E+04  0.7818609E-02  0.8884434E-01
        1   -1    0    0  501    0  0.00000000000E+00  0.00000000000E+00  0.19831704790E+04  0.19831704790E+04  0.50400001928E-02 0.  1.
       -1   -1    0    0    0  501  0.00000000000E+00  0.00000000000E+00 -0.28364739724E+03  0.28364739729E+03  0.50400001928E-02 0. -1.
    10030    2    1    2    0    0  0.00000000000E+00  0.00000000000E+00  0.16995230817E+04  0.22668178763E+04  0.15000281927E+04 0.  0.
        1    1    3    3  502    0 -0.36928510157E+03 -0.63003399092E+03  0.59150019543E+03  0.93978018556E+03  0.50400001928E-02 0. -1.
       -1    1    3    3    0  502  0.36928510157E+03  0.63003399092E+03  0.11080228863E+04  0.13270376907E+04  0.50400001928E-02 0.  1.
</event>
<event>
 5   0  0.1576214E-05  0.1499029E+04  0.7818609E-02  0.8885099E-01
       -1   -1    0    0    0  501  0.00000000000E+00  0.00000000000E+00  0.95934728582E+03  0.95934728584E+03  0.50400001928E-02 0.  1.
        1   -1    0    0  501    0  0.00000000000E+00  0.00000000000E+00 -0.58557714605E+03  0.58557714608E+03  0.50400001928E-02 0. -1.
    10030    2    1    2    0    0  0.00000000000E+00  0.00000000000E+00  0.37377013977E+03  0.15449244319E+04  0.14990288132E+04 0.  0.
        1    1    3    3  502    0  0.69844187896E+02 -0.30169149924E+03  0.89033367229E+03  0.94265052874E+03  0.50400001928E-02 0.  1.
       -1    1    3    3    0  502 -0.69844187896E+02  0.30169149924E+03 -0.51656353252E+03  0.60227390318E+03  0.50400001928E-02 0. -1.
</event>
<event>
 5   0  0.1580078E-05  0.1499622E+04  0.7818609E-02  0.8884704E-01
        1   -1    0    0  501    0  0.00000000000E+00  0.00000000000E+00  0.25292708156E+04  0.25292708156E+04  0.50400001928E-02 0. -1.
       -1   -1    0    0    0  501  0.00000000000E+00  0.00000000000E+00 -0.22228403714E+03  0.22228403720E+03  0.50400001928E-02 0.  1.
    10030    2    1    2    0    0  0.00000000000E+00  0.00000000000E+00  0.23069867784E+04  0.27515548528E+04  0.14996219897E+04 0.  0.
        2    1    3    3  502    0  0.13604696671E+03  0.49887058304E+03  0.21497851776E+04  0.22110985834E+04  0.25500000920E-02 0. -1.
       -2    1    3    3    0  502 -0.13604696671E+03 -0.49887058304E+03  0.15720160083E+03  0.54045626935E+03  0.25500000920E-02 0.  1.
</event>
<event>
 5   0  0.1533777E-05  0.1498963E+04  0.7818609E-02  0.8885143E-01
       -1   -1    0    0    0  501  0.00000000000E+00  0.00000000000E+00  0.11711335978E+04  0.11711335978E+04  0.50400001928E-02 0.  1.
        1   -1    0    0  501    0  0.00000000000E+00  0.00000000000E+00 -0.47963997270E+03  0.47963997272E+03  0.50400001928E-02 0. -1.
    10030    2    1    2    0    0  0.00000000000E+00  0.00000000000E+00  0.69149362509E+03  0.16507735705E+04  0.14989629574E+04 0.  0.
        5    1    3    3  502    0  0.65151685544E+03 -0.29688150595E+03  0.10175103619E+03  0.72317923426E+03  0.46999998093E+01 0. -1.
       -5    1    3    3    0  502 -0.65151685544E+03  0.29688150595E+03  0.58974258890E+03  0.92759433626E+03  0.46999998093E+01 0.  1.
</event>
<event>
 5   0  0.1580078E-05  0.1499487E+04  0.7818609E-02  0.8884794E-01
        1   -1    0    0  501    0  0.00000000000E+00  0.00000000000E+00  0.14856679352E+04  0.14856679352E+04  0.50400001928E-02 0.  1.
       -1   -1    0    0    0  501  0.00000000000E+00  0.00000000000E+00 -0.37835866642E+03  0.37835866645E+03  0.50400001928E-02 0. -1.
    10030    2    1    2    0    0  0.00000000000E+00  0.00000000000E+00  0.11073092688E+04  0.18640266017E+04  0.14994870306E+04 0.  0.
        2    1    3    3  502    0  0.36287386484E+03  0.14204302985E+03 -0.24257780329E+03  0.45901814209E+03  0.25500000920E-02 0. -1.
       -2    1    3    3    0  502 -0.36287386484E+03 -0.14204302985E+03  0.13498870721E+04  0.14050084596E+04  0.25500000920E-02 0.  1.
</event>
<event>
 5   0  0.3093600E-05  0.1500195E+04  0.7818609E-02  0.8884324E-01
        2   -1    0    0  501    0  0.00000000000E+00  0.00000000000E+00  0.67832864349E+03  0.67832864350E+03  0.25500000920E-02 0. -1.
       -2   -1    0    0    0  501  0.00000000000E+00  0.00000000000E+00 -0.82945927001E+03  0.82945927001E+03  0.25500000920E-02 0.  1.
    10030    2    1    2    0    0  0.00000000000E+00  0.00000000000E+00 -0.15113062651E+03  0.15077879135E+04  0.15001946293E+04 0.  0.
        1    1    3    3  502    0  0.24372768274E+03  0.23042208797E+03 -0.74989229195E+03  0.82148400563E+03  0.50400001928E-02 0.  1.
       -1    1    3    3    0  502 -0.24372768274E+03 -0.23042208797E+03  0.59876166544E+03  0.68630390788E+03  0.50400001928E-02 0. -1.
</event>
<event>
 5   0  0.3093600E-05  0.1500140E+04  0.7818609E-02  0.8884360E-01
       -2   -1    0    0    0  501  0.00000000000E+00  0.00000000000E+00  0.26428506629E+03  0.26428506630E+03  0.25500000920E-02 0. -1.
        2   -1    0    0  501    0  0.00000000000E+00  0.00000000000E+00 -0.21287804029E+04  0.21287804029E+04  0.25500000920E-02 0.  1.
    10030    2    1    2    0    0  0.00000000000E+00  0.00000000000E+00 -0.18644953366E+04  0.23930654692E+04  0.15001398201E+04 0.  0.
        1    1    3    3  502    0 -0.40029789863E+03  0.17979832552E+03 -0.19026383211E+04  0.19525876233E+04  0.50400001928E-02 0.  1.
       -1    1    3    3    0  502  0.40029789863E+03 -0.17979832552E+03  0.38142984475E+02  0.44047784598E+03  0.50400001928E-02 0. -1.
</event>
<event>
 5   0  0.3018308E-05  0.1500443E+04  0.7818609E-02  0.8884159E-01
       -2   -1    0    0    0  501  0.00000000000E+00  0.00000000000E+00  0.76067701210E+03  0.76067701210E+03  0.25500000920E-02 0. -1.
        2   -1    0    0  501    0  0.00000000000E+00  0.00000000000E+00 -0.73990928756E+03  0.73990928756E+03  0.25500000920E-02 0.  1.
    10030    2    1    2    0    0  0.00000000000E+00  0.00000000000E+00  0.20767724540E+02  0.15005862997E+04  0.15004425828E+04 0.  0.
        2    1    3    3  502    0 -0.27460803864E+03  0.11962484785E+03  0.69828134265E+03  0.75981347225E+03  0.25500000920E-02 0. -1.
       -2    1    3    3    0  502  0.27460803864E+03 -0.11962484785E+03 -0.67751361811E+03  0.74077282742E+03  0.25500000920E-02 0.  1.
</event>
<event>
 5   0  0.1643498E-05  0.1498685E+04  0.7818609E-02  0.8885328E-01
       -1   -1    0    0    0  501  0.00000000000E+00  0.00000000000E+00  0.10344795802E+04  0.10344795802E+04  0.50400001928E-02 0.  1.
        1   -1    0    0  501    0  0.00000000000E+00  0.00000000000E+00 -0.54279849210E+03  0.54279849213E+03  0.50400001928E-02 0. -1.
    10030    2    1    2    0    0  0.00000000000E+00  0.00000000000E+00  0.49168108805E+03  0.15772780723E+04  0.14986846983E+04 0.  0.
        4    1    3    3  502    0  0.18113033464E+03  0.21131432778E+03 -0.48638231736E+03  0.56038497017E+03  0.12699999809E+01 0. -1.
       -4    1    3    3    0  502 -0.18113033464E+03 -0.21131432778E+03  0.97806340541E+03  0.10168931021E+04  0.12699999809E+01 0.  1.
</event>
<event>
 5   0  0.1643498E-05  0.1488289E+04  0.7818609E-02  0.8892278E-01
       -1   -1    0    0    0  501  0.00000000000E+00  0.00000000000E+00  0.48093866415E+03  0.48093866418E+03  0.50400001928E-02 0.  1.
        1   -1    0    0  501    0  0.00000000000E+00  0.00000000000E+00 -0.11513957592E+04  0.11513957592E+04  0.50400001928E-02 0. -1.
    10030    2    1    2    0    0  0.00000000000E+00  0.00000000000E+00 -0.67045709508E+03  0.16323344234E+04  0.14882885989E+04 0.  0.
        4    1    3    3  502    0  0.74330886177E+03 -0.34758276083E+02 -0.34152182114E+03  0.81875208027E+03  0.12699999809E+01 0. -1.
       -4    1    3    3    0  502 -0.74330886177E+03  0.34758276083E+02 -0.32893527394E+03  0.81358234315E+03  0.12699999809E+01 0.  1.
</event>
<event>
 5   0  0.1576214E-05  0.1502014E+04  0.7818609E-02  0.8883115E-01
       -1   -1    0    0    0  501  0.00000000000E+00  0.00000000000E+00  0.10189993264E+04  0.10189993264E+04  0.50400001928E-02 0. -1.
        1   -1    0    0  501    0  0.00000000000E+00  0.00000000000E+00 -0.55349567170E+03  0.55349567172E+03  0.50400001928E-02 0.  1.
    10030    2    1    2    0    0  0.00000000000E+00  0.00000000000E+00  0.46550365466E+03  0.15724949981E+04  0.15020142697E+04 0.  0.
        1    1    3    3  502    0 -0.36209902837E+03  0.63955644878E+03  0.71024718744E+02  0.73837163286E+03  0.50400001928E-02 0.  1.
       -1    1    3    3    0  502  0.36209902837E+03 -0.63955644878E+03  0.39447893592E+03  0.83412336523E+03  0.50400001928E-02 0. -1.
</event>
<event>
 5   0  0.1580078E-05  0.1499887E+04  0.7818609E-02  0.8884528E-01
       -1   -1    0    0    0  501  0.00000000000E+00  0.00000000000E+00  0.50500112814E+03  0.50500112816E+03  0.50400001928E-02 0. -1.
        1   -1    0    0  501    0  0.00000000000E+00  0.00000000000E+00 -0.11136910267E+04  0.11136910267E+04  0.50400001928E-02 0.  1.
    10030    2    1    2    0    0  0.00000000000E+00  0.00000000000E+00 -0.60868989859E+03  0.16186921549E+04  0.14998869623E+04 0.  0.
        2    1    3    3  502    0  0.18617811290E+01  0.27000391074E+03  0.45072356216E+03  0.52541156015E+03  0.25500000920E-02 0. -1.
       -2    1    3    3    0  502 -0.18617811290E+01 -0.27000391074E+03 -0.10594134608E+04  0.10932805948E+04  0.25500000920E-02 0.  1.
</event>
<event>
 5   0  0.1580078E-05  0.1499735E+04  0.7818609E-02  0.8884629E-01
        1   -1    0    0  501    0  0.00000000000E+00  0.00000000000E+00  0.49522696060E+03  0.49522696063E+03  0.50400001928E-02 0. -1.
       -1   -1    0    0    0  501  0.00000000000E+00  0.00000000000E+00 -0.11354409898E+04  0.11354409898E+04  0.50400001928E-02 0.  1.
    10030    2    1    2    0    0  0.00000000000E+00  0.00000000000E+00 -0.64021402920E+03  0.16306679504E+04  0.14997346303E+04 0.  0.
        2    1    3    3  502    0  0.14665526845E+03 -0.61442074752E+03  0.11925054209E+03  0.64283848247E+03  0.25500000920E-02 0. -1.
       -2    1    3    3    0  502 -0.14665526845E+03  0.61442074752E+03 -0.75946457129E+03  0.98782946797E+03  0.25500000920E-02 0.  1.
</event>
<event>
 5   0  0.2969498E-05  0.1500017E+04  0.7818609E-02  0.8884442E-01
        2   -1    0    0  501    0  0.00000000000E+00  0.00000000000E+00  0.12907563805E+04  0.12907563805E+04  0.25500000920E-02 0.  1.
       -2   -1    0    0    0  501  0.00000000000E+00  0.00000000000E+00 -0.43580071583E+03  0.43580071584E+03  0.25500000920E-02 0. -1.
    10030    2    1    2    0    0  0.00000000000E+00  0.00000000000E+00  0.85495566465E+03  0.17265570963E+04  0.15000167394E+04 0.  0.
        3    1    3    3  502    0  0.77880614751E+02 -0.23725116674E+03 -0.38654933600E+03  0.46018898905E+03  0.10100000352E+00 0. -1.
       -3    1    3    3    0  502 -0.77880614751E+02  0.23725116674E+03  0.12415050006E+04  0.12663681073E+04  0.10100000352E+00 0.  1.
</event>
<event>
 5   0  0.3093600E-05  0.1499722E+04  0.7818609E-02  0.8884638E-01
       -2   -1    0    0    0  501  0.00000000000E+00  0.00000000000E+00  0.59365126230E+03  0.59365126230E+03  0.25500000920E-02 0. -1.
        2   -1    0    0  501    0  0.00000000000E+00  0.00000000000E+00 -0.94717502770E+03  0.94717502770E+03  0.25500000920E-02 0.  1.
    10030    2    1    2    0    0  0.00000000000E+00  0.00000000000E+00 -0.35352376540E+03  0.15408262900E+04  0.14997221754E+04 0.  0.
        1    1    3    3  502    0 -0.16535800603E+03  0.60847247399E+03  0.24020576661E+03  0.67474501265E+03  0.50400001928E-02 0.  1.
       -1    1    3    3    0  502  0.16535800603E+03 -0.60847247399E+03 -0.59372953202E+03  0.86608127735E+03  0.50400001928E-02 0. -1.
</event>
<event>
 5   0  0.2969498E-05  0.1499399E+04  0.7818609E-02  0.8884853E-01
        2   -1    0    0  501    0  0.00000000000E+00  0.00000000000E+00  0.15346944893E+04  0.15346944893E+04  0.25500000920E-02 0. -1.
       -2   -1    0    0    0  501  0.00000000000E+00  0.00000000000E+00 -0.36622861551E+03  0.36622861552E+03  0.25500000920E-02 0.  1.
    10030    2    1    2    0    0  0.00000000000E+00  0.00000000000E+00  0.11684658738E+04  0.19009231048E+04  0.14993985969E+04 0.  0.
        3    1    3    3  502    0  0.47725020314E+03  0.10294543284E+03 -0.13705345100E+03  0.50709878443E+03  0.10100000352E+00 0.  1.
       -3    1    3    3    0  502 -0.47725020314E+03 -0.10294543284E+03  0.13055193248E+04  0.13938243204E+04  0.10100000352E+00 0. -1.
</event>
<event>
 5   0  0.1576214E-05  0.1500827E+04  0.7818609E-02  0.8883903E-01
       -1   -1    0    0    0  501  0.00000000000E+00  0.00000000000E+00  0.94605935896E+03  0.94605935898E+03  0.50400001928E-02 0. -1.
        1   -1    0    0  501    0  0.00000000000E+00  0.00000000000E+00 -0.59522725754E+03  0.59522725756E+03  0.50400001928E-02 0.  1.
    10030    2    1    2    0    0  0.00000000000E+00  0.00000000000E+00  0.35083210142E+03  0.15412866165E+04  0.15008268624E+04 0.  0.
        1    1    3    3  502    0  0.42286529064E+02  0.24282190895E+03 -0.55247189362E+03  0.60495935671E+03  0.50400001928E-02 0.  1.
       -1    1    3    3    0  502 -0.42286529064E+02 -0.24282190895E+03  0.90330399504E+03  0.93632725983E+03  0.50400001928E-02 0. -1.
</event>
<event>
 5   0  0.3018308E-05  0.1495052E+04  0.7818609E-02  0.8887750E-01
        2   -1    0    0  501    0  0.00000000000E+00  0.00000000000E+00  0.10162988987E+04  0.10162988987E+04  0.25500000920E-02 0.  1.
       -2   -1    0    0    0  501  0.00000000000E+00  0.00000000000E+00 -0.54983335673E+03  0.54983335673E+03  0.25500000920E-02 0. -1.
    10030    2    1    2    0    0  0.00000000000E+00  0.00000000000E+00  0.46646554194E+03  0.15661322554E+04  0.14950518852E+04 0.  0.
        2    1    3    3  502    0 -0.30068670477E+03 -0.50611929690E+02  0.94819267784E+03  0.99601376304E+03  0.25500000920E-02 0.  1.
       -2    1    3    3    0  502  0.30068670477E+03  0.50611929690E+02 -0.48172713590E+03  0.57011849236E+03  0.25500000920E-02 0. -1.
</event>
<event>
 5   0  0.3018308E-05  0.1499315E+04  0.7818609E-02  0.8884908E-01
        2   -1    0    0  501    0  0.00000000000E+00  0.00000000000E+00  0.10264971856E+04  0.10264971856E+04  0.25500000920E-02 0. -1.
       -2   -1    0    0    0  501  0.00000000000E+00  0.00000000000E+00 -0.54748002344E+03  0.54748002344E+03  0.25500000920E-02 0.  1.
    10030    2    1    2    0    0  0.00000000000E+00  0.00000000000E+00  0.47901716221E+03  0.15739772091E+04  0.14993154481E+04 0.  0.
        2    1    3    3  502    0 -0.28234544518E+03 -0.30162731344E+03 -0.41717186735E+03  0.58713742304E+03  0.25500000920E-02 0.  1.
       -2    1    3    3    0  502  0.28234544518E+03  0.30162731344E+03  0.89618902956E+03  0.98683978605E+03  0.25500000920E-02 0. -1.
</event>
<event>
 5   0  0.1576214E-05  0.1499251E+04  0.7818609E-02  0.8884951E-01
        1   -1    0    0  501    0  0.00000000000E+00  0.00000000000E+00  0.13593856055E+04  0.13593856055E+04  0.50400001928E-02 0. -1.
       -1   -1    0    0    0  501  0.00000000000E+00  0.00000000000E+00 -0.41337673337E+03  0.41337673341E+03  0.50400001928E-02 0.  1.
    10030    2    1    2    0    0  0.00000000000E+00  0.00000000000E+00  0.94600887214E+03  0.17727623389E+04  0.14992509877E+04 0.  0.
        1    1    3    3  502    0  0.24402771171E+03  0.11044096631E+03 -0.35485981219E+03  0.44460343842E+03  0.50400001928E-02 0.  1.
       -1    1    3    3    0  502 -0.24402771171E+03 -0.11044096631E+03  0.13008686843E+04  0.13281589005E+04  0.50400001928E-02 0. -1.
</event>
<event>
 5   0  0.1643498E-05  0.1501308E+04  0.7818609E-02  0.8883583E-01
       -1   -1    0    0    0  501  0.00000000000E+00  0.00000000000E+00  0.17171576799E+03  0.17171576807E+03  0.50400001928E-02 0.  1.
        1   -1    0    0  501    0  0.00000000000E+00  0.00000000000E+00 -0.32814792521E+04  0.32814792521E+04  0.50400001928E-02 0. -1.
    10030    2    1    2    0    0  0.00000000000E+00  0.00000000000E+00 -0.31097634841E+04  0.34531950201E+04  0.15013084028E+04 0.  0.
        4    1    3    3  502    0  0.43816649486E+03  0.59172850610E+03 -0.12188147401E+04  0.14239534704E+04  0.12699999809E+01 0.  1.
       -4    1    3    3    0  502 -0.43816649486E+03 -0.59172850610E+03 -0.18909487439E+04  0.20292415497E+04  0.12699999809E+01 0. -1.
</event>
<event>
 5   0  0.1533777E-05  0.1500322E+04  0.7818609E-02  0.8884239E-01
       -1   -1    0    0    0  501  0.00000000000E+00  0.00000000000E+00  0.38847417622E+03  0.38847417625E+03  0.50400001928E-02 0. -1.
        1   -1    0    0  501    0  0.00000000000E+00  0.00000000000E+00 -0.14485950449E+04  0.14485950449E+04  0.50400001928E-02 0.  1.
    10030    2    1    2    0    0  0.00000000000E+00  0.00000000000E+00 -0.10601208687E+04  0.18370692212E+04  0.15003223211E+04 0.  0.
        5    1    3    3  502    0  0.16636783214E+03  0.41070549715E+03 -0.12711938715E+04  0.13462218279E+04  0.46999998093E+01 0.  1.
       -5    1    3    3    0  502 -0.16636783214E+03 -0.41070549715E+03  0.21107300282E+03  0.49084739327E+03  0.46999998093E+01 0. -1.
</event>
<event>
 5   0  0.3070497E-05  0.1500884E+04  0.7818609E-02  0.8883865E-01
       -2   -1    0    0    0  501  0.00000000000E+00  0.00000000000E+00  0.93275422605E+03  0.93275422605E+03  0.25500000920E-02 0. -1.
        2   -1    0    0  501    0  0.00000000000E+00  0.00000000000E+00 -0.60376412296E+03  0.60376412296E+03  0.25500000920E-02 0.  1.
    10030    2    1    2    0    0  0.00000000000E+00  0.00000000000E+00  0.32899010309E+03  0.15365183490E+04  0.15008844556E+04 0.  0.
        4    1    3    3  502    0 -0.15581047298E+03  0.72443618335E+03  0.28595950600E+03  0.79426641576E+03  0.12699999809E+01 0. -1.
       -4    1    3    3    0  502  0.15581047298E+03 -0.72443618335E+03  0.43030597089E+02  0.74225193325E+03  0.12699999809E+01 0.  1.
</event>
<event>
 5   0  0.1533777E-05  0.1499946E+04  0.7818609E-02  0.8884489E-01
        1   -1    0    0  501    0  0.00000000000E+00  0.00000000000E+00  0.15697550560E+04  0.15697550560E+04  0.50400001928E-02 0. -1.
       -1   -1    0    0    0  501  0.00000000000E+00  0.00000000000E+00 -0.35831035404E+03  0.35831035408E+03  0.50400001928E-02 0.  1.
    10030    2    1    2    0    0  0.00000000000E+00  0.00000000000E+00  0.12114447019E+04  0.19280654101E+04  0.14999459856E+04 0.  0.
        5    1    3    3  502    0 -0.71347149005E+01 -0.67866640707E+02  0.15657369815E+04  0.15672304139E+04  0.46999998093E+01 0. -1.
       -5    1    3    3    0  502  0.71347149005E+01  0.67866640707E+02 -0.35429227957E+03  0.36083499614E+03  0.46999998093E+01 0.  1.
</event>
<event>
 5   0  0.2969498E-05  0.1499514E+04  0.7818609E-02  0.8884776E-01
        2   -1    0    0  501    0  0.00000000000E+00  0.00000000000E+00  0.16536717908E+04  0.16536717908E+04  0.25500000920E-02 0.  1.
       -2   -1    0    0    0  501  0.00000000000E+00  0.00000000000E+00 -0.33993179959E+03  0.33993179960E+03  0.25500000920E-02 0. -1.
    10030    2    1    2    0    0  0.00000000000E+00  0.00000000000E+00  0.13137399912E+04  0.19936035904E+04  0.14995140917E+04 0.  0.
        3    1    3    3  502    0 -0.88983586252E+02 -0.28980803600E+03 -0.25481096916E+03  0.39602451510E+03  0.10100000352E+00 0. -1.
       -3    1    3    3    0  502  0.88983586252E+02  0.28980803600E+03  0.15685509604E+04  0.15975790753E+04  0.10100000352E+00 0.  1.
</event>
<event>
 5   0  0.1533777E-05  0.1499872E+04  0.7818609E-02  0.8884538E-01
        1   -1    0    0  501    0  0.00000000000E+00  0.00000000000E+00  0.96234096441E+03  0.96234096443E+03  0.50400001928E-02 0.  1.
       -1   -1    0    0    0  501  0.00000000000E+00  0.00000000000E+00 -0.58441227644E+03  0.58441227646E+03  0.50400001928E-02 0. -1.
    10030    2    1    2    0    0  0.00000000000E+00  0.00000000000E+00  0.37792868798E+03  0.15467532409E+04  0.14998718262E+04 0.  0.
        5    1    3    3  502    0  0.10891546409E+03 -0.94216455915E+02  0.94793195055E+03  0.95882031255E+03  0.46999998093E+01 0.  1.
       -5    1    3    3    0  502 -0.10891546409E+03  0.94216455915E+02 -0.57000326257E+03  0.58793292834E+03  0.46999998093E+01 0. -1.
</event>
<event>
 5   0  0.1588657E-05  0.1498279E+04  0.7818609E-02  0.8885598E-01
       -1   -1    0    0    0  501  0.00000000000E+00  0.00000000000E+00  0.12798574871E+04  0.12798574871E+04  0.50400001928E-02 0.  1.
        1   -1    0    0  501    0  0.00000000000E+00  0.00000000000E+00 -0.43849427716E+03  0.43849427719E+03  0.50400001928E-02 0. -1.
    10030    2    1    2    0    0  0.00000000000E+00  0.00000000000E+00  0.84136320991E+03  0.17183517643E+04  0.14982792579E+04 0.  0.
        3    1    3    3  502    0  0.63889905867E+03  0.33162823649E+03  0.65861744943E+03  0.97567732848E+03  0.10100000352E+00 0. -1.
       -3    1    3    3    0  502 -0.63889905867E+03 -0.33162823649E+03  0.18274576047E+03  0.74267443579E+03  0.10100000352E+00 0.  1.
</event>
<event>
 5   0  0.1588657E-05  0.1500490E+04  0.7818609E-02  0.8884127E-01
        1   -1    0    0  501    0  0.00000000000E+00  0.00000000000E+00  0.82461803557E+03  0.82461803558E+03  0.50400001928E-02 0.  1.
       -1   -1    0    0    0  501  0.00000000000E+00  0.00000000000E+00 -0.68257941156E+03  0.68257941158E+03  0.50400001928E-02 0. -1.
    10030    2    1    2    0    0  0.00000000000E+00  0.00000000000E+00  0.14203862401E+03  0.15071974472E+04  0.15004896448E+04 0.  0.
        3    1    3    3  502    0 -0.43826392440E+03  0.43511364539E+03 -0.35687580547E+03  0.71327379215E+03  0.10100000352E+00 0. -1.
       -3    1    3    3    0  502  0.43826392440E+03 -0.43511364539E+03  0.49891442947E+03  0.79392365501E+03  0.10100000352E+00 0.  1.
</event>
<event>
 5   0  0.1533777E-05  0.1499605E+04  0.7818609E-02  0.8884715E-01
        1   -1    0    0  501    0  0.00000000000E+00  0.00000000000E+00  0.18408794648E+04  0.18408794648E+04  0.50400001928E-02 0. -1.
       -1   -1    0    0    0  501  0.00000000000E+00  0.00000000000E+00 -0.30539966286E+03  0.30539966290E+03  0.50400001928E-02 0.  1.
    10030    2    1    2    0    0  0.00000000000E+00  0.00000000000E+00  0.15354798020E+04  0.21462791277E+04  0.14996052387E+04 0.  0.
        5    1    3    3  502    0  0.15116962218E+03  0.26505777756E+03  0.17479742863E+04  0.17744137273E+04  0.46999998093E+01 0. -1.
       -5    1    3    3    0  502 -0.15116962218E+03 -0.26505777756E+03 -0.21249448437E+03  0.37186540038E+03  0.46999998093E+01 0.  1.
</event>
<event>
 5   0  0.3070497E-05  0.1500052E+04  0.7818609E-02  0.8884418E-01
        2   -1    0    0  501    0  0.00000000000E+00  0.00000000000E+00  0.48202012223E+03  0.48202012223E+03  0.25500000920E-02 0. -1.
       -2   -1    0    0    0  501  0.00000000000E+00  0.00000000000E+00 -0.11670446017E+04  0.11670446017E+04  0.25500000920E-02 0.  1.
    10030    2    1    2    0    0  0.00000000000E+00  0.00000000000E+00 -0.68502447951E+03  0.16490647240E+04  0.15000519745E+04 0.  0.
        4    1    3    3  502    0  0.13344442202E+03 -0.55930509690E+03 -0.87191845837E+03  0.10444486661E+04  0.12699999809E+01 0.  1.
       -4    1    3    3    0  502 -0.13344442202E+03  0.55930509690E+03  0.18689397886E+03  0.60461605786E+03  0.12699999809E+01 0. -1.
</event>
<event>
 5   0  0.2969498E-05  0.1498375E+04  0.7818609E-02  0.8885534E-01
       -2   -1    0    0    0  501  0.00000000000E+00  0.00000000000E+00  0.33453616644E+03  0.33453616645E+03  0.25500000920E-02 0.  1.
        2   -1    0    0  501    0  0.00000000000E+00  0.00000000000E+00 -0.16777906024E+04  0.16777906024E+04  0.25500000920E-02 0. -1.
    10030    2    1    2    0    0  0.00000000000E+00  0.00000000000E+00 -0.13432544359E+04  0.20123267688E+04  0.14983746344E+04 0.  0.
        3    1    3    3  502    0 -0.62593624202E+02  0.16282732628E+03  0.30688078433E+03  0.35299649569E+03  0.10100000352E+00 0.  1.
       -3    1    3    3    0  502  0.62593624202E+02 -0.16282732628E+03 -0.16501352203E+04  0.16593302732E+04  0.10100000352E+00 0. -1.
</event>
<event>
 5   0  0.3018308E-05  0.1500529E+04  0.7818609E-02  0.8884102E-01
       -2   -1    0    0    0  501  0.00000000000E+00  0.00000000000E+00  0.62226264961E+03  0.62226264962E+03  0.25500000920E-02 0. -1.
        2   -1    0    0  501    0  0.00000000000E+00  0.00000000000E+00 -0.90459630773E+03  0.90459630773E+03  0.25500000920E-02 0.  1.
    10030    2    1    2    0    0  0.00000000000E+00  0.00000000000E+00 -0.28233365811E+03  0.15268589574E+04  0.15005285673E+04 0.  0.
        2    1    3    3  502    0  0.29110802615E+03 -0.89841520920E+02 -0.83882238094E+03  0.89243395752E+03  0.25500000920E-02 0.  1.
       -2    1    3    3    0  502 -0.29110802615E+03  0.89841520920E+02  0.55648872282E+03  0.63442499983E+03  0.25500000920E-02 0. -1.
</event>
<event>
 5   0  0.3093600E-05  0.1500335E+04  0.7818609E-02  0.8884230E-01
       -2   -1    0    0    0  501  0.00000000000E+00  0.00000000000E+00  0.29260400722E+03  0.29260400723E+03  0.25500000920E-02 0.  1.
        2   -1    0    0  501    0  0.00000000000E+00  0.00000000000E+00 -0.19232518734E+04  0.19232518734E+04  0.25500000920E-02 0. -1.
    10030    2    1    2    0    0  0.00000000000E+00  0.00000000000E+00 -0.16306478662E+04  0.22158558806E+04  0.15003349027E+04 0.  0.
        1    1    3    3  502    0  0.21110744864E+03  0.55498698335E+03 -0.13823907567E+03  0.60966133929E+03  0.50400001928E-02 0.  1.
       -1    1    3    3    0  502 -0.21110744864E+03 -0.55498698335E+03 -0.14924087905E+04  0.16061945413E+04  0.50400001928E-02 0. -1.
</event>
<event>
 5   0  0.3030702E-05  0.1500113E+04  0.7818609E-02  0.8884378E-01
        2   -1    0    0  501    0  0.00000000000E+00  0.00000000000E+00  0.76583580514E+03  0.76583580515E+03  0.25500000920E-02 0.  1.
       -2   -1    0    0    0  501  0.00000000000E+00  0.00000000000E+00 -0.73460230020E+03  0.73460230021E+03  0.25500000920E-02 0. -1.
    10030    2    1    2    0    0  0.00000000000E+00  0.00000000000E+00  0.31233504938E+02  0.15004381054E+04  0.15001129878E+04 0.  0.
        5    1    3    3  502    0 -0.89674222246E+02  0.73064982938E+03  0.15942557050E+03  0.75321261397E+03  0.46999998093E+01 0. -1.
       -5    1    3    3    0  502  0.89674222246E+02 -0.73064982938E+03 -0.12819206557E+03  0.74722549139E+03  0.46999998093E+01 0.  1.
</event>
<event>
 5   0  0.2969498E-05  0.1500120E+04  0.7818609E-02  0.8884373E-01
        2   -1    0    0  501    0  0.00000000000E+00  0.00000000000E+00  0.19873089839E+04  0.19873089839E+04  0.25500000920E-02 0. -1.
       -2   -1    0    0    0  501  0.00000000000E+00  0.00000000000E+00 -0.28309151825E+03  0.28309151826E+03  0.25500000920E-02 0.  1.
    10030    2    1    2    0    0  0.00000000000E+00  0.00000000000E+00  0.17042174657E+04  0.22704005022E+04  0.15001204185E+04 0.  0.
        3    1    3    3  502    0  0.49223874979E+03 -0.25744745149E+03  0.89321210762E+02  0.56263350946E+03  0.10100000352E+00 0.  1.
       -3    1    3    3    0  502 -0.49223874979E+03  0.25744745149E+03  0.16148962549E+04  0.17077669927E+04  0.10100000352E+00 0. -1.
</event>
<event>
 5   0  0.1576214E-05  0.1502454E+04  0.7818609E-02  0.8882822E-01
       -1   -1    0    0    0  501  0.00000000000E+00  0.00000000000E+00  0.37595643372E+03  0.37595643375E+03  0.50400001928E-02 0. -1.
        1   -1    0    0  501    0  0.00000000000E+00  0.00000000000E+00 -0.15010843835E+04  0.15010843835E+04  0.50400001928E-02 0.  1.
    10030    2    1    2    0    0  0.00000000000E+00  0.00000000000E+00 -0.11251279497E+04  0.18770408172E+04  0.15024544340E+04 0.  0.
        1    1    3    3  502    0  0.54336786509E+03  0.51835336678E+03 -0.58765881389E+03  0.95356265197E+03  0.50400001928E-02 0.  1.
       -1    1    3    3    0  502 -0.54336786509E+03 -0.51835336678E+03 -0.53746913585E+03  0.92347816524E+03  0.50400001928E-02 0. -1.
</event>
<event>
 5   0  0.1588657E-05  0.1500335E+04  0.7818609E-02  0.8884230E-01
       -1   -1    0    0    0  501  0.00000000000E+00  0.00000000000E+00  0.85487653179E+03  0.85487653181E+03  0.50400001928E-02 0.  1.
        1   -1    0    0  501    0  0.00000000000E+00  0.00000000000E+00 -0.65828372203E+03  0.65828372205E+03  0.50400001928E-02 0. -1.
    10030    2    1    2    0    0  0.00000000000E+00  0.00000000000E+00  0.19659280976E+03  0.15131602539E+04  0.15003350363E+04 0.  0.
        3    1    3    3  502    0 -0.32978917973E+03 -0.66757025728E+03  0.19040255818E+03  0.76854674278E+03  0.10100000352E+00 0.  1.
       -3    1    3    3    0  502  0.32978917973E+03  0.66757025728E+03  0.61902515788E+01  0.74461351108E+03  0.10100000352E+00 0. -1.
</event>
<event>
 5   0  0.1533777E-05  0.1500259E+04  0.7818609E-02  0.8884281E-01
        1   -1    0    0  501    0  0.00000000000E+00  0.00000000000E+00  0.70007613133E+03  0.70007613135E+03  0.50400001928E-02 0.  1.
       -1   -1    0    0    0  501  0.00000000000E+00  0.00000000000E+00 -0.80376106436E+03  0.80376106437E+03  0.50400001928E-02 0. -1.
    10030    2    1    2    0    0  0.00000000000E+00  0.00000000000E+00 -0.10368493303E+03  0.15038371957E+04  0.15002585597E+04 0.  0.
        5    1    3    3  502    0 -0.24867449907E+03 -0.31105485639E+03  0.58534490463E+03  0.70798649531E+03  0.46999998093E+01 0.  1.
       -5    1    3    3    0  502  0.24867449907E+03  0.31105485639E+03 -0.68902983765E+03  0.79585070041E+03  0.46999998093E+01 0. -1.
</event>
<event>
 5   0  0.1588657E-05  0.1497661E+04  0.7818609E-02  0.8886010E-01
        1   -1    0    0  501    0  0.00000000000E+00  0.00000000000E+00  0.90821951494E+03  0.90821951495E+03  0.50400001928E-02 0. -1.
       -1   -1    0    0    0  501  0.00000000000E+00  0.00000000000E+00 -0.61741382367E+03  0.61741382369E+03  0.50400001928E-02 0.  1.
    10030    2    1    2    0    0  0.00000000000E+00  0.00000000000E+00  0.29080569127E+03  0.15256333386E+04  0.14976612213E+04 0.  0.
        3    1    3    3  502    0 -0.61605721476E+03 -0.28831428751E+03 -0.17364915116E+03  0.70200118101E+03  0.10100000352E+00 0. -1.
       -3    1    3    3    0  502  0.61605721476E+03  0.28831428751E+03  0.46445484242E+03  0.82363215764E+03  0.10100000352E+00 0.  1.
</event>
<event>
 5   0  0.3018308E-05  0.1499273E+04  0.7818609E-02  0.8884937E-01
        2   -1    0    0  501    0  0.00000000000E+00  0.00000000000E+00  0.45674107924E+03  0.45674107925E+03  0.25500000920E-02 0.  1.
       -2   -1    0    0    0  501  0.00000000000E+00  0.00000000000E+00 -0.12303570880E+04  0.12303570880E+04  0.25500000920E-02 0. -1.
    10030    2    1    2    0    0  0.00000000000E+00  0.00000000000E+00 -0.77361600875E+03  0.16870981672E+04  0.14992726560E+04 0.  0.
        2    1    3    3  502    0  0.29232038559E+02  0.16831793332E+03 -0.12081599350E+04  0.12201786211E+04  0.25500000920E-02 0. -1.
       -2    1    3    3    0  502 -0.29232038559E+02 -0.16831793332E+03  0.43454392625E+03  0.46691954618E+03  0.25500000920E-02 0.  1.
</event>
<event>
 5   0  0.2969498E-05  0.1499990E+04  0.7818609E-02  0.8884459E-01
       -2   -1    0    0    0  501  0.00000000000E+00  0.00000000000E+00  0.52857779491E+03  0.52857779492E+03  0.25500000920E-02 0. -1.
        2   -1    0    0  501    0  0.00000000000E+00  0.00000000000E+00 -0.10641626834E+04  0.10641626834E+04  0.25500000920E-02 0.  1.
    10030    2    1    2    0    0  0.00000000000E+00  0.00000000000E+00 -0.53558488848E+03  0.15927404783E+04  0.14999903528E+04 0.  0.
        3    1    3    3  502    0 -0.19426221721E+03  0.12762064655E+03  0.48936871725E+03  0.54176248494E+03  0.10100000352E+00 0. -1.
       -3    1    3    3    0  502  0.19426221721E+03 -0.12762064655E+03 -0.10249536057E+04  0.10509779934E+04  0.10100000352E+00 0.  1.
</event>
<event>
 5   0  0.1588657E-05  0.1499851E+04  0.7818609E-02  0.8884552E-01
       -1   -1    0    0    0  501  0.00000000000E+00  0.00000000000E+00  0.24134761382E+03  0.24134761387E+03  0.50400001928E-02 0. -1.
        1   -1    0    0  501    0  0.00000000000E+00  0.00000000000E+00 -0.23301987445E+04  0.23301987445E+04  0.50400001928E-02 0.  1.
    10030    2    1    2    0    0  0.00000000000E+00  0.00000000000E+00 -0.20888511307E+04  0.25715463584E+04  0.14998505349E+04 0.  0.
        3    1    3    3  502    0  0.74944458145E+03 -0.20311007523E+02 -0.10745242713E+04  0.13102221710E+04  0.10100000352E+00 0.  1.
       -3    1    3    3    0  502 -0.74944458145E+03  0.20311007523E+02 -0.10143268594E+04  0.12613241874E+04  0.10100000352E+00 0. -1.
</event>
<event>
 5   0  0.1580078E-05  0.1501734E+04  0.7818609E-02  0.8883301E-01
        1   -1    0    0  501    0  0.00000000000E+00  0.00000000000E+00  0.12248712876E+04  0.12248712876E+04  0.50400001928E-02 0.  1.
       -1   -1    0    0    0  501  0.00000000000E+00  0.00000000000E+00 -0.46029398998E+03  0.46029399001E+03  0.50400001928E-02 0. -1.
    10030    2    1    2    0    0  0.00000000000E+00  0.00000000000E+00  0.76457729758E+03  0.16851652776E+04  0.15017335212E+04 0.  0.
        2    1    3    3  502    0 -0.58937533693E+03  0.23179801088E+03  0.83492885525E+03  0.10479502846E+04  0.25500000920E-02 0.  1.
       -2    1    3    3    0  502  0.58937533693E+03 -0.23179801088E+03 -0.70351557667E+02  0.63721499300E+03  0.25500000920E-02 0. -1.
</event>
<event>
 5   0  0.3018308E-05  0.1500540E+04  0.7818609E-02  0.8884094E-01
        2   -1    0    0  501    0  0.00000000000E+00  0.00000000000E+00  0.95077216549E+03  0.95077216550E+03  0.25500000920E-02 0. -1.
       -2   -1    0    0    0  501  0.00000000000E+00  0.00000000000E+00 -0.59205034296E+03  0.59205034296E+03  0.25500000920E-02 0.  1.
    10030    2    1    2    0    0  0.00000000000E+00  0.00000000000E+00  0.35872182254E+03  0.15428225085E+04  0.15005398851E+04 0.  0.
        2    1    3    3  502    0  0.13809850233E+03 -0.36699256893E+03 -0.47831181219E+03  0.61849570062E+03  0.25500000920E-02 0.  1.
       -2    1    3    3    0  502 -0.13809850233E+03  0.36699256893E+03  0.83703363473E+03  0.92432680783E+03  0.25500000920E-02 0. -1.
</event>
<event>
 5   0  0.1643498E-05  0.1499994E+04  0.7818609E-02  0.8884457E-01
        1   -1    0    0  501    0  0.00000000000E+00  0.00000000000E+00  0.60283221676E+03  0.60283221678E+03  0.50400001928E-02 0. -1.
       -1   -1    0    0    0  501  0.00000000000E+00  0.00000000000E+00 -0.93308763708E+03  0.93308763709E+03  0.50400001928E-02 0.  1.
    10030    2    1    2    0    0  0.00000000000E+00  0.00000000000E+00 -0.33025542032E+03  0.15359198539E+04  0.14999937183E+04 0.  0.
        4    1    3    3  502    0 -0.11168028620E+03  0.66643215634E+03  0.16807252342E+03  0.69631479329E+03  0.12699999809E+01 0. -1.
       -4    1    3    3    0  502  0.11168028620E+03 -0.66643215634E+03 -0.49832794374E+03  0.83960506057E+03  0.12699999809E+01 0.  1.
</event>
<event>
 5   0  0.1116613E-05  0.1499176E+04  0.7818609E-02  0.8885001E-01
        3   -1    0    0  501    0  0.00000000000E+00  0.00000000000E+00  0.96683037433E+03  0.96683037961E+03  0.10100000352E+00 0.  1.
       -3   -1    0    0    0  501  0.00000000000E+00  0.00000000000E+00 -0.58115918251E+03  0.58115919129E+03  0.10100000352E+00 0. -1.
    10030    2    1    2    0    0  0.00000000000E+00  0.00000000000E+00  0.38567119182E+03  0.15479895709E+04  0.14991762549E+04 0.  0.
        5    1    3    3  502    0 -0.64078754771E+03  0.34630144636E+03  0.37559260020E+03  0.81952746408E+03  0.46999998093E+01 0. -1.
       -5    1    3    3    0  502  0.64078754771E+03 -0.34630144636E+03  0.10078591618E+02  0.72846210681E+03  0.46999998093E+01 0.  1.
</event>
<event>
 5   0  0.3093600E-05  0.1500458E+04  0.7818609E-02  0.8884149E-01
       -2   -1    0    0    0  501  0.00000000000E+00  0.00000000000E+00  0.35732990941E+03  0.35732990942E+03  0.25500000920E-02 0. -1.
        2   -1    0    0  501    0  0.00000000000E+00  0.00000000000E+00 -0.15751366628E+04  0.15751366628E+04  0.25500000920E-02 0.  1.
    10030    2    1    2    0    0  0.00000000000E+00  0.00000000000E+00 -0.12178067534E+04  0.19324665722E+04  0.15004578515E+04 0.  0.
        1    1    3    3  502    0  0.66207264980E+03 -0.32670677676E+03 -0.43723821933E+03  0.85805289584E+03  0.50400001928E-02 0. -1.
       -1    1    3    3    0  502 -0.66207264980E+03  0.32670677676E+03 -0.78056853408E+03  0.10744136764E+04  0.50400001928E-02 0.  1.
</event>
<event>
 5   0  0.1643498E-05  0.1499887E+04  0.7818609E-02  0.8884528E-01
        1   -1    0    0  501    0  0.00000000000E+00  0.00000000000E+00  0.91658118092E+03  0.91658118093E+03  0.50400001928E-02 0.  1.
       -1   -1    0    0    0  501  0.00000000000E+00  0.00000000000E+00 -0.61360112418E+03  0.61360112420E+03  0.50400001928E-02 0. -1.
    10030    2    1    2    0    0  0.00000000000E+00  0.00000000000E+00  0.30298005674E+03  0.15301823051E+04  0.14998869865E+04 0.  0.
        4    1    3    3  502    0  0.10929898999E+03  0.65754341588E+03 -0.19911405784E+03  0.69567063608E+03  0.12699999809E+01 0. -1.
       -4    1    3    3    0  502 -0.10929898999E+03 -0.65754341588E+03  0.50209411458E+03  0.83451166904E+03  0.12699999809E+01 0.  1.
</event>
<event>
 5   0  0.1588657E-05  0.1499981E+04  0.7818609E-02  0.8884466E-01
        1   -1    0    0  501    0  0.00000000000E+00  0.00000000000E+00  0.80341716151E+03  0.80341716153E+03  0.50400001928E-02 0.  1.
       -1   -1    0    0    0  501  0.00000000000E+00  0.00000000000E+00 -0.70011644362E+03  0.70011644364E+03  0.50400001928E-02 0. -1.
    10030    2    1    2    0    0  0.00000000000E+00  0.00000000000E+00  0.10330071789E+03  0.15035336052E+04  0.14999807544E+04 0.  0.
        3    1    3    3  502    0 -0.18770135988E+03 -0.72347421307E+03  0.11375531028E+03  0.75603374150E+03  0.10100000352E+00 0. -1.
       -3    1    3    3    0  502  0.18770135988E+03  0.72347421307E+03 -0.10454592397E+02  0.74749986366E+03  0.10100000352E+00 0.  1.
</event>
<event>
 5   0  0.1580078E-05  0.1499607E+04  0.7818609E-02  0.8884714E-01
        1   -1    0    0  501    0  0.00000000000E+00  0.00000000000E+00  0.75327584324E+03  0.75327584326E+03  0.50400001928E-02 0. -1.
       -1   -1    0    0    0  501  0.00000000000E+00  0.00000000000E+00 -0.74634764538E+03  0.74634764540E+03  0.50400001928E-02 0.  1.
    10030    2    1    2    0    0  0.00000000000E+00  0.00000000000E+00  0.69281978566E+01  0.14996234887E+04  0.14996074846E+04 0.  0.
        2    1    3    3  502    0  0.26580099075E+03 -0.53191746898E+03  0.46021758203E+03  0.75192192633E+03  0.25500000920E-02 0. -1.
       -2    1    3    3    0  502 -0.26580099075E+03  0.53191746898E+03 -0.45328938417E+03  0.74770156232E+03  0.25500000920E-02 0.  1.
</event>
<event>
 5   0  0.3093600E-05  0.1497934E+04  0.7818609E-02  0.8885828E-01
        2   -1    0    0  501    0  0.00000000000E+00  0.00000000000E+00  0.11740986430E+04  0.11740986430E+04  0.25500000920E-02 0.  1.
       -2   -1    0    0    0  501  0.00000000000E+00  0.00000000000E+00 -0.47777222764E+03  0.47777222765E+03  0.25500000920E-02 0. -1.
    10030    2    1    2    0    0  0.00000000000E+00  0.00000000000E+00  0.69632641539E+03  0.16518708707E+04  0.14979342097E+04 0.  0.
        1    1    3    3  502    0  0.75202254438E+02 -0.47907713818E+03 -0.28126546888E+03  0.56060730232E+03  0.50400001928E-02 0. -1.
       -1    1    3    3    0  502 -0.75202254438E+02  0.47907713818E+03  0.97759188428E+03  0.10912635684E+04  0.50400001928E-02 0.  1.
</event>
<event>
 5   0  0.3030702E-05  0.1500040E+04  0.7818609E-02  0.8884426E-01
        2   -1    0    0  501    0  0.00000000000E+00  0.00000000000E+00  0.15535003627E+04  0.15535003627E+04  0.25500000920E-02 0.  1.
       -2   -1    0    0    0  501  0.00000000000E+00  0.00000000000E+00 -0.36210501342E+03  0.36210501342E+03  0.25500000920E-02 0. -1.
    10030    2    1    2    0    0  0.00000000000E+00  0.00000000000E+00  0.11913953493E+04  0.19156053762E+04  0.15000403591E+04 0.  0.
        5    1    3    3  502    0 -0.72672109813E+03  0.13209991990E+02  0.83189795599E+03  0.11047055524E+04  0.46999998093E+01 0. -1.
       -5    1    3    3    0  502  0.72672109813E+03 -0.13209991990E+02  0.35949739333E+03  0.81089982375E+03  0.46999998093E+01 0.  1.
</event>
<event>
 5   0  0.1533777E-05  0.1500040E+04  0.7818609E-02  0.8884426E-01
        1   -1    0    0  501    0  0.00000000000E+00  0.00000000000E+00  0.67561752034E+03  0.67561752036E+03  0.50400001928E-02 0. -1.
       -1   -1    0    0    0  501  0.00000000000E+00  0.00000000000E+00 -0.83261589595E+03  0.83261589596E+03  0.50400001928E-02 0.  1.
    10030    2    1    2    0    0  0.00000000000E+00  0.00000000000E+00 -0.15699837560E+03  0.15082334163E+04  0.15000398489E+04 0.  0.
        5    1    3    3  502    0 -0.23190105044E+03 -0.60150642193E+02  0.63609492447E+03  0.67973159401E+03  0.46999998093E+01 0. -1.
       -5    1    3    3    0  502  0.23190105044E+03  0.60150642193E+02 -0.79309330008E+03  0.82850182232E+03  0.46999998093E+01 0.  1.
</event>
<event>
 5   0  0.3070497E-05  0.1499204E+04  0.7818609E-02  0.8884983E-01
       -2   -1    0    0    0  501  0.00000000000E+00  0.00000000000E+00  0.19716588196E+04  0.19716588196E+04  0.25500000920E-02 0. -1.
        2   -1    0    0  501    0  0.00000000000E+00  0.00000000000E+00 -0.28499000966E+03  0.28499000967E+03  0.25500000920E-02 0.  1.
    10030    2    1    2    0    0  0.00000000000E+00  0.00000000000E+00  0.16866688100E+04  0.22566488293E+04  0.14992038768E+04 0.  0.
        4    1    3    3  502    0 -0.23650878044E+03 -0.57946896744E+03  0.22238170289E+03  0.66421075129E+03  0.12699999809E+01 0.  1.
       -4    1    3    3    0  502  0.23650878044E+03  0.57946896744E+03  0.14642871071E+04  0.15924380780E+04  0.12699999809E+01 0. -1.
</event>
<event>
 5   0  0.1576214E-05  0.1501260E+04  0.7818609E-02  0.8883615E-01
       -1   -1    0    0    0  501  0.00000000000E+00  0.00000000000E+00  0.64643327211E+03  0.64643327213E+03  0.50400001928E-02 0.  1.
        1   -1    0    0  501    0  0.00000000000E+00  0.00000000000E+00 -0.87162233418E+03  0.87162233419E+03  0.50400001928E-02 0. -1.
    10030    2    1    2    0    0  0.00000000000E+00  0.00000000000E+00 -0.22518906207E+03  0.15180556063E+04  0.15012603739E+04 0.  0.
        1    1    3    3  502    0  0.37318660352E+03 -0.61190631737E+03 -0.33813261526E+03  0.79248422560E+03  0.50400001928E-02 0. -1.
       -1    1    3    3    0  502 -0.37318660352E+03  0.61190631737E+03  0.11294355319E+03  0.72557138072E+03  0.50400001928E-02 0.  1.
</event>
<event>
 5   0  0.1533777E-05  0.1499844E+04  0.7818609E-02  0.8884557E-01
       -1   -1    0    0    0  501  0.00000000000E+00  0.00000000000E+00  0.39961318461E+03  0.39961318464E+03  0.50400001928E-02 0.  1.
        1   -1    0    0  501    0  0.00000000000E+00  0.00000000000E+00 -0.14073176801E+04  0.14073176801E+04  0.50400001928E-02 0. -1.
    10030    2    1    2    0    0  0.00000000000E+00  0.00000000000E+00 -0.10077044955E+04  0.18069308648E+04  0.14998435918E+04 0.  0.
        5    1    3    3  502    0  0.40758878223E+03  0.69448695935E+02 -0.12575737375E+04  0.13238072110E+04  0.46999998093E+01 0. -1.
       -5    1    3    3    0  502 -0.40758878223E+03 -0.69448695935E+02  0.24986924194E+03  0.48312365377E+03  0.46999998093E+01 0.  1.
</event>
<event>
 5   0  0.1580078E-05  0.1500916E+04  0.7818609E-02  0.8883844E-01
       -1   -1    0    0    0  501  0.00000000000E+00  0.00000000000E+00  0.57440399683E+03  0.57440399685E+03  0.50400001928E-02 0. -1.
        1   -1    0    0  501    0  0.00000000000E+00  0.00000000000E+00 -0.98047239704E+03  0.98047239705E+03  0.50400001928E-02 0.  1.
    10030    2    1    2    0    0  0.00000000000E+00  0.00000000000E+00 -0.40606840020E+03  0.15548763939E+04  0.15009160718E+04 0.  0.
        2    1    3    3  502    0  0.65067521536E+03  0.27904034738E+03  0.54802293610E+02  0.71010213543E+03  0.25500000920E-02 0. -1.
       -2    1    3    3    0  502 -0.65067521536E+03 -0.27904034738E+03 -0.46087069381E+03  0.84477425847E+03  0.25500000920E-02 0.  1.
</event>
<event>
 5   0  0.1580078E-05  0.1500552E+04  0.7818609E-02  0.8884086E-01
        1   -1    0    0  501    0  0.00000000000E+00  0.00000000000E+00  0.12366498107E+04  0.12366498107E+04  0.50400001928E-02 0.  1.
       -1   -1    0    0    0  501  0.00000000000E+00  0.00000000000E+00 -0.45519275091E+03  0.45519275094E+03  0.50400001928E-02 0. -1.
    10030    2    1    2    0    0  0.00000000000E+00  0.00000000000E+00  0.78145705974E+03  0.16918425616E+04  0.15005519375E+04 0.  0.
        2    1    3    3  502    0 -0.10927368775E+03  0.30766426762E+02 -0.44545345611E+03  0.45969130231E+03  0.25500000920E-02 0. -1.
       -2    1    3    3    0  502  0.10927368775E+03 -0.30766426762E+02  0.12269105159E+04  0.12321512593E+04  0.25500000920E-02 0.  1.
</event>
<event>
 5   0  0.1533777E-05  0.1500298E+04  0.7818609E-02  0.8884255E-01
        1   -1    0    0  501    0  0.00000000000E+00  0.00000000000E+00  0.11796812915E+04  0.11796812915E+04  0.50400001928E-02 0. -1.
       -1   -1    0    0    0  501  0.00000000000E+00  0.00000000000E+00 -0.47701298886E+03  0.47701298889E+03  0.50400001928E-02 0.  1.
    10030    2    1    2    0    0  0.00000000000E+00  0.00000000000E+00  0.70266830261E+03  0.16566942804E+04  0.15002977022E+04 0.  0.
        5    1    3    3  502    0  0.45058562145E+03 -0.39834804141E+03 -0.14372262656E+03  0.61837435890E+03  0.46999998093E+01 0. -1.
       -5    1    3    3    0  502 -0.45058562145E+03  0.39834804141E+03  0.84639092917E+03  0.10383199215E+04  0.46999998093E+01 0.  1.
</event>
<event>
 5   0  0.1533777E-05  0.1498960E+04  0.7818609E-02  0.8885145E-01
       -1   -1    0    0    0  501  0.00000000000E+00  0.00000000000E+00  0.37107370146E+03  0.37107370150E+03  0.50400001928E-02 0.  1.
        1   -1    0    0  501    0  0.00000000000E+00  0.00000000000E+00 -0.15137692279E+04  0.15137692279E+04  0.50400001928E-02 0. -1.
    10030    2    1    2    0    0  0.00000000000E+00  0.00000000000E+00 -0.11426955264E+04  0.18848429294E+04  0.14989595733E+04 0.  0.
        5    1    3    3  502    0  0.17564538195E+03  0.38749684744E+03  0.20449292090E+03  0.47206413936E+03  0.46999998093E+01 0.  1.
       -5    1    3    3    0  502 -0.17564538195E+03 -0.38749684744E+03 -0.13471884473E+04  0.14127787900E+04  0.46999998093E+01 0. -1.
</event>
<event>
 5   0  0.1580078E-05  0.1497711E+04  0.7818609E-02  0.8885977E-01
        1   -1    0    0  501    0  0.00000000000E+00  0.00000000000E+00  0.56333008991E+03  0.56333008993E+03  0.50400001928E-02 0. -1.
       -1   -1    0    0    0  501  0.00000000000E+00  0.00000000000E+00 -0.99548094481E+03  0.99548094482E+03  0.50400001928E-02 0.  1.
    10030    2    1    2    0    0  0.00000000000E+00  0.00000000000E+00 -0.43215085490E+03  0.15588110348E+04  0.14977107467E+04 0.  0.
        2    1    3    3  502    0  0.33879419657E+03  0.57653673405E+03  0.13473336809E+03  0.68215041876E+03  0.25500000920E-02 0. -1.
       -2    1    3    3    0  502 -0.33879419657E+03 -0.57653673405E+03 -0.56688422300E+03  0.87666061599E+03  0.25500000920E-02 0.  1.
</event>
<event>
 5   0  0.1580078E-05  0.1499882E+04  0.7818609E-02  0.8884532E-01
        1   -1    0    0  501    0  0.00000000000E+00  0.00000000000E+00  0.71036100155E+03  0.71036100156E+03  0.50400001928E-02 0. -1.
       -1   -1    0    0    0  501  0.00000000000E+00  0.00000000000E+00 -0.79172595428E+03  0.79172595430E+03  0.50400001928E-02 0.  1.
    10030    2    1    2    0    0  0.00000000000E+00  0.00000000000E+00 -0.81364952737E+02  0.15020869559E+04  0.14998816511E+04 0.  0.
        2    1    3    3  502    0 -0.16811449525E+03 -0.69418772755E+03 -0.26960588040E+03  0.76344378663E+03  0.25500000920E-02 0.  1.
       -2    1    3    3    0  502  0.16811449525E+03  0.69418772755E+03  0.18824092766E+03  0.73864316923E+03  0.25500000920E-02 0. -1.
</event>
<event>
 5   0  0.1580078E-05  0.1501029E+04  0.7818609E-02  0.8883769E-01
       -1   -1    0    0    0  501  0.00000000000E+00  0.00000000000E+00  0.62664407064E+03  0.62664407066E+03  0.50400001928E-02 0.  1.
        1   -1    0    0  501    0  0.00000000000E+00  0.00000000000E+00 -0.89887130600E+03  0.89887130602E+03  0.50400001928E-02 0. -1.
    10030    2    1    2    0    0  0.00000000000E+00  0.00000000000E+00 -0.27222723537E+03  0.15255153767E+04  0.15010294790E+04 0.  0.
        2    1    3    3  502    0 -0.49748247723E+03  0.54861423459E+03 -0.25977837704E+03  0.78482558491E+03  0.25500000920E-02 0. -1.
       -2    1    3    3    0  502  0.49748247723E+03 -0.54861423459E+03 -0.12448858327E+02  0.74068979176E+03  0.25500000920E-02 0.  1.
</event>
<event>
 5   0  0.3093600E-05  0.1500152E+04  0.7818609E-02  0.8884352E-01
        2   -1    0    0  501    0  0.00000000000E+00  0.00000000000E+00  0.81784540027E+03  0.81784540027E+03  0.25500000920E-02 0.  1.
       -2   -1    0    0    0  501  0.00000000000E+00  0.00000000000E+00 -0.68792222712E+03  0.68792222713E+03  0.25500000920E-02 0. -1.
    10030    2    1    2    0    0  0.00000000000E+00  0.00000000000E+00  0.12992317314E+03  0.15057676274E+04  0.15001520312E+04 0.  0.
        1    1    3    3  502    0 -0.18927861092E+03  0.46938200301E+03 -0.49070639201E+03  0.70493873527E+03  0.50400001928E-02 0. -1.
       -1    1    3    3    0  502  0.18927861092E+03 -0.46938200301E+03  0.62062956515E+03  0.80082889213E+03  0.50400001928E-02 0.  1.
</event>
<event>
 5   0  0.1533777E-05  0.1500116E+04  0.7818609E-02  0.8884376E-01
       -1   -1    0    0    0  501  0.00000000000E+00  0.00000000000E+00  0.23567724176E+03  0.23567724181E+03  0.50400001928E-02 0. -1.
        1   -1    0    0  501    0  0.00000000000E+00  0.00000000000E+00 -0.23871082556E+04  0.23871082556E+04  0.50400001928E-02 0.  1.
    10030    2    1    2    0    0  0.00000000000E+00  0.00000000000E+00 -0.21514310138E+04  0.26227854974E+04  0.15001161149E+04 0.  0.
        5    1    3    3  502    0  0.48122024702E+03 -0.33584318511E+03 -0.25900772872E+03  0.64145979193E+03  0.46999998093E+01 0. -1.
       -5    1    3    3    0  502 -0.48122024702E+03  0.33584318511E+03 -0.18924232851E+04  0.19813257054E+04  0.46999998093E+01 0.  1.
</event>
<event>
 5   0  0.1580078E-05  0.1500243E+04  0.7818609E-02  0.8884291E-01
       -1   -1    0    0    0  501  0.00000000000E+00  0.00000000000E+00  0.85002898148E+03  0.85002898149E+03  0.50400001928E-02 0.  1.
        1   -1    0    0  501    0  0.00000000000E+00  0.00000000000E+00 -0.66195687028E+03  0.66195687029E+03  0.50400001928E-02 0. -1.
    10030    2    1    2    0    0  0.00000000000E+00  0.00000000000E+00  0.18807211120E+03  0.15119858518E+04  0.15002433459E+04 0.  0.
        2    1    3    3  502    0  0.43679779683E+03  0.21642933632E+03  0.66862879713E+03  0.82746506954E+03  0.25500000920E-02 0.  1.
       -2    1    3    3    0  502 -0.43679779683E+03 -0.21642933632E+03 -0.48055668593E+03  0.68452078225E+03  0.25500000920E-02 0. -1.
</event>
<event>
 5   0  0.1576214E-05  0.1499951E+04  0.7818609E-02  0.8884485E-01
        1   -1    0    0  501    0  0.00000000000E+00  0.00000000000E+00  0.10269459916E+04  0.10269459916E+04  0.50400001928E-02 0. -1.
       -1   -1    0    0    0  501  0.00000000000E+00  0.00000000000E+00 -0.54770514245E+03  0.54770514247E+03  0.50400001928E-02 0.  1.
    10030    2    1    2    0    0  0.00000000000E+00  0.00000000000E+00  0.47924084919E+03  0.15746511341E+04  0.14999514668E+04 0.  0.
        1    1    3    3  502    0  0.36138259177E+03 -0.59580230411E+03  0.53071245660E+03  0.87591864624E+03  0.50400001928E-02 0. -1.
       -1    1    3    3    0  502 -0.36138259177E+03  0.59580230411E+03 -0.51471607415E+02  0.69873248787E+03  0.50400001928E-02 0.  1.
</event>
<event>
 5   0  0.3030702E-05  0.1500104E+04  0.7818609E-02  0.8884384E-01
       -2   -1    0    0    0  501  0.00000000000E+00  0.00000000000E+00  0.18350431912E+04  0.18350431912E+04  0.25500000920E-02 0. -1.
        2   -1    0    0  501    0  0.00000000000E+00  0.00000000000E+00 -0.30657479487E+03  0.30657479488E+03  0.25500000920E-02 0.  1.
    10030    2    1    2    0    0  0.00000000000E+00  0.00000000000E+00  0.15284683963E+04  0.21416179861E+04  0.15001039830E+04 0.  0.
        5    1    3    3  502    0 -0.59494243221E+03 -0.37488088585E+03  0.39177518004E+03  0.80498575013E+03  0.46999998093E+01 0.  1.
       -5    1    3    3    0  502  0.59494243221E+03  0.37488088585E+03  0.11366932163E+04  0.13366322359E+04  0.46999998093E+01 0. -1.
</event>
<event>
 5   0  0.3030702E-05  0.1500014E+04  0.7818609E-02  0.8884443E-01
       -2   -1    0    0    0  501  0.00000000000E+00  0.00000000000E+00  0.32341329638E+03  0.32341329639E+03  0.25500000920E-02 0. -1.
        2   -1    0    0  501    0  0.00000000000E+00  0.00000000000E+00 -0.17392938786E+04  0.17392938786E+04  0.25500000920E-02 0.  1.
    10030    2    1    2    0    0  0.00000000000E+00  0.00000000000E+00 -0.14158805822E+04  0.20627071750E+04  0.15000143555E+04 0.  0.
        5    1    3    3  502    0  0.27515501513E+03 -0.60490028907E+03 -0.22985137734E+03  0.70318446209E+03  0.46999998093E+01 0. -1.
       -5    1    3    3    0  502 -0.27515501513E+03  0.60490028907E+03 -0.11860292049E+04  0.13595227129E+04  0.46999998093E+01 0.  1.
</event>
<event>
 5   0  0.3070497E-05  0.1500303E+04  0.7818609E-02  0.8884252E-01
       -2   -1    0    0    0  501  0.00000000000E+00  0.00000000000E+00  0.53020299918E+03  0.53020299919E+03  0.25500000920E-02 0. -1.
        2   -1    0    0  501    0  0.00000000000E+00  0.00000000000E+00 -0.10613425056E+04  0.10613425056E+04  0.25500000920E-02 0.  1.
    10030    2    1    2    0    0  0.00000000000E+00  0.00000000000E+00 -0.53113950640E+03  0.15915455048E+04  0.15003026090E+04 0.  0.
        4    1    3    3  502    0  0.18624008907E+03 -0.63893272650E+03  0.10160905482E+03  0.67323577794E+03  0.12699999809E+01 0. -1.
       -4    1    3    3    0  502 -0.18624008907E+03  0.63893272650E+03 -0.63274856122E+03  0.91830972683E+03  0.12699999809E+01 0.  1.
</event>
<event>
 5   0  0.1533777E-05  0.1499671E+04  0.7818609E-02  0.8884672E-01
        1   -1    0    0  501    0  0.00000000000E+00  0.00000000000E+00  0.13165955268E+04  0.13165955268E+04  0.50400001928E-02 0. -1.
       -1   -1    0    0    0  501  0.00000000000E+00  0.00000000000E+00 -0.42705100629E+03  0.42705100632E+03  0.50400001928E-02 0.  1.
    10030    2    1    2    0    0  0.00000000000E+00  0.00000000000E+00  0.88954452049E+03  0.17436465331E+04  0.14996712235E+04 0.  0.
        5    1    3    3  502    0 -0.76785865193E+02 -0.58886683830E+03  0.97703752147E+03  0.11433654843E+04  0.46999998093E+01 0. -1.
       -5    1    3    3    0  502  0.76785865193E+02  0.58886683830E+03 -0.87493000980E+02  0.60028104881E+03  0.46999998093E+01 0.  1.
</event>
<event>
 5   0  0.3018308E-05  0.1500430E+04  0.7818609E-02  0.8884167E-01
        2   -1    0    0  501    0  0.00000000000E+00  0.00000000000E+00  0.17300785526E+04  0.17300785526E+04  0.25500000920E-02 0. -1.
       -2   -1    0    0    0  501  0.00000000000E+00  0.00000000000E+00 -0.32531616856E+03  0.32531616857E+03  0.25500000920E-02 0.  1.
    10030    2    1    2    0    0  0.00000000000E+00  0.00000000000E+00  0.14047623840E+04  0.20553947212E+04  0.15004299731E+04 0.  0.
        2    1    3    3  502    0 -0.24999410221E+03 -0.92281969798E+01 -0.26649626293E+03  0.36551671497E+03  0.25500000920E-02 0.  1.
       -2    1    3    3    0  502  0.24999410221E+03  0.92281969798E+01  0.16712586470E+04  0.16898780062E+04  0.25500000920E-02 0. -1.
</event>
<event>
 5   0  0.1580078E-05  0.1501549E+04  0.7818609E-02  0.8883423E-01
        1   -1    0    0  501    0  0.00000000000E+00  0.00000000000E+00  0.44360633704E+03  0.44360633707E+03  0.50400001928E-02 0. -1.
       -1   -1    0    0    0  501  0.00000000000E+00  0.00000000000E+00 -0.12706370857E+04  0.12706370857E+04  0.50400001928E-02 0.  1.
    10030    2    1    2    0    0  0.00000000000E+00  0.00000000000E+00 -0.82703074870E+03  0.17142434228E+04  0.15015494176E+04 0.  0.
        2    1    3    3  502    0 -0.42509592489E+03  0.61645346492E+03 -0.35160002075E+03  0.82725086543E+03  0.25500000920E-02 0.  1.
       -2    1    3    3    0  502  0.42509592489E+03 -0.61645346492E+03 -0.47543072795E+03  0.88699255738E+03  0.25500000920E-02 0. -1.
</event>
<event>
 5   0  0.3018308E-05  0.1499720E+04  0.7818609E-02  0.8884639E-01
       -2   -1    0    0    0  501  0.00000000000E+00  0.00000000000E+00  0.61660688396E+03  0.61660688396E+03  0.25500000920E-02 0.  1.
        2   -1    0    0  501    0  0.00000000000E+00  0.00000000000E+00 -0.91191051258E+03  0.91191051259E+03  0.25500000920E-02 0. -1.
    10030    2    1    2    0    0  0.00000000000E+00  0.00000000000E+00 -0.29530362863E+03  0.15285173965E+04  0.14997203734E+04 0.  0.
        2    1    3    3  502    0 -0.62667038780E+03  0.38642826201E+03 -0.26250392230E+01  0.73624008819E+03  0.25500000920E-02 0. -1.
       -2    1    3    3    0  502  0.62667038780E+03 -0.38642826201E+03 -0.29267858940E+03  0.79227730835E+03  0.25500000920E-02 0.  1.
</event>
<event>
 5   0  0.1533777E-05  0.1500096E+04  0.7818609E-02  0.8884389E-01
        1   -1    0    0  501    0  0.00000000000E+00  0.00000000000E+00  0.16874928228E+04  0.16874928228E+04  0.50400001928E-02 0.  1.
       -1   -1    0    0    0  501  0.00000000000E+00  0.00000000000E+00 -0.33337729432E+03  0.33337729436E+03  0.50400001928E-02 0. -1.
    10030    2    1    2    0    0  0.00000000000E+00  0.00000000000E+00  0.13541155285E+04  0.20208701172E+04  0.15000957190E+04 0.  0.
        5    1    3    3  502    0 -0.27388631606E+03 -0.31228899541E+03 -0.16425635254E+03  0.44669941810E+03  0.46999998093E+01 0. -1.
       -5    1    3    3    0  502  0.27388631606E+03  0.31228899541E+03  0.15183718810E+04  0.15741706991E+04  0.46999998093E+01 0.  1.
</event>
<event>
 5   0  0.3070497E-05  0.1500024E+04  0.7818609E-02  0.8884437E-01
        2   -1    0    0  501    0  0.00000000000E+00  0.00000000000E+00  0.13922712866E+04  0.13922712866E+04  0.25500000920E-02 0.  1.
       -2   -1    0    0    0  501  0.00000000000E+00  0.00000000000E+00 -0.40402890859E+03  0.40402890859E+03  0.25500000920E-02 0. -1.
    10030    2    1    2    0    0  0.00000000000E+00  0.00000000000E+00  0.98824237802E+03  0.17963001952E+04  0.15000237977E+04 0.  0.
        4    1    3    3  502    0  0.57322538619E+03 -0.47930012217E+03  0.57173162951E+03  0.94084781955E+03  0.12699999809E+01 0. -1.
       -4    1    3    3    0  502 -0.57322538619E+03  0.47930012217E+03  0.41651074852E+03  0.85545237565E+03  0.12699999809E+01 0.  1.
</event>
<event>
 5   0  0.1576214E-05  0.1499925E+04  0.7818609E-02  0.8884503E-01
       -1   -1    0    0    0  501  0.00000000000E+00  0.00000000000E+00  0.52652417027E+03  0.52652417030E+03  0.50400001928E-02 0. -1.
        1   -1    0    0  501    0  0.00000000000E+00  0.00000000000E+00 -0.10682203750E+04  0.10682203750E+04  0.50400001928E-02 0.  1.
    10030    2    1    2    0    0  0.00000000000E+00  0.00000000000E+00 -0.54169620471E+03  0.15947445453E+04  0.14999251270E+04 0.  0.
        1    1    3    3  502    0 -0.34939260830E+03 -0.20638886914E+03  0.39971369216E+03  0.56959862690E+03  0.50400001928E-02 0. -1.
       -1    1    3    3    0  502  0.34939260830E+03  0.20638886914E+03 -0.94140989687E+03  0.10251459184E+04  0.50400001928E-02 0.  1.
</event>
<event>
 5   0  0.1533777E-05  0.1499746E+04  0.7818609E-02  0.8884622E-01
       -1   -1    0    0    0  501  0.00000000000E+00  0.00000000000E+00  0.67768683767E+03  0.67768683769E+03  0.50400001928E-02 0. -1.
        1   -1    0    0  501    0  0.00000000000E+00  0.00000000000E+00 -0.82974844770E+03  0.82974844771E+03  0.50400001928E-02 0.  1.
    10030    2    1    2    0    0  0.00000000000E+00  0.00000000000E+00 -0.15206161003E+03  0.15074352854E+04  0.14997461140E+04 0.  0.
        5    1    3    3  502    0  0.52258126042E+03  0.32259474236E+03 -0.50850293379E+03  0.79734300349E+03  0.46999998093E+01 0. -1.
       -5    1    3    3    0  502 -0.52258126042E+03 -0.32259474236E+03  0.35644132377E+03  0.71009228191E+03  0.46999998093E+01 0.  1.
</event>
<event>
 5   0  0.1576214E-05  0.1499879E+04  0.7818609E-02  0.8884534E-01
       -1   -1    0    0    0  501  0.00000000000E+00  0.00000000000E+00  0.45430063095E+03  0.45430063098E+03  0.50400001928E-02 0. -1.
        1   -1    0    0  501    0  0.00000000000E+00  0.00000000000E+00 -0.12379663643E+04  0.12379663643E+04  0.50400001928E-02 0.  1.
    10030    2    1    2    0    0  0.00000000000E+00  0.00000000000E+00 -0.78366573332E+03  0.16922669953E+04  0.14998785290E+04 0.  0.
        1    1    3    3  502    0  0.61217901183E+03  0.29106072899E+03 -0.29854565315E+02  0.67850629001E+03  0.50400001928E-02 0. -1.
       -1    1    3    3    0  502 -0.61217901183E+03 -0.29106072899E+03 -0.75381116800E+03  0.10137607053E+04  0.50400001928E-02 0.  1.
</event>
<event>
 5   0  0.3018308E-05  0.1500580E+04  0.7818609E-02  0.8884067E-01
       -2   -1    0    0    0  501  0.00000000000E+00  0.00000000000E+00  0.42658411293E+03  0.42658411293E+03  0.25500000920E-02 0.  1.
        2   -1    0    0  501    0  0.00000000000E+00  0.00000000000E+00 -0.13196345828E+04  0.13196345828E+04  0.25500000920E-02 0. -1.
    10030    2    1    2    0    0  0.00000000000E+00  0.00000000000E+00 -0.89305046989E+03  0.17462186958E+04  0.15005800850E+04 0.  0.
        2    1    3    3  502    0  0.73765476250E+03 -0.38641761377E+02 -0.59961830791E+03  0.95140414628E+03  0.25500000920E-02 0.  1.
       -2    1    3    3    0  502 -0.73765476250E+03  0.38641761377E+02 -0.29343216198E+03  0.79481454948E+03  0.25500000920E-02 0. -1.
</event>
<event>
 5   0  0.2969498E-05  0.1500838E+04  0.7818609E-02  0.8883896E-01
       -2   -1    0    0    0  501  0.00000000000E+00  0.00000000000E+00  0.11151468164E+04  0.11151468164E+04  0.25500000920E-02 0. -1.
        2   -1    0    0  501    0  0.00000000000E+00  0.00000000000E+00 -0.50498137682E+03  0.50498137682E+03  0.25500000920E-02 0.  1.
    10030    2    1    2    0    0  0.00000000000E+00  0.00000000000E+00  0.61016543961E+03  0.16201281933E+04  0.15008375991E+04 0.  0.
        3    1    3    3  502    0 -0.72242873088E+03  0.20288320478E+03  0.29648075774E+03  0.80682446412E+03  0.10100000352E+00 0. -1.
       -3    1    3    3    0  502  0.72242873088E+03 -0.20288320478E+03  0.31368468187E+03  0.81330372914E+03  0.10100000352E+00 0.  1.
</event>
<event>
 5   0  0.1533777E-05  0.1505249E+04  0.7818609E-02  0.8880970E-01
        1   -1    0    0  501    0  0.00000000000E+00  0.00000000000E+00  0.91969430576E+03  0.91969430577E+03  0.50400001928E-02 0.  1.
       -1   -1    0    0    0  501  0.00000000000E+00  0.00000000000E+00 -0.61590390037E+03  0.61590390040E+03  0.50400001928E-02 0. -1.
    10030    2    1    2    0    0  0.00000000000E+00  0.00000000000E+00  0.30379040538E+03  0.15355982062E+04  0.15052485643E+04 0.  0.
        5    1    3    3  502    0 -0.22667144945E+03  0.80841722106E+02  0.87936902201E+03  0.91171667578E+03  0.46999998093E+01 0.  1.
       -5    1    3    3    0  502  0.22667144945E+03 -0.80841722106E+02 -0.57557861663E+03  0.62388153038E+03  0.46999998093E+01 0. -1.
</event>
<event>
 5   0  0.3030702E-05  0.1499340E+04  0.7818609E-02  0.8884892E-01
       -2   -1    0    0    0  501  0.00000000000E+00  0.00000000000E+00  0.10530513018E+04  0.10530513018E+04  0.25500000920E-02 0. -1.
        2   -1    0    0  501    0  0.00000000000E+00  0.00000000000E+00 -0.53369177561E+03  0.53369177561E+03  0.25500000920E-02 0.  1.
    10030    2    1    2    0    0  0.00000000000E+00  0.00000000000E+00  0.51935952620E+03  0.15867430774E+04  0.14993396134E+04 0.  0.
        5    1    3    3  502    0 -0.39633348272E+02  0.67370871611E+03  0.60509340655E+03  0.90642945512E+03  0.46999998093E+01 0. -1.
       -5    1    3    3    0  502  0.39633348272E+02 -0.67370871611E+03 -0.85733880353E+02  0.68031362231E+03  0.46999998093E+01 0.  1.
</event>
<event>
 5   0  0.3030702E-05  0.1498460E+04  0.7818609E-02  0.8885478E-01
       -2   -1    0    0    0  501  0.00000000000E+00  0.00000000000E+00  0.29411636551E+03  0.29411636552E+03  0.25500000920E-02 0. -1.
        2   -1    0    0  501    0  0.00000000000E+00  0.00000000000E+00 -0.19085837781E+04  0.19085837781E+04  0.25500000920E-02 0.  1.
    10030    2    1    2    0    0  0.00000000000E+00  0.00000000000E+00 -0.16144674126E+04  0.22027001437E+04  0.14984601751E+04 0.  0.
        5    1    3    3  502    0 -0.28598612972E+03 -0.67180559815E+03 -0.56032675534E+03  0.92037980793E+03  0.46999998093E+01 0.  1.
       -5    1    3    3    0  502  0.28598612972E+03  0.67180559815E+03 -0.10541406573E+04  0.12823203357E+04  0.46999998093E+01 0. -1.
</event>
<event>
 5   0  0.3030702E-05  0.1499732E+04  0.7818609E-02  0.8884631E-01
       -2   -1    0    0    0  501  0.00000000000E+00  0.00000000000E+00  0.11720653970E+04  0.11720653970E+04  0.25500000920E-02 0.  1.
        2   -1    0    0  501    0  0.00000000000E+00  0.00000000000E+00 -0.47975041929E+03  0.47975041930E+03  0.25500000920E-02 0. -1.
    10030    2    1    2    0    0  0.00000000000E+00  0.00000000000E+00  0.69231497768E+03  0.16518158163E+04  0.14997317969E+04 0.  0.
        5    1    3    3  502    0 -0.55677847996E+03  0.48776301515E+03  0.47815069107E+03  0.88122937313E+03  0.46999998093E+01 0.  1.
       -5    1    3    3    0  502  0.55677847996E+03 -0.48776301515E+03  0.21416428660E+03  0.77058644314E+03  0.46999998093E+01 0. -1.
</event>
<event>
 5   0  0.1576214E-05  0.1499985E+04  0.7818609E-02  0.8884463E-01
       -1   -1    0    0    0  501  0.00000000000E+00  0.00000000000E+00  0.35236360869E+03  0.35236360872E+03  0.50400001928E-02 0.  1.
        1   -1    0    0  501    0  0.00000000000E+00  0.00000000000E+00 -0.15963310767E+04  0.15963310767E+04  0.50400001928E-02 0. -1.
    10030    2    1    2    0    0  0.00000000000E+00  0.00000000000E+00 -0.12439674680E+04  0.19486946855E+04  0.14999853051E+04 0.  0.
        1    1    3    3  502    0 -0.23455990613E+03  0.90961661017E+02  0.29591042885E+03  0.38840102377E+03  0.50400001928E-02 0.  1.
       -1    1    3    3    0  502  0.23455990613E+03 -0.90961661017E+02 -0.15398778969E+04  0.15602936617E+04  0.50400001928E-02 0. -1.
</event>
<event>
 5   0  0.3070497E-05  0.1499592E+04  0.7818609E-02  0.8884724E-01
        2   -1    0    0  501    0  0.00000000000E+00  0.00000000000E+00  0.49636112079E+03  0.49636112080E+03  0.25500000920E-02 0. -1.
       -2   -1    0    0    0  501  0.00000000000E+00  0.00000000000E+00 -0.11326317277E+04  0.11326317277E+04  0.25500000920E-02 0.  1.
    10030    2    1    2    0    0  0.00000000000E+00  0.00000000000E+00 -0.63627060692E+03  0.16289928485E+04  0.14995924164E+04 0.  0.
        4    1    3    3  502    0 -0.64258319670E+02 -0.41491641410E+03  0.35668450311E+03  0.55091760727E+03  0.12699999809E+01 0. -1.
       -4    1    3    3    0  502  0.64258319670E+02  0.41491641410E+03 -0.99295511003E+03  0.10780752412E+04  0.12699999809E+01 0.  1.
</event>
<event>
 5   0  0.1576214E-05  0.1500109E+04  0.7818609E-02  0.8884381E-01
       -1   -1    0    0    0  501  0.00000000000E+00  0.00000000000E+00  0.62672082487E+03  0.62672082489E+03  0.50400001928E-02 0. -1.
        1   -1    0    0  501    0  0.00000000000E+00  0.00000000000E+00 -0.89765898942E+03  0.89765898943E+03  0.50400001928E-02 0.  1.
    10030    2    1    2    0    0  0.00000000000E+00  0.00000000000E+00 -0.27093816455E+03  0.15243798143E+04  0.15001087725E+04 0.  0.
        1    1    3    3  502    0  0.74630463293E+03 -0.47598158568E+02 -0.19424426330E+03  0.77263641105E+03  0.50400001928E-02 0. -1.
       -1    1    3    3    0  502 -0.74630463293E+03  0.47598158568E+02 -0.76693901256E+02  0.75174340326E+03  0.50400001928E-02 0.  1.
</event>
<event>
 5   0  0.1588657E-05  0.1497931E+04  0.7818609E-02  0.8885830E-01
        1   -1    0    0  501    0  0.00000000000E+00  0.00000000000E+00  0.65851106421E+03  0.65851106423E+03  0.50400001928E-02 0. -1.
       -1   -1    0    0    0  501  0.00000000000E+00  0.00000000000E+00 -0.85184535415E+03  0.85184535417E+03  0.50400001928E-02 0.  1.
    10030    2    1    2    0    0  0.00000000000E+00  0.00000000000E+00 -0.19333428994E+03  0.15103564184E+04  0.14979313612E+04 0.  0.
        3    1    3    3  502    0 -0.48159671838E+03  0.73595318132E+02  0.47690808304E+03  0.68175728810E+03  0.10100000352E+00 0. -1.
       -3    1    3    3    0  502  0.48159671838E+03 -0.73595318132E+02 -0.67024237298E+03  0.82859913030E+03  0.10100000352E+00 0.  1.
</event>
<event>
 5   0  0.1580078E-05  0.1500511E+04  0.7818609E-02  0.8884113E-01
       -1   -1    0    0    0  501  0.00000000000E+00  0.00000000000E+00  0.94331302827E+03  0.94331302828E+03  0.50400001928E-02 0.  1.
        1   -1    0    0  501    0  0.00000000000E+00  0.00000000000E+00 -0.59670910423E+03  0.59670910426E+03  0.50400001928E-02 0. -1.
    10030    2    1    2    0    0  0.00000000000E+00  0.00000000000E+00  0.34660392403E+03  0.15400221325E+04  0.15005112091E+04 0.  0.
        2    1    3    3  502    0 -0.18340584174E+03  0.61383708557E+03  0.57403131046E+03  0.86020091595E+03  0.25500000920E-02 0.  1.
       -2    1    3    3    0  502  0.18340584174E+03 -0.61383708557E+03 -0.22742738643E+03  0.67982121658E+03  0.25500000920E-02 0. -1.
</event>
<event>
 5   0  0.3070497E-05  0.1500145E+04  0.7818609E-02  0.8884357E-01
        2   -1    0    0  501    0  0.00000000000E+00  0.00000000000E+00  0.66601671025E+03  0.66601671026E+03  0.25500000920E-02 0.  1.
       -2   -1    0    0    0  501  0.00000000000E+00  0.00000000000E+00 -0.84473634735E+03  0.84473634736E+03  0.25500000920E-02 0. -1.
    10030    2    1    2    0    0  0.00000000000E+00  0.00000000000E+00 -0.17871963710E+03  0.15107530576E+04  0.15001446905E+04 0.  0.
        4    1    3    3  502    0  0.54915619476E+03  0.32005112660E+03  0.31170465838E+03  0.70793125149E+03  0.12699999809E+01 0.  1.
       -4    1    3    3    0  502 -0.54915619476E+03 -0.32005112660E+03 -0.49042429548E+03  0.80282180612E+03  0.12699999809E+01 0. -1.
</event>
<event>
 5   0  0.1643498E-05  0.1499708E+04  0.7818609E-02  0.8884647E-01
       -1   -1    0    0    0  501  0.00000000000E+00  0.00000000000E+00  0.47875897928E+03  0.47875897931E+03  0.50400001928E-02 0. -1.
        1   -1    0    0  501    0  0.00000000000E+00  0.00000000000E+00 -0.11744550939E+04  0.11744550939E+04  0.50400001928E-02 0.  1.
    10030    2    1    2    0    0  0.00000000000E+00  0.00000000000E+00 -0.69569611457E+03  0.16532140732E+04  0.14997078675E+04 0.  0.
        4    1    3    3  502    0 -0.27582166749E+03  0.67137869629E+03 -0.55540870507E+03  0.91395152424E+03  0.12699999809E+01 0. -1.
       -4    1    3    3    0  502  0.27582166749E+03 -0.67137869629E+03 -0.14028740950E+03  0.73926254893E+03  0.12699999809E+01 0.  1.
</event>
<event>
 5   0  0.1588657E-05  0.1495943E+04  0.7818609E-02  0.8887155E-01
        1   -1    0    0  501    0  0.00000000000E+00  0.00000000000E+00  0.20903640972E+04  0.20903640973E+04  0.50400001928E-02 0. -1.
       -1   -1    0    0    0  501  0.00000000000E+00  0.00000000000E+00 -0.26763822885E+03  0.26763822890E+03  0.50400001928E-02 0.  1.
    10030    2    1    2    0    0  0.00000000000E+00  0.00000000000E+00  0.18227258684E+04  0.23580023262E+04  0.14959429731E+04 0.  0.
        3    1    3    3  502    0  0.41653626092E+03 -0.25745650970E+03  0.20145766207E+02  0.49009404521E+03  0.10100000352E+00 0.  1.
       -3    1    3    3    0  502 -0.41653626092E+03  0.25745650970E+03  0.18025801022E+04  0.18679082809E+04  0.10100000352E+00 0. -1.
</event>
<event>
 5   0  0.3093600E-05  0.1500764E+04  0.7818609E-02  0.8883945E-01
       -2   -1    0    0    0  501  0.00000000000E+00  0.00000000000E+00  0.55538468172E+03  0.55538468173E+03  0.25500000920E-02 0.  1.
        2   -1    0    0  501    0  0.00000000000E+00  0.00000000000E+00 -0.10138429266E+04  0.10138429266E+04  0.25500000920E-02 0. -1.
    10030    2    1    2    0    0  0.00000000000E+00  0.00000000000E+00 -0.45845824491E+03  0.15692276084E+04  0.15007635805E+04 0.  0.
        1    1    3    3  502    0  0.45968303263E+03  0.36817547521E+03  0.25696836682E+03  0.64256860537E+03  0.50400001928E-02 0.  1.
       -1    1    3    3    0  502 -0.45968303263E+03 -0.36817547521E+03 -0.71542661173E+03  0.92665900300E+03  0.50400001928E-02 0. -1.
</event>
<event>
 5   0  0.3030702E-05  0.1499341E+04  0.7818609E-02  0.8884891E-01
        2   -1    0    0  501    0  0.00000000000E+00  0.00000000000E+00  0.10429702605E+04  0.10429702605E+04  0.25500000920E-02 0. -1.
       -2   -1    0    0    0  501  0.00000000000E+00  0.00000000000E+00 -0.53885121230E+03  0.53885121231E+03  0.25500000920E-02 0.  1.
    10030    2    1    2    0    0  0.00000000000E+00  0.00000000000E+00  0.50411904824E+03  0.15818214729E+04  0.14993409076E+04 0.  0.
        5    1    3    3  502    0 -0.17313642384E+03  0.68482824827E+03  0.51690253550E+03  0.87531495594E+03  0.46999998093E+01 0.  1.
       -5    1    3    3    0  502  0.17313642384E+03 -0.68482824827E+03 -0.12783487257E+02  0.70650651691E+03  0.46999998093E+01 0. -1.
</event>
<event>
 5   0  0.1643498E-05  0.1499975E+04  0.7818609E-02  0.8884469E-01
        1   -1    0    0  501    0  0.00000000000E+00  0.00000000000E+00  0.77180845900E+03  0.77180845902E+03  0.50400001928E-02 0. -1.
       -1   -1    0    0    0  501  0.00000000000E+00  0.00000000000E+00 -0.72878357323E+03  0.72878357324E+03  0.50400001928E-02 0.  1.
    10030    2    1    2    0    0  0.00000000000E+00  0.00000000000E+00  0.43024885774E+02  0.15005920323E+04  0.14999751020E+04 0.  0.
        4    1    3    3  502    0  0.64701206164E+03 -0.11523201029E+03 -0.33999014693E+03  0.73993103531E+03  0.12699999809E+01 0.  1.
       -4    1    3    3    0  502 -0.64701206164E+03  0.11523201029E+03  0.38301503270E+03  0.76066099695E+03  0.12699999809E+01 0. -1.
</event>
<event>
 5   0  0.3070497E-05  0.1506760E+04  0.7818609E-02  0.8879970E-01
        2   -1    0    0  501    0  0.00000000000E+00  0.00000000000E+00  0.15858255743E+04  0.15858255743E+04  0.25500000920E-02 0. -1.
       -2   -1    0    0    0  501  0.00000000000E+00  0.00000000000E+00 -0.35790889605E+03  0.35790889606E+03  0.25500000920E-02 0.  1.
    10030    2    1    2    0    0  0.00000000000E+00  0.00000000000E+00  0.12279166782E+04  0.19437344703E+04  0.15067595437E+04 0.  0.
        4    1    3    3  502    0 -0.39551890764E+03  0.57650746429E+03  0.25187348466E+03  0.74312712766E+03  0.12699999809E+01 0.  1.
       -4    1    3    3    0  502  0.39551890764E+03 -0.57650746429E+03  0.97604319356E+03  0.12006073427E+04  0.12699999809E+01 0. -1.
</event>
<event>
 5   0  0.3018308E-05  0.1500462E+04  0.7818609E-02  0.8884146E-01
        2   -1    0    0  501    0  0.00000000000E+00  0.00000000000E+00  0.12272152571E+04  0.12272152571E+04  0.25500000920E-02 0.  1.
       -2   -1    0    0    0  501  0.00000000000E+00  0.00000000000E+00 -0.45863698057E+03  0.45863698058E+03  0.25500000920E-02 0. -1.
    10030    2    1    2    0    0  0.00000000000E+00  0.00000000000E+00  0.76857827653E+03  0.16858522377E+04  0.15004616623E+04 0.  0.
        2    1    3    3  502    0 -0.63461359757E+03  0.39963371718E+03  0.40689394791E+03  0.85323162798E+03  0.25500000920E-02 0. -1.
       -2    1    3    3    0  502  0.63461359757E+03 -0.39963371718E+03  0.36168432862E+03  0.83262060971E+03  0.25500000920E-02 0.  1.
</event>
<event>
 5   0  0.1576214E-05  0.1500590E+04  0.7818609E-02  0.8884061E-01
        1   -1    0    0  501    0  0.00000000000E+00  0.00000000000E+00  0.77433634521E+03  0.77433634522E+03  0.50400001928E-02 0. -1.
       -1   -1    0    0    0  501  0.00000000000E+00  0.00000000000E+00 -0.72699984626E+03  0.72699984627E+03  0.50400001928E-02 0.  1.
    10030    2    1    2    0    0  0.00000000000E+00  0.00000000000E+00  0.47336498950E+02  0.15013361915E+04  0.15005897560E+04 0.  0.
        1    1    3    3  502    0  0.26560490598E+03 -0.52830951999E+02  0.72373434377E+03  0.77274088539E+03  0.50400001928E-02 0. -1.
       -1    1    3    3    0  502 -0.26560490598E+03  0.52830951999E+02 -0.67639784482E+03  0.72859530610E+03  0.50400001928E-02 0.  1.
</event>
<event>
 5   0  0.3018308E-05  0.1500411E+04  0.7818609E-02  0.8884180E-01
       -2   -1    0    0    0  501  0.00000000000E+00  0.00000000000E+00  0.32936268995E+03  0.32936268996E+03  0.25500000920E-02 0.  1.
        2   -1    0    0  501    0  0.00000000000E+00  0.00000000000E+00 -0.17087802179E+04  0.17087802179E+04  0.25500000920E-02 0. -1.
    10030    2    1    2    0    0  0.00000000000E+00  0.00000000000E+00 -0.13794175279E+04  0.20381429079E+04  0.15004112091E+04 0.  0.
        2    1    3    3  502    0  0.18684194078E+03 -0.12561377210E+03  0.28238930656E+03  0.36115433133E+03  0.25500000920E-02 0.  1.
       -2    1    3    3    0  502 -0.18684194078E+03  0.12561377210E+03 -0.16618068345E+04  0.16769885765E+04  0.25500000920E-02 0. -1.
</event>
<event>
 5   0  0.1580078E-05  0.1500483E+04  0.7818609E-02  0.8884132E-01
        1   -1    0    0  501    0  0.00000000000E+00  0.00000000000E+00  0.10112615835E+04  0.10112615835E+04  0.50400001928E-02 0.  1.
       -1   -1    0    0    0  501  0.00000000000E+00  0.00000000000E+00 -0.55659411754E+03  0.55659411757E+03  0.50400001928E-02 0. -1.
    10030    2    1    2    0    0  0.00000000000E+00  0.00000000000E+00  0.45466746591E+03  0.15678557010E+04  0.15004829205E+04 0.  0.
        2    1    3    3  502    0 -0.40742776265E+03  0.38571816450E+03 -0.29311323241E+03  0.63300177822E+03  0.25500000920E-02 0. -1.
       -2    1    3    3    0  502  0.40742776265E+03 -0.38571816450E+03  0.74778069832E+03  0.93485392281E+03  0.25500000920E-02 0.  1.
</event>
<event>
 5   0  0.1643498E-05  0.1499601E+04  0.7818609E-02  0.8884718E-01
       -1   -1    0    0    0  501  0.00000000000E+00  0.00000000000E+00  0.35882314134E+03  0.35882314137E+03  0.50400001928E-02 0. -1.
        1   -1    0    0  501    0  0.00000000000E+00  0.00000000000E+00 -0.15667903352E+04  0.15667903352E+04  0.50400001928E-02 0.  1.
    10030    2    1    2    0    0  0.00000000000E+00  0.00000000000E+00 -0.12079671938E+04  0.19256134766E+04  0.14996007868E+04 0.  0.
        4    1    3    3  502    0 -0.46992094645E+03 -0.74269264747E+02  0.14018427507E+03  0.49597869256E+03  0.12699999809E+01 0. -1.
       -4    1    3    3    0  502  0.46992094645E+03  0.74269264747E+02 -0.13481514689E+04  0.14296347840E+04  0.12699999809E+01 0.  1.
</event>
<event>
 5   0  0.3093600E-05  0.1492880E+04  0.7818609E-02  0.8889202E-01
        2   -1    0    0  501    0  0.00000000000E+00  0.00000000000E+00  0.42100537331E+03  0.42100537332E+03  0.25500000920E-02 0.  1.
       -2   -1    0    0    0  501  0.00000000000E+00  0.00000000000E+00 -0.13234328845E+04  0.13234328845E+04  0.25500000920E-02 0. -1.
    10030    2    1    2    0    0  0.00000000000E+00  0.00000000000E+00 -0.90242751117E+03  0.17444382578E+04  0.14928795740E+04 0.  0.
        1    1    3    3  502    0  0.24802264920E+03  0.70175408582E+03 -0.38513040395E+03  0.83803308977E+03  0.50400001928E-02 0.  1.
       -1    1    3    3    0  502 -0.24802264920E+03 -0.70175408582E+03 -0.51729710722E+03  0.90640516803E+03  0.50400001928E-02 0. -1.
</event>
<event>
 5   0  0.3018308E-05  0.1499768E+04  0.7818609E-02  0.8884607E-01
        2   -1    0    0  501    0  0.00000000000E+00  0.00000000000E+00  0.14793696290E+04  0.14793696290E+04  0.25500000920E-02 0.  1.
       -2   -1    0    0    0  501  0.00000000000E+00  0.00000000000E+00 -0.38011170449E+03  0.38011170450E+03  0.25500000920E-02 0. -1.
    10030    2    1    2    0    0  0.00000000000E+00  0.00000000000E+00  0.10992579245E+04  0.18594813335E+04  0.14997675970E+04 0.  0.
        2    1    3    3  502    0  0.36458229004E+03 -0.80620772730E+02 -0.25665803268E+03  0.45309303785E+03  0.25500000920E-02 0. -1.
       -2    1    3    3    0  502 -0.36458229004E+03  0.80620772730E+02  0.13559159572E+04  0.14063882956E+04  0.25500000920E-02 0.  1.
</event>
<event>
 5   0  0.1576214E-05  0.1499909E+04  0.7818609E-02  0.8884514E-01
       -1   -1    0    0    0  501  0.00000000000E+00  0.00000000000E+00  0.31483940013E+03  0.31483940017E+03  0.50400001928E-02 0. -1.
        1   -1    0    0  501    0  0.00000000000E+00  0.00000000000E+00 -0.17864072381E+04  0.17864072381E+04  0.50400001928E-02 0.  1.
    10030    2    1    2    0    0  0.00000000000E+00  0.00000000000E+00 -0.14715678380E+04  0.21012466383E+04  0.14999085083E+04 0.  0.
        1    1    3    3  502    0 -0.19118482922E+03 -0.53632443951E+03 -0.52004836149E+02  0.57175173489E+03  0.50400001928E-02 0.  1.
       -1    1    3    3    0  502  0.19118482922E+03  0.53632443951E+03 -0.14195630018E+04  0.15294949034E+04  0.50400001928E-02 0. -1.
</event>
<event>
 5   0  0.1580078E-05  0.1500257E+04  0.7818609E-02  0.8884282E-01
        1   -1    0    0  501    0  0.00000000000E+00  0.00000000000E+00  0.88310474809E+03  0.88310474810E+03  0.50400001928E-02 0. -1.
       -1   -1    0    0    0  501  0.00000000000E+00  0.00000000000E+00 -0.63717595110E+03  0.63717595112E+03  0.50400001928E-02 0.  1.
    10030    2    1    2    0    0  0.00000000000E+00  0.00000000000E+00  0.24592879698E+03  0.15202806992E+04  0.15002574550E+04 0.  0.
        2    1    3    3  502    0  0.68578875169E+03 -0.27214491059E+02  0.42973615926E+03  0.80976540248E+03  0.25500000920E-02 0. -1.
       -2    1    3    3    0  502 -0.68578875169E+03  0.27214491059E+02 -0.18380736227E+03  0.71051529674E+03  0.25500000920E-02 0.  1.
</event>
<event>
 5   0  0.3093600E-05  0.1499646E+04  0.7818609E-02  0.8884689E-01
        2   -1    0    0  501    0  0.00000000000E+00  0.00000000000E+00  0.11518418820E+04  0.11518418820E+04  0.25500000920E-02 0. -1.
       -2   -1    0    0    0  501  0.00000000000E+00  0.00000000000E+00 -0.48811753277E+03  0.48811753277E+03  0.25500000920E-02 0.  1.
    10030    2    1    2    0    0  0.00000000000E+00  0.00000000000E+00  0.66372434925E+03  0.16399594148E+04  0.14996455816E+04 0.  0.
        1    1    3    3  502    0 -0.59212097283E+02  0.36052955552E+03 -0.38419022568E+03  0.53017899091E+03  0.50400001928E-02 0.  1.
       -1    1    3    3    0  502  0.59212097283E+02 -0.36052955552E+03  0.10479145749E+04  0.11097804239E+04  0.50400001928E-02 0. -1.
</event>
<event>
 5   0  0.1580078E-05  0.1499963E+04  0.7818609E-02  0.8884477E-01
       -1   -1    0    0    0  501  0.00000000000E+00  0.00000000000E+00  0.13865578153E+04  0.13865578153E+04  0.50400001928E-02 0. -1.
        1   -1    0    0  501    0  0.00000000000E+00  0.00000000000E+00 -0.40566091512E+03  0.40566091515E+03  0.50400001928E-02 0.  1.
    10030    2    1    2    0    0  0.00000000000E+00  0.00000000000E+00  0.98089690018E+03  0.17922187305E+04  0.14999630826E+04 0.  0.
        2    1    3    3  502    0  0.49262741220E+02 -0.69560937912E+02  0.13807514123E+04  0.13833799204E+04  0.25500000920E-02 0. -1.
       -2    1    3    3    0  502 -0.49262741220E+02  0.69560937912E+02 -0.39985451209E+03  0.40883881004E+03  0.25500000920E-02 0.  1.
</event>
<event>
 5   0  0.1588657E-05  0.1499762E+04  0.7818609E-02  0.8884611E-01
        1   -1    0    0  501    0  0.00000000000E+00  0.00000000000E+00  0.59224712679E+03  0.59224712681E+03  0.50400001928E-02 0.  1.
       -1   -1    0    0    0  501  0.00000000000E+00  0.00000000000E+00 -0.94947098177E+03  0.94947098178E+03  0.50400001928E-02 0. -1.
    10030    2    1    2    0    0  0.00000000000E+00  0.00000000000E+00 -0.35722385498E+03  0.15417181086E+04  0.14997619290E+04 0.  0.
        3    1    3    3  502    0  0.45571499450E+03  0.47493184343E+03 -0.54794704452E+03  0.85643586211E+03  0.10100000352E+00 0. -1.
       -3    1    3    3    0  502 -0.45571499450E+03 -0.47493184343E+03  0.19072318953E+03  0.68528224648E+03  0.10100000352E+00 0.  1.
</event>
<event>
 5   0  0.3093600E-05  0.1499937E+04  0.7818609E-02  0.8884495E-01
        2   -1    0    0  501    0  0.00000000000E+00  0.00000000000E+00  0.67690084604E+03  0.67690084605E+03  0.25500000920E-02 0. -1.
       -2   -1    0    0    0  501  0.00000000000E+00  0.00000000000E+00 -0.83092366350E+03  0.83092366351E+03  0.25500000920E-02 0.  1.
    10030    2    1    2    0    0  0.00000000000E+00  0.00000000000E+00 -0.15402281746E+03  0.15078245096E+04  0.14999372398E+04 0.  0.
        1    1    3    3  502    0 -0.11638497441E+03 -0.70283502167E+03  0.15859336995E+03  0.72984545417E+03  0.50400001928E-02 0.  1.
       -1    1    3    3    0  502  0.11638497441E+03  0.70283502167E+03 -0.31261618741E+03  0.77797905538E+03  0.50400001928E-02 0. -1.
</event>
<event>
 5   0  0.3070497E-05  0.1503780E+04  0.7818609E-02  0.8881943E-01
       -2   -1    0    0    0  501  0.00000000000E+00  0.00000000000E+00  0.44668391566E+03  0.44668391566E+03  0.25500000920E-02 0. -1.
        2   -1    0    0  501    0  0.00000000000E+00  0.00000000000E+00 -0.12656348427E+04  0.12656348427E+04  0.25500000920E-02 0.  1.
    10030    2    1    2    0    0  0.00000000000E+00  0.00000000000E+00 -0.81895092704E+03  0.17123187584E+04  0.15037802065E+04 0.  0.
        4    1    3    3  502    0  0.42331722229E+03  0.61531725666E+03 -0.31070347344E+03  0.80891968596E+03  0.12699999809E+01 0. -1.
       -4    1    3    3    0  502 -0.42331722229E+03 -0.61531725666E+03 -0.50824745360E+03  0.90339907241E+03  0.12699999809E+01 0.  1.
</event>
<event>
 5   0  0.3070497E-05  0.1499446E+04  0.7818609E-02  0.8884821E-01
       -2   -1    0    0    0  501  0.00000000000E+00  0.00000000000E+00  0.68369081026E+03  0.68369081026E+03  0.25500000920E-02 0. -1.
        2   -1    0    0  501    0  0.00000000000E+00  0.00000000000E+00 -0.82213287069E+03  0.82213287069E+03  0.25500000920E-02 0.  1.
    10030    2    1    2    0    0  0.00000000000E+00  0.00000000000E+00 -0.13844206043E+03  0.15058236810E+04  0.14994461491E+04 0.  0.
        4    1    3    3  502    0 -0.18310709986E+03  0.33295146504E+03 -0.71826563606E+03  0.81258354951E+03  0.12699999809E+01 0.  1.
       -4    1    3    3    0  502  0.18310709986E+03 -0.33295146504E+03  0.57982357563E+03  0.69324013145E+03  0.12699999809E+01 0. -1.
</event>
<event>
 5   0  0.2969498E-05  0.1501719E+04  0.7818609E-02  0.8883310E-01
       -2   -1    0    0    0  501  0.00000000000E+00  0.00000000000E+00  0.52268341041E+03  0.52268341041E+03  0.25500000920E-02 0.  1.
        2   -1    0    0  501    0  0.00000000000E+00  0.00000000000E+00 -0.10786457643E+04  0.10786457643E+04  0.25500000920E-02 0. -1.
    10030    2    1    2    0    0  0.00000000000E+00  0.00000000000E+00 -0.55596235394E+03  0.16013291748E+04  0.15017193436E+04 0.  0.
        3    1    3    3  502    0  0.71312999680E+03 -0.15766820233E+03 -0.92131720615E+02  0.73613987699E+03  0.10100000352E+00 0. -1.
       -3    1    3    3    0  502 -0.71312999680E+03  0.15766820233E+03 -0.46383063332E+03  0.86518929776E+03  0.10100000352E+00 0.  1.
</event>
<event>
 5   0  0.1576214E-05  0.1499977E+04  0.7818609E-02  0.8884468E-01
       -1   -1    0    0    0  501  0.00000000000E+00  0.00000000000E+00  0.25971600207E+03  0.25971600212E+03  0.50400001928E-02 0. -1.
        1   -1    0    0  501    0  0.00000000000E+00  0.00000000000E+00 -0.21657622452E+04  0.21657622452E+04  0.50400001928E-02 0.  1.
    10030    2    1    2    0    0  0.00000000000E+00  0.00000000000E+00 -0.19060462432E+04  0.24254782474E+04  0.14999774823E+04 0.  0.
        1    1    3    3  502    0  0.14272610265E+03  0.72260422989E+03 -0.11814482795E+04  0.13922455425E+04  0.50400001928E-02 0.  1.
       -1    1    3    3    0  502 -0.14272610265E+03 -0.72260422989E+03 -0.72459796362E+03  0.10332327048E+04  0.50400001928E-02 0. -1.
</event>
<event>
 5   0  0.3018308E-05  0.1503544E+04  0.7818609E-02  0.8882100E-01
        2   -1    0    0  501    0  0.00000000000E+00  0.00000000000E+00  0.12341182664E+04  0.12341182664E+04  0.25500000920E-02 0. -1.
       -2   -1    0    0    0  501  0.00000000000E+00  0.00000000000E+00 -0.45794741579E+03  0.45794741579E+03  0.25500000920E-02 0.  1.
    10030    2    1    2    0    0  0.00000000000E+00  0.00000000000E+00  0.77617085066E+03  0.16920656822E+04  0.15035441741E+04 0.  0.
        2    1    3    3  502    0  0.29145715098E+02 -0.38045363249E+03  0.11170419026E+04  0.11804139322E+04  0.25500000920E-02 0. -1.
       -2    1    3    3    0  502 -0.29145715098E+02  0.38045363249E+03 -0.34087105198E+03  0.51165174999E+03  0.25500000920E-02 0.  1.
</event>
<event>
 5   0  0.3093600E-05  0.1498400E+04  0.7818609E-02  0.8885517E-01
        2   -1    0    0  501    0  0.00000000000E+00  0.00000000000E+00  0.82798661039E+03  0.82798661040E+03  0.25500000920E-02 0.  1.
       -2   -1    0    0    0  501  0.00000000000E+00  0.00000000000E+00 -0.67791052445E+03  0.67791052445E+03  0.25500000920E-02 0. -1.
    10030    2    1    2    0    0  0.00000000000E+00  0.00000000000E+00  0.15007608595E+03  0.15058971349E+04  0.14984002633E+04 0.  0.
        1    1    3    3  502    0  0.66867187288E+03 -0.21483161677E+03 -0.18708510861E+03  0.72682565656E+03  0.50400001928E-02 0. -1.
       -1    1    3    3    0  502 -0.66867187288E+03  0.21483161677E+03  0.33716119456E+03  0.77907147829E+03  0.50400001928E-02 0.  1.
</event>
<event>
 5   0  0.1580078E-05  0.1499898E+04  0.7818609E-02  0.8884521E-01
        1   -1    0    0  501    0  0.00000000000E+00  0.00000000000E+00  0.91657399869E+03  0.91657399870E+03  0.50400001928E-02 0.  1.
       -1   -1    0    0    0  501  0.00000000000E+00  0.00000000000E+00 -0.61361503762E+03  0.61361503764E+03  0.50400001928E-02 0. -1.
    10030    2    1    2    0    0  0.00000000000E+00  0.00000000000E+00  0.30295896106E+03  0.15301890363E+04  0.14998981148E+04 0.  0.
        2    1    3    3  502    0 -0.72050611641E+03  0.18545421997E+03  0.24773131207E+03  0.78415121914E+03  0.25500000920E-02 0. -1.
       -2    1    3    3    0  502  0.72050611641E+03 -0.18545421997E+03  0.55227648999E+02  0.74603781721E+03  0.25500000920E-02 0.  1.
</event>
<event>
 5   0  0.1580078E-05  0.1504003E+04  0.7818609E-02  0.8881795E-01
       -1   -1    0    0    0  501  0.00000000000E+00  0.00000000000E+00  0.31551803894E+03  0.31551803898E+03  0.50400001928E-02 0.  1.
        1   -1    0    0  501    0  0.00000000000E+00  0.00000000000E+00 -0.17923103879E+04  0.17923103879E+04  0.50400001928E-02 0. -1.
    10030    2    1    2    0    0  0.00000000000E+00  0.00000000000E+00 -0.14767923490E+04  0.21078284269E+04  0.15040030037E+04 0.  0.
        2    1    3    3  502    0 -0.61071952275E+02 -0.64292734112E+03 -0.19847035279E+03  0.67562995068E+03  0.25500000920E-02 0. -1.
       -2    1    3    3    0  502  0.61071952275E+02  0.64292734112E+03 -0.12783219962E+04  0.14321984762E+04  0.25500000920E-02 0.  1.
</event>
<event>
 5   0  0.3093600E-05  0.1503318E+04  0.7818609E-02  0.8882249E-01
        2   -1    0    0  501    0  0.00000000000E+00  0.00000000000E+00  0.97728912962E+03  0.97728912963E+03  0.25500000920E-02 0.  1.
       -2   -1    0    0    0  501  0.00000000000E+00  0.00000000000E+00 -0.57812118721E+03  0.57812118722E+03  0.25500000920E-02 0. -1.
    10030    2    1    2    0    0  0.00000000000E+00  0.00000000000E+00  0.39916794241E+03  0.15554103168E+04  0.15033183986E+04 0.  0.
        1    1    3    3  502    0  0.89975801278E+02 -0.95195455308E+02 -0.56622136386E+03  0.58117506178E+03  0.50400001928E-02 0. -1.
       -1    1    3    3    0  502 -0.89975801278E+02  0.95195455308E+02  0.96538930627E+03  0.97423525506E+03  0.50400001928E-02 0.  1.
</event>
<event>
 5   0  0.3070497E-05  0.1499395E+04  0.7818609E-02  0.8884855E-01
       -2   -1    0    0    0  501  0.00000000000E+00  0.00000000000E+00  0.10012932598E+04  0.10012932598E+04  0.25500000920E-02 0. -1.
        2   -1    0    0  501    0  0.00000000000E+00  0.00000000000E+00 -0.56132060862E+03  0.56132060863E+03  0.25500000920E-02 0.  1.
    10030    2    1    2    0    0  0.00000000000E+00  0.00000000000E+00  0.43997265121E+03  0.15626138685E+04  0.14993952675E+04 0.  0.
        4    1    3    3  502    0  0.62345138348E+03 -0.37423176268E+03  0.29798367294E+02  0.72775723655E+03  0.12699999809E+01 0. -1.
       -4    1    3    3    0  502 -0.62345138348E+03  0.37423176268E+03  0.41017428391E+03  0.83485663191E+03  0.12699999809E+01 0.  1.
</event>
<event>
 5   0  0.3070497E-05  0.1500486E+04  0.7818609E-02  0.8884130E-01
        2   -1    0    0  501    0  0.00000000000E+00  0.00000000000E+00  0.60062578043E+03  0.60062578044E+03  0.25500000920E-02 0. -1.
       -2   -1    0    0    0  501  0.00000000000E+00  0.00000000000E+00 -0.93713004952E+03  0.93713004952E+03  0.25500000920E-02 0.  1.
    10030    2    1    2    0    0  0.00000000000E+00  0.00000000000E+00 -0.33650426909E+03  0.15377558300E+04  0.15004858778E+04 0.  0.
        4    1    3    3  502    0  0.60114414303E+03  0.33119100308E+02 -0.62702247562E+03  0.86926978168E+03  0.12699999809E+01 0. -1.
       -4    1    3    3    0  502 -0.60114414303E+03 -0.33119100308E+02  0.29051820654E+03  0.66848604827E+03  0.12699999809E+01 0.  1.
</event>
<event>
 5   0  0.1588657E-05  0.1497041E+04  0.7818609E-02  0.8886423E-01
       -1   -1    0    0    0  501  0.00000000000E+00  0.00000000000E+00  0.11794727272E+04  0.11794727272E+04  0.50400001928E-02 0. -1.
        1   -1    0    0  501    0  0.00000000000E+00  0.00000000000E+00 -0.47502835342E+03  0.47502835345E+03  0.50400001928E-02 0.  1.
    10030    2    1    2    0    0  0.00000000000E+00  0.00000000000E+00  0.70444437380E+03  0.16545010807E+04  0.14970410650E+04 0.  0.
        3    1    3    3  502    0  0.63144354241E+02 -0.74003496944E+03  0.45497436087E+03  0.87099979604E+03  0.10100000352E+00 0.  1.
       -3    1    3    3    0  502 -0.63144354241E+02  0.74003496944E+03  0.24947001293E+03  0.78350128463E+03  0.10100000352E+00 0. -1.
</event>
<event>
 5   0  0.1533777E-05  0.1500401E+04  0.7818609E-02  0.8884186E-01
        1   -1    0    0  501    0  0.00000000000E+00  0.00000000000E+00  0.41151936648E+03  0.41151936651E+03  0.50400001928E-02 0.  1.
       -1   -1    0    0    0  501  0.00000000000E+00  0.00000000000E+00 -0.13676175220E+04  0.13676175220E+04  0.50400001928E-02 0. -1.
    10030    2    1    2    0    0  0.00000000000E+00  0.00000000000E+00 -0.95609815554E+03  0.17791368885E+04  0.15004014080E+04 0.  0.
        5    1    3    3  502    0  0.39365978637E+03  0.63855007529E+03 -0.48759291748E+03  0.89469725005E+03  0.46999998093E+01 0.  1.
       -5    1    3    3    0  502 -0.39365978637E+03 -0.63855007529E+03 -0.46850523806E+03  0.88443963850E+03  0.46999998093E+01 0. -1.
</event>
<event>
 5   0  0.3018308E-05  0.1501623E+04  0.7818609E-02  0.8883374E-01
        2   -1    0    0  501    0  0.00000000000E+00  0.00000000000E+00  0.12276770370E+04  0.12276770370E+04  0.25500000920E-02 0.  1.
       -2   -1    0    0    0  501  0.00000000000E+00  0.00000000000E+00 -0.45917447240E+03  0.45917447241E+03  0.25500000920E-02 0. -1.
    10030    2    1    2    0    0  0.00000000000E+00  0.00000000000E+00  0.76850256458E+03  0.16868515094E+04  0.15016230629E+04 0.  0.
        2    1    3    3  502    0 -0.49005719574E+03 -0.28468771889E+03 -0.16895238569E+03  0.59139501268E+03  0.25500000920E-02 0. -1.
       -2    1    3    3    0  502  0.49005719574E+03  0.28468771889E+03  0.93745495027E+03  0.10954564967E+04  0.25500000920E-02 0.  1.
</event>
<event>
 5   0  0.1580078E-05  0.1501060E+04  0.7818609E-02  0.8883748E-01
       -1   -1    0    0    0  501  0.00000000000E+00  0.00000000000E+00  0.16509418985E+04  0.16509418985E+04  0.50400001928E-02 0.  1.
        1   -1    0    0  501    0  0.00000000000E+00  0.00000000000E+00 -0.34119625300E+03  0.34119625304E+03  0.50400001928E-02 0. -1.
    10030    2    1    2    0    0  0.00000000000E+00  0.00000000000E+00  0.13097456455E+04  0.19921381515E+04  0.15010598785E+04 0.  0.
        2    1    3    3  502    0  0.15883695902E+03 -0.22882859342E+02 -0.31816067748E+03  0.35634115887E+03  0.25500000920E-02 0. -1.
       -2    1    3    3    0  502 -0.15883695902E+03  0.22882859342E+02  0.16279063230E+04  0.16357969927E+04  0.25500000920E-02 0.  1.
</event>
<event>
 5   0  0.1580078E-05  0.1500815E+04  0.7818609E-02  0.8883911E-01
        1   -1    0    0  501    0  0.00000000000E+00  0.00000000000E+00  0.42285980252E+03  0.42285980255E+03  0.50400001928E-02 0. -1.
       -1   -1    0    0    0  501  0.00000000000E+00  0.00000000000E+00 -0.13316740995E+04  0.13316740996E+04  0.50400001928E-02 0.  1.
    10030    2    1    2    0    0  0.00000000000E+00  0.00000000000E+00 -0.90881429703E+03  0.17545339021E+04  0.15008150410E+04 0.  0.
        2    1    3    3  502    0 -0.67597965641E+03 -0.86139042135E+02 -0.87050600331E+02  0.68698343319E+03  0.25500000920E-02 0. -1.
       -2    1    3    3    0  502  0.67597965641E+03  0.86139042135E+02 -0.82176369670E+03  0.10675504689E+04  0.25500000920E-02 0.  1.
</event>
<event>
 5   0  0.1576214E-05  0.1503012E+04  0.7818609E-02  0.8882452E-01
       -1   -1    0    0    0  501  0.00000000000E+00  0.00000000000E+00  0.85483796203E+03  0.85483796204E+03  0.50400001928E-02 0. -1.
        1   -1    0    0  501    0  0.00000000000E+00  0.00000000000E+00 -0.66066502134E+03  0.66066502136E+03  0.50400001928E-02 0.  1.
    10030    2    1    2    0    0  0.00000000000E+00  0.00000000000E+00  0.19417294068E+03  0.15155029834E+04  0.15030123625E+04 0.  0.
        1    1    3    3  502    0  0.38782283700E+03  0.51129998634E+03 -0.29722260217E+03  0.70723087051E+03  0.50400001928E-02 0.  1.
       -1    1    3    3    0  502 -0.38782283700E+03 -0.51129998634E+03  0.49139554286E+03  0.80827211290E+03  0.50400001928E-02 0. -1.
</event>
<event>
 5   0  0.3018308E-05  0.1499002E+04  0.7818609E-02  0.8885117E-01
        2   -1    0    0  501    0  0.00000000000E+00  0.00000000000E+00  0.17939451412E+04  0.17939451412E+04  0.25500000920E-02 0. -1.
       -2   -1    0    0    0  501  0.00000000000E+00  0.00000000000E+00 -0.31313770537E+03  0.31313770538E+03  0.25500000920E-02 0.  1.
    10030    2    1    2    0    0  0.00000000000E+00  0.00000000000E+00  0.14808074358E+04  0.21070828465E+04  0.14990021549E+04 0.  0.
        2    1    3    3  502    0  0.71410938065E+03 -0.22439549451E+03  0.79386156795E+03  0.10911103219E+04  0.25500000920E-02 0. -1.
       -2    1    3    3    0  502 -0.71410938065E+03  0.22439549451E+03  0.68694586783E+03  0.10159725246E+04  0.25500000920E-02 0.  1.
</event>
<event>
 5   0  0.3070497E-05  0.1499836E+04  0.7818609E-02  0.8884562E-01
        2   -1    0    0  501    0  0.00000000000E+00  0.00000000000E+00  0.11796000755E+04  0.11796000755E+04  0.25500000920E-02 0. -1.
       -2   -1    0    0    0  501  0.00000000000E+00  0.00000000000E+00 -0.47675199728E+03  0.47675199729E+03  0.25500000920E-02 0.  1.
    10030    2    1    2    0    0  0.00000000000E+00  0.00000000000E+00  0.70284807823E+03  0.16563520728E+04  0.14998355803E+04 0.  0.
        4    1    3    3  502    0  0.16736895848E+03 -0.47321860951E+02 -0.45416799408E+03  0.48633517921E+03  0.12699999809E+01 0.  1.
       -4    1    3    3    0  502 -0.16736895848E+03  0.47321860951E+02  0.11570160723E+04  0.11700168936E+04  0.12699999809E+01 0. -1.
</event>
<event>
 5   0  0.1576214E-05  0.1500510E+04  0.7818609E-02  0.8884114E-01
       -1   -1    0    0    0  501  0.00000000000E+00  0.00000000000E+00  0.44978800044E+03  0.44978800046E+03  0.50400001928E-02 0. -1.
        1   -1    0    0  501    0  0.00000000000E+00  0.00000000000E+00 -0.12514399784E+04  0.12514399784E+04  0.50400001928E-02 0.  1.
    10030    2    1    2    0    0  0.00000000000E+00  0.00000000000E+00 -0.80165197797E+03  0.17012279789E+04  0.15005101607E+04 0.  0.
        1    1    3    3  502    0 -0.56318182236E+03 -0.22348048184E+03 -0.90246527181E+03  0.10869962547E+04  0.50400001928E-02 0.  1.
       -1    1    3    3    0  502  0.56318182236E+03  0.22348048184E+03  0.10081329384E+03  0.61423172422E+03  0.50400001928E-02 0. -1.
</event>
<event>
 5   0  0.3093600E-05  0.1499512E+04  0.7818609E-02  0.8884778E-01
       -2   -1    0    0    0  501  0.00000000000E+00  0.00000000000E+00  0.11042934460E+04  0.11042934460E+04  0.25500000920E-02 0. -1.
        2   -1    0    0  501    0  0.00000000000E+00  0.00000000000E+00 -0.50904379422E+03  0.50904379423E+03  0.25500000920E-02 0.  1.
    10030    2    1    2    0    0  0.00000000000E+00  0.00000000000E+00  0.59524965181E+03  0.16133372403E+04  0.14995115548E+04 0.  0.
        1    1    3    3  502    0  0.56173465433E+03  0.19867189960E+03  0.78727240766E+03  0.98732678959E+03  0.50400001928E-02 0. -1.
       -1    1    3    3    0  502 -0.56173465433E+03 -0.19867189960E+03 -0.19202275584E+03  0.62601045068E+03  0.50400001928E-02 0.  1.
</event>
<event>
 5   0  0.1580078E-05  0.1500654E+04  0.7818609E-02  0.8884018E-01
       -1   -1    0    0    0  501  0.00000000000E+00  0.00000000000E+00  0.57753161929E+03  0.57753161932E+03  0.50400001928E-02 0. -1.
        1   -1    0    0  501    0  0.00000000000E+00  0.00000000000E+00 -0.97482226103E+03  0.97482226104E+03  0.50400001928E-02 0.  1.
    10030    2    1    2    0    0  0.00000000000E+00  0.00000000000E+00 -0.39729064173E+03  0.15523538804E+04  0.15006540960E+04 0.  0.
        2    1    3    3  502    0  0.45194031317E+03 -0.37220199512E+03  0.28678288843E+03  0.65194232639E+03  0.25500000920E-02 0. -1.
       -2    1    3    3    0  502 -0.45194031317E+03  0.37220199512E+03 -0.68407353017E+03  0.90041155397E+03  0.25500000920E-02 0.  1.
</event>
<event>
 5   0  0.1576214E-05  0.1501541E+04  0.7818609E-02  0.8883429E-01
       -1   -1    0    0    0  501  0.00000000000E+00  0.00000000000E+00  0.13030805823E+04  0.13030805823E+04  0.50400001928E-02 0. -1.
        1   -1    0    0  501    0  0.00000000000E+00  0.00000000000E+00 -0.43255671816E+03  0.43255671819E+03  0.50400001928E-02 0.  1.
    10030    2    1    2    0    0  0.00000000000E+00  0.00000000000E+00  0.87052386418E+03  0.17356373005E+04  0.15015408889E+04 0.  0.
        1    1    3    3  502    0  0.95684634115E+02 -0.39022497799E+03  0.11683504847E+04  0.12355055393E+04  0.50400001928E-02 0. -1.
       -1    1    3    3    0  502 -0.95684634115E+02  0.39022497799E+03 -0.29782662050E+03  0.50013176120E+03  0.50400001928E-02 0.  1.
</event>
<event>
 5   0  0.1588657E-05  0.1499693E+04  0.7818609E-02  0.8884657E-01
        1   -1    0    0  501    0  0.00000000000E+00  0.00000000000E+00  0.17995990650E+04  0.17995990650E+04  0.50400001928E-02 0.  1.
       -1   -1    0    0    0  501  0.00000000000E+00  0.00000000000E+00 -0.31244160956E+03  0.31244160960E+03  0.50400001928E-02 0. -1.
    10030    2    1    2    0    0  0.00000000000E+00  0.00000000000E+00  0.14871574554E+04  0.21120406746E+04  0.14996928065E+04 0.  0.
        3    1    3    3  502    0 -0.60280605614E+02 -0.31949735070E+01  0.17961715627E+04  0.17971856477E+04  0.10100000352E+00 0.  1.
       -3    1    3    3    0  502  0.60280605614E+02  0.31949735070E+01 -0.30901410730E+03  0.31485502692E+03  0.10100000352E+00 0. -1.
</event>
<event>
 5   0  0.1576214E-05  0.1502323E+04  0.7818609E-02  0.8882909E-01
        1   -1    0    0  501    0  0.00000000000E+00  0.00000000000E+00  0.62871620826E+03  0.62871620828E+03  0.50400001928E-02 0.  1.
       -1   -1    0    0    0  501  0.00000000000E+00  0.00000000000E+00 -0.89745414621E+03  0.89745414623E+03  0.50400001928E-02 0. -1.
    10030    2    1    2    0    0  0.00000000000E+00  0.00000000000E+00 -0.26873793795E+03  0.15261703545E+04  0.15023234910E+04 0.  0.
        1    1    3    3  502    0  0.72577272803E+03 -0.59223027957E+02 -0.32166071523E+03  0.79606471819E+03  0.50400001928E-02 0. -1.
       -1    1    3    3    0  502 -0.72577272803E+03  0.59223027957E+02  0.52922777274E+02  0.73010563631E+03  0.50400001928E-02 0.  1.
</event>
<event>
 5   0  0.1576214E-05  0.1499843E+04  0.7818609E-02  0.8884558E-01
        1   -1    0    0  501    0  0.00000000000E+00  0.00000000000E+00  0.41423460726E+03  0.41423460729E+03  0.50400001928E-02 0. -1.
       -1   -1    0    0    0  501  0.00000000000E+00  0.00000000000E+00 -0.13576414293E+04  0.13576414293E+04  0.50400001928E-02 0.  1.
    10030    2    1    2    0    0  0.00000000000E+00  0.00000000000E+00 -0.94340682201E+03  0.17718760366E+04  0.14998427441E+04 0.  0.
        1    1    3    3  502    0 -0.37900960479E+03  0.46097369449E+03 -0.10082049081E+04  0.11715895887E+04  0.50400001928E-02 0.  1.
       -1    1    3    3    0  502  0.37900960479E+03 -0.46097369449E+03  0.64798086096E+02  0.60028644790E+03  0.50400001928E-02 0. -1.
</event>
<event>
 5   0  0.1580078E-05  0.1500570E+04  0.7818609E-02  0.8884074E-01
        1   -1    0    0  501    0  0.00000000000E+00  0.00000000000E+00  0.78141190798E+03  0.78141190799E+03  0.50400001928E-02 0.  1.
       -1   -1    0    0    0  501  0.00000000000E+00  0.00000000000E+00 -0.72039785393E+03  0.72039785394E+03  0.50400001928E-02 0. -1.
    10030    2    1    2    0    0  0.00000000000E+00  0.00000000000E+00  0.61014054050E+02  0.15018097619E+04  0.15005698405E+04 0.  0.
        2    1    3    3  502    0  0.15350012123E+03  0.30907141443E+03  0.69727072470E+03  0.77799350252E+03  0.25500000920E-02 0.  1.
       -2    1    3    3    0  502 -0.15350012123E+03 -0.30907141443E+03 -0.63625667065E+03  0.72381625941E+03  0.25500000920E-02 0. -1.
</event>
<event>
 5   0  0.1576214E-05  0.1499519E+04  0.7818609E-02  0.8884773E-01
       -1   -1    0    0    0  501  0.00000000000E+00  0.00000000000E+00  0.41149600486E+03  0.41149600490E+03  0.50400001928E-02 0.  1.
        1   -1    0    0  501    0  0.00000000000E+00  0.00000000000E+00 -0.13660862769E+04  0.13660862769E+04  0.50400001928E-02 0. -1.
    10030    2    1    2    0    0  0.00000000000E+00  0.00000000000E+00 -0.95459027202E+03  0.17775822818E+04  0.14995186498E+04 0.  0.
        1    1    3    3  502    0  0.22078386386E+03  0.67550094327E+03 -0.76054225025E+03  0.10408993964E+04  0.50400001928E-02 0. -1.
       -1    1    3    3    0  502 -0.22078386386E+03 -0.67550094327E+03 -0.19404802177E+03  0.73668288543E+03  0.50400001928E-02 0.  1.
</event>
<event>
 5   0  0.3018308E-05  0.1511683E+04  0.7818609E-02  0.8876721E-01
       -2   -1    0    0    0  501  0.00000000000E+00  0.00000000000E+00  0.10999739142E+04  0.10999739142E+04  0.25500000920E-02 0.  1.
        2   -1    0    0  501    0  0.00000000000E+00  0.00000000000E+00 -0.51937258135E+03  0.51937258136E+03  0.25500000920E-02 0. -1.
    10030    2    1    2    0    0  0.00000000000E+00  0.00000000000E+00  0.58060133280E+03  0.16193464955E+04  0.15116828916E+04 0.  0.
        2    1    3    3  502    0  0.51551925433E+03 -0.39667515757E+02 -0.30029358944E+03  0.59792127680E+03  0.25500000920E-02 0. -1.
       -2    1    3    3    0  502 -0.51551925433E+03  0.39667515757E+02  0.88089492224E+03  0.10214252187E+04  0.25500000920E-02 0.  1.
</event>
<event>
 5   0  0.1580078E-05  0.1499437E+04  0.7818609E-02  0.8884828E-01
       -1   -1    0    0    0  501  0.00000000000E+00  0.00000000000E+00  0.92574157993E+03  0.92574157994E+03  0.50400001928E-02 0.  1.
        1   -1    0    0  501    0  0.00000000000E+00  0.00000000000E+00 -0.60716474992E+03  0.60716474994E+03  0.50400001928E-02 0. -1.
    10030    2    1    2    0    0  0.00000000000E+00  0.00000000000E+00  0.31857683001E+03  0.15329063299E+04  0.14994367675E+04 0.  0.
        2    1    3    3  502    0  0.15259969970E+03 -0.22728777716E+03 -0.55423866200E+03  0.61816413392E+03  0.25500000920E-02 0. -1.
       -2    1    3    3    0  502 -0.15259969970E+03  0.22728777716E+03  0.87281549201E+03  0.91474219597E+03  0.25500000920E-02 0.  1.
</event>
<event>
 5   0  0.1533777E-05  0.1499942E+04  0.7818609E-02  0.8884491E-01
        1   -1    0    0  501    0  0.00000000000E+00  0.00000000000E+00  0.59957471180E+03  0.59957471182E+03  0.50400001928E-02 0.  1.
       -1   -1    0    0    0  501  0.00000000000E+00  0.00000000000E+00 -0.93809277662E+03  0.93809277663E+03  0.50400001928E-02 0. -1.
    10030    2    1    2    0    0  0.00000000000E+00  0.00000000000E+00 -0.33851806483E+03  0.15376674885E+04  0.14999422738E+04 0.  0.
        5    1    3    3  502    0 -0.19199237576E+03 -0.48535469227E+02  0.57227171472E+03  0.60558547670E+03  0.46999998093E+01 0.  1.
       -5    1    3    3    0  502  0.19199237576E+03  0.48535469227E+02 -0.91078977954E+03  0.93208201176E+03  0.46999998093E+01 0. -1.
</event>
<event>
 5   0  0.3093600E-05  0.1497394E+04  0.7818609E-02  0.8886188E-01
        2   -1    0    0  501    0  0.00000000000E+00  0.00000000000E+00  0.15835902247E+04  0.15835902247E+04  0.25500000920E-02 0.  1.
       -2   -1    0    0    0  501  0.00000000000E+00  0.00000000000E+00 -0.35397242718E+03  0.35397242719E+03  0.25500000920E-02 0. -1.
    10030    2    1    2    0    0  0.00000000000E+00  0.00000000000E+00  0.12296177975E+04  0.19375626519E+04  0.14973941038E+04 0.  0.
        1    1    3    3  502    0 -0.15049528540E+03  0.38854483477E+02 -0.33286621412E+03  0.36736687159E+03  0.50400001928E-02 0. -1.
       -1    1    3    3    0  502  0.15049528540E+03 -0.38854483477E+02  0.15624840116E+04  0.15701957803E+04  0.50400001928E-02 0.  1.
</event>
<event>
 5   0  0.3093600E-05  0.1500463E+04  0.7818609E-02  0.8884145E-01
        2   -1    0    0  501    0  0.00000000000E+00  0.00000000000E+00  0.18281196210E+04  0.18281196210E+04  0.25500000920E-02 0. -1.
       -2   -1    0    0    0  501  0.00000000000E+00  0.00000000000E+00 -0.30788333944E+03  0.30788333945E+03  0.25500000920E-02 0.  1.
    10030    2    1    2    0    0  0.00000000000E+00  0.00000000000E+00  0.15202362815E+04  0.21360029604E+04  0.15004633602E+04 0.  0.
        1    1    3    3  502    0 -0.60174979053E+03 -0.45371865331E+02  0.12557630528E+03  0.61638528945E+03  0.50400001928E-02 0.  1.
       -1    1    3    3    0  502  0.60174979053E+03  0.45371865331E+02  0.13946599762E+04  0.15196176710E+04  0.50400001928E-02 0. -1.
</event>
<event>
 5   0  0.3018308E-05  0.1499994E+04  0.7818609E-02  0.8884457E-01
        2   -1    0    0  501    0  0.00000000000E+00  0.00000000000E+00  0.19245067207E+04  0.19245067207E+04  0.25500000920E-02 0. -1.
       -2   -1    0    0    0  501  0.00000000000E+00  0.00000000000E+00 -0.29228023871E+03  0.29228023872E+03  0.25500000920E-02 0.  1.
    10030    2    1    2    0    0  0.00000000000E+00  0.00000000000E+00  0.16322264820E+04  0.22167869594E+04  0.14999937116E+04 0.  0.
        2    1    3    3  502    0 -0.14751861424E+03  0.72572328056E+03  0.64088028569E+03  0.97936896116E+03  0.25500000920E-02 0. -1.
       -2    1    3    3    0  502  0.14751861424E+03 -0.72572328056E+03  0.99134619630E+03  0.12374179983E+04  0.25500000920E-02 0.  1.
</event>
<event>
 5   0  0.3030702E-05  0.1500763E+04  0.7818609E-02  0.8883946E-01
        2   -1    0    0  501    0  0.00000000000E+00  0.00000000000E+00  0.22017425949E+04  0.22017425949E+04  0.25500000920E-02 0. -1.
       -2   -1    0    0    0  501  0.00000000000E+00  0.00000000000E+00 -0.25573940598E+03  0.25573940599E+03  0.25500000920E-02 0.  1.
    10030    2    1    2    0    0  0.00000000000E+00  0.00000000000E+00  0.19460031890E+04  0.24574820009E+04  0.15007629305E+04 0.  0.
        5    1    3    3  502    0 -0.13598459045E+03 -0.65287306857E+03  0.15362481240E+04  0.16747583231E+04  0.46999998093E+01 0. -1.
       -5    1    3    3    0  502  0.13598459045E+03  0.65287306857E+03  0.40975506499E+03  0.78272367780E+03  0.46999998093E+01 0.  1.
</event>
<event>
 5   0  0.1643498E-05  0.1499464E+04  0.7818609E-02  0.8884809E-01
       -1   -1    0    0    0  501  0.00000000000E+00  0.00000000000E+00  0.38534739102E+03  0.38534739105E+03  0.50400001928E-02 0. -1.
        1   -1    0    0  501    0  0.00000000000E+00  0.00000000000E+00 -0.14586789850E+04  0.14586789850E+04  0.50400001928E-02 0.  1.
    10030    2    1    2    0    0  0.00000000000E+00  0.00000000000E+00 -0.10733315940E+04  0.18440263761E+04  0.14994640926E+04 0.  0.
        4    1    3    3  502    0  0.51831771316E+03 -0.14430677135E+03 -0.11787751340E+04  0.12957585136E+04  0.12699999809E+01 0.  1.
       -4    1    3    3    0  502 -0.51831771316E+03  0.14430677135E+03  0.10544354001E+03  0.54826786251E+03  0.12699999809E+01 0. -1.
</event>
<event>
 5   0  0.3093600E-05  0.1501947E+04  0.7818609E-02  0.8883159E-01
       -2   -1    0    0    0  501  0.00000000000E+00  0.00000000000E+00  0.83339195819E+03  0.83339195820E+03  0.25500000920E-02 0. -1.
        2   -1    0    0  501    0  0.00000000000E+00  0.00000000000E+00 -0.67670603574E+03  0.67670603575E+03  0.25500000920E-02 0.  1.
    10030    2    1    2    0    0  0.00000000000E+00  0.00000000000E+00  0.15668592245E+03  0.15100979939E+04  0.15019472271E+04 0.  0.
        1    1    3    3  502    0 -0.53057918918E+03 -0.38133530632E+03  0.45052811121E+03  0.79366647331E+03  0.50400001928E-02 0. -1.
       -1    1    3    3    0  502  0.53057918918E+03  0.38133530632E+03 -0.29384218876E+03  0.71643152063E+03  0.50400001928E-02 0.  1.
</event>
<event>
 5   0  0.1576214E-05  0.1499806E+04  0.7818609E-02  0.8884582E-01
        1   -1    0    0  501    0  0.00000000000E+00  0.00000000000E+00  0.60919077364E+03  0.60919077367E+03  0.50400001928E-02 0.  1.
       -1   -1    0    0    0  501  0.00000000000E+00  0.00000000000E+00 -0.92311767519E+03  0.92311767520E+03  0.50400001928E-02 0. -1.
    10030    2    1    2    0    0  0.00000000000E+00  0.00000000000E+00 -0.31392690154E+03  0.15323084489E+04  0.14998063485E+04 0.  0.
        1    1    3    3  502    0  0.18465855310E+03 -0.35710324959E+03 -0.80371682412E+03  0.89865579924E+03  0.50400001928E-02 0. -1.
       -1    1    3    3    0  502 -0.18465855310E+03  0.35710324959E+03  0.48978992258E+03  0.63365264963E+03  0.50400001928E-02 0.  1.
</event>
<event>
 5   0  0.1580078E-05  0.1499102E+04  0.7818609E-02  0.8885050E-01
        1   -1    0    0  501    0  0.00000000000E+00  0.00000000000E+00  0.92356057026E+03  0.92356057027E+03  0.50400001928E-02 0.  1.
       -1   -1    0    0    0  501  0.00000000000E+00  0.00000000000E+00 -0.60832661800E+03  0.60832661803E+03  0.50400001928E-02 0. -1.
    10030    2    1    2    0    0  0.00000000000E+00  0.00000000000E+00  0.31523395225E+03  0.15318871883E+04  0.14991017020E+04 0.  0.
        2    1    3    3  502    0 -0.58764711444E+03  0.52862639680E+02 -0.31477322774E+03  0.66873445753E+03  0.25500000920E-02 0. -1.
       -2    1    3    3    0  502  0.58764711444E+03 -0.52862639680E+02  0.63000717999E+03  0.86315273076E+03  0.25500000920E-02 0.  1.
</event>
<event>
 5   0  0.1576214E-05  0.1499384E+04  0.7818609E-02  0.8884863E-01
        1   -1    0    0  501    0  0.00000000000E+00  0.00000000000E+00  0.16553643042E+04  0.16553643042E+04  0.50400001928E-02 0. -1.
       -1   -1    0    0    0  501  0.00000000000E+00  0.00000000000E+00 -0.33952524056E+03  0.33952524060E+03  0.50400001928E-02 0.  1.
    10030    2    1    2    0    0  0.00000000000E+00  0.00000000000E+00  0.13158390636E+04  0.19948895448E+04  0.14993838250E+04 0.  0.
        1    1    3    3  502    0  0.39595665358E+03 -0.25159071613E+02  0.15042334510E+04  0.15556776419E+04  0.50400001928E-02 0. -1.
       -1    1    3    3    0  502 -0.39595665358E+03  0.25159071613E+02 -0.18839438739E+03  0.43921190288E+03  0.50400001928E-02 0.  1.
</event>
<event>
 5   0  0.1533777E-05  0.1499860E+04  0.7818609E-02  0.8884546E-01
       -1   -1    0    0    0  501  0.00000000000E+00  0.00000000000E+00  0.19832184235E+04  0.19832184235E+04  0.50400001928E-02 0.  1.
        1   -1    0    0  501    0  0.00000000000E+00  0.00000000000E+00 -0.28357686100E+03  0.28357686105E+03  0.50400001928E-02 0. -1.
    10030    2    1    2    0    0  0.00000000000E+00  0.00000000000E+00  0.16996415625E+04  0.22667952846E+04  0.14998598005E+04 0.  0.
        5    1    3    3  502    0  0.63393051513E+03 -0.11422663387E+03  0.14301768677E+04  0.15685482411E+04  0.46999998093E+01 0. -1.
       -5    1    3    3    0  502 -0.63393051513E+03  0.11422663387E+03  0.26946469481E+03  0.69824704343E+03  0.46999998093E+01 0.  1.
</event>
<event>
 5   0  0.1580078E-05  0.1501250E+04  0.7818609E-02  0.8883622E-01
       -1   -1    0    0    0  501  0.00000000000E+00  0.00000000000E+00  0.51747206631E+03  0.51747206633E+03  0.50400001928E-02 0.  1.
        1   -1    0    0  501    0  0.00000000000E+00  0.00000000000E+00 -0.10888270104E+04  0.10888270105E+04  0.50400001928E-02 0. -1.
    10030    2    1    2    0    0  0.00000000000E+00  0.00000000000E+00 -0.57135494414E+03  0.16062990768E+04  0.15012495635E+04 0.  0.
        2    1    3    3  502    0 -0.67486019407E+01  0.42638251583E+03 -0.94663262196E+03  0.10382489655E+04  0.25500000920E-02 0. -1.
       -2    1    3    3    0  502  0.67486019407E+01 -0.42638251583E+03  0.37527767782E+03  0.56805011127E+03  0.25500000920E-02 0.  1.
</event>
<event>
 5   0  0.3093600E-05  0.1499067E+04  0.7818609E-02  0.8885074E-01
        2   -1    0    0  501    0  0.00000000000E+00  0.00000000000E+00  0.98551127645E+03  0.98551127645E+03  0.25500000920E-02 0.  1.
       -2   -1    0    0    0  501  0.00000000000E+00  0.00000000000E+00 -0.57005988827E+03  0.57005988828E+03  0.25500000920E-02 0. -1.
    10030    2    1    2    0    0  0.00000000000E+00  0.00000000000E+00  0.41545138818E+03  0.15555711647E+04  0.14990669740E+04 0.  0.
        1    1    3    3  502    0  0.33620112335E+03  0.64057441517E+03  0.41116027763E+03  0.83211751012E+03  0.50400001928E-02 0.  1.
       -1    1    3    3    0  502 -0.33620112335E+03 -0.64057441517E+03  0.42911105494E+01  0.72345365461E+03  0.50400001928E-02 0. -1.
</event>
<event>
 5   0  0.2969498E-05  0.1499661E+04  0.7818609E-02  0.8884678E-01
       -2   -1    0    0    0  501  0.00000000000E+00  0.00000000000E+00  0.73183403182E+03  0.73183403183E+03  0.25500000920E-02 0.  1.
        2   -1    0    0  501    0  0.00000000000E+00  0.00000000000E+00 -0.76826976344E+03  0.76826976344E+03  0.25500000920E-02 0. -1.
    10030    2    1    2    0    0  0.00000000000E+00  0.00000000000E+00 -0.36435731617E+02  0.15001037953E+04  0.14996612398E+04 0.  0.
        3    1    3    3  502    0 -0.66246346188E+03 -0.20201413141E+03  0.26923151454E+03  0.74307009510E+03  0.10100000352E+00 0.  1.
       -3    1    3    3    0  502  0.66246346188E+03  0.20201413141E+03 -0.30566724616E+03  0.75703370017E+03  0.10100000352E+00 0. -1.
</event>
<event>
 5   0  0.1576214E-05  0.1499839E+04  0.7818609E-02  0.8884560E-01
        1   -1    0    0  501    0  0.00000000000E+00  0.00000000000E+00  0.18005305756E+04  0.18005305757E+04  0.50400001928E-02 0. -1.
       -1   -1    0    0    0  501  0.00000000000E+00  0.00000000000E+00 -0.31234074023E+03  0.31234074027E+03  0.50400001928E-02 0.  1.
    10030    2    1    2    0    0  0.00000000000E+00  0.00000000000E+00  0.14881898354E+04  0.21128713159E+04  0.14998387285E+04 0.  0.
        1    1    3    3  502    0 -0.35470790309E+03 -0.17050684916E+03 -0.15516721547E+03  0.42304508850E+03  0.50400001928E-02 0.  1.
       -1    1    3    3    0  502  0.35470790309E+03  0.17050684916E+03  0.16433570509E+04  0.16898262274E+04  0.50400001928E-02 0. -1.
</event>
<event>
 5   0  0.1580078E-05  0.1501123E+04  0.7818609E-02  0.8883707E-01
        1   -1    0    0  501    0  0.00000000000E+00  0.00000000000E+00  0.64146098542E+03  0.64146098544E+03  0.50400001928E-02 0. -1.
       -1   -1    0    0    0  501  0.00000000000E+00  0.00000000000E+00 -0.87821759352E+03  0.87821759354E+03  0.50400001928E-02 0.  1.
    10030    2    1    2    0    0  0.00000000000E+00  0.00000000000E+00 -0.23675660810E+03  0.15196785790E+04  0.15011226772E+04 0.  0.
        2    1    3    3  502    0 -0.72485575857E+02 -0.37539493022E+03 -0.77224682624E+03  0.86170799752E+03  0.25500000920E-02 0.  1.
       -2    1    3    3    0  502  0.72485575857E+02  0.37539493022E+03  0.53549021814E+03  0.65797058146E+03  0.25500000920E-02 0. -1.
</event>
<event>
 5   0  0.1116613E-05  0.1499932E+04  0.7818609E-02  0.8884498E-01
        3   -1    0    0  501    0  0.00000000000E+00  0.00000000000E+00  0.14492038862E+04  0.14492038897E+04  0.10100000352E+00 0. -1.
       -3   -1    0    0    0  501  0.00000000000E+00  0.00000000000E+00 -0.38810874452E+03  0.38810875766E+03  0.10100000352E+00 0.  1.
    10030    2    1    2    0    0  0.00000000000E+00  0.00000000000E+00  0.10610951417E+04  0.18373126474E+04  0.14999316200E+04 0.  0.
        5    1    3    3  502    0  0.50811095454E+03  0.42593874142E+03  0.95984361507E+03  0.11665857915E+04  0.46999998093E+01 0. -1.
       -5    1    3    3    0  502 -0.50811095454E+03 -0.42593874142E+03  0.10125152663E+03  0.67072685589E+03  0.46999998093E+01 0.  1.
</event>
<event>
 5   0  0.1576214E-05  0.1499580E+04  0.7818609E-02  0.8884732E-01
       -1   -1    0    0    0  501  0.00000000000E+00  0.00000000000E+00  0.41056172766E+03  0.41056172769E+03  0.50400001928E-02 0.  1.
        1   -1    0    0  501    0  0.00000000000E+00  0.00000000000E+00 -0.13693072224E+04  0.13693072224E+04  0.50400001928E-02 0. -1.
    10030    2    1    2    0    0  0.00000000000E+00  0.00000000000E+00 -0.95874549471E+03  0.17798689501E+04  0.14995801265E+04 0.  0.
        1    1    3    3  502    0 -0.65334750901E+02  0.64536127371E+03 -0.92572934621E+03  0.11303692431E+04  0.50400001928E-02 0. -1.
       -1    1    3    3    0  502  0.65334750901E+02 -0.64536127371E+03 -0.33016148497E+02  0.64949970698E+03  0.50400001928E-02 0.  1.
</event>
<event>
 5   0  0.1580078E-05  0.1499727E+04  0.7818609E-02  0.8884634E-01
       -1   -1    0    0    0  501  0.00000000000E+00  0.00000000000E+00  0.37618336226E+03  0.37618336229E+03  0.50400001928E-02 0.  1.
        1   -1    0    0  501    0  0.00000000000E+00  0.00000000000E+00 -0.14947376804E+04  0.14947376804E+04  0.50400001928E-02 0. -1.
    10030    2    1    2    0    0  0.00000000000E+00  0.00000000000E+00 -0.11185543181E+04  0.18709210427E+04  0.14997272370E+04 0.  0.
        2    1    3    3  502    0 -0.69218162249E+03 -0.25810351318E+03 -0.71982621494E+03  0.10314468487E+04  0.25500000920E-02 0.  1.
       -2    1    3    3    0  502  0.69218162249E+03  0.25810351318E+03 -0.39872810318E+03  0.83947419395E+03  0.25500000920E-02 0. -1.
</event>
<event>
 5   0  0.1588657E-05  0.1499934E+04  0.7818609E-02  0.8884497E-01
       -1   -1    0    0    0  501  0.00000000000E+00  0.00000000000E+00  0.36234643124E+03  0.36234643127E+03  0.50400001928E-02 0. -1.
        1   -1    0    0  501    0  0.00000000000E+00  0.00000000000E+00 -0.15522444458E+04  0.15522444458E+04  0.50400001928E-02 0.  1.
    10030    2    1    2    0    0  0.00000000000E+00  0.00000000000E+00 -0.11898980145E+04  0.19145908771E+04  0.14999336457E+04 0.  0.
        3    1    3    3  502    0 -0.21878920311E+03 -0.32341540345E+03  0.22236207012E+03  0.44934523366E+03  0.10100000352E+00 0. -1.
       -3    1    3    3    0  502  0.21878920311E+03  0.32341540345E+03 -0.14122600847E+04  0.14652456434E+04  0.10100000352E+00 0.  1.
</event>
<event>
 5   0  0.3093600E-05  0.1500048E+04  0.7818609E-02  0.8884421E-01
       -2   -1    0    0    0  501  0.00000000000E+00  0.00000000000E+00  0.11051025515E+04  0.11051025516E+04  0.25500000920E-02 0. -1.
        2   -1    0    0  501    0  0.00000000000E+00  0.00000000000E+00 -0.50903506444E+03  0.50903506445E+03  0.25500000920E-02 0.  1.
    10030    2    1    2    0    0  0.00000000000E+00  0.00000000000E+00  0.59606748711E+03  0.16141376160E+04  0.15000479306E+04 0.  0.
        1    1    3    3  502    0  0.31017698113E+03 -0.12180552476E+03 -0.42500122058E+03  0.54006701714E+03  0.50400001928E-02 0.  1.
       -1    1    3    3    0  502 -0.31017698113E+03  0.12180552476E+03  0.10210687077E+04  0.10740705989E+04  0.50400001928E-02 0. -1.
</event>
<event>
 5   0  0.1533777E-05  0.1500072E+04  0.7818609E-02  0.8884405E-01
       -1   -1    0    0    0  501  0.00000000000E+00  0.00000000000E+00  0.70763065625E+03  0.70763065626E+03  0.50400001928E-02 0. -1.
        1   -1    0    0  501    0  0.00000000000E+00  0.00000000000E+00 -0.79498227866E+03  0.79498227867E+03  0.50400001928E-02 0.  1.
    10030    2    1    2    0    0  0.00000000000E+00  0.00000000000E+00 -0.87351622411E+02  0.15026129349E+04  0.15000717737E+04 0.  0.
        5    1    3    3  502    0  0.13544107824E+03 -0.66159174814E+03 -0.37054718203E+03  0.77030852974E+03  0.46999998093E+01 0.  1.
       -5    1    3    3    0  502 -0.13544107824E+03  0.66159174814E+03  0.28319555962E+03  0.73230440520E+03  0.46999998093E+01 0. -1.
</event>
<event>
 5   0  0.3018308E-05  0.1500664E+04  0.7818609E-02  0.8884011E-01
        2   -1    0    0  501    0  0.00000000000E+00  0.00000000000E+00  0.12158752254E+04  0.12158752254E+04  0.25500000920E-02 0. -1.
       -2   -1    0    0    0  501  0.00000000000E+00  0.00000000000E+00 -0.46303950930E+03  0.46303950931E+03  0.25500000920E-02 0.  1.
    10030    2    1    2    0    0  0.00000000000E+00  0.00000000000E+00  0.75283571610E+03  0.16789147347E+04  0.15006642099E+04 0.  0.
        2    1    3    3  502    0 -0.68197126259E+03 -0.32358336291E+02  0.28215504854E+02  0.68332128582E+03  0.25500000920E-02 0.  1.
       -2    1    3    3    0  502  0.68197126259E+03  0.32358336291E+02  0.72462021124E+03  0.99559344889E+03  0.25500000920E-02 0. -1.
</event>
<event>
 5   0  0.1580078E-05  0.1499815E+04  0.7818609E-02  0.8884576E-01
        1   -1    0    0  501    0  0.00000000000E+00  0.00000000000E+00  0.19966896541E+04  0.19966896541E+04  0.50400001928E-02 0.  1.
       -1   -1    0    0    0  501  0.00000000000E+00  0.00000000000E+00 -0.28164689418E+03  0.28164689422E+03  0.50400001928E-02 0. -1.
    10030    2    1    2    0    0  0.00000000000E+00  0.00000000000E+00  0.17150427599E+04  0.22783365483E+04  0.14998152417E+04 0.  0.
        2    1    3    3  502    0 -0.50383464483E+03  0.55188052408E+03  0.95287276133E+03  0.12109450696E+04  0.25500000920E-02 0. -1.
       -2    1    3    3    0  502  0.50383464483E+03 -0.55188052408E+03  0.76216999859E+03  0.10673914788E+04  0.25500000920E-02 0.  1.
</event>
<event>
 5   0  0.2969498E-05  0.1499905E+04  0.7818609E-02  0.8884516E-01
        2   -1    0    0  501    0  0.00000000000E+00  0.00000000000E+00  0.10642765151E+04  0.10642765151E+04  0.25500000920E-02 0. -1.
       -2   -1    0    0    0  501  0.00000000000E+00  0.00000000000E+00 -0.52846089155E+03  0.52846089155E+03  0.25500000920E-02 0.  1.
    10030    2    1    2    0    0  0.00000000000E+00  0.00000000000E+00  0.53581562356E+03  0.15927374067E+04  0.14999046850E+04 0.  0.
        3    1    3    3  502    0 -0.35757958497E+03 -0.53013625619E+03 -0.14816014163E+03  0.65639854317E+03  0.10100000352E+00 0.  1.
       -3    1    3    3    0  502  0.35757958497E+03  0.53013625619E+03  0.68397576519E+03  0.93633886349E+03  0.10100000352E+00 0. -1.
</event>
<event>
 5   0  0.1576214E-05  0.1500610E+04  0.7818609E-02  0.8884048E-01
       -1   -1    0    0    0  501  0.00000000000E+00  0.00000000000E+00  0.11261028980E+04  0.11261028980E+04  0.50400001928E-02 0.  1.
        1   -1    0    0  501    0  0.00000000000E+00  0.00000000000E+00 -0.49991642655E+03  0.49991642657E+03  0.50400001928E-02 0. -1.
    10030    2    1    2    0    0  0.00000000000E+00  0.00000000000E+00  0.62618647145E+03  0.16260193246E+04  0.15006096584E+04 0.  0.
        1    1    3    3  502    0  0.67734218729E+03 -0.30667564072E+03  0.20411498745E+03  0.77104170796E+03  0.50400001928E-02 0. -1.
       -1    1    3    3    0  502 -0.67734218729E+03  0.30667564072E+03  0.42207148400E+03  0.85497761662E+03  0.50400001928E-02 0.  1.
</event>
<event>
 5   0  0.2969498E-05  0.1506844E+04  0.7818609E-02  0.8879914E-01
       -2   -1    0    0    0  501  0.00000000000E+00  0.00000000000E+00  0.68114088682E+03  0.68114088683E+03  0.25500000920E-02 0.  1.
        2   -1    0    0  501    0  0.00000000000E+00  0.00000000000E+00 -0.83337385949E+03  0.83337385950E+03  0.25500000920E-02 0. -1.
    10030    2    1    2    0    0  0.00000000000E+00  0.00000000000E+00 -0.15223297267E+03  0.15145147463E+04  0.15068443977E+04 0.  0.
        3    1    3    3  502    0 -0.13522007785E+03 -0.22277117906E+02 -0.82074142022E+03  0.83210409716E+03  0.10100000352E+00 0. -1.
       -3    1    3    3    0  502  0.13522007785E+03  0.22277117906E+02  0.66850844756E+03  0.68241064916E+03  0.10100000352E+00 0.  1.
</event>
<event>
 5   0  0.1588657E-05  0.1497796E+04  0.7818609E-02  0.8885920E-01
       -1   -1    0    0    0  501  0.00000000000E+00  0.00000000000E+00  0.11817956198E+04  0.11817956198E+04  0.50400001928E-02 0.  1.
        1   -1    0    0  501    0  0.00000000000E+00  0.00000000000E+00 -0.47457303755E+03  0.47457303757E+03  0.50400001928E-02 0. -1.
    10030    2    1    2    0    0  0.00000000000E+00  0.00000000000E+00  0.70722258221E+03  0.16563686573E+04  0.14977961638E+04 0.  0.
        3    1    3    3  502    0 -0.67369671782E+03  0.27569909103E+03  0.15899356313E+03  0.74508806172E+03  0.10100000352E+00 0. -1.
       -3    1    3    3    0  502  0.67369671782E+03 -0.27569909103E+03  0.54822901908E+03  0.91128059563E+03  0.10100000352E+00 0.  1.
</event>
<event>
 5   0  0.1533777E-05  0.1500587E+04  0.7818609E-02  0.8884063E-01
        1   -1    0    0  501    0  0.00000000000E+00  0.00000000000E+00  0.64934145907E+03  0.64934145909E+03  0.50400001928E-02 0.  1.
       -1   -1    0    0    0  501  0.00000000000E+00  0.00000000000E+00 -0.86694041224E+03  0.86694041225E+03  0.50400001928E-02 0. -1.
    10030    2    1    2    0    0  0.00000000000E+00  0.00000000000E+00 -0.21759895317E+03  0.15162818713E+04  0.15005870215E+04 0.  0.
        5    1    3    3  502    0  0.36085046927E+03 -0.55572848013E+03 -0.46443380793E+03  0.80917739510E+03  0.46999998093E+01 0. -1.
       -5    1    3    3    0  502 -0.36085046927E+03  0.55572848013E+03  0.24683485476E+03  0.70710447624E+03  0.46999998093E+01 0.  1.
</event>
<event>
 5   0  0.1588657E-05  0.1500359E+04  0.7818609E-02  0.8884214E-01
       -1   -1    0    0    0  501  0.00000000000E+00  0.00000000000E+00  0.57790712121E+03  0.57790712123E+03  0.50400001928E-02 0.  1.
        1   -1    0    0  501    0  0.00000000000E+00  0.00000000000E+00 -0.97380524309E+03  0.97380524310E+03  0.50400001928E-02 0. -1.
    10030    2    1    2    0    0  0.00000000000E+00  0.00000000000E+00 -0.39589812188E+03  0.15517123643E+04  0.15003586034E+04 0.  0.
        3    1    3    3  502    0 -0.20562738927E+03 -0.65388323000E+02  0.54512081724E+03  0.58627209689E+03  0.10100000352E+00 0.  1.
       -3    1    3    3    0  502  0.20562738927E+03  0.65388323000E+02 -0.94101893912E+03  0.96544026744E+03  0.10100000352E+00 0. -1.
</event>
<event>
 5   0  0.3030702E-05  0.1500699E+04  0.7818609E-02  0.8883988E-01
       -2   -1    0    0    0  501  0.00000000000E+00  0.00000000000E+00  0.45981883090E+03  0.45981883091E+03  0.25500000920E-02 0.  1.
        2   -1    0    0  501    0  0.00000000000E+00  0.00000000000E+00 -0.12244490723E+04  0.12244490723E+04  0.25500000920E-02 0. -1.
    10030    2    1    2    0    0  0.00000000000E+00  0.00000000000E+00 -0.76463024142E+03  0.16842679032E+04  0.15006994915E+04 0.  0.
        5    1    3    3  502    0 -0.44992458519E+03  0.13651776371E+03 -0.10385936729E+04  0.11400737431E+04  0.46999998093E+01 0. -1.
       -5    1    3    3    0  502  0.44992458519E+03 -0.13651776371E+03  0.27396343151E+03  0.54419416017E+03  0.46999998093E+01 0.  1.
</event>
<event>
 5   0  0.3093600E-05  0.1500419E+04  0.7818609E-02  0.8884175E-01
        2   -1    0    0  501    0  0.00000000000E+00  0.00000000000E+00  0.60349939710E+03  0.60349939711E+03  0.25500000920E-02 0. -1.
       -2   -1    0    0    0  501  0.00000000000E+00  0.00000000000E+00 -0.93258408305E+03  0.93258408305E+03  0.25500000920E-02 0.  1.
    10030    2    1    2    0    0  0.00000000000E+00  0.00000000000E+00 -0.32908468595E+03  0.15360834802E+04  0.15004185174E+04 0.  0.
        1    1    3    3  502    0 -0.44184544556E+01  0.31388250055E+03  0.53302916850E+03  0.61859667102E+03  0.50400001928E-02 0. -1.
       -1    1    3    3    0  502  0.44184544556E+01 -0.31388250055E+03 -0.86211385445E+03  0.91748680914E+03  0.50400001928E-02 0.  1.
</event>
<event>
 5   0  0.3093600E-05  0.1500033E+04  0.7818609E-02  0.8884431E-01
        2   -1    0    0  501    0  0.00000000000E+00  0.00000000000E+00  0.15880429503E+04  0.15880429503E+04  0.25500000920E-02 0.  1.
       -2   -1    0    0    0  501  0.00000000000E+00  0.00000000000E+00 -0.35422514516E+03  0.35422514517E+03  0.25500000920E-02 0. -1.
    10030    2    1    2    0    0  0.00000000000E+00  0.00000000000E+00  0.12338178052E+04  0.19422680955E+04  0.15000329924E+04 0.  0.
        1    1    3    3  502    0  0.57587182451E+03  0.17004540833E+02 -0.48826627075E+01  0.57614351779E+03  0.50400001928E-02 0. -1.
       -1    1    3    3    0  502 -0.57587182451E+03 -0.17004540833E+02  0.12387004679E+04  0.13661245777E+04  0.50400001928E-02 0.  1.
</event>
<event>
 5   0  0.1580078E-05  0.1500364E+04  0.7818609E-02  0.8884211E-01
       -1   -1    0    0    0  501  0.00000000000E+00  0.00000000000E+00  0.68222709157E+03  0.68222709159E+03  0.50400001928E-02 0. -1.
        1   -1    0    0  501    0  0.00000000000E+00  0.00000000000E+00 -0.82490611366E+03  0.82490611367E+03  0.50400001928E-02 0.  1.
    10030    2    1    2    0    0  0.00000000000E+00  0.00000000000E+00 -0.14267902209E+03  0.15071332053E+04  0.15003643541E+04 0.  0.
        2    1    3    3  502    0  0.10448885816E+02  0.74798387933E+03 -0.12802312240E+03  0.75893279204E+03  0.25500000920E-02 0.  1.
       -2    1    3    3    0  502 -0.10448885816E+02 -0.74798387933E+03 -0.14655899690E+02  0.74820041323E+03  0.25500000920E-02 0. -1.
</event>
<event>
 5   0  0.1116613E-05  0.1500150E+04  0.7818609E-02  0.8884353E-01
       -4   -1    0    0    0  501  0.00000000000E+00  0.00000000000E+00  0.85297982552E+03  0.85298077097E+03  0.12699999809E+01 0.  1.
        4   -1    0    0  501    0  0.00000000000E+00  0.00000000000E+00 -0.65958304802E+03  0.65958427069E+03  0.12699999809E+01 0. -1.
    10030    2    1    2    0    0  0.00000000000E+00  0.00000000000E+00  0.19339677749E+03  0.15125650417E+04  0.15001502230E+04 0.  0.
        5    1    3    3  502    0 -0.12474757327E+03  0.19108245506E+02  0.84218413995E+03  0.85160043310E+03  0.46999998093E+01 0.  1.
       -5    1    3    3    0  502  0.12474757327E+03 -0.19108245506E+02 -0.64878736245E+03  0.66096460855E+03  0.46999998093E+01 0. -1.
</event>
<event>
 5   0  0.3018308E-05  0.1499660E+04  0.7818609E-02  0.8884679E-01
        2   -1    0    0  501    0  0.00000000000E+00  0.00000000000E+00  0.99943737417E+03  0.99943737417E+03  0.25500000920E-02 0.  1.
       -2   -1    0    0    0  501  0.00000000000E+00  0.00000000000E+00 -0.56256133914E+03  0.56256133914E+03  0.25500000920E-02 0. -1.
    10030    2    1    2    0    0  0.00000000000E+00  0.00000000000E+00  0.43687603503E+03  0.15619987133E+04  0.14996597315E+04 0.  0.
        2    1    3    3  502    0 -0.37391102456E+03 -0.61662660491E+03  0.44545594797E+01  0.72115023904E+03  0.25500000920E-02 0.  1.
       -2    1    3    3    0  502  0.37391102456E+03  0.61662660491E+03  0.43242147555E+03  0.84084847427E+03  0.25500000920E-02 0. -1.
</event>
<event>
 5   0  0.1533777E-05  0.1500600E+04  0.7818609E-02  0.8884054E-01
        1   -1    0    0  501    0  0.00000000000E+00  0.00000000000E+00  0.71157548212E+03  0.71157548214E+03  0.50400001928E-02 0.  1.
       -1   -1    0    0    0  501  0.00000000000E+00  0.00000000000E+00 -0.79113173628E+03  0.79113173629E+03  0.50400001928E-02 0. -1.
    10030    2    1    2    0    0  0.00000000000E+00  0.00000000000E+00 -0.79556254155E+02  0.15027072184E+04  0.15005998090E+04 0.  0.
        5    1    3    3  502    0 -0.21692535028E+03  0.24200910281E+02  0.67906392289E+03  0.71329670756E+03  0.46999998093E+01 0.  1.
       -5    1    3    3    0  502  0.21692535028E+03 -0.24200910281E+02 -0.75862017704E+03  0.78941051087E+03  0.46999998093E+01 0. -1.
</event>
<event>
 5   0  0.1643498E-05  0.1499802E+04  0.7818609E-02  0.8884585E-01
       -1   -1    0    0    0  501  0.00000000000E+00  0.00000000000E+00  0.51219011923E+03  0.51219011925E+03  0.50400001928E-02 0.  1.
        1   -1    0    0  501    0  0.00000000000E+00  0.00000000000E+00 -0.10979352461E+04  0.10979352461E+04  0.50400001928E-02 0. -1.
    10030    2    1    2    0    0  0.00000000000E+00  0.00000000000E+00 -0.58574512689E+03  0.16101253654E+04  0.14998020998E+04 0.  0.
        4    1    3    3  502    0 -0.53879683942E+03  0.48005445482E+03 -0.51182497543E+03  0.88471505703E+03  0.12699999809E+01 0.  1.
       -4    1    3    3    0  502  0.53879683942E+03 -0.48005445482E+03 -0.73920151457E+02  0.72541030834E+03  0.12699999809E+01 0. -1.
</event>
<event>
 5   0  0.1588657E-05  0.1500740E+04  0.7818609E-02  0.8883961E-01
        1   -1    0    0  501    0  0.00000000000E+00  0.00000000000E+00  0.36361279886E+03  0.36361279890E+03  0.50400001928E-02 0. -1.
       -1   -1    0    0    0  501  0.00000000000E+00  0.00000000000E+00 -0.15485018439E+04  0.15485018439E+04  0.50400001928E-02 0.  1.
    10030    2    1    2    0    0  0.00000000000E+00  0.00000000000E+00 -0.11848890450E+04  0.19121146428E+04  0.15007399369E+04 0.  0.
        3    1    3    3  502    0  0.22914030146E+03 -0.22934318110E+03  0.26977575757E+03  0.42176123820E+03  0.10100000352E+00 0. -1.
       -3    1    3    3    0  502 -0.22914030146E+03  0.22934318110E+03 -0.14546648026E+04  0.14903534046E+04  0.10100000352E+00 0.  1.
</event>
<event>
 5   0  0.1533777E-05  0.1499917E+04  0.7818609E-02  0.8884508E-01
       -1   -1    0    0    0  501  0.00000000000E+00  0.00000000000E+00  0.17221209642E+04  0.17221209643E+04  0.50400001928E-02 0. -1.
        1   -1    0    0  501    0  0.00000000000E+00  0.00000000000E+00 -0.32659587812E+03  0.32659587816E+03  0.50400001928E-02 0.  1.
    10030    2    1    2    0    0  0.00000000000E+00  0.00000000000E+00  0.13955250861E+04  0.20487168424E+04  0.14999168092E+04 0.  0.
        5    1    3    3  502    0  0.27585188714E+03 -0.44153995364E+03 -0.39517545916E+02  0.52214511463E+03  0.46999998093E+01 0.  1.
       -5    1    3    3    0  502 -0.27585188714E+03  0.44153995364E+03  0.14350426320E+04  0.15265717278E+04  0.46999998093E+01 0. -1.
</event>
<event>
 5   0  0.3018308E-05  0.1499816E+04  0.7818609E-02  0.8884575E-01
       -2   -1    0    0    0  501  0.00000000000E+00  0.00000000000E+00  0.10247514509E+04  0.10247514509E+04  0.25500000920E-02 0.  1.
        2   -1    0    0  501    0  0.00000000000E+00  0.00000000000E+00 -0.54877902285E+03  0.54877902286E+03  0.25500000920E-02 0. -1.
    10030    2    1    2    0    0  0.00000000000E+00  0.00000000000E+00  0.47597242809E+03  0.15735304738E+04  0.14998161220E+04 0.  0.
        2    1    3    3  502    0  0.42653260563E+03  0.35721125015E+02  0.88400645940E+03  0.98217792823E+03  0.25500000920E-02 0.  1.
       -2    1    3    3    0  502 -0.42653260563E+03 -0.35721125015E+02 -0.40803403131E+03  0.59135254557E+03  0.25500000920E-02 0. -1.
</event>
<event>
 5   0  0.3018308E-05  0.1498707E+04  0.7818609E-02  0.8885313E-01
       -2   -1    0    0    0  501  0.00000000000E+00  0.00000000000E+00  0.42061201138E+03  0.42061201139E+03  0.25500000920E-02 0.  1.
        2   -1    0    0  501    0  0.00000000000E+00  0.00000000000E+00 -0.13350323240E+04  0.13350323240E+04  0.25500000920E-02 0. -1.
    10030    2    1    2    0    0  0.00000000000E+00  0.00000000000E+00 -0.91442031265E+03  0.17556443354E+04  0.14987069508E+04 0.  0.
        2    1    3    3  502    0  0.30685281330E+03 -0.44614429016E+03 -0.10640194330E+04  0.11938763464E+04  0.25500000920E-02 0. -1.
       -2    1    3    3    0  502 -0.30685281330E+03  0.44614429016E+03  0.14959912036E+03  0.56176798902E+03  0.25500000920E-02 0.  1.
</event>
<event>
 5   0  0.1643498E-05  0.1499302E+04  0.7818609E-02  0.8884917E-01
        1   -1    0    0  501    0  0.00000000000E+00  0.00000000000E+00  0.96634495617E+03  0.96634495618E+03  0.50400001928E-02 0. -1.
       -1   -1    0    0    0  501  0.00000000000E+00  0.00000000000E+00 -0.58154885592E+03  0.58154885594E+03  0.50400001928E-02 0.  1.
    10030    2    1    2    0    0  0.00000000000E+00  0.00000000000E+00  0.38479610025E+03  0.15478938121E+04  0.14993022427E+04 0.  0.
        4    1    3    3  502    0  0.72632743698E+03 -0.18250012464E+03  0.22690817362E+03  0.78252589309E+03  0.12699999809E+01 0. -1.
       -4    1    3    3    0  502 -0.72632743698E+03  0.18250012464E+03  0.15788792663E+03  0.76536791903E+03  0.12699999809E+01 0.  1.
</event>
<event>
 5   0  0.1576214E-05  0.1500124E+04  0.7818609E-02  0.8884371E-01
        1   -1    0    0  501    0  0.00000000000E+00  0.00000000000E+00  0.56676560219E+03  0.56676560221E+03  0.50400001928E-02 0. -1.
       -1   -1    0    0    0  501  0.00000000000E+00  0.00000000000E+00 -0.99263760017E+03  0.99263760018E+03  0.50400001928E-02 0.  1.
    10030    2    1    2    0    0  0.00000000000E+00  0.00000000000E+00 -0.42587199798E+03  0.15594032024E+04  0.15001237912E+04 0.  0.
        1    1    3    3  502    0 -0.44836726069E+03  0.31445456096E+03  0.31983816155E+03  0.63420132527E+03  0.50400001928E-02 0. -1.
       -1    1    3    3    0  502  0.44836726069E+03 -0.31445456096E+03 -0.74571015953E+03  0.92520187712E+03  0.50400001928E-02 0.  1.
</event>
<event>
 5   0  0.1576214E-05  0.1503945E+04  0.7818609E-02  0.8881833E-01
        1   -1    0    0  501    0  0.00000000000E+00  0.00000000000E+00  0.11040411204E+04  0.11040411204E+04  0.50400001928E-02 0. -1.
       -1   -1    0    0    0  501  0.00000000000E+00  0.00000000000E+00 -0.51217563808E+03  0.51217563810E+03  0.50400001928E-02 0.  1.
    10030    2    1    2    0    0  0.00000000000E+00  0.00000000000E+00  0.59186548229E+03  0.16162167585E+04  0.15039454316E+04 0.  0.
        1    1    3    3  502    0 -0.47986887944E+03 -0.36093589968E+03  0.78239981247E+03  0.98625469920E+03  0.50400001928E-02 0. -1.
       -1    1    3    3    0  502  0.47986887944E+03  0.36093589968E+03 -0.19053433018E+03  0.62996205928E+03  0.50400001928E-02 0.  1.
</event>
<event>
 5   0  0.1533777E-05  0.1499710E+04  0.7818609E-02  0.8884646E-01
        1   -1    0    0  501    0  0.00000000000E+00  0.00000000000E+00  0.90629186664E+03  0.90629186666E+03  0.50400001928E-02 0. -1.
       -1   -1    0    0    0  501  0.00000000000E+00  0.00000000000E+00 -0.62042134611E+03  0.62042134613E+03  0.50400001928E-02 0.  1.
    10030    2    1    2    0    0  0.00000000000E+00  0.00000000000E+00  0.28587052053E+03  0.15267132128E+04  0.14997103986E+04 0.  0.
        5    1    3    3  502    0  0.24552190137E+03 -0.91347305698E+02 -0.57230706726E+03  0.62943053910E+03  0.46999998093E+01 0.  1.
       -5    1    3    3    0  502 -0.24552190137E+03  0.91347305698E+02  0.85817758780E+03  0.89728267369E+03  0.46999998093E+01 0. -1.
</event>
<event>
 5   0  0.3093600E-05  0.1500552E+04  0.7818609E-02  0.8884086E-01
        2   -1    0    0  501    0  0.00000000000E+00  0.00000000000E+00  0.15327484023E+04  0.15327484023E+04  0.25500000920E-02 0. -1.
       -2   -1    0    0    0  501  0.00000000000E+00  0.00000000000E+00 -0.36725782053E+03  0.36725782054E+03  0.25500000920E-02 0.  1.
    10030    2    1    2    0    0  0.00000000000E+00  0.00000000000E+00  0.11654905818E+04  0.19000062229E+04  0.15005516821E+04 0.  0.
        1    1    3    3  502    0 -0.19198409589E+03  0.21863999798E+03  0.14583995974E+04  0.14871417981E+04  0.50400001928E-02 0. -1.
       -1    1    3    3    0  502  0.19198409589E+03 -0.21863999798E+03 -0.29290901564E+03  0.41286442479E+03  0.50400001928E-02 0.  1.
</event>
<event>
 5   0  0.2969498E-05  0.1493790E+04  0.7818609E-02  0.8888593E-01
        2   -1    0    0  501    0  0.00000000000E+00  0.00000000000E+00  0.11785897703E+04  0.11785897703E+04  0.25500000920E-02 0.  1.
       -2   -1    0    0    0  501  0.00000000000E+00  0.00000000000E+00 -0.47332141738E+03  0.47332141739E+03  0.25500000920E-02 0. -1.
    10030    2    1    2    0    0  0.00000000000E+00  0.00000000000E+00  0.70526835287E+03  0.16519111876E+04  0.14937895174E+04 0.  0.
        3    1    3    3  502    0 -0.37607123866E+03  0.44782953675E+03  0.86643445800E+03  0.10453179185E+04  0.10100000352E+00 0.  1.
       -3    1    3    3    0  502  0.37607123866E+03 -0.44782953675E+03 -0.16116610512E+03  0.60659326914E+03  0.10100000352E+00 0. -1.
</event>
<event>
 5   0  0.3093600E-05  0.1499480E+04  0.7818609E-02  0.8884799E-01
        2   -1    0    0  501    0  0.00000000000E+00  0.00000000000E+00  0.13827814530E+04  0.13827814530E+04  0.25500000920E-02 0. -1.
       -2   -1    0    0    0  501  0.00000000000E+00  0.00000000000E+00 -0.40650696326E+03  0.40650696327E+03  0.25500000920E-02 0.  1.
    10030    2    1    2    0    0  0.00000000000E+00  0.00000000000E+00  0.97627448973E+03  0.17892884163E+04  0.14994802957E+04 0.  0.
        1    1    3    3  502    0 -0.35451669647E+03 -0.63174947898E+03  0.71866065853E+03  0.10204227724E+04  0.50400001928E-02 0. -1.
       -1    1    3    3    0  502  0.35451669647E+03  0.63174947898E+03  0.25761383120E+03  0.76886564387E+03  0.50400001928E-02 0.  1.
</event>
<event>
 5   0  0.2969498E-05  0.1500084E+04  0.7818609E-02  0.8884397E-01
        2   -1    0    0  501    0  0.00000000000E+00  0.00000000000E+00  0.49001571704E+03  0.49001571704E+03  0.25500000920E-02 0.  1.
       -2   -1    0    0    0  501  0.00000000000E+00  0.00000000000E+00 -0.11480506161E+04  0.11480506161E+04  0.25500000920E-02 0. -1.
    10030    2    1    2    0    0  0.00000000000E+00  0.00000000000E+00 -0.65803489903E+03  0.16380663331E+04  0.15000837921E+04 0.  0.
        3    1    3    3  502    0 -0.37107358847E+03  0.43336474180E+03  0.20265866088E+03  0.60545119583E+03  0.10100000352E+00 0.  1.
       -3    1    3    3    0  502  0.37107358847E+03 -0.43336474180E+03 -0.86069355991E+03  0.10326151373E+04  0.10100000352E+00 0. -1.
</event>
<event>
 5   0  0.3030702E-05  0.1500289E+04  0.7818609E-02  0.8884261E-01
        2   -1    0    0  501    0  0.00000000000E+00  0.00000000000E+00  0.66174192154E+03  0.66174192154E+03  0.25500000920E-02 0. -1.
       -2   -1    0    0    0  501  0.00000000000E+00  0.00000000000E+00 -0.85035696017E+03  0.85035696017E+03  0.25500000920E-02 0.  1.
    10030    2    1    2    0    0  0.00000000000E+00  0.00000000000E+00 -0.18861503863E+03  0.15120988817E+04  0.15002891039E+04 0.  0.
        5    1    3    3  502    0 -0.35531166423E+03  0.58408696464E+03 -0.40542951693E+03  0.79485793963E+03  0.46999998093E+01 0.  1.
       -5    1    3    3    0  502  0.35531166423E+03 -0.58408696464E+03  0.21681447829E+03  0.71724094208E+03  0.46999998093E+01 0. -1.
</event>
<event>
 5   0  0.1116613E-05  0.1500109E+04  0.7818609E-02  0.8884381E-01
       -4   -1    0    0    0  501  0.00000000000E+00  0.00000000000E+00  0.75906421616E+03  0.75906527858E+03  0.12699999809E+01 0.  1.
        4   -1    0    0  501    0  0.00000000000E+00  0.00000000000E+00 -0.74114938713E+03  0.74115047523E+03  0.12699999809E+01 0. -1.
    10030    2    1    2    0    0  0.00000000000E+00  0.00000000000E+00  0.17914829033E+02  0.15002157538E+04  0.15001087850E+04 0.  0.
        3    1    3    3  502    0 -0.38299675376E+02  0.19477294731E+02  0.75783345456E+03  0.75905058144E+03  0.10100000352E+00 0.  1.
       -3    1    3    3    0  502  0.38299675376E+02 -0.19477294731E+02 -0.73991862552E+03  0.74116517237E+03  0.10100000352E+00 0. -1.
</event>
<event>
 5   0  0.1588657E-05  0.1500315E+04  0.7818609E-02  0.8884243E-01
       -1   -1    0    0    0  501  0.00000000000E+00  0.00000000000E+00  0.65073509752E+03  0.65073509754E+03  0.50400001928E-02 0. -1.
        1   -1    0    0  501    0  0.00000000000E+00  0.00000000000E+00 -0.86477067040E+03  0.86477067042E+03  0.50400001928E-02 0.  1.
    10030    2    1    2    0    0  0.00000000000E+00  0.00000000000E+00 -0.21403557288E+03  0.15155057680E+04  0.15003154689E+04 0.  0.
        3    1    3    3  502    0 -0.56310361304E+03 -0.15050913046E+03  0.36998995919E+03  0.69038486185E+03  0.10100000352E+00 0. -1.
       -3    1    3    3    0  502  0.56310361304E+03  0.15050913046E+03 -0.58402553208E+03  0.82512090610E+03  0.10100000352E+00 0.  1.
</event>
<event>
 5   0  0.3093600E-05  0.1499979E+04  0.7818609E-02  0.8884467E-01
       -2   -1    0    0    0  501  0.00000000000E+00  0.00000000000E+00  0.61775864362E+03  0.61775864363E+03  0.25500000920E-02 0.  1.
        2   -1    0    0  501    0  0.00000000000E+00  0.00000000000E+00 -0.91052430548E+03  0.91052430548E+03  0.25500000920E-02 0. -1.
    10030    2    1    2    0    0  0.00000000000E+00  0.00000000000E+00 -0.29276566186E+03  0.15282829491E+04  0.14999790131E+04 0.  0.
        1    1    3    3  502    0 -0.35770042048E+03  0.22822660216E+03 -0.77647542839E+03  0.88484522018E+03  0.50400001928E-02 0. -1.
       -1    1    3    3    0  502  0.35770042048E+03 -0.22822660216E+03  0.48370976653E+03  0.64343772893E+03  0.50400001928E-02 0.  1.
</event>
<event>
 5   0  0.1588657E-05  0.1502298E+04  0.7818609E-02  0.8882926E-01
        1   -1    0    0  501    0  0.00000000000E+00  0.00000000000E+00  0.10573081395E+04  0.10573081395E+04  0.50400001928E-02 0.  1.
       -1   -1    0    0    0  501  0.00000000000E+00  0.00000000000E+00 -0.53364252560E+03  0.53364252563E+03  0.50400001928E-02 0. -1.
    10030    2    1    2    0    0  0.00000000000E+00  0.00000000000E+00  0.52366561386E+03  0.15909506651E+04  0.15022976881E+04 0.  0.
        3    1    3    3  502    0  0.46492253464E+03  0.57589738302E+03  0.12615603454E+03  0.75081696453E+03  0.10100000352E+00 0. -1.
       -3    1    3    3    0  502 -0.46492253464E+03 -0.57589738302E+03  0.39750957932E+03  0.84013370057E+03  0.10100000352E+00 0.  1.
</event>
<event>
 5   0  0.1580078E-05  0.1500950E+04  0.7818609E-02  0.8883821E-01
       -1   -1    0    0    0  501  0.00000000000E+00  0.00000000000E+00  0.39889853444E+03  0.39889853447E+03  0.50400001928E-02 0.  1.
        1   -1    0    0  501    0  0.00000000000E+00  0.00000000000E+00 -0.14119198290E+04  0.14119198290E+04  0.50400001928E-02 0. -1.
    10030    2    1    2    0    0  0.00000000000E+00  0.00000000000E+00 -0.10130212945E+04  0.18108183634E+04  0.15009500332E+04 0.  0.
        2    1    3    3  502    0  0.39338414594E+03  0.21165186676E+03  0.22103374645E+03  0.49840095913E+03  0.25500000920E-02 0.  1.
       -2    1    3    3    0  502 -0.39338414594E+03 -0.21165186676E+03 -0.12340550410E+04  0.13124174043E+04  0.25500000920E-02 0. -1.
</event>
<event>
 5   0  0.1643498E-05  0.1500987E+04  0.7818609E-02  0.8883797E-01
        1   -1    0    0  501    0  0.00000000000E+00  0.00000000000E+00  0.80372047014E+03  0.80372047016E+03  0.50400001928E-02 0. -1.
       -1   -1    0    0    0  501  0.00000000000E+00  0.00000000000E+00 -0.70079121762E+03  0.70079121764E+03  0.50400001928E-02 0.  1.
    10030    2    1    2    0    0  0.00000000000E+00  0.00000000000E+00  0.10292925252E+03  0.15045116878E+04  0.15009866714E+04 0.  0.
        4    1    3    3  502    0 -0.26137657718E+03 -0.79952073312E+02 -0.64912502894E+03  0.70432589419E+03  0.12699999809E+01 0.  1.
       -4    1    3    3    0  502  0.26137657718E+03  0.79952073312E+02  0.75205428146E+03  0.80018579361E+03  0.12699999809E+01 0. -1.
</event>
<event>
 5   0  0.3070497E-05  0.1500150E+04  0.7818609E-02  0.8884353E-01
       -2   -1    0    0    0  501  0.00000000000E+00  0.00000000000E+00  0.28937988568E+03  0.28937988570E+03  0.25500000920E-02 0.  1.
        2   -1    0    0  501    0  0.00000000000E+00  0.00000000000E+00 -0.19442007522E+04  0.19442007522E+04  0.25500000920E-02 0. -1.
    10030    2    1    2    0    0  0.00000000000E+00  0.00000000000E+00 -0.16548208665E+04  0.22335806379E+04  0.15001501144E+04 0.  0.
        4    1    3    3  502    0 -0.37042497330E+03  0.22231276385E+03  0.85536321897E+02  0.44040402028E+03  0.12699999809E+01 0.  1.
       -4    1    3    3    0  502  0.37042497330E+03 -0.22231276385E+03 -0.17403571884E+04  0.17931766176E+04  0.12699999809E+01 0. -1.
</event>
<event>
 5   0  0.1533777E-05  0.1500405E+04  0.7818609E-02  0.8884184E-01
        1   -1    0    0  501    0  0.00000000000E+00  0.00000000000E+00  0.44216732761E+03  0.44216732764E+03  0.50400001928E-02 0.  1.
       -1   -1    0    0    0  501  0.00000000000E+00  0.00000000000E+00 -0.12728301475E+04  0.12728301475E+04  0.50400001928E-02 0. -1.
    10030    2    1    2    0    0  0.00000000000E+00  0.00000000000E+00 -0.83066281985E+03  0.17149974751E+04  0.15004051517E+04 0.  0.
        5    1    3    3  502    0 -0.25853055991E+03  0.56474942582E+03  0.65556481340E+02  0.62457962392E+03  0.46999998093E+01 0.  1.
       -5    1    3    3    0  502  0.25853055991E+03 -0.56474942582E+03 -0.89621930119E+03  0.10904178512E+04  0.46999998093E+01 0. -1.
</event>
<event>
 5   0  0.1533777E-05  0.1500273E+04  0.7818609E-02  0.8884271E-01
        1   -1    0    0  501    0  0.00000000000E+00  0.00000000000E+00  0.14768380829E+04  0.14768380829E+04  0.50400001928E-02 0. -1.
       -1   -1    0    0    0  501  0.00000000000E+00  0.00000000000E+00 -0.38102017378E+03  0.38102017382E+03  0.50400001928E-02 0.  1.
    10030    2    1    2    0    0  0.00000000000E+00  0.00000000000E+00  0.10958179091E+04  0.18578582567E+04  0.15002734458E+04 0.  0.
        5    1    3    3  502    0 -0.21577578823E+03  0.14812586198E+01  0.14375569073E+04  0.14536689226E+04  0.46999998093E+01 0. -1.
       -5    1    3    3    0  502  0.21577578823E+03 -0.14812586198E+01 -0.34173899818E+03  0.40418933409E+03  0.46999998093E+01 0.  1.
</event>
<event>
 5   0  0.1533777E-05  0.1500023E+04  0.7818609E-02  0.8884437E-01
        1   -1    0    0  501    0  0.00000000000E+00  0.00000000000E+00  0.43843899451E+03  0.43843899454E+03  0.50400001928E-02 0. -1.
       -1   -1    0    0    0  501  0.00000000000E+00  0.00000000000E+00 -0.12830004110E+04  0.12830004110E+04  0.50400001928E-02 0.  1.
    10030    2    1    2    0    0  0.00000000000E+00  0.00000000000E+00 -0.84456141649E+03  0.17214394056E+04  0.15000232134E+04 0.  0.
        5    1    3    3  502    0  0.55745770486E+03  0.38946971346E+03 -0.59285098104E+02  0.68262915501E+03  0.46999998093E+01 0. -1.
       -5    1    3    3    0  502 -0.55745770486E+03 -0.38946971346E+03 -0.78527631839E+03  0.10388102505E+04  0.46999998093E+01 0.  1.
</event>
<event>
 5   0  0.3030702E-05  0.1499263E+04  0.7818609E-02  0.8884943E-01
        2   -1    0    0  501    0  0.00000000000E+00  0.00000000000E+00  0.20575292063E+04  0.20575292063E+04  0.25500000920E-02 0. -1.
       -2   -1    0    0    0  501  0.00000000000E+00  0.00000000000E+00 -0.27311756648E+03  0.27311756650E+03  0.25500000920E-02 0.  1.
    10030    2    1    2    0    0  0.00000000000E+00  0.00000000000E+00  0.17844116398E+04  0.23306467728E+04  0.14992629787E+04 0.  0.
        5    1    3    3  502    0 -0.58699298126E+03 -0.92003052054E+02  0.16027119304E+04  0.17093077381E+04  0.46999998093E+01 0. -1.
       -5    1    3    3    0  502  0.58699298126E+03  0.92003052054E+02  0.18169970940E+03  0.62133903469E+03  0.46999998093E+01 0.  1.
</event>
<event>
 5   0  0.3093600E-05  0.1499848E+04  0.7818609E-02  0.8884554E-01
        2   -1    0    0  501    0  0.00000000000E+00  0.00000000000E+00  0.91010540008E+03  0.91010540009E+03  0.25500000920E-02 0. -1.
       -2   -1    0    0    0  501  0.00000000000E+00  0.00000000000E+00 -0.61793480343E+03  0.61793480343E+03  0.25500000920E-02 0.  1.
    10030    2    1    2    0    0  0.00000000000E+00  0.00000000000E+00  0.29217059666E+03  0.15280402035E+04  0.14998477276E+04 0.  0.
        1    1    3    3  502    0  0.22738988017E+03 -0.20045033318E+03 -0.55273756588E+03  0.63040091247E+03  0.50400001928E-02 0.  1.
       -1    1    3    3    0  502 -0.22738988017E+03  0.20045033318E+03  0.84490816254E+03  0.89763929105E+03  0.50400001928E-02 0. -1.
</event>
<event>
 5   0  0.1580078E-05  0.1504135E+04  0.7818609E-02  0.8881708E-01
       -1   -1    0    0    0  501  0.00000000000E+00  0.00000000000E+00  0.13494993451E+04  0.13494993451E+04  0.50400001928E-02 0. -1.
        1   -1    0    0  501    0  0.00000000000E+00  0.00000000000E+00 -0.41912252778E+03  0.41912252781E+03  0.50400001928E-02 0.  1.
    10030    2    1    2    0    0  0.00000000000E+00  0.00000000000E+00  0.93037681733E+03  0.17686218729E+04  0.15041350694E+04 0.  0.
        2    1    3    3  502    0  0.86314668223E+02  0.65797990064E+03  0.49104233942E+02  0.66543143703E+03  0.25500000920E-02 0.  1.
       -2    1    3    3    0  502 -0.86314668223E+02 -0.65797990064E+03  0.88127258339E+03  0.11031904359E+04  0.25500000920E-02 0. -1.
</event>
<event>
 5   0  0.1116613E-05  0.1500426E+04  0.7818609E-02  0.8884170E-01
       -4   -1    0    0    0  501  0.00000000000E+00  0.00000000000E+00  0.23092699460E+04  0.23092702952E+04  0.12699999809E+01 0. -1.
        4   -1    0    0  501    0  0.00000000000E+00  0.00000000000E+00 -0.24371982479E+03  0.24372313369E+03  0.12699999809E+01 0.  1.
    10030    2    1    2    0    0  0.00000000000E+00  0.00000000000E+00  0.20655501212E+04  0.25529934289E+04  0.15004259878E+04 0.  0.
        3    1    3    3  502    0  0.19955398396E+03 -0.72285167608E+03  0.99537320587E+03  0.12462359998E+04  0.10100000352E+00 0. -1.
       -3    1    3    3    0  502 -0.19955398396E+03  0.72285167608E+03  0.10701769154E+04  0.13067574291E+04  0.10100000352E+00 0.  1.
</event>
<event>
 5   0  0.3093600E-05  0.1500898E+04  0.7818609E-02  0.8883856E-01
       -2   -1    0    0    0  501  0.00000000000E+00  0.00000000000E+00  0.60050374760E+03  0.60050374761E+03  0.25500000920E-02 0. -1.
        2   -1    0    0  501    0  0.00000000000E+00  0.00000000000E+00 -0.93783538218E+03  0.93783538219E+03  0.25500000920E-02 0.  1.
    10030    2    1    2    0    0  0.00000000000E+00  0.00000000000E+00 -0.33733163458E+03  0.15383391298E+04  0.15008979468E+04 0.  0.
        1    1    3    3  502    0 -0.36019526394E+03 -0.28048967021E+03  0.44180847000E+03  0.63530292574E+03  0.50400001928E-02 0. -1.
       -1    1    3    3    0  502  0.36019526394E+03  0.28048967021E+03 -0.77914010458E+03  0.90303620406E+03  0.50400001928E-02 0.  1.
</event>
<event>
 5   0  0.1116613E-05  0.1499878E+04  0.7818609E-02  0.8884534E-01
        3   -1    0    0  501    0  0.00000000000E+00  0.00000000000E+00  0.11094803938E+04  0.11094803984E+04  0.10100000352E+00 0. -1.
       -3   -1    0    0    0  501  0.00000000000E+00  0.00000000000E+00 -0.50691167644E+03  0.50691168650E+03  0.10100000352E+00 0.  1.
    10030    2    1    2    0    0  0.00000000000E+00  0.00000000000E+00  0.60256871738E+03  0.16163920849E+04  0.14998780994E+04 0.  0.
        3    1    3    3  502    0  0.71745455296E+03 -0.14569143243E+03  0.12604400705E+03  0.74286885179E+03  0.10100000352E+00 0. -1.
       -3    1    3    3    0  502 -0.71745455296E+03  0.14569143243E+03  0.47652471033E+03  0.87352323312E+03  0.10100000352E+00 0.  1.
</event>
<event>
 5   0  0.3093600E-05  0.1500584E+04  0.7818609E-02  0.8884065E-01
       -2   -1    0    0    0  501  0.00000000000E+00  0.00000000000E+00  0.12937736936E+04  0.12937736936E+04  0.25500000920E-02 0. -1.
        2   -1    0    0  501    0  0.00000000000E+00  0.00000000000E+00 -0.43511338479E+03  0.43511338480E+03  0.25500000920E-02 0.  1.
    10030    2    1    2    0    0  0.00000000000E+00  0.00000000000E+00  0.85866030885E+03  0.17288870784E+04  0.15005842209E+04 0.  0.
        1    1    3    3  502    0  0.54598593126E+03  0.51459421430E+03  0.42297679516E+03  0.86128811195E+03  0.50400001928E-02 0. -1.
       -1    1    3    3    0  502 -0.54598593126E+03 -0.51459421430E+03  0.43568351369E+03  0.86759896649E+03  0.50400001928E-02 0.  1.
</event>
<event>
 5   0  0.2969498E-05  0.1500186E+04  0.7818609E-02  0.8884329E-01
       -2   -1    0    0    0  501  0.00000000000E+00  0.00000000000E+00  0.14739938873E+04  0.14739938873E+04  0.25500000920E-02 0. -1.
        2   -1    0    0  501    0  0.00000000000E+00  0.00000000000E+00 -0.38171107223E+03  0.38171107224E+03  0.25500000920E-02 0.  1.
    10030    2    1    2    0    0  0.00000000000E+00  0.00000000000E+00  0.10922828151E+04  0.18557049596E+04  0.15001863713E+04 0.  0.
        3    1    3    3  502    0  0.24465276390E+03  0.92453012788E+02 -0.32348245172E+03  0.41598490505E+03  0.10100000352E+00 0.  1.
       -3    1    3    3    0  502 -0.24465276390E+03 -0.92453012788E+02  0.14157652668E+04  0.14397200545E+04  0.10100000352E+00 0. -1.
</event>
<event>
 5   0  0.1643498E-05  0.1499514E+04  0.7818609E-02  0.8884776E-01
       -1   -1    0    0    0  501  0.00000000000E+00  0.00000000000E+00  0.36295512416E+03  0.36295512420E+03  0.50400001928E-02 0.  1.
        1   -1    0    0  501    0  0.00000000000E+00  0.00000000000E+00 -0.15487752231E+04  0.15487752231E+04  0.50400001928E-02 0. -1.
    10030    2    1    2    0    0  0.00000000000E+00  0.00000000000E+00 -0.11858200989E+04  0.19117303473E+04  0.14995144593E+04 0.  0.
        4    1    3    3  502    0  0.24556183592E+02  0.42347810485E+03  0.19526002675E+03  0.46697409177E+03  0.12699999809E+01 0.  1.
       -4    1    3    3    0  502 -0.24556183592E+02 -0.42347810485E+03 -0.13810801257E+04  0.14447562555E+04  0.12699999809E+01 0. -1.
</event>
<event>
 5   0  0.1643498E-05  0.1500582E+04  0.7818609E-02  0.8884066E-01
       -1   -1    0    0    0  501  0.00000000000E+00  0.00000000000E+00  0.47745638921E+03  0.47745638924E+03  0.50400001928E-02 0. -1.
        1   -1    0    0  501    0  0.00000000000E+00  0.00000000000E+00 -0.11790329552E+04  0.11790329552E+04  0.50400001928E-02 0.  1.
    10030    2    1    2    0    0  0.00000000000E+00  0.00000000000E+00 -0.70157656602E+03  0.16564893445E+04  0.15005823104E+04 0.  0.
        4    1    3    3  502    0 -0.27605136551E+03 -0.80687328984E+02 -0.11157666048E+04  0.11522376191E+04  0.12699999809E+01 0.  1.
       -4    1    3    3    0  502  0.27605136551E+03  0.80687328984E+02  0.41419003879E+03  0.50425172543E+03  0.12699999809E+01 0. -1.
</event>
<event>
 5   0  0.1576214E-05  0.1498897E+04  0.7818609E-02  0.8885187E-01
       -1   -1    0    0    0  501  0.00000000000E+00  0.00000000000E+00  0.51691833319E+03  0.51691833322E+03  0.50400001928E-02 0. -1.
        1   -1    0    0  501    0  0.00000000000E+00  0.00000000000E+00 -0.10865803701E+04  0.10865803701E+04  0.50400001928E-02 0.  1.
    10030    2    1    2    0    0  0.00000000000E+00  0.00000000000E+00 -0.56966203691E+03  0.16034987033E+04  0.14988973465E+04 0.  0.
        1    1    3    3  502    0  0.33425890412E+02 -0.28543947417E+03 -0.10252898075E+04  0.10648061668E+04  0.50400001928E-02 0.  1.
       -1    1    3    3    0  502 -0.33425890412E+02  0.28543947417E+03  0.45562777056E+03  0.53869253651E+03  0.50400001928E-02 0. -1.
</event>
<event>
 5   0  0.3030702E-05  0.1499819E+04  0.7818609E-02  0.8884574E-01
        2   -1    0    0  501    0  0.00000000000E+00  0.00000000000E+00  0.20204259741E+04  0.20204259741E+04  0.25500000920E-02 0.  1.
       -2   -1    0    0    0  501  0.00000000000E+00  0.00000000000E+00 -0.27833930506E+03  0.27833930507E+03  0.25500000920E-02 0. -1.
    10030    2    1    2    0    0  0.00000000000E+00  0.00000000000E+00  0.17420866690E+04  0.22987652791E+04  0.14998186044E+04 0.  0.
        5    1    3    3  502    0  0.72533458844E+03  0.16602079445E+03  0.72834039020E+03  0.10412372368E+04  0.46999998093E+01 0.  1.
       -5    1    3    3    0  502 -0.72533458844E+03 -0.16602079445E+03  0.10137462788E+04  0.12575280423E+04  0.46999998093E+01 0. -1.
</event>
<event>
 5   0  0.1576214E-05  0.1500091E+04  0.7818609E-02  0.8884392E-01
        1   -1    0    0  501    0  0.00000000000E+00  0.00000000000E+00  0.15930195268E+04  0.15930195268E+04  0.50400001928E-02 0. -1.
       -1   -1    0    0    0  501  0.00000000000E+00  0.00000000000E+00 -0.35314593100E+03  0.35314593103E+03  0.50400001928E-02 0.  1.
    10030    2    1    2    0    0  0.00000000000E+00  0.00000000000E+00  0.12398735958E+04  0.19461654578E+04  0.15000911491E+04 0.  0.
        1    1    3    3  502    0  0.71382088432E+03 -0.22263171102E+03  0.54358789610E+03  0.92444195840E+03  0.50400001928E-02 0.  1.
       -1    1    3    3    0  502 -0.71382088432E+03  0.22263171102E+03  0.69628569966E+03  0.10217234994E+04  0.50400001928E-02 0. -1.
</event>
<event>
 5   0  0.1116613E-05  0.1497661E+04  0.7818609E-02  0.8886010E-01
        3   -1    0    0  501    0  0.00000000000E+00  0.00000000000E+00  0.32399648913E+03  0.32399650487E+03  0.10100000352E+00 0.  1.
       -3   -1    0    0    0  501  0.00000000000E+00  0.00000000000E+00 -0.17307200345E+04  0.17307200375E+04  0.10100000352E+00 0. -1.
    10030    2    1    2    0    0  0.00000000000E+00  0.00000000000E+00 -0.14067235454E+04  0.20547165423E+04  0.14976611553E+04 0.  0.
        5    1    3    3  502    0 -0.33507353824E+03 -0.51654348811E+03 -0.12880664368E+04  0.14276654674E+04  0.46999998093E+01 0. -1.
       -5    1    3    3    0  502  0.33507353824E+03  0.51654348811E+03 -0.11865710855E+03  0.62705107491E+03  0.46999998093E+01 0.  1.
</event>
<event>
 5   0  0.3030702E-05  0.1501098E+04  0.7818609E-02  0.8883723E-01
       -2   -1    0    0    0  501  0.00000000000E+00  0.00000000000E+00  0.10735007285E+04  0.10735007285E+04  0.25500000920E-02 0.  1.
        2   -1    0    0  501    0  0.00000000000E+00  0.00000000000E+00 -0.52475408225E+03  0.52475408226E+03  0.25500000920E-02 0. -1.
    10030    2    1    2    0    0  0.00000000000E+00  0.00000000000E+00  0.54874664629E+03  0.15982548108E+04  0.15010981175E+04 0.  0.
        5    1    3    3  502    0 -0.15166834100E+03 -0.84955111835E+02  0.10517537473E+04  0.10660340950E+04  0.46999998093E+01 0.  1.
       -5    1    3    3    0  502  0.15166834100E+03  0.84955111835E+02 -0.50300710101E+03  0.53222071582E+03  0.46999998093E+01 0. -1.
</event>
<event>
 5   0  0.3093600E-05  0.1498906E+04  0.7818609E-02  0.8885181E-01
       -2   -1    0    0    0  501  0.00000000000E+00  0.00000000000E+00  0.15031986697E+04  0.15031986697E+04  0.25500000920E-02 0.  1.
        2   -1    0    0  501    0  0.00000000000E+00  0.00000000000E+00 -0.37365629352E+03  0.37365629353E+03  0.25500000920E-02 0. -1.
    10030    2    1    2    0    0  0.00000000000E+00  0.00000000000E+00  0.11295423762E+04  0.18768549632E+04  0.14989057920E+04 0.  0.
        1    1    3    3  502    0  0.66498612900E+03 -0.60308844120E+02  0.13860594254E+03  0.68194964314E+03  0.50400001928E-02 0. -1.
       -1    1    3    3    0  502 -0.66498612900E+03  0.60308844120E+02  0.99093643364E+03  0.11949053201E+04  0.50400001928E-02 0.  1.
</event>
<event>
 5   0  0.3070497E-05  0.1508972E+04  0.7818609E-02  0.8878508E-01
       -2   -1    0    0    0  501  0.00000000000E+00  0.00000000000E+00  0.78528552029E+03  0.78528552029E+03  0.25500000920E-02 0. -1.
        2   -1    0    0  501    0  0.00000000000E+00  0.00000000000E+00 -0.72489466861E+03  0.72489466862E+03  0.25500000920E-02 0.  1.
    10030    2    1    2    0    0  0.00000000000E+00  0.00000000000E+00  0.60390851671E+02  0.15101801889E+04  0.15089722158E+04 0.  0.
        4    1    3    3  502    0 -0.22147344831E+03 -0.68626444765E+03 -0.19187924273E+03  0.74620951287E+03  0.12699999809E+01 0.  1.
       -4    1    3    3    0  502  0.22147344831E+03  0.68626444765E+03  0.25227009440E+03  0.76397067604E+03  0.12699999809E+01 0. -1.
</event>
<event>
 5   0  0.3030702E-05  0.1500100E+04  0.7818609E-02  0.8884386E-01
        2   -1    0    0  501    0  0.00000000000E+00  0.00000000000E+00  0.12543418837E+04  0.12543418837E+04  0.25500000920E-02 0. -1.
       -2   -1    0    0    0  501  0.00000000000E+00  0.00000000000E+00 -0.44850232300E+03  0.44850232300E+03  0.25500000920E-02 0.  1.
    10030    2    1    2    0    0  0.00000000000E+00  0.00000000000E+00  0.80583956068E+03  0.17028442067E+04  0.15001003282E+04 0.  0.
        5    1    3    3  502    0  0.37451605959E+03  0.63692636811E+03  0.25659641270E+03  0.78217727293E+03  0.46999998093E+01 0. -1.
       -5    1    3    3    0  502 -0.37451605959E+03 -0.63692636811E+03  0.54924314798E+03  0.92066693375E+03  0.46999998093E+01 0.  1.
</event>
<event>
 5   0  0.1643498E-05  0.1499741E+04  0.7818609E-02  0.8884625E-01
        1   -1    0    0  501    0  0.00000000000E+00  0.00000000000E+00  0.68369824246E+03  0.68369824247E+03  0.50400001928E-02 0.  1.
       -1   -1    0    0    0  501  0.00000000000E+00  0.00000000000E+00 -0.82244716126E+03  0.82244716127E+03  0.50400001928E-02 0. -1.
    10030    2    1    2    0    0  0.00000000000E+00  0.00000000000E+00 -0.13874891880E+03  0.15061454037E+04  0.14997408825E+04 0.  0.
        4    1    3    3  502    0 -0.60670331751E+03 -0.16815672434E+03 -0.47846949225E+03  0.79075929797E+03  0.12699999809E+01 0. -1.
       -4    1    3    3    0  502  0.60670331751E+03  0.16815672434E+03  0.33972057345E+03  0.71538610578E+03  0.12699999809E+01 0.  1.
</event>
<event>
 5   0  0.3093600E-05  0.1499552E+04  0.7818609E-02  0.8884751E-01
       -2   -1    0    0    0  501  0.00000000000E+00  0.00000000000E+00  0.46905445984E+03  0.46905445985E+03  0.25500000920E-02 0.  1.
        2   -1    0    0  501    0  0.00000000000E+00  0.00000000000E+00 -0.11985054833E+04  0.11985054833E+04  0.25500000920E-02 0. -1.
    10030    2    1    2    0    0  0.00000000000E+00  0.00000000000E+00 -0.72945102341E+03  0.16675599431E+04  0.14995523893E+04 0.  0.
        1    1    3    3  502    0  0.33159412070E+03 -0.65821081455E+03 -0.21156989588E+03  0.76678416659E+03  0.50400001928E-02 0.  1.
       -1    1    3    3    0  502 -0.33159412070E+03  0.65821081455E+03 -0.51788112753E+03  0.90077577651E+03  0.50400001928E-02 0. -1.
</event>
<event>
 5   0  0.1643498E-05  0.1496468E+04  0.7818609E-02  0.8886805E-01
       -1   -1    0    0    0  501  0.00000000000E+00  0.00000000000E+00  0.25161550566E+03  0.25161550571E+03  0.50400001928E-02 0. -1.
        1   -1    0    0  501    0  0.00000000000E+00  0.00000000000E+00 -0.22250371936E+04  0.22250371936E+04  0.50400001928E-02 0.  1.
    10030    2    1    2    0    0  0.00000000000E+00  0.00000000000E+00 -0.19734216880E+04  0.24766526993E+04  0.14964676524E+04 0.  0.
        4    1    3    3  502    0 -0.31390595999E+03  0.19976661897E+03 -0.20610699503E+04  0.20943864511E+04  0.12699999809E+01 0.  1.
       -4    1    3    3    0  502  0.31390595999E+03 -0.19976661897E+03  0.87648262289E+02  0.38226624826E+03  0.12699999809E+01 0. -1.
</event>
<event>
 5   0  0.1580078E-05  0.1499963E+04  0.7818609E-02  0.8884478E-01
        1   -1    0    0  501    0  0.00000000000E+00  0.00000000000E+00  0.75994286638E+03  0.75994286639E+03  0.50400001928E-02 0.  1.
       -1   -1    0    0    0  501  0.00000000000E+00  0.00000000000E+00 -0.74015069152E+03  0.74015069154E+03  0.50400001928E-02 0. -1.
    10030    2    1    2    0    0  0.00000000000E+00  0.00000000000E+00  0.19792174855E+02  0.15000935579E+04  0.14999629837E+04 0.  0.
        2    1    3    3  502    0  0.80635797261E+02  0.22360762121E+03 -0.70148133200E+03  0.74066089353E+03  0.25500000920E-02 0. -1.
       -2    1    3    3    0  502 -0.80635797261E+02 -0.22360762121E+03  0.72127350685E+03  0.75943266440E+03  0.25500000920E-02 0.  1.
</event>
<event>
 5   0  0.1580078E-05  0.1499997E+04  0.7818609E-02  0.8884455E-01
        1   -1    0    0  501    0  0.00000000000E+00  0.00000000000E+00  0.54051066218E+03  0.54051066220E+03  0.50400001928E-02 0.  1.
       -1   -1    0    0    0  501  0.00000000000E+00  0.00000000000E+00 -0.10406785044E+04  0.10406785044E+04  0.50400001928E-02 0. -1.
    10030    2    1    2    0    0  0.00000000000E+00  0.00000000000E+00 -0.50016784218E+03  0.15811891666E+04  0.14999971034E+04 0.  0.
        2    1    3    3  502    0 -0.21530949835E+03  0.12565358874E+03 -0.99572653290E+03  0.10264591238E+04  0.25500000920E-02 0. -1.
       -2    1    3    3    0  502  0.21530949835E+03 -0.12565358874E+03  0.49555869072E+03  0.55473004281E+03  0.25500000920E-02 0.  1.
</event>
<event>
 5   0  0.1576214E-05  0.1501486E+04  0.7818609E-02  0.8883465E-01
       -1   -1    0    0    0  501  0.00000000000E+00  0.00000000000E+00  0.87295323422E+03  0.87295323424E+03  0.50400001928E-02 0. -1.
        1   -1    0    0  501    0  0.00000000000E+00  0.00000000000E+00 -0.64564158673E+03  0.64564158675E+03  0.50400001928E-02 0.  1.
    10030    2    1    2    0    0  0.00000000000E+00  0.00000000000E+00  0.22731164749E+03  0.15185948210E+04  0.15014858125E+04 0.  0.
        1    1    3    3  502    0  0.32857744816E+03 -0.30462266995E+03  0.72289569138E+03  0.85049179369E+03  0.50400001928E-02 0. -1.
       -1    1    3    3    0  502 -0.32857744816E+03  0.30462266995E+03 -0.49558404389E+03  0.66810302729E+03  0.50400001928E-02 0.  1.
</event>
<event>
 5   0  0.1643498E-05  0.1498703E+04  0.7818609E-02  0.8885316E-01
        1   -1    0    0  501    0  0.00000000000E+00  0.00000000000E+00  0.94619980911E+03  0.94619980912E+03  0.50400001928E-02 0. -1.
       -1   -1    0    0    0  501  0.00000000000E+00  0.00000000000E+00 -0.59345556892E+03  0.59345556894E+03  0.50400001928E-02 0.  1.
    10030    2    1    2    0    0  0.00000000000E+00  0.00000000000E+00  0.35274424019E+03  0.15396553781E+04  0.14987028339E+04 0.  0.
        4    1    3    3  502    0  0.38794680326E+03 -0.20049840128E+02 -0.48193520355E+03  0.61900555052E+03  0.12699999809E+01 0.  1.
       -4    1    3    3    0  502 -0.38794680326E+03  0.20049840128E+02  0.83467944374E+03  0.92064982754E+03  0.12699999809E+01 0. -1.
</event>
<event>
 5   0  0.3070497E-05  0.1499193E+04  0.7818609E-02  0.8884990E-01
       -2   -1    0    0    0  501  0.00000000000E+00  0.00000000000E+00  0.52796292306E+03  0.52796292306E+03  0.25500000920E-02 0. -1.
        2   -1    0    0  501    0  0.00000000000E+00  0.00000000000E+00 -0.10642690467E+04  0.10642690468E+04  0.25500000920E-02 0.  1.
    10030    2    1    2    0    0  0.00000000000E+00  0.00000000000E+00 -0.53630612369E+03  0.15922319698E+04  0.14991925785E+04 0.  0.
        4    1    3    3  502    0  0.16179606910E+03  0.64578396731E+03 -0.63402927741E+03  0.91935283647E+03  0.12699999809E+01 0.  1.
       -4    1    3    3    0  502 -0.16179606910E+03 -0.64578396731E+03  0.97723153720E+02  0.67287913334E+03  0.12699999809E+01 0. -1.
</event>
<event>
 5   0  0.3070497E-05  0.1499703E+04  0.7818609E-02  0.8884651E-01
       -2   -1    0    0    0  501  0.00000000000E+00  0.00000000000E+00  0.24582695607E+03  0.24582695609E+03  0.25500000920E-02 0.  1.
        2   -1    0    0  501    0  0.00000000000E+00  0.00000000000E+00 -0.22872876702E+04  0.22872876702E+04  0.25500000920E-02 0. -1.
    10030    2    1    2    0    0  0.00000000000E+00  0.00000000000E+00 -0.20414607142E+04  0.25331146263E+04  0.14997025914E+04 0.  0.
        4    1    3    3  502    0 -0.62116177747E+02 -0.55668491441E+03 -0.18627638354E+04  0.19451599505E+04  0.12699999809E+01 0. -1.
       -4    1    3    3    0  502  0.62116177747E+02  0.55668491441E+03 -0.17869687872E+03  0.58795467583E+03  0.12699999809E+01 0.  1.
</event>
<event>
 5   0  0.1533777E-05  0.1500349E+04  0.7818609E-02  0.8884221E-01
       -1   -1    0    0    0  501  0.00000000000E+00  0.00000000000E+00  0.41484836360E+03  0.41484836363E+03  0.50400001928E-02 0.  1.
        1   -1    0    0  501    0  0.00000000000E+00  0.00000000000E+00 -0.13565488511E+04  0.13565488511E+04  0.50400001928E-02 0. -1.
    10030    2    1    2    0    0  0.00000000000E+00  0.00000000000E+00 -0.94170048746E+03  0.17713972147E+04  0.15003493874E+04 0.  0.
        5    1    3    3  502    0 -0.26867201678E+02  0.23801231275E+03  0.36846969281E+03  0.43950393863E+03  0.46999998093E+01 0.  1.
       -5    1    3    3    0  502  0.26867201678E+02 -0.23801231275E+03 -0.13101701803E+04  0.13318932761E+04  0.46999998093E+01 0. -1.
</event>
<event>
 5   0  0.3018308E-05  0.1499717E+04  0.7818609E-02  0.8884641E-01
       -2   -1    0    0    0  501  0.00000000000E+00  0.00000000000E+00  0.31095047233E+03  0.31095047234E+03  0.25500000920E-02 0.  1.
        2   -1    0    0  501    0  0.00000000000E+00  0.00000000000E+00 -0.18082862360E+04  0.18082862360E+04  0.25500000920E-02 0. -1.
    10030    2    1    2    0    0  0.00000000000E+00  0.00000000000E+00 -0.14973357636E+04  0.21192367083E+04  0.14997165855E+04 0.  0.
        2    1    3    3  502    0 -0.48910725712E+01 -0.11313350493E+03 -0.17961341165E+04  0.17997002186E+04  0.25500000920E-02 0. -1.
       -2    1    3    3    0  502  0.48910725712E+01  0.11313350493E+03  0.29879835288E+03  0.31953648965E+03  0.25500000920E-02 0.  1.
</event>
<event>
 5   0  0.1533777E-05  0.1499993E+04  0.7818609E-02  0.8884457E-01
       -1   -1    0    0    0  501  0.00000000000E+00  0.00000000000E+00  0.90261802589E+03  0.90261802590E+03  0.50400001928E-02 0. -1.
        1   -1    0    0  501    0  0.00000000000E+00  0.00000000000E+00 -0.62318150042E+03  0.62318150044E+03  0.50400001928E-02 0.  1.
    10030    2    1    2    0    0  0.00000000000E+00  0.00000000000E+00  0.27943652547E+03  0.15257995263E+04  0.14999931409E+04 0.  0.
        5    1    3    3  502    0  0.37354986095E+03  0.44550240349E+03 -0.34220570848E+03  0.67463970165E+03  0.46999998093E+01 0.  1.
       -5    1    3    3    0  502 -0.37354986095E+03 -0.44550240349E+03  0.62164223395E+03  0.85115982469E+03  0.46999998093E+01 0. -1.
</event>
<event>
 5   0  0.3093600E-05  0.1499183E+04  0.7818609E-02  0.8884996E-01
       -2   -1    0    0    0  501  0.00000000000E+00  0.00000000000E+00  0.28463480788E+03  0.28463480789E+03  0.25500000920E-02 0. -1.
        2   -1    0    0  501    0  0.00000000000E+00  0.00000000000E+00 -0.19740652061E+04  0.19740652061E+04  0.25500000920E-02 0.  1.
    10030    2    1    2    0    0  0.00000000000E+00  0.00000000000E+00 -0.16894303982E+04  0.22587000140E+04  0.14991833386E+04 0.  0.
        1    1    3    3  502    0 -0.16014126441E+03  0.20674902546E+03 -0.19031063306E+04  0.19209903929E+04  0.50400001928E-02 0.  1.
       -1    1    3    3    0  502  0.16014126441E+03 -0.20674902546E+03  0.21367593234E+03  0.33770962110E+03  0.50400001928E-02 0. -1.
</event>
<event>
 5   0  0.3070497E-05  0.1507754E+04  0.7818609E-02  0.8879313E-01
       -2   -1    0    0    0  501  0.00000000000E+00  0.00000000000E+00  0.22493005924E+03  0.22493005926E+03  0.25500000920E-02 0.  1.
        2   -1    0    0  501    0  0.00000000000E+00  0.00000000000E+00 -0.25266982180E+04  0.25266982180E+04  0.25500000920E-02 0. -1.
    10030    2    1    2    0    0  0.00000000000E+00  0.00000000000E+00 -0.23017681587E+04  0.27516282772E+04  0.15077537994E+04 0.  0.
        4    1    3    3  502    0  0.18583098999E+03  0.19434681405E+02 -0.24837704475E+04  0.24907886527E+04  0.12699999809E+01 0. -1.
       -4    1    3    3    0  502 -0.18583098999E+03 -0.19434681405E+02  0.18200228880E+03  0.26083962450E+03  0.12699999809E+01 0.  1.
</event>
<event>
 5   0  0.1533777E-05  0.1499864E+04  0.7818609E-02  0.8884544E-01
       -1   -1    0    0    0  501  0.00000000000E+00  0.00000000000E+00  0.52184104680E+03  0.52184104683E+03  0.50400001928E-02 0. -1.
        1   -1    0    0  501    0  0.00000000000E+00  0.00000000000E+00 -0.10777186439E+04  0.10777186439E+04  0.50400001928E-02 0.  1.
    10030    2    1    2    0    0  0.00000000000E+00  0.00000000000E+00 -0.55587759709E+03  0.15995596907E+04  0.14998637609E+04 0.  0.
        5    1    3    3  502    0 -0.58596126774E+03 -0.10560142957E+03  0.20829838601E+03  0.63080312050E+03  0.46999998093E+01 0. -1.
       -5    1    3    3    0  502  0.58596126774E+03  0.10560142957E+03 -0.76417598311E+03  0.96875657023E+03  0.46999998093E+01 0.  1.
</event>
<event>
 5   0  0.3070497E-05  0.1500365E+04  0.7818609E-02  0.8884210E-01
       -2   -1    0    0    0  501  0.00000000000E+00  0.00000000000E+00  0.44158584032E+03  0.44158584033E+03  0.25500000920E-02 0.  1.
        2   -1    0    0  501    0  0.00000000000E+00  0.00000000000E+00 -0.12744381325E+04  0.12744381325E+04  0.25500000920E-02 0. -1.
    10030    2    1    2    0    0  0.00000000000E+00  0.00000000000E+00 -0.83285229221E+03  0.17160239729E+04  0.15003650672E+04 0.  0.
        4    1    3    3  502    0  0.83642197054E+02 -0.56152978154E+03 -0.97727816419E+03  0.11302149954E+04  0.12699999809E+01 0. -1.
       -4    1    3    3    0  502 -0.83642197054E+02  0.56152978154E+03  0.14442587199E+03  0.58580897747E+03  0.12699999809E+01 0.  1.
</event>
<event>
 5   0  0.3030702E-05  0.1502796E+04  0.7818609E-02  0.8882596E-01
        2   -1    0    0  501    0  0.00000000000E+00  0.00000000000E+00  0.11875421652E+04  0.11875421652E+04  0.25500000920E-02 0.  1.
       -2   -1    0    0    0  501  0.00000000000E+00  0.00000000000E+00 -0.47543457159E+03  0.47543457159E+03  0.25500000920E-02 0. -1.
    10030    2    1    2    0    0  0.00000000000E+00  0.00000000000E+00  0.71210759358E+03  0.16629767368E+04  0.15027955291E+04 0.  0.
        5    1    3    3  502    0  0.54433455396E+03  0.48987194919E+03  0.54221702511E+03  0.91120580856E+03  0.46999998093E+01 0.  1.
       -5    1    3    3    0  502 -0.54433455396E+03 -0.48987194919E+03  0.16989056847E+03  0.75177092820E+03  0.46999998093E+01 0. -1.
</event>
<event>
 5   0  0.3093600E-05  0.1500293E+04  0.7818609E-02  0.8884258E-01
       -2   -1    0    0    0  501  0.00000000000E+00  0.00000000000E+00  0.68497764284E+03  0.68497764284E+03  0.25500000920E-02 0. -1.
        2   -1    0    0  501    0  0.00000000000E+00  0.00000000000E+00 -0.82151581087E+03  0.82151581087E+03  0.25500000920E-02 0.  1.
    10030    2    1    2    0    0  0.00000000000E+00  0.00000000000E+00 -0.13653816803E+03  0.15064934537E+04  0.15002932563E+04 0.  0.
        1    1    3    3  502    0  0.57355897558E+03  0.22489721182E+03  0.36148480610E+03  0.71429680064E+03  0.50400001928E-02 0.  1.
       -1    1    3    3    0  502 -0.57355897558E+03 -0.22489721182E+03 -0.49802297413E+03  0.79219665307E+03  0.50400001928E-02 0. -1.
</event>
<event>
 5   0  0.1643498E-05  0.1500186E+04  0.7818609E-02  0.8884330E-01
       -1   -1    0    0    0  501  0.00000000000E+00  0.00000000000E+00  0.11240940206E+04  0.11240940206E+04  0.50400001928E-02 0.  1.
        1   -1    0    0  501    0  0.00000000000E+00  0.00000000000E+00 -0.50052677548E+03  0.50052677550E+03  0.50400001928E-02 0. -1.
    10030    2    1    2    0    0  0.00000000000E+00  0.00000000000E+00  0.62356724508E+03  0.16246207961E+04  0.15001855292E+04 0.  0.
        4    1    3    3  502    0  0.26400523572E+03  0.31900933926E+03 -0.36553156867E+03  0.55234107544E+03  0.12699999809E+01 0. -1.
       -4    1    3    3    0  502 -0.26400523572E+03 -0.31900933926E+03  0.98909881375E+03  0.10722797206E+04  0.12699999809E+01 0.  1.
</event>
<event>
 5   0  0.3093600E-05  0.1499943E+04  0.7818609E-02  0.8884491E-01
        2   -1    0    0  501    0  0.00000000000E+00  0.00000000000E+00  0.41111025229E+03  0.41111025229E+03  0.25500000920E-02 0. -1.
       -2   -1    0    0    0  501  0.00000000000E+00  0.00000000000E+00 -0.13681429291E+04  0.13681429291E+04  0.25500000920E-02 0.  1.
    10030    2    1    2    0    0  0.00000000000E+00  0.00000000000E+00 -0.95703267678E+03  0.17792531814E+04  0.14999434453E+04 0.  0.
        1    1    3    3  502    0  0.19389057365E+03  0.88383144884E+02 -0.13314792873E+04  0.13484221251E+04  0.50400001928E-02 0.  1.
       -1    1    3    3    0  502 -0.19389057365E+03 -0.88383144884E+02  0.37444661056E+03  0.43083105625E+03  0.50400001928E-02 0. -1.
</event>
<event>
 5   0  0.1580078E-05  0.1499761E+04  0.7818609E-02  0.8884612E-01
        1   -1    0    0  501    0  0.00000000000E+00  0.00000000000E+00  0.60497603546E+03  0.60497603548E+03  0.50400001928E-02 0.  1.
       -1   -1    0    0    0  501  0.00000000000E+00  0.00000000000E+00 -0.92949239440E+03  0.92949239441E+03  0.50400001928E-02 0. -1.
    10030    2    1    2    0    0  0.00000000000E+00  0.00000000000E+00 -0.32451635894E+03  0.15344684299E+04  0.14997608126E+04 0.  0.
        2    1    3    3  502    0 -0.41093011226E+02 -0.39436712839E+03 -0.81346747616E+03  0.90495491728E+03  0.25500000920E-02 0. -1.
       -2    1    3    3    0  502  0.41093011226E+02  0.39436712839E+03  0.48895111723E+03  0.62951351262E+03  0.25500000920E-02 0.  1.
</event>
<event>
 5   0  0.2969498E-05  0.1500375E+04  0.7818609E-02  0.8884203E-01
       -2   -1    0    0    0  501  0.00000000000E+00  0.00000000000E+00  0.28830199276E+03  0.28830199278E+03  0.25500000920E-02 0.  1.
        2   -1    0    0  501    0  0.00000000000E+00  0.00000000000E+00 -0.19520551920E+04  0.19520551920E+04  0.25500000920E-02 0. -1.
    10030    2    1    2    0    0  0.00000000000E+00  0.00000000000E+00 -0.16637531993E+04  0.22403571848E+04  0.15003751556E+04 0.  0.
        3    1    3    3  502    0 -0.49245942039E+03 -0.55867702501E+03 -0.69711523046E+03  0.10201009527E+04  0.10100000352E+00 0. -1.
       -3    1    3    3    0  502  0.49245942039E+03  0.55867702501E+03 -0.96663796882E+03  0.12202562321E+04  0.10100000352E+00 0.  1.
</event>
<event>
 5   0  0.1643498E-05  0.1500272E+04  0.7818609E-02  0.8884272E-01
       -1   -1    0    0    0  501  0.00000000000E+00  0.00000000000E+00  0.11024954382E+04  0.11024954382E+04  0.50400001928E-02 0. -1.
        1   -1    0    0  501    0  0.00000000000E+00  0.00000000000E+00 -0.51039154773E+03  0.51039154776E+03  0.50400001928E-02 0.  1.
    10030    2    1    2    0    0  0.00000000000E+00  0.00000000000E+00  0.59210389045E+03  0.16128869860E+04  0.15002724460E+04 0.  0.
        4    1    3    3  502    0 -0.55928777641E+03  0.17838255629E+03  0.79809540356E+03  0.99074771729E+03  0.12699999809E+01 0. -1.
       -4    1    3    3    0  502  0.55928777641E+03 -0.17838255629E+03 -0.20599151311E+03  0.62213926866E+03  0.12699999809E+01 0.  1.
</event>
<event>
 5   0  0.1576214E-05  0.1500066E+04  0.7818609E-02  0.8884409E-01
       -1   -1    0    0    0  501  0.00000000000E+00  0.00000000000E+00  0.66425710112E+03  0.66425710114E+03  0.50400001928E-02 0. -1.
        1   -1    0    0  501    0  0.00000000000E+00  0.00000000000E+00 -0.84688553665E+03  0.84688553667E+03  0.50400001928E-02 0.  1.
    10030    2    1    2    0    0  0.00000000000E+00  0.00000000000E+00 -0.18262843553E+03  0.15111426378E+04  0.15000663073E+04 0.  0.
        1    1    3    3  502    0 -0.17348928771E+03 -0.44759999031E+02 -0.82501047768E+03  0.84424183666E+03  0.50400001928E-02 0.  1.
       -1    1    3    3    0  502  0.17348928771E+03  0.44759999031E+02  0.64238204215E+03  0.66690080115E+03  0.50400001928E-02 0. -1.
</event>
<event>
 5   0  0.2969498E-05  0.1500127E+04  0.7818609E-02  0.8884368E-01
        2   -1    0    0  501    0  0.00000000000E+00  0.00000000000E+00  0.10955164832E+04  0.10955164832E+04  0.25500000920E-02 0.  1.
       -2   -1    0    0    0  501  0.00000000000E+00  0.00000000000E+00 -0.51354340277E+03  0.51354340278E+03  0.25500000920E-02 0. -1.
    10030    2    1    2    0    0  0.00000000000E+00  0.00000000000E+00  0.58197308044E+03  0.16090598860E+04  0.15001270114E+04 0.  0.
        3    1    3    3  502    0  0.41758987594E+03  0.37549672041E+03 -0.24232699476E+03  0.61163835239E+03  0.10100000352E+00 0. -1.
       -3    1    3    3    0  502 -0.41758987594E+03 -0.37549672041E+03  0.82430007520E+03  0.99742153361E+03  0.10100000352E+00 0.  1.
</event>
<event>
 5   0  0.3070497E-05  0.1499858E+04  0.7818609E-02  0.8884547E-01
        2   -1    0    0  501    0  0.00000000000E+00  0.00000000000E+00  0.10503234376E+04  0.10503234376E+04  0.25500000920E-02 0. -1.
       -2   -1    0    0    0  501  0.00000000000E+00  0.00000000000E+00 -0.53544792129E+03  0.53544792130E+03  0.25500000920E-02 0.  1.
    10030    2    1    2    0    0  0.00000000000E+00  0.00000000000E+00  0.51487551630E+03  0.15857713589E+04  0.14998579951E+04 0.  0.
        4    1    3    3  502    0 -0.68113214162E+03 -0.30949455726E+03  0.20286717342E+03  0.77516745176E+03  0.12699999809E+01 0. -1.
       -4    1    3    3    0  502  0.68113214162E+03  0.30949455726E+03  0.31200834288E+03  0.81060390713E+03  0.12699999809E+01 0.  1.
</event>
<event>
 5   0  0.1533777E-05  0.1501299E+04  0.7818609E-02  0.8883590E-01
       -1   -1    0    0    0  501  0.00000000000E+00  0.00000000000E+00  0.10816733303E+04  0.10816733303E+04  0.50400001928E-02 0.  1.
        1   -1    0    0  501    0  0.00000000000E+00  0.00000000000E+00 -0.52092870839E+03  0.52092870842E+03  0.50400001928E-02 0. -1.
    10030    2    1    2    0    0  0.00000000000E+00  0.00000000000E+00  0.56074462188E+03  0.16026020387E+04  0.15012990253E+04 0.  0.
        5    1    3    3  502    0 -0.40573819887E+03  0.28792752010E+03  0.88037301830E+03  0.10112390836E+04  0.46999998093E+01 0.  1.
       -5    1    3    3    0  502  0.40573819887E+03 -0.28792752010E+03 -0.31962839643E+03  0.59136295509E+03  0.46999998093E+01 0. -1.
</event>
<event>
 5   0  0.3093600E-05  0.1501180E+04  0.7818609E-02  0.8883669E-01
        2   -1    0    0  501    0  0.00000000000E+00  0.00000000000E+00  0.62494109091E+03  0.62494109091E+03  0.25500000920E-02 0.  1.
       -2   -1    0    0    0  501  0.00000000000E+00  0.00000000000E+00 -0.90150140533E+03  0.90150140533E+03  0.25500000920E-02 0. -1.
    10030    2    1    2    0    0  0.00000000000E+00  0.00000000000E+00 -0.27656031442E+03  0.15264424962E+04  0.15011798982E+04 0.  0.
        1    1    3    3  502    0 -0.46001528857E+03 -0.41180460087E+03 -0.57229821857E+03  0.84185648778E+03  0.50400001928E-02 0. -1.
       -1    1    3    3    0  502  0.46001528857E+03  0.41180460087E+03  0.29573790415E+03  0.68458600846E+03  0.50400001928E-02 0.  1.
</event>
<event>
 5   0  0.2969498E-05  0.1511781E+04  0.7818609E-02  0.8876657E-01
       -2   -1    0    0    0  501  0.00000000000E+00  0.00000000000E+00  0.99393854805E+03  0.99393854805E+03  0.25500000920E-02 0. -1.
        2   -1    0    0  501    0  0.00000000000E+00  0.00000000000E+00 -0.57485459649E+03  0.57485459650E+03  0.25500000920E-02 0.  1.
    10030    2    1    2    0    0  0.00000000000E+00  0.00000000000E+00  0.41908395155E+03  0.15687931445E+04  0.15117805965E+04 0.  0.
        3    1    3    3  502    0  0.17618630753E+03  0.52018740125E+03 -0.32940300110E+03  0.64042399605E+03  0.10100000352E+00 0.  1.
       -3    1    3    3    0  502 -0.17618630753E+03 -0.52018740125E+03  0.74848695266E+03  0.92836914850E+03  0.10100000352E+00 0. -1.
</event>
<event>
 5   0  0.1576214E-05  0.1500151E+04  0.7818609E-02  0.8884352E-01
        1   -1    0    0  501    0  0.00000000000E+00  0.00000000000E+00  0.66295651935E+03  0.66295651937E+03  0.50400001928E-02 0.  1.
       -1   -1    0    0    0  501  0.00000000000E+00  0.00000000000E+00 -0.84864295280E+03  0.84864295281E+03  0.50400001928E-02 0. -1.
    10030    2    1    2    0    0  0.00000000000E+00  0.00000000000E+00 -0.18568643345E+03  0.15115994722E+04  0.15001511633E+04 0.  0.
        1    1    3    3  502    0 -0.20314753607E+02 -0.24157191134E+03 -0.80807964382E+03  0.84366011423E+03  0.50400001928E-02 0. -1.
       -1    1    3    3    0  502  0.20314753607E+02  0.24157191134E+03  0.62239321037E+03  0.66793935795E+03  0.50400001928E-02 0.  1.
</event>
<event>
 5   0  0.1576214E-05  0.1499812E+04  0.7818609E-02  0.8884578E-01
       -1   -1    0    0    0  501  0.00000000000E+00  0.00000000000E+00  0.51363302405E+03  0.51363302408E+03  0.50400001928E-02 0. -1.
        1   -1    0    0  501    0  0.00000000000E+00  0.00000000000E+00 -0.10948647704E+04  0.10948647704E+04  0.50400001928E-02 0.  1.
    10030    2    1    2    0    0  0.00000000000E+00  0.00000000000E+00 -0.58123174631E+03  0.16084977945E+04  0.14998115921E+04 0.  0.
        1    1    3    3  502    0 -0.73408283481E+03  0.15337818616E+02 -0.45413043726E+03  0.86333499357E+03  0.50400001928E-02 0.  1.
       -1    1    3    3    0  502  0.73408283481E+03 -0.15337818616E+02 -0.12710130905E+03  0.74516280089E+03  0.50400001928E-02 0. -1.
</event>
<event>
 5   0  0.1588657E-05  0.1508454E+04  0.7818609E-02  0.8878850E-01
       -1   -1    0    0    0  501  0.00000000000E+00  0.00000000000E+00  0.52401049899E+03  0.52401049901E+03  0.50400001928E-02 0.  1.
        1   -1    0    0  501    0  0.00000000000E+00  0.00000000000E+00 -0.10855864586E+04  0.10855864587E+04  0.50400001928E-02 0. -1.
    10030    2    1    2    0    0  0.00000000000E+00  0.00000000000E+00 -0.56157595965E+03  0.16095969577E+04  0.15084544434E+04 0.  0.
        3    1    3    3  502    0 -0.62164316653E+03  0.13274307812E+03 -0.71396017326E+03  0.95592891497E+03  0.10100000352E+00 0.  1.
       -3    1    3    3    0  502  0.62164316653E+03 -0.13274307812E+03  0.15238421361E+03  0.65366804269E+03  0.10100000352E+00 0. -1.
</event>
<event>
 5   0  0.1533777E-05  0.1500179E+04  0.7818609E-02  0.8884334E-01
        1   -1    0    0  501    0  0.00000000000E+00  0.00000000000E+00  0.13264472780E+04  0.13264472780E+04  0.50400001928E-02 0. -1.
       -1   -1    0    0    0  501  0.00000000000E+00  0.00000000000E+00 -0.42416619669E+03  0.42416619672E+03  0.50400001928E-02 0.  1.
    10030    2    1    2    0    0  0.00000000000E+00  0.00000000000E+00  0.90228108128E+03  0.17506134747E+04  0.15001787854E+04 0.  0.
        5    1    3    3  502    0  0.20802110116E+03 -0.71719217358E+03  0.53344568300E+03  0.91772750807E+03  0.46999998093E+01 0.  1.
       -5    1    3    3    0  502 -0.20802110116E+03  0.71719217358E+03  0.36883539828E+03  0.83288596662E+03  0.46999998093E+01 0. -1.
</event>
<event>
 5   0  0.1588657E-05  0.1500796E+04  0.7818609E-02  0.8883924E-01
       -1   -1    0    0    0  501  0.00000000000E+00  0.00000000000E+00  0.25572315976E+03  0.25572315981E+03  0.50400001928E-02 0. -1.
        1   -1    0    0  501    0  0.00000000000E+00  0.00000000000E+00 -0.22019798691E+04  0.22019798691E+04  0.50400001928E-02 0.  1.
    10030    2    1    2    0    0  0.00000000000E+00  0.00000000000E+00 -0.19462567093E+04  0.24577030289E+04  0.15007961220E+04 0.  0.
        3    1    3    3  502    0  0.49498272481E+03  0.79992919982E+02 -0.58868877256E+02  0.50484880907E+03  0.10100000352E+00 0. -1.
       -3    1    3    3    0  502 -0.49498272481E+03 -0.79992919982E+02 -0.18873878321E+04  0.19528542198E+04  0.10100000352E+00 0.  1.
</event>
<event>
 5   0  0.3070497E-05  0.1500170E+04  0.7818609E-02  0.8884340E-01
       -2   -1    0    0    0  501  0.00000000000E+00  0.00000000000E+00  0.58310106509E+03  0.58310106509E+03  0.25500000920E-02 0.  1.
        2   -1    0    0  501    0  0.00000000000E+00  0.00000000000E+00 -0.96488912048E+03  0.96488912048E+03  0.25500000920E-02 0. -1.
    10030    2    1    2    0    0  0.00000000000E+00  0.00000000000E+00 -0.38178805539E+03  0.15479901856E+04  0.15001704888E+04 0.  0.
        4    1    3    3  502    0 -0.19246891358E+03 -0.13610096978E+03 -0.92567283298E+03  0.95521702418E+03  0.12699999809E+01 0. -1.
       -4    1    3    3    0  502  0.19246891358E+03  0.13610096978E+03  0.54388477759E+03  0.59277316139E+03  0.12699999809E+01 0.  1.
</event>
<event>
 5   0  0.3093600E-05  0.1498848E+04  0.7818609E-02  0.8885220E-01
        2   -1    0    0  501    0  0.00000000000E+00  0.00000000000E+00  0.72433121826E+03  0.72433121827E+03  0.25500000920E-02 0. -1.
       -2   -1    0    0    0  501  0.00000000000E+00  0.00000000000E+00 -0.77538556442E+03  0.77538556443E+03  0.25500000920E-02 0.  1.
    10030    2    1    2    0    0  0.00000000000E+00  0.00000000000E+00 -0.51054346158E+02  0.14997167827E+04  0.14988475179E+04 0.  0.
        1    1    3    3  502    0  0.37288289175E+03  0.64460117297E+03  0.58686045107E+02  0.74699154953E+03  0.50400001928E-02 0. -1.
       -1    1    3    3    0  502 -0.37288289175E+03 -0.64460117297E+03 -0.10974039126E+03  0.75272523317E+03  0.50400001928E-02 0.  1.
</event>
<event>
 5   0  0.1580078E-05  0.1498346E+04  0.7818609E-02  0.8885554E-01
       -1   -1    0    0    0  501  0.00000000000E+00  0.00000000000E+00  0.65750991506E+03  0.65750991508E+03  0.50400001928E-02 0.  1.
        1   -1    0    0  501    0  0.00000000000E+00  0.00000000000E+00 -0.85361431999E+03  0.85361432000E+03  0.50400001928E-02 0. -1.
    10030    2    1    2    0    0  0.00000000000E+00  0.00000000000E+00 -0.19610440493E+03  0.15111242351E+04  0.14983455931E+04 0.  0.
        2    1    3    3  502    0  0.25614346274E+03  0.43862173436E+03 -0.65344050584E+03  0.82763699412E+03  0.25500000920E-02 0. -1.
       -2    1    3    3    0  502 -0.25614346274E+03 -0.43862173436E+03  0.45733610091E+03  0.68348724096E+03  0.25500000920E-02 0.  1.
</event>
<event>
 5   0  0.3030702E-05  0.1499753E+04  0.7818609E-02  0.8884617E-01
       -2   -1    0    0    0  501  0.00000000000E+00  0.00000000000E+00  0.22291964685E+03  0.22291964686E+03  0.25500000920E-02 0.  1.
        2   -1    0    0  501    0  0.00000000000E+00  0.00000000000E+00 -0.25224986756E+04  0.25224986756E+04  0.25500000920E-02 0. -1.
    10030    2    1    2    0    0  0.00000000000E+00  0.00000000000E+00 -0.22995790288E+04  0.27454183225E+04  0.14997526649E+04 0.  0.
        5    1    3    3  502    0 -0.71339638676E+02 -0.18008452304E+03 -0.24758840315E+04  0.24834539672E+04  0.46999998093E+01 0. -1.
       -5    1    3    3    0  502  0.71339638676E+02  0.18008452304E+03  0.17630500272E+03  0.26196435534E+03  0.46999998093E+01 0.  1.
</event>
<event>
 5   0  0.1580078E-05  0.1496523E+04  0.7818609E-02  0.8886768E-01
       -1   -1    0    0    0  501  0.00000000000E+00  0.00000000000E+00  0.26551754208E+03  0.26551754213E+03  0.50400001928E-02 0.  1.
        1   -1    0    0  501    0  0.00000000000E+00  0.00000000000E+00 -0.21086945511E+04  0.21086945511E+04  0.50400001928E-02 0. -1.
    10030    2    1    2    0    0  0.00000000000E+00  0.00000000000E+00 -0.18431770090E+04  0.23742120932E+04  0.14965231629E+04 0.  0.
        2    1    3    3  502    0 -0.11298335330E+03 -0.19282609134E+03 -0.20545081935E+04  0.20666279435E+04  0.25500000920E-02 0. -1.
       -2    1    3    3    0  502  0.11298335330E+03  0.19282609134E+03  0.21133118449E+03  0.30758414974E+03  0.25500000920E-02 0.  1.
</event>
<event>
 5   0  0.3018308E-05  0.1500200E+04  0.7818609E-02  0.8884320E-01
       -2   -1    0    0    0  501  0.00000000000E+00  0.00000000000E+00  0.34706796691E+03  0.34706796692E+03  0.25500000920E-02 0.  1.
        2   -1    0    0  501    0  0.00000000000E+00  0.00000000000E+00 -0.16211519044E+04  0.16211519044E+04  0.25500000920E-02 0. -1.
    10030    2    1    2    0    0  0.00000000000E+00  0.00000000000E+00 -0.12740839375E+04  0.19682198713E+04  0.15001998474E+04 0.  0.
        2    1    3    3  502    0 -0.17796136952E+02 -0.47129173267E+03 -0.14022908253E+04  0.14794769881E+04  0.25500000920E-02 0. -1.
       -2    1    3    3    0  502  0.17796136952E+02  0.47129173267E+03  0.12820688779E+03  0.48874288318E+03  0.25500000920E-02 0.  1.
</event>
<event>
 5   0  0.2969498E-05  0.1500135E+04  0.7818609E-02  0.8884363E-01
        2   -1    0    0  501    0  0.00000000000E+00  0.00000000000E+00  0.16432645292E+04  0.16432645292E+04  0.25500000920E-02 0. -1.
       -2   -1    0    0    0  501  0.00000000000E+00  0.00000000000E+00 -0.34236811131E+03  0.34236811132E+03  0.25500000920E-02 0.  1.
    10030    2    1    2    0    0  0.00000000000E+00  0.00000000000E+00  0.13008964179E+04  0.19856326405E+04  0.15001351583E+04 0.  0.
        3    1    3    3  502    0 -0.54493431929E+03  0.14988363229E+02  0.13323754438E+04  0.14395841055E+04  0.10100000352E+00 0. -1.
       -3    1    3    3    0  502  0.54493431929E+03 -0.14988363229E+02 -0.31479025869E+02  0.54604853506E+03  0.10100000352E+00 0.  1.
</event>
<event>
 5   0  0.1116613E-05  0.1504553E+04  0.7818609E-02  0.8881431E-01
        3   -1    0    0  501    0  0.00000000000E+00  0.00000000000E+00  0.82624617118E+03  0.82624617736E+03  0.10100000352E+00 0. -1.
       -3   -1    0    0    0  501  0.00000000000E+00  0.00000000000E+00 -0.68492905327E+03  0.68492906071E+03  0.10100000352E+00 0.  1.
    10030    2    1    2    0    0  0.00000000000E+00  0.00000000000E+00  0.14131711792E+03  0.15111752381E+04  0.15045531138E+04 0.  0.
        3    1    3    3  502    0 -0.27576442149E+03 -0.60884621721E+03  0.41740299211E+03  0.78801332501E+03  0.10100000352E+00 0. -1.
       -3    1    3    3    0  502  0.27576442149E+03  0.60884621721E+03 -0.27608587419E+03  0.72316191306E+03  0.10100000352E+00 0.  1.
</event>
<event>
 5   0  0.3093600E-05  0.1500470E+04  0.7818609E-02  0.8884141E-01
        2   -1    0    0  501    0  0.00000000000E+00  0.00000000000E+00  0.60702976827E+03  0.60702976827E+03  0.25500000920E-02 0.  1.
       -2   -1    0    0    0  501  0.00000000000E+00  0.00000000000E+00 -0.92722372478E+03  0.92722372478E+03  0.25500000920E-02 0. -1.
    10030    2    1    2    0    0  0.00000000000E+00  0.00000000000E+00 -0.32019395651E+03  0.15342534931E+04  0.15004697968E+04 0.  0.
        1    1    3    3  502    0  0.48613697573E+03 -0.24261314002E+03  0.36891232507E+03  0.65672414186E+03  0.50400001928E-02 0.  1.
       -1    1    3    3    0  502 -0.48613697573E+03  0.24261314002E+03 -0.68910628157E+03  0.87752935120E+03  0.50400001928E-02 0. -1.
</event>
<event>
 5   0  0.3070497E-05  0.1499844E+04  0.7818609E-02  0.8884556E-01
       -2   -1    0    0    0  501  0.00000000000E+00  0.00000000000E+00  0.27438129540E+03  0.27438129541E+03  0.25500000920E-02 0.  1.
        2   -1    0    0  501    0  0.00000000000E+00  0.00000000000E+00 -0.20496412550E+04  0.20496412550E+04  0.25500000920E-02 0. -1.
    10030    2    1    2    0    0  0.00000000000E+00  0.00000000000E+00 -0.17752599596E+04  0.23240225504E+04  0.14998442888E+04 0.  0.
        4    1    3    3  502    0 -0.59329127661E+03  0.30077780144E+03 -0.35104367416E+03  0.75212704964E+03  0.12699999809E+01 0.  1.
       -4    1    3    3    0  502  0.59329127661E+03 -0.30077780144E+03 -0.14242162854E+04  0.15718955008E+04  0.12699999809E+01 0. -1.
</event>
<event>
 5   0  0.1533777E-05  0.1500251E+04  0.7818609E-02  0.8884286E-01
        1   -1    0    0  501    0  0.00000000000E+00  0.00000000000E+00  0.91238912836E+03  0.91238912838E+03  0.50400001928E-02 0.  1.
       -1   -1    0    0    0  501  0.00000000000E+00  0.00000000000E+00 -0.61671981069E+03  0.61671981071E+03  0.50400001928E-02 0. -1.
    10030    2    1    2    0    0  0.00000000000E+00  0.00000000000E+00  0.29566931767E+03  0.15291089391E+04  0.15002512464E+04 0.  0.
        5    1    3    3  502    0 -0.18500594810E+03 -0.21675671931E+03 -0.55938217604E+03  0.62780664624E+03  0.46999998093E+01 0. -1.
       -5    1    3    3    0  502  0.18500594810E+03  0.21675671931E+03  0.85505149371E+03  0.90130229285E+03  0.46999998093E+01 0.  1.
</event>
<event>
 5   0  0.1643498E-05  0.1500814E+04  0.7818609E-02  0.8883912E-01
       -1   -1    0    0    0  501  0.00000000000E+00  0.00000000000E+00  0.46839371803E+03  0.46839371806E+03  0.50400001928E-02 0.  1.
        1   -1    0    0  501    0  0.00000000000E+00  0.00000000000E+00 -0.12022169693E+04  0.12022169693E+04  0.50400001928E-02 0. -1.
    10030    2    1    2    0    0  0.00000000000E+00  0.00000000000E+00 -0.73382325123E+03  0.16706106873E+04  0.15008142805E+04 0.  0.
        4    1    3    3  502    0  0.19896836031E+02 -0.37623646774E+03 -0.10893014209E+04  0.11526183073E+04  0.12699999809E+01 0. -1.
       -4    1    3    3    0  502 -0.19896836031E+02  0.37623646774E+03  0.35547816971E+03  0.51799238004E+03  0.12699999809E+01 0.  1.
</event>
<event>
 5   0  0.1533777E-05  0.1500030E+04  0.7818609E-02  0.8884433E-01
       -1   -1    0    0    0  501  0.00000000000E+00  0.00000000000E+00  0.96488162785E+03  0.96488162786E+03  0.50400001928E-02 0. -1.
        1   -1    0    0  501    0  0.00000000000E+00  0.00000000000E+00 -0.58299645499E+03  0.58299645501E+03  0.50400001928E-02 0.  1.
    10030    2    1    2    0    0  0.00000000000E+00  0.00000000000E+00  0.38188517286E+03  0.15478780829E+04  0.15000300911E+04 0.  0.
        5    1    3    3  502    0  0.71332943437E+03 -0.94722107978E+02  0.40908426337E+03  0.82775792610E+03  0.46999998093E+01 0.  1.
       -5    1    3    3    0  502 -0.71332943437E+03  0.94722107978E+02 -0.27199090514E+02  0.72012015678E+03  0.46999998093E+01 0. -1.
</event>
<event>
 5   0  0.2969498E-05  0.1497196E+04  0.7818609E-02  0.8886319E-01
        2   -1    0    0  501    0  0.00000000000E+00  0.00000000000E+00  0.20790795433E+04  0.20790795433E+04  0.25500000920E-02 0.  1.
       -2   -1    0    0    0  501  0.00000000000E+00  0.00000000000E+00 -0.26954197406E+03  0.26954197407E+03  0.25500000920E-02 0. -1.
    10030    2    1    2    0    0  0.00000000000E+00  0.00000000000E+00  0.18095375692E+04  0.23486215173E+04  0.14971963189E+04 0.  0.
        3    1    3    3  502    0  0.46721165792E+03  0.18865071524E+03  0.17732612989E+04  0.18434563922E+04  0.10100000352E+00 0.  1.
       -3    1    3    3    0  502 -0.46721165792E+03 -0.18865071524E+03  0.36276270316E+02  0.50516512513E+03  0.10100000352E+00 0. -1.
</event>
<event>
 5   0  0.3018308E-05  0.1499283E+04  0.7818609E-02  0.8884930E-01
        2   -1    0    0  501    0  0.00000000000E+00  0.00000000000E+00  0.26307445314E+04  0.26307445314E+04  0.25500000920E-02 0.  1.
       -2   -1    0    0    0  501  0.00000000000E+00  0.00000000000E+00 -0.21361331064E+03  0.21361331066E+03  0.25500000920E-02 0. -1.
    10030    2    1    2    0    0  0.00000000000E+00  0.00000000000E+00  0.24171312208E+04  0.28443578421E+04  0.14992825602E+04 0.  0.
        2    1    3    3  502    0 -0.34566293853E+03  0.10146426237E+03 -0.38631739089E+02  0.36231239957E+03  0.25500000920E-02 0. -1.
       -2    1    3    3    0  502  0.34566293853E+03 -0.10146426237E+03  0.24557629599E+04  0.24820454425E+04  0.25500000920E-02 0.  1.
</event>
<event>
 5   0  0.3030702E-05  0.1497701E+04  0.7818609E-02  0.8885983E-01
        2   -1    0    0  501    0  0.00000000000E+00  0.00000000000E+00  0.10787919834E+04  0.10787919834E+04  0.25500000920E-02 0.  1.
       -2   -1    0    0    0  501  0.00000000000E+00  0.00000000000E+00 -0.51981948344E+03  0.51981948344E+03  0.25500000920E-02 0. -1.
    10030    2    1    2    0    0  0.00000000000E+00  0.00000000000E+00  0.55897249995E+03  0.15986114668E+04  0.14977010270E+04 0.  0.
        5    1    3    3  502    0  0.52264101406E+03  0.44363419132E+03  0.60110176157E+03  0.91176221848E+03  0.46999998093E+01 0.  1.
       -5    1    3    3    0  502 -0.52264101406E+03 -0.44363419132E+03 -0.42129261620E+02  0.68684924836E+03  0.46999998093E+01 0. -1.
</event>
<event>
 5   0  0.1643498E-05  0.1498743E+04  0.7818609E-02  0.8885289E-01
       -1   -1    0    0    0  501  0.00000000000E+00  0.00000000000E+00  0.26087642202E+03  0.26087642207E+03  0.50400001928E-02 0. -1.
        1   -1    0    0  501    0  0.00000000000E+00  0.00000000000E+00 -0.21525804757E+04  0.21525804757E+04  0.50400001928E-02 0.  1.
    10030    2    1    2    0    0  0.00000000000E+00  0.00000000000E+00 -0.18917040536E+04  0.24134568977E+04  0.14987427967E+04 0.  0.
        4    1    3    3  502    0 -0.31731262936E+03  0.62508786038E+03 -0.51939434339E+03  0.87246446048E+03  0.12699999809E+01 0. -1.
       -4    1    3    3    0  502  0.31731262936E+03 -0.62508786038E+03 -0.13723097102E+04  0.15409924373E+04  0.12699999809E+01 0.  1.
</event>
<event>
 5   0  0.1576214E-05  0.1500349E+04  0.7818609E-02  0.8884221E-01
       -1   -1    0    0    0  501  0.00000000000E+00  0.00000000000E+00  0.15918385060E+04  0.15918385060E+04  0.50400001928E-02 0.  1.
        1   -1    0    0  501    0  0.00000000000E+00  0.00000000000E+00 -0.35352934343E+03  0.35352934347E+03  0.50400001928E-02 0. -1.
    10030    2    1    2    0    0  0.00000000000E+00  0.00000000000E+00  0.12383091625E+04  0.19453678495E+04  0.15003487887E+04 0.  0.
        1    1    3    3  502    0 -0.42039218838E+03  0.21483393040E+03  0.13750666731E+04  0.14538540384E+04  0.50400001928E-02 0.  1.
       -1    1    3    3    0  502  0.42039218838E+03 -0.21483393040E+03 -0.13675751052E+03  0.49151381101E+03  0.50400001928E-02 0. -1.
</event>
<event>
 5   0  0.3018308E-05  0.1500691E+04  0.7818609E-02  0.8883994E-01
       -2   -1    0    0    0  501  0.00000000000E+00  0.00000000000E+00  0.92118930183E+03  0.92118930183E+03  0.25500000920E-02 0.  1.
        2   -1    0    0  501    0  0.00000000000E+00  0.00000000000E+00 -0.61118637030E+03  0.61118637030E+03  0.25500000920E-02 0. -1.
    10030    2    1    2    0    0  0.00000000000E+00  0.00000000000E+00  0.31000293153E+03  0.15323756721E+04  0.15006909685E+04 0.  0.
        2    1    3    3  502    0 -0.53228046279E+03  0.52303826135E+03  0.75074751512E+02  0.75001848793E+03  0.25500000920E-02 0. -1.
       -2    1    3    3    0  502  0.53228046279E+03 -0.52303826135E+03  0.23492818002E+03  0.78235718421E+03  0.25500000920E-02 0.  1.
</event>
<event>
 5   0  0.1116613E-05  0.1495198E+04  0.7818609E-02  0.8887653E-01
        3   -1    0    0  501    0  0.00000000000E+00  0.00000000000E+00  0.74713180272E+03  0.74713180954E+03  0.10100000352E+00 0.  1.
       -3   -1    0    0    0  501  0.00000000000E+00  0.00000000000E+00 -0.74806619255E+03  0.74806619937E+03  0.10100000352E+00 0. -1.
    10030    2    1    2    0    0  0.00000000000E+00  0.00000000000E+00 -0.93438983770E+00  0.14951980089E+04  0.14951977170E+04 0.  0.
        1    1    3    3  502    0  0.66935295607E+03 -0.29355461143E+03  0.15668360247E+03  0.74750079666E+03  0.50400001928E-02 0.  1.
       -1    1    3    3    0  502 -0.66935295607E+03  0.29355461143E+03 -0.15761799231E+03  0.74769721226E+03  0.50400001928E-02 0. -1.
</event>
<event>
 5   0  0.1643498E-05  0.1497848E+04  0.7818609E-02  0.8885885E-01
       -1   -1    0    0    0  501  0.00000000000E+00  0.00000000000E+00  0.13580875030E+04  0.13580875030E+04  0.50400001928E-02 0. -1.
        1   -1    0    0  501    0  0.00000000000E+00  0.00000000000E+00 -0.41299795387E+03  0.41299795390E+03  0.50400001928E-02 0.  1.
    10030    2    1    2    0    0  0.00000000000E+00  0.00000000000E+00  0.94508954909E+03  0.17710854569E+04  0.14978482699E+04 0.  0.
        4    1    3    3  502    0  0.34665468443E+03 -0.66067715120E+03  0.39571497276E+03  0.84454468261E+03  0.12699999809E+01 0. -1.
       -4    1    3    3    0  502 -0.34665468443E+03  0.66067715120E+03  0.54937457633E+03  0.92654077427E+03  0.12699999809E+01 0.  1.
</event>
<event>
 5   0  0.3070497E-05  0.1499590E+04  0.7818609E-02  0.8884725E-01
       -2   -1    0    0    0  501  0.00000000000E+00  0.00000000000E+00  0.30282568816E+03  0.30282568817E+03  0.25500000920E-02 0. -1.
        2   -1    0    0  501    0  0.00000000000E+00  0.00000000000E+00 -0.18564899565E+04  0.18564899565E+04  0.25500000920E-02 0.  1.
    10030    2    1    2    0    0  0.00000000000E+00  0.00000000000E+00 -0.15536642683E+04  0.21593156447E+04  0.14995904089E+04 0.  0.
        4    1    3    3  502    0  0.48090237880E+03  0.11232959169E+03 -0.15892248610E+04  0.16641881825E+04  0.12699999809E+01 0.  1.
       -4    1    3    3    0  502 -0.48090237880E+03 -0.11232959169E+03  0.35560592690E+02  0.49512746213E+03  0.12699999809E+01 0. -1.
</event>
<event>
 5   0  0.1533777E-05  0.1499802E+04  0.7818609E-02  0.8884585E-01
       -1   -1    0    0    0  501  0.00000000000E+00  0.00000000000E+00  0.29933732021E+03  0.29933732025E+03  0.50400001928E-02 0.  1.
        1   -1    0    0  501    0  0.00000000000E+00  0.00000000000E+00 -0.18786550502E+04  0.18786550502E+04  0.50400001928E-02 0. -1.
    10030    2    1    2    0    0  0.00000000000E+00  0.00000000000E+00 -0.15793177300E+04  0.21779923704E+04  0.14998020781E+04 0.  0.
        5    1    3    3  502    0  0.56888772335E+02  0.57791757059E+03 -0.14786512495E+04  0.15886021083E+04  0.46999998093E+01 0. -1.
       -5    1    3    3    0  502 -0.56888772335E+02 -0.57791757059E+03 -0.10066648045E+03  0.58939026214E+03  0.46999998093E+01 0.  1.
</event>
<event>
 5   0  0.3030702E-05  0.1500504E+04  0.7818609E-02  0.8884118E-01
       -2   -1    0    0    0  501  0.00000000000E+00  0.00000000000E+00  0.34697217523E+03  0.34697217524E+03  0.25500000920E-02 0.  1.
        2   -1    0    0  501    0  0.00000000000E+00  0.00000000000E+00 -0.16222560348E+04  0.16222560348E+04  0.25500000920E-02 0. -1.
    10030    2    1    2    0    0  0.00000000000E+00  0.00000000000E+00 -0.12752838596E+04  0.19692282100E+04  0.15005035224E+04 0.  0.
        5    1    3    3  502    0  0.57029234287E+03  0.23700841044E+03 -0.11966738992E+04  0.13466465216E+04  0.46999998093E+01 0. -1.
       -5    1    3    3    0  502 -0.57029234287E+03 -0.23700841044E+03 -0.78609960328E+02  0.62258168847E+03  0.46999998093E+01 0.  1.
</event>
<event>
 5   0  0.3093600E-05  0.1504622E+04  0.7818609E-02  0.8881385E-01
        2   -1    0    0  501    0  0.00000000000E+00  0.00000000000E+00  0.13082074284E+04  0.13082074284E+04  0.25500000920E-02 0. -1.
       -2   -1    0    0    0  501  0.00000000000E+00  0.00000000000E+00 -0.43263170818E+03  0.43263170819E+03  0.25500000920E-02 0.  1.
    10030    2    1    2    0    0  0.00000000000E+00  0.00000000000E+00  0.87557572020E+03  0.17408391366E+04  0.15046222309E+04 0.  0.
        1    1    3    3  502    0 -0.33584668812E+02  0.52094923716E+03 -0.18897412437E+03  0.55518218396E+03  0.50400001928E-02 0.  1.
       -1    1    3    3    0  502  0.33584668812E+02 -0.52094923716E+03  0.10645498446E+04  0.11856569526E+04  0.50400001928E-02 0. -1.
</event>
<event>
 5   0  0.1588657E-05  0.1496142E+04  0.7818609E-02  0.8887022E-01
        1   -1    0    0  501    0  0.00000000000E+00  0.00000000000E+00  0.11406525827E+04  0.11406525827E+04  0.50400001928E-02 0.  1.
       -1   -1    0    0    0  501  0.00000000000E+00  0.00000000000E+00 -0.49060532234E+03  0.49060532237E+03  0.50400001928E-02 0. -1.
    10030    2    1    2    0    0  0.00000000000E+00  0.00000000000E+00  0.65004726038E+03  0.16312579051E+04  0.14961420094E+04 0.  0.
        3    1    3    3  502    0 -0.70923895194E+03  0.10291595024E+03  0.55886550254E+03  0.90881364640E+03  0.10100000352E+00 0.  1.
       -3    1    3    3    0  502  0.70923895194E+03 -0.10291595024E+03  0.91181757841E+02  0.72244425870E+03  0.10100000352E+00 0. -1.
</event>
<event>
 5   0  0.1643498E-05  0.1499668E+04  0.7818609E-02  0.8884674E-01
       -1   -1    0    0    0  501  0.00000000000E+00  0.00000000000E+00  0.11964709738E+04  0.11964709738E+04  0.50400001928E-02 0. -1.
        1   -1    0    0  501    0  0.00000000000E+00  0.00000000000E+00 -0.46992438994E+03  0.46992438996E+03  0.50400001928E-02 0.  1.
    10030    2    1    2    0    0  0.00000000000E+00  0.00000000000E+00  0.72654658387E+03  0.16663953638E+04  0.14996678199E+04 0.  0.
        4    1    3    3  502    0  0.66182197745E+03 -0.13150030381E+03  0.72666128087E+03  0.99163445369E+03  0.12699999809E+01 0. -1.
       -4    1    3    3    0  502 -0.66182197745E+03  0.13150030381E+03 -0.11469699987E+00  0.67476091009E+03  0.12699999809E+01 0.  1.
</event>
<event>
 5   0  0.1643498E-05  0.1499902E+04  0.7818609E-02  0.8884518E-01
       -1   -1    0    0    0  501  0.00000000000E+00  0.00000000000E+00  0.51815941580E+03  0.51815941582E+03  0.50400001928E-02 0. -1.
        1   -1    0    0  501    0  0.00000000000E+00  0.00000000000E+00 -0.10854309716E+04  0.10854309717E+04  0.50400001928E-02 0.  1.
    10030    2    1    2    0    0  0.00000000000E+00  0.00000000000E+00 -0.56727155585E+03  0.16035903875E+04  0.14999017010E+04 0.  0.
        4    1    3    3  502    0  0.11189191894E+03 -0.73560630021E+03 -0.18340952967E+03  0.76634006740E+03  0.12699999809E+01 0.  1.
       -4    1    3    3    0  502 -0.11189191894E+03  0.73560630021E+03 -0.38386202618E+03  0.83725032008E+03  0.12699999809E+01 0. -1.
</event>
<event>
 5   0  0.1643498E-05  0.1499715E+04  0.7818609E-02  0.8884642E-01
       -1   -1    0    0    0  501  0.00000000000E+00  0.00000000000E+00  0.71130263574E+03  0.71130263576E+03  0.50400001928E-02 0.  1.
        1   -1    0    0  501    0  0.00000000000E+00  0.00000000000E+00 -0.79050248330E+03  0.79050248331E+03  0.50400001928E-02 0. -1.
    10030    2    1    2    0    0  0.00000000000E+00  0.00000000000E+00 -0.79199847557E+02  0.15018051191E+04  0.14997153063E+04 0.  0.
        4    1    3    3  502    0 -0.34674729221E+03  0.25039409340E+03 -0.65637539033E+03  0.78342909864E+03  0.12699999809E+01 0. -1.
       -4    1    3    3    0  502  0.34674729221E+03 -0.25039409340E+03  0.57717554277E+03  0.71837602044E+03  0.12699999809E+01 0.  1.
</event>
<event>
 5   0  0.1588657E-05  0.1502023E+04  0.7818609E-02  0.8883109E-01
       -1   -1    0    0    0  501  0.00000000000E+00  0.00000000000E+00  0.95507768597E+03  0.95507768598E+03  0.50400001928E-02 0. -1.
        1   -1    0    0  501    0  0.00000000000E+00  0.00000000000E+00 -0.59054675369E+03  0.59054675371E+03  0.50400001928E-02 0.  1.
    10030    2    1    2    0    0  0.00000000000E+00  0.00000000000E+00  0.36453093228E+03  0.15456244397E+04  0.15020226723E+04 0.  0.
        3    1    3    3  502    0  0.11147357844E+03  0.53556682943E+03 -0.34721937905E+03  0.64793479213E+03  0.10100000352E+00 0.  1.
       -3    1    3    3    0  502 -0.11147357844E+03 -0.53556682943E+03  0.71175031133E+03  0.89768964756E+03  0.10100000352E+00 0. -1.
</event>
<event>
 5   0  0.3030702E-05  0.1499996E+04  0.7818609E-02  0.8884456E-01
       -2   -1    0    0    0  501  0.00000000000E+00  0.00000000000E+00  0.31791409060E+03  0.31791409061E+03  0.25500000920E-02 0. -1.
        2   -1    0    0  501    0  0.00000000000E+00  0.00000000000E+00 -0.17693365699E+04  0.17693365699E+04  0.25500000920E-02 0.  1.
    10030    2    1    2    0    0  0.00000000000E+00  0.00000000000E+00 -0.14514224793E+04  0.20872506605E+04  0.14999960355E+04 0.  0.
        5    1    3    3  502    0 -0.43787750373E+03  0.37320596543E+03 -0.13951614495E+04  0.15091444468E+04  0.46999998093E+01 0.  1.
       -5    1    3    3    0  502  0.43787750373E+03 -0.37320596543E+03 -0.56261029737E+02  0.57810621374E+03  0.46999998093E+01 0. -1.
</event>
<event>
 5   0  0.3018308E-05  0.1499301E+04  0.7818609E-02  0.8884918E-01
       -2   -1    0    0    0  501  0.00000000000E+00  0.00000000000E+00  0.55477837313E+03  0.55477837313E+03  0.25500000920E-02 0.  1.
        2   -1    0    0  501    0  0.00000000000E+00  0.00000000000E+00 -0.10129733538E+04  0.10129733538E+04  0.25500000920E-02 0. -1.
    10030    2    1    2    0    0  0.00000000000E+00  0.00000000000E+00 -0.45819498064E+03  0.15677517269E+04  0.14993007827E+04 0.  0.
        2    1    3    3  502    0 -0.45578325741E+03 -0.19616299859E+03 -0.81667517735E+03  0.95560276531E+03  0.25500000920E-02 0. -1.
       -2    1    3    3    0  502  0.45578325741E+03  0.19616299859E+03  0.35848019671E+03  0.61214896160E+03  0.25500000920E-02 0.  1.
</event>
<event>
 5   0  0.1580078E-05  0.1498880E+04  0.7818609E-02  0.8885198E-01
       -1   -1    0    0    0  501  0.00000000000E+00  0.00000000000E+00  0.66183360395E+03  0.66183360397E+03  0.50400001928E-02 0. -1.
        1   -1    0    0  501    0  0.00000000000E+00  0.00000000000E+00 -0.84864313509E+03  0.84864313510E+03  0.50400001928E-02 0.  1.
    10030    2    1    2    0    0  0.00000000000E+00  0.00000000000E+00 -0.18680953114E+03  0.15104767391E+04  0.14988803082E+04 0.  0.
        2    1    3    3  502    0  0.36436586135E+03 -0.43258999808E+03  0.40209432925E+03  0.69395708583E+03  0.25500000920E-02 0. -1.
       -2    1    3    3    0  502 -0.36436586135E+03  0.43258999808E+03 -0.58890386038E+03  0.81651965324E+03  0.25500000920E-02 0.  1.
</event>
<event>
 5   0  0.1576214E-05  0.1499414E+04  0.7818609E-02  0.8884843E-01
       -1   -1    0    0    0  501  0.00000000000E+00  0.00000000000E+00  0.93306239222E+03  0.93306239223E+03  0.50400001928E-02 0. -1.
        1   -1    0    0  501    0  0.00000000000E+00  0.00000000000E+00 -0.60238255319E+03  0.60238255321E+03  0.50400001928E-02 0.  1.
    10030    2    1    2    0    0  0.00000000000E+00  0.00000000000E+00  0.33067983902E+03  0.15354449454E+04  0.14994138937E+04 0.  0.
        1    1    3    3  502    0  0.15661877302E+03 -0.55220681384E+03  0.65921414393E+03  0.87408528925E+03  0.50400001928E-02 0. -1.
       -1    1    3    3    0  502 -0.15661877302E+03  0.55220681384E+03 -0.32853430490E+03  0.66135965619E+03  0.50400001928E-02 0.  1.
</event>
<event>
 5   0  0.1588657E-05  0.1502355E+04  0.7818609E-02  0.8882888E-01
       -1   -1    0    0    0  501  0.00000000000E+00  0.00000000000E+00  0.48393476453E+03  0.48393476456E+03  0.50400001928E-02 0. -1.
        1   -1    0    0  501    0  0.00000000000E+00  0.00000000000E+00 -0.11660000197E+04  0.11660000197E+04  0.50400001928E-02 0.  1.
    10030    2    1    2    0    0  0.00000000000E+00  0.00000000000E+00 -0.68206525513E+03  0.16499347842E+04  0.15023554107E+04 0.  0.
        3    1    3    3  502    0  0.53737270255E+03 -0.24332235642E+03  0.16972524397E+03  0.61382559349E+03  0.10100000352E+00 0. -1.
       -3    1    3    3    0  502 -0.53737270255E+03  0.24332235642E+03 -0.85179049910E+03  0.10361091907E+04  0.10100000352E+00 0.  1.
</event>
<event>
 5   0  0.1576214E-05  0.1500858E+04  0.7818609E-02  0.8883883E-01
       -1   -1    0    0    0  501  0.00000000000E+00  0.00000000000E+00  0.38126152369E+03  0.38126152372E+03  0.50400001928E-02 0. -1.
        1   -1    0    0  501    0  0.00000000000E+00  0.00000000000E+00 -0.14770532835E+04  0.14770532835E+04  0.50400001928E-02 0.  1.
    10030    2    1    2    0    0  0.00000000000E+00  0.00000000000E+00 -0.10957917598E+04  0.18583148072E+04  0.15008578686E+04 0.  0.
        1    1    3    3  502    0 -0.61017336270E+03  0.39608084063E+03 -0.77604170905E+03  0.10636880647E+04  0.50400001928E-02 0.  1.
       -1    1    3    3    0  502  0.61017336270E+03 -0.39608084063E+03 -0.31975005073E+03  0.79462674246E+03  0.50400001928E-02 0. -1.
</event>
<event>
 5   0  0.1643498E-05  0.1498618E+04  0.7818609E-02  0.8885373E-01
        1   -1    0    0  501    0  0.00000000000E+00  0.00000000000E+00  0.95359588858E+03  0.95359588860E+03  0.50400001928E-02 0. -1.
       -1   -1    0    0    0  501  0.00000000000E+00  0.00000000000E+00 -0.58878568794E+03  0.58878568796E+03  0.50400001928E-02 0.  1.
    10030    2    1    2    0    0  0.00000000000E+00  0.00000000000E+00  0.36481020065E+03  0.15423815766E+04  0.14986175113E+04 0.  0.
        4    1    3    3  502    0 -0.32006209292E+03  0.15486517633E+03 -0.49643132537E+03  0.61062970765E+03  0.12699999809E+01 0.  1.
       -4    1    3    3    0  502  0.32006209292E+03 -0.15486517633E+03  0.86124152602E+03  0.93175186890E+03  0.12699999809E+01 0. -1.
</event>
<event>
 5   0  0.1643498E-05  0.1500154E+04  0.7818609E-02  0.8884351E-01
       -1   -1    0    0    0  501  0.00000000000E+00  0.00000000000E+00  0.39699170494E+03  0.39699170498E+03  0.50400001928E-02 0.  1.
        1   -1    0    0  501    0  0.00000000000E+00  0.00000000000E+00 -0.14171967852E+04  0.14171967852E+04  0.50400001928E-02 0. -1.
    10030    2    1    2    0    0  0.00000000000E+00  0.00000000000E+00 -0.10202050803E+04  0.18141884902E+04  0.15001538162E+04 0.  0.
        4    1    3    3  502    0  0.59673153189E+02  0.49859625317E+03  0.16372025382E+03  0.52817141469E+03  0.12699999809E+01 0.  1.
       -4    1    3    3    0  502 -0.59673153189E+02 -0.49859625317E+03 -0.11839253341E+04  0.12860170755E+04  0.12699999809E+01 0. -1.
</event>
<event>
 5   0  0.1588657E-05  0.1499644E+04  0.7818609E-02  0.8884689E-01
       -1   -1    0    0    0  501  0.00000000000E+00  0.00000000000E+00  0.15789192021E+04  0.15789192021E+04  0.50400001928E-02 0.  1.
        1   -1    0    0  501    0  0.00000000000E+00  0.00000000000E+00 -0.35608746214E+03  0.35608746217E+03  0.50400001928E-02 0. -1.
    10030    2    1    2    0    0  0.00000000000E+00  0.00000000000E+00  0.12228317399E+04  0.19350066643E+04  0.14996444000E+04 0.  0.
        3    1    3    3  502    0  0.19895960772E+03  0.13415447912E+03 -0.30520498030E+03  0.38824275907E+03  0.10100000352E+00 0. -1.
       -3    1    3    3    0  502 -0.19895960772E+03 -0.13415447912E+03  0.15280367202E+04  0.15467639052E+04  0.10100000352E+00 0.  1.
</event>
<event>
 5   0  0.3018308E-05  0.1493756E+04  0.7818609E-02  0.8888615E-01
        2   -1    0    0  501    0  0.00000000000E+00  0.00000000000E+00  0.93822700488E+03  0.93822700489E+03  0.25500000920E-02 0.  1.
       -2   -1    0    0    0  501  0.00000000000E+00  0.00000000000E+00 -0.59455452268E+03  0.59455452269E+03  0.25500000920E-02 0. -1.
    10030    2    1    2    0    0  0.00000000000E+00  0.00000000000E+00  0.34367248220E+03  0.15327815276E+04  0.14937564849E+04 0.  0.
        2    1    3    3  502    0 -0.69544983583E+03 -0.16389574788E+02  0.45079899926E+03  0.82893837531E+03  0.25500000920E-02 0.  1.
       -2    1    3    3    0  502  0.69544983583E+03  0.16389574788E+02 -0.10712651706E+03  0.70384315226E+03  0.25500000920E-02 0. -1.
</event>
<event>
 5   0  0.1533777E-05  0.1500248E+04  0.7818609E-02  0.8884288E-01
        1   -1    0    0  501    0  0.00000000000E+00  0.00000000000E+00  0.88127434659E+03  0.88127434661E+03  0.50400001928E-02 0. -1.
       -1   -1    0    0    0  501  0.00000000000E+00  0.00000000000E+00 -0.63849093941E+03  0.63849093943E+03  0.50400001928E-02 0.  1.
    10030    2    1    2    0    0  0.00000000000E+00  0.00000000000E+00  0.24278340719E+03  0.15197652860E+04  0.15002475602E+04 0.  0.
        5    1    3    3  502    0  0.11220268455E+03  0.18020396663E+02  0.87248862239E+03  0.87987082195E+03  0.46999998093E+01 0. -1.
       -5    1    3    3    0  502 -0.11220268455E+03 -0.18020396663E+02 -0.62970521520E+03  0.63989446409E+03  0.46999998093E+01 0.  1.
</event>
<event>
 5   0  0.3093600E-05  0.1500191E+04  0.7818609E-02  0.8884326E-01
        2   -1    0    0  501    0  0.00000000000E+00  0.00000000000E+00  0.70435053224E+03  0.70435053224E+03  0.25500000920E-02 0. -1.
       -2   -1    0    0    0  501  0.00000000000E+00  0.00000000000E+00 -0.79881156396E+03  0.79881156396E+03  0.25500000920E-02 0.  1.
    10030    2    1    2    0    0  0.00000000000E+00  0.00000000000E+00 -0.94461031720E+02  0.15031620962E+04  0.15001911215E+04 0.  0.
        1    1    3    3  502    0 -0.16808613798E+03 -0.72840728278E+03 -0.10910417106E+03  0.75546928432E+03  0.50400001928E-02 0. -1.
       -1    1    3    3    0  502  0.16808613798E+03  0.72840728278E+03  0.14643139337E+02  0.74769281188E+03  0.50400001928E-02 0.  1.
</event>
<event>
 5   0  0.1588657E-05  0.1501845E+04  0.7818609E-02  0.8883227E-01
        1   -1    0    0  501    0  0.00000000000E+00  0.00000000000E+00  0.12158544104E+04  0.12158544104E+04  0.50400001928E-02 0.  1.
       -1   -1    0    0    0  501  0.00000000000E+00  0.00000000000E+00 -0.46377621207E+03  0.46377621210E+03  0.50400001928E-02 0. -1.
    10030    2    1    2    0    0  0.00000000000E+00  0.00000000000E+00  0.75207819831E+03  0.16796306225E+04  0.15018446696E+04 0.  0.
        3    1    3    3  502    0 -0.23397959956E+03 -0.40496977002E+03 -0.28099023890E+03  0.54562119846E+03  0.10100000352E+00 0. -1.
       -3    1    3    3    0  502  0.23397959956E+03  0.40496977002E+03  0.10330684372E+04  0.11340094240E+04  0.10100000352E+00 0.  1.
</event>
<event>
 5   0  0.3093600E-05  0.1499483E+04  0.7818609E-02  0.8884797E-01
       -2   -1    0    0    0  501  0.00000000000E+00  0.00000000000E+00  0.90502494157E+03  0.90502494157E+03  0.25500000920E-02 0. -1.
        2   -1    0    0  501    0  0.00000000000E+00  0.00000000000E+00 -0.62110120052E+03  0.62110120052E+03  0.25500000920E-02 0.  1.
    10030    2    1    2    0    0  0.00000000000E+00  0.00000000000E+00  0.28392374105E+03  0.15261261421E+04  0.14994826811E+04 0.  0.
        1    1    3    3  502    0  0.32604721900E+03  0.20397437212E+03 -0.51305711922E+03  0.64120195033E+03  0.50400001928E-02 0.  1.
       -1    1    3    3    0  502 -0.32604721900E+03 -0.20397437212E+03  0.79698086027E+03  0.88492419176E+03  0.50400001928E-02 0. -1.
</event>
<event>
 5   0  0.1576214E-05  0.1506261E+04  0.7818609E-02  0.8880300E-01
        1   -1    0    0  501    0  0.00000000000E+00  0.00000000000E+00  0.68563285707E+03  0.68563285709E+03  0.50400001928E-02 0.  1.
       -1   -1    0    0    0  501  0.00000000000E+00  0.00000000000E+00 -0.82727301517E+03  0.82727301519E+03  0.50400001928E-02 0. -1.
    10030    2    1    2    0    0  0.00000000000E+00  0.00000000000E+00 -0.14164015810E+03  0.15129058723E+04  0.15062610146E+04 0.  0.
        1    1    3    3  502    0 -0.48718670330E+03 -0.39765872242E+03 -0.48704196907E+03  0.79542015504E+03  0.50400001928E-02 0.  1.
       -1    1    3    3    0  502  0.48718670330E+03  0.39765872242E+03  0.34540181097E+03  0.71748571724E+03  0.50400001928E-02 0. -1.
</event>
<event>
 5   0  0.3030702E-05  0.1500038E+04  0.7818609E-02  0.8884428E-01
       -2   -1    0    0    0  501  0.00000000000E+00  0.00000000000E+00  0.84358337513E+03  0.84358337514E+03  0.25500000920E-02 0. -1.
        2   -1    0    0  501    0  0.00000000000E+00  0.00000000000E+00 -0.66683174867E+03  0.66683174867E+03  0.25500000920E-02 0.  1.
    10030    2    1    2    0    0  0.00000000000E+00  0.00000000000E+00  0.17675162646E+03  0.15104151238E+04  0.15000375691E+04 0.  0.
        5    1    3    3  502    0 -0.74156674421E+03  0.12503693616E+02  0.20063029776E+03  0.76834379340E+03  0.46999998093E+01 0.  1.
       -5    1    3    3    0  502  0.74156674421E+03 -0.12503693616E+02 -0.23878671295E+02  0.74207133041E+03  0.46999998093E+01 0. -1.
</event>
<event>
 5   0  0.1580078E-05  0.1499078E+04  0.7818609E-02  0.8885066E-01
       -1   -1    0    0    0  501  0.00000000000E+00  0.00000000000E+00  0.69990700252E+03  0.69990700254E+03  0.50400001928E-02 0.  1.
        1   -1    0    0  501    0  0.00000000000E+00  0.00000000000E+00 -0.80269082511E+03  0.80269082512E+03  0.50400001928E-02 0. -1.
    10030    2    1    2    0    0  0.00000000000E+00  0.00000000000E+00 -0.10278382259E+03  0.15025978277E+04  0.14990782893E+04 0.  0.
        2    1    3    3  502    0 -0.71492429237E+03  0.66467576729E+02  0.16422763179E+03  0.73654965728E+03  0.25500000920E-02 0. -1.
       -2    1    3    3    0  502  0.71492429237E+03 -0.66467576729E+02 -0.26701145437E+03  0.76604817039E+03  0.25500000920E-02 0.  1.
</event>
<event>
 5   0  0.2969498E-05  0.1499932E+04  0.7818609E-02  0.8884498E-01
       -2   -1    0    0    0  501  0.00000000000E+00  0.00000000000E+00  0.10701699488E+04  0.10701699488E+04  0.25500000920E-02 0. -1.
        2   -1    0    0  501    0  0.00000000000E+00  0.00000000000E+00 -0.52556993210E+03  0.52556993211E+03  0.25500000920E-02 0.  1.
    10030    2    1    2    0    0  0.00000000000E+00  0.00000000000E+00  0.54460001670E+03  0.15957398809E+04  0.14999321949E+04 0.  0.
        3    1    3    3  502    0  0.44535418993E+03 -0.19339462511E+02 -0.36932735918E+03  0.57889297607E+03  0.10100000352E+00 0.  1.
       -3    1    3    3    0  502 -0.44535418993E+03  0.19339462511E+02  0.91392737588E+03  0.10168469048E+04  0.10100000352E+00 0. -1.
</event>
<event>
 5   0  0.3018308E-05  0.1498776E+04  0.7818609E-02  0.8885267E-01
       -2   -1    0    0    0  501  0.00000000000E+00  0.00000000000E+00  0.30376240879E+03  0.30376240880E+03  0.25500000920E-02 0. -1.
        2   -1    0    0  501    0  0.00000000000E+00  0.00000000000E+00 -0.18487551328E+04  0.18487551328E+04  0.25500000920E-02 0.  1.
    10030    2    1    2    0    0  0.00000000000E+00  0.00000000000E+00 -0.15449927240E+04  0.21525175416E+04  0.14987759171E+04 0.  0.
        2    1    3    3  502    0  0.35934493068E+03  0.47433328109E+03 -0.14266484326E+04  0.15457834878E+04  0.25500000920E-02 0.  1.
       -2    1    3    3    0  502 -0.35934493068E+03 -0.47433328109E+03 -0.11834429137E+03  0.60673405382E+03  0.25500000920E-02 0. -1.
</event>
<event>
 5   0  0.1580078E-05  0.1499538E+04  0.7818609E-02  0.8884760E-01
       -1   -1    0    0    0  501  0.00000000000E+00  0.00000000000E+00  0.40945167589E+03  0.40945167592E+03  0.50400001928E-02 0. -1.
        1   -1    0    0  501    0  0.00000000000E+00  0.00000000000E+00 -0.13729415589E+04  0.13729415589E+04  0.50400001928E-02 0.  1.
    10030    2    1    2    0    0  0.00000000000E+00  0.00000000000E+00 -0.96348988304E+03  0.17823932349E+04  0.14995375584E+04 0.  0.
        2    1    3    3  502    0  0.49074839678E+03  0.50360192105E+03 -0.17246309715E+03  0.72401132844E+03  0.25500000920E-02 0. -1.
       -2    1    3    3    0  502 -0.49074839678E+03 -0.50360192105E+03 -0.79102678589E+03  0.10583819064E+04  0.25500000920E-02 0.  1.
</event>
<event>
 5   0  0.1116613E-05  0.1503560E+04  0.7818609E-02  0.8882089E-01
        4   -1    0    0  501    0  0.00000000000E+00  0.00000000000E+00  0.99032885150E+03  0.99032966583E+03  0.12699999809E+01 0.  1.
       -4   -1    0    0    0  501  0.00000000000E+00  0.00000000000E+00 -0.57069066683E+03  0.57069207994E+03  0.12699999809E+01 0. -1.
    10030    2    1    2    0    0  0.00000000000E+00  0.00000000000E+00  0.41963818467E+03  0.15610217458E+04  0.15035600037E+04 0.  0.
        2    1    3    3  502    0  0.66823671078E+03 -0.35978893281E+02  0.56545716564E+03  0.87611448372E+03  0.25500000920E-02 0. -1.
       -2    1    3    3    0  502 -0.66823671078E+03  0.35978893281E+02 -0.14581898097E+03  0.68490726205E+03  0.25500000920E-02 0.  1.
</event>
<event>
 5   0  0.3030702E-05  0.1499744E+04  0.7818609E-02  0.8884623E-01
        2   -1    0    0  501    0  0.00000000000E+00  0.00000000000E+00  0.21856439204E+04  0.21856439204E+04  0.25500000920E-02 0.  1.
       -2   -1    0    0    0  501  0.00000000000E+00  0.00000000000E+00 -0.25727322324E+03  0.25727322325E+03  0.25500000920E-02 0. -1.
    10030    2    1    2    0    0  0.00000000000E+00  0.00000000000E+00  0.19283706971E+04  0.24429171436E+04  0.14997435198E+04 0.  0.
        5    1    3    3  502    0 -0.77047581934E+02 -0.52057144264E+02  0.21761925345E+04  0.21781832598E+04  0.46999998093E+01 0.  1.
       -5    1    3    3    0  502  0.77047581934E+02  0.52057144264E+02 -0.24782183738E+03  0.26473388380E+03  0.46999998093E+01 0. -1.
</event>
<event>
 5   0  0.2969498E-05  0.1500034E+04  0.7818609E-02  0.8884431E-01
        2   -1    0    0  501    0  0.00000000000E+00  0.00000000000E+00  0.18789807742E+04  0.18789807742E+04  0.25500000920E-02 0. -1.
       -2   -1    0    0    0  501  0.00000000000E+00  0.00000000000E+00 -0.29937786983E+03  0.29937786985E+03  0.25500000920E-02 0.  1.
    10030    2    1    2    0    0  0.00000000000E+00  0.00000000000E+00  0.15796029044E+04  0.21783586440E+04  0.15000336818E+04 0.  0.
        3    1    3    3  502    0  0.46127265879E+03  0.40522450342E+03  0.14153399445E+04  0.15427788347E+04  0.10100000352E+00 0. -1.
       -3    1    3    3    0  502 -0.46127265879E+03 -0.40522450342E+03  0.16426295983E+03  0.63557980938E+03  0.10100000352E+00 0.  1.
</event>
<event>
 5   0  0.3093600E-05  0.1500365E+04  0.7818609E-02  0.8884210E-01
       -2   -1    0    0    0  501  0.00000000000E+00  0.00000000000E+00  0.36905623688E+03  0.36905623689E+03  0.25500000920E-02 0. -1.
        2   -1    0    0  501    0  0.00000000000E+00  0.00000000000E+00 -0.15248997833E+04  0.15248997833E+04  0.25500000920E-02 0.  1.
    10030    2    1    2    0    0  0.00000000000E+00  0.00000000000E+00 -0.11558435464E+04  0.18939560202E+04  0.15003649898E+04 0.  0.
        1    1    3    3  502    0  0.27634932630E+03  0.43075280449E+03  0.11447162480E+03  0.52442414288E+03  0.50400001928E-02 0. -1.
       -1    1    3    3    0  502 -0.27634932630E+03 -0.43075280449E+03 -0.12703151712E+04  0.13695318773E+04  0.50400001928E-02 0.  1.
</event>
<event>
 5   0  0.1533777E-05  0.1500130E+04  0.7818609E-02  0.8884367E-01
        1   -1    0    0  501    0  0.00000000000E+00  0.00000000000E+00  0.75469320692E+03  0.75469320693E+03  0.50400001928E-02 0. -1.
       -1   -1    0    0    0  501  0.00000000000E+00  0.00000000000E+00 -0.74546486168E+03  0.74546486170E+03  0.50400001928E-02 0.  1.
    10030    2    1    2    0    0  0.00000000000E+00  0.00000000000E+00  0.92283452374E+01  0.15001580686E+04  0.15001296839E+04 0.  0.
        5    1    3    3  502    0 -0.25153255134E+03  0.16044741768E+03  0.69278646220E+03  0.75431238252E+03  0.46999998093E+01 0. -1.
       -5    1    3    3    0  502  0.25153255134E+03 -0.16044741768E+03 -0.68355811696E+03  0.74584568611E+03  0.46999998093E+01 0.  1.
</event>
<event>
 5   0  0.1576214E-05  0.1499972E+04  0.7818609E-02  0.8884471E-01
        1   -1    0    0  501    0  0.00000000000E+00  0.00000000000E+00  0.97263419348E+03  0.97263419349E+03  0.50400001928E-02 0. -1.
       -1   -1    0    0    0  501  0.00000000000E+00  0.00000000000E+00 -0.57830506087E+03  0.57830506089E+03  0.50400001928E-02 0.  1.
    10030    2    1    2    0    0  0.00000000000E+00  0.00000000000E+00  0.39432913261E+03  0.15509392544E+04  0.14999723684E+04 0.  0.
        1    1    3    3  502    0  0.62840302391E+03  0.34234145975E+03  0.42927200336E+03  0.83448336617E+03  0.50400001928E-02 0. -1.
       -1    1    3    3    0  502 -0.62840302391E+03 -0.34234145975E+03 -0.34942870748E+02  0.71645588822E+03  0.50400001928E-02 0.  1.
</event>
<event>
 5   0  0.3018308E-05  0.1500557E+04  0.7818609E-02  0.8884082E-01
        2   -1    0    0  501    0  0.00000000000E+00  0.00000000000E+00  0.82290996443E+03  0.82290996443E+03  0.25500000920E-02 0.  1.
       -2   -1    0    0    0  501  0.00000000000E+00  0.00000000000E+00 -0.68405802486E+03  0.68405802486E+03  0.25500000920E-02 0. -1.
    10030    2    1    2    0    0  0.00000000000E+00  0.00000000000E+00  0.13885193957E+03  0.15069679893E+04  0.15005574496E+04 0.  0.
        2    1    3    3  502    0 -0.29557134921E+03 -0.20014297444E+03 -0.59331641739E+03  0.69241895110E+03  0.25500000920E-02 0. -1.
       -2    1    3    3    0  502  0.29557134921E+03  0.20014297444E+03  0.73216835696E+03  0.81454903820E+03  0.25500000920E-02 0.  1.
</event>
<event>
 5   0  0.1580078E-05  0.1499721E+04  0.7818609E-02  0.8884638E-01
        1   -1    0    0  501    0  0.00000000000E+00  0.00000000000E+00  0.11780367287E+04  0.11780367287E+04  0.50400001928E-02 0.  1.
       -1   -1    0    0    0  501  0.00000000000E+00  0.00000000000E+00 -0.47731191371E+03  0.47731191374E+03  0.50400001928E-02 0. -1.
    10030    2    1    2    0    0  0.00000000000E+00  0.00000000000E+00  0.70072481501E+03  0.16553486425E+04  0.14997212613E+04 0.  0.
        2    1    3    3  502    0 -0.57657139090E+03  0.41240904500E+03  0.80501882381E+02  0.71343979583E+03  0.25500000920E-02 0. -1.
       -2    1    3    3    0  502  0.57657139090E+03 -0.41240904500E+03  0.62022293263E+03  0.94190884663E+03  0.25500000920E-02 0.  1.
</event>
<event>
 5   0  0.2969498E-05  0.1499655E+04  0.7818609E-02  0.8884682E-01
        2   -1    0    0  501    0  0.00000000000E+00  0.00000000000E+00  0.52890327517E+03  0.52890327517E+03  0.25500000920E-02 0.  1.
       -2   -1    0    0    0  501  0.00000000000E+00  0.00000000000E+00 -0.10630325084E+04  0.10630325084E+04  0.25500000920E-02 0. -1.
    10030    2    1    2    0    0  0.00000000000E+00  0.00000000000E+00 -0.53412923328E+03  0.15919357836E+04  0.14996551275E+04 0.  0.
        3    1    3    3  502    0  0.32407921052E+02  0.46927147860E+03 -0.88692753067E+03  0.10039454412E+04  0.10100000352E+00 0. -1.
       -3    1    3    3    0  502 -0.32407921052E+02 -0.46927147860E+03  0.35279829739E+03  0.58799034245E+03  0.10100000352E+00 0.  1.
</event>
<event>
 5   0  0.3030702E-05  0.1500677E+04  0.7818609E-02  0.8884003E-01
        2   -1    0    0  501    0  0.00000000000E+00  0.00000000000E+00  0.18497786101E+04  0.18497786101E+04  0.25500000920E-02 0.  1.
       -2   -1    0    0    0  501  0.00000000000E+00  0.00000000000E+00 -0.30436509325E+03  0.30436509326E+03  0.25500000920E-02 0. -1.
    10030    2    1    2    0    0  0.00000000000E+00  0.00000000000E+00  0.15454135169E+04  0.21541437034E+04  0.15006772327E+04 0.  0.
        5    1    3    3  502    0  0.64638906891E+03  0.11207323892E+03  0.12954279752E+04  0.14520795323E+04  0.46999998093E+01 0.  1.
       -5    1    3    3    0  502 -0.64638906891E+03 -0.11207323892E+03  0.24998554174E+03  0.70206417112E+03  0.46999998093E+01 0. -1.
</event>
<event>
 5   0  0.1588657E-05  0.1500683E+04  0.7818609E-02  0.8883999E-01
       -1   -1    0    0    0  501  0.00000000000E+00  0.00000000000E+00  0.39120071017E+03  0.39120071020E+03  0.50400001928E-02 0. -1.
        1   -1    0    0  501    0  0.00000000000E+00  0.00000000000E+00 -0.14391905161E+04  0.14391905161E+04  0.50400001928E-02 0.  1.
    10030    2    1    2    0    0  0.00000000000E+00  0.00000000000E+00 -0.10479898059E+04  0.18303912263E+04  0.15006829805E+04 0.  0.
        3    1    3    3  502    0 -0.42497786823E+02 -0.70623708504E+03 -0.21922601891E+03  0.74070030359E+03  0.10100000352E+00 0. -1.
       -3    1    3    3    0  502  0.42497786823E+02  0.70623708504E+03 -0.82876378702E+03  0.10896909227E+04  0.10100000352E+00 0.  1.
</event>
<event>
 5   0  0.1533777E-05  0.1500528E+04  0.7818609E-02  0.8884102E-01
        1   -1    0    0  501    0  0.00000000000E+00  0.00000000000E+00  0.85011734331E+03  0.85011734333E+03  0.50400001928E-02 0.  1.
       -1   -1    0    0    0  501  0.00000000000E+00  0.00000000000E+00 -0.66213952250E+03  0.66213952252E+03  0.50400001928E-02 0. -1.
    10030    2    1    2    0    0  0.00000000000E+00  0.00000000000E+00  0.18797782081E+03  0.15122568659E+04  0.15005282960E+04 0.  0.
        5    1    3    3  502    0 -0.44803871204E+03  0.26566449909E+03  0.63817041042E+03  0.82377173798E+03  0.46999998093E+01 0.  1.
       -5    1    3    3    0  502  0.44803871204E+03 -0.26566449909E+03 -0.45019258961E+03  0.68848512787E+03  0.46999998093E+01 0. -1.
</event>
<event>
 5   0  0.3093600E-05  0.1502489E+04  0.7818609E-02  0.8882800E-01
        2   -1    0    0  501    0  0.00000000000E+00  0.00000000000E+00  0.69556794642E+03  0.69556794642E+03  0.25500000920E-02 0. -1.
       -2   -1    0    0    0  501  0.00000000000E+00  0.00000000000E+00 -0.81137723300E+03  0.81137723301E+03  0.25500000920E-02 0.  1.
    10030    2    1    2    0    0  0.00000000000E+00  0.00000000000E+00 -0.11580928659E+03  0.15069451794E+04  0.15024885966E+04 0.  0.
        1    1    3    3  502    0 -0.66368473321E+03 -0.33116503695E+03 -0.17750720431E+03  0.76266409014E+03  0.50400001928E-02 0.  1.
       -1    1    3    3    0  502  0.66368473321E+03  0.33116503695E+03  0.61697917721E+02  0.74428108928E+03  0.50400001928E-02 0. -1.
</event>
<event>
 5   0  0.3070497E-05  0.1499960E+04  0.7818609E-02  0.8884480E-01
       -2   -1    0    0    0  501  0.00000000000E+00  0.00000000000E+00  0.35908346673E+03  0.35908346673E+03  0.25500000920E-02 0.  1.
        2   -1    0    0  501    0  0.00000000000E+00  0.00000000000E+00 -0.15664043508E+04  0.15664043508E+04  0.25500000920E-02 0. -1.
    10030    2    1    2    0    0  0.00000000000E+00  0.00000000000E+00 -0.12073208841E+04  0.19254878176E+04  0.14999598723E+04 0.  0.
        4    1    3    3  502    0  0.15518599268E+03  0.13948149124E+03  0.32107124265E+03  0.38291792134E+03  0.12699999809E+01 0.  1.
       -4    1    3    3    0  502 -0.15518599268E+03 -0.13948149124E+03 -0.15283921268E+04  0.15425698962E+04  0.12699999809E+01 0. -1.
</event>
<event>
 5   0  0.1580078E-05  0.1499499E+04  0.7818609E-02  0.8884786E-01
        1   -1    0    0  501    0  0.00000000000E+00  0.00000000000E+00  0.36728931695E+03  0.36728931699E+03  0.50400001928E-02 0. -1.
       -1   -1    0    0    0  501  0.00000000000E+00  0.00000000000E+00 -0.15304665410E+04  0.15304665410E+04  0.50400001928E-02 0.  1.
    10030    2    1    2    0    0  0.00000000000E+00  0.00000000000E+00 -0.11631772241E+04  0.18977558580E+04  0.14994985969E+04 0.  0.
        2    1    3    3  502    0 -0.16469578962E+03 -0.36965798253E+03 -0.13803699915E+04  0.14384689919E+04  0.25500000920E-02 0.  1.
       -2    1    3    3    0  502  0.16469578962E+03  0.36965798253E+03  0.21719276744E+03  0.45928686613E+03  0.25500000920E-02 0. -1.
</event>
<event>
 5   0  0.1643498E-05  0.1500311E+04  0.7818609E-02  0.8884246E-01
        1   -1    0    0  501    0  0.00000000000E+00  0.00000000000E+00  0.61692474654E+03  0.61692474656E+03  0.50400001928E-02 0. -1.
       -1   -1    0    0    0  501  0.00000000000E+00  0.00000000000E+00 -0.91215921013E+03  0.91215921014E+03  0.50400001928E-02 0.  1.
    10030    2    1    2    0    0  0.00000000000E+00  0.00000000000E+00 -0.29523446359E+03  0.15290839567E+04  0.15003114204E+04 0.  0.
        4    1    3    3  502    0  0.33427881480E+03  0.26416767626E+03  0.48164151592E+03  0.64304513835E+03  0.12699999809E+01 0. -1.
       -4    1    3    3    0  502 -0.33427881480E+03 -0.26416767626E+03 -0.77687597951E+03  0.88603881836E+03  0.12699999809E+01 0.  1.
</event>
<event>
 5   0  0.3030702E-05  0.1498985E+04  0.7818609E-02  0.8885128E-01
        2   -1    0    0  501    0  0.00000000000E+00  0.00000000000E+00  0.23608868218E+04  0.23608868218E+04  0.25500000920E-02 0. -1.
       -2   -1    0    0    0  501  0.00000000000E+00  0.00000000000E+00 -0.23793556336E+03  0.23793556337E+03  0.25500000920E-02 0.  1.
    10030    2    1    2    0    0  0.00000000000E+00  0.00000000000E+00  0.21229512584E+04  0.25988223852E+04  0.14989849045E+04 0.  0.
        5    1    3    3  502    0 -0.11569409218E+03 -0.54615544632E+03  0.19453520646E+03  0.59121648409E+03  0.46999998093E+01 0.  1.
       -5    1    3    3    0  502  0.11569409218E+03  0.54615544632E+03  0.19284160520E+04  0.20076059011E+04  0.46999998093E+01 0. -1.
</event>
<event>
 5   0  0.1576214E-05  0.1499921E+04  0.7818609E-02  0.8884505E-01
        1   -1    0    0  501    0  0.00000000000E+00  0.00000000000E+00  0.70322766967E+03  0.70322766969E+03  0.50400001928E-02 0. -1.
       -1   -1    0    0    0  501  0.00000000000E+00  0.00000000000E+00 -0.79979944726E+03  0.79979944728E+03  0.50400001928E-02 0.  1.
    10030    2    1    2    0    0  0.00000000000E+00  0.00000000000E+00 -0.96571777587E+02  0.15030271170E+04  0.14999214666E+04 0.  0.
        1    1    3    3  502    0 -0.19751954706E+03  0.16167647936E+03  0.65836062021E+03  0.70611044584E+03  0.50400001928E-02 0. -1.
       -1    1    3    3    0  502  0.19751954706E+03 -0.16167647936E+03 -0.75493239780E+03  0.79691667113E+03  0.50400001928E-02 0.  1.
</event>
<event>
 5   0  0.3030702E-05  0.1499966E+04  0.7818609E-02  0.8884476E-01
       -2   -1    0    0    0  501  0.00000000000E+00  0.00000000000E+00  0.65696081649E+03  0.65696081650E+03  0.25500000920E-02 0.  1.
        2   -1    0    0  501    0  0.00000000000E+00  0.00000000000E+00 -0.85617654687E+03  0.85617654688E+03  0.25500000920E-02 0. -1.
    10030    2    1    2    0    0  0.00000000000E+00  0.00000000000E+00 -0.19921573038E+03  0.15131373634E+04  0.14999659240E+04 0.  0.
        5    1    3    3  502    0 -0.87460055570E+02  0.60975385215E+03  0.33193750399E+03  0.69975254060E+03  0.46999998093E+01 0.  1.
       -5    1    3    3    0  502  0.87460055570E+02 -0.60975385215E+03 -0.53115323437E+03  0.81338482277E+03  0.46999998093E+01 0. -1.
</event>
<event>
 5   0  0.1580078E-05  0.1500029E+04  0.7818609E-02  0.8884433E-01
       -1   -1    0    0    0  501  0.00000000000E+00  0.00000000000E+00  0.15767044816E+04  0.15767044817E+04  0.50400001928E-02 0. -1.
        1   -1    0    0  501    0  0.00000000000E+00  0.00000000000E+00 -0.35677071632E+03  0.35677071636E+03  0.50400001928E-02 0.  1.
    10030    2    1    2    0    0  0.00000000000E+00  0.00000000000E+00  0.12199337653E+04  0.19334751980E+04  0.15000293162E+04 0.  0.
        2    1    3    3  502    0  0.19476553568E+03 -0.55342855397E+03  0.12122087001E+04  0.13467244376E+04  0.25500000920E-02 0. -1.
       -2    1    3    3    0  502 -0.19476553568E+03  0.55342855397E+03  0.77250652663E+01  0.58675076044E+03  0.25500000920E-02 0.  1.
</event>
<event>
 5   0  0.3093600E-05  0.1501239E+04  0.7818609E-02  0.8883629E-01
        2   -1    0    0  501    0  0.00000000000E+00  0.00000000000E+00  0.69033691722E+03  0.69033691723E+03  0.25500000920E-02 0.  1.
       -2   -1    0    0    0  501  0.00000000000E+00  0.00000000000E+00 -0.81616670638E+03  0.81616670638E+03  0.25500000920E-02 0. -1.
    10030    2    1    2    0    0  0.00000000000E+00  0.00000000000E+00 -0.12582978916E+03  0.15065036236E+04  0.15012394986E+04 0.  0.
        1    1    3    3  502    0  0.58436733097E+03  0.35981161872E+03 -0.36808719907E+03  0.77874114096E+03  0.50400001928E-02 0. -1.
       -1    1    3    3    0  502 -0.58436733097E+03 -0.35981161872E+03  0.24225740992E+03  0.72776248265E+03  0.50400001928E-02 0.  1.
</event>
<event>
 5   0  0.3018308E-05  0.1498966E+04  0.7818609E-02  0.8885141E-01
        2   -1    0    0  501    0  0.00000000000E+00  0.00000000000E+00  0.19553811556E+04  0.19553811556E+04  0.25500000920E-02 0.  1.
       -2   -1    0    0    0  501  0.00000000000E+00  0.00000000000E+00 -0.28727127160E+03  0.28727127161E+03  0.25500000920E-02 0. -1.
    10030    2    1    2    0    0  0.00000000000E+00  0.00000000000E+00  0.16681098840E+04  0.22426524272E+04  0.14989660851E+04 0.  0.
        2    1    3    3  502    0 -0.63939689414E+03 -0.24175389738E+03  0.37424899494E+03  0.77931742271E+03  0.25500000920E-02 0. -1.
       -2    1    3    3    0  502  0.63939689414E+03  0.24175389738E+03  0.12938608891E+04  0.14633350045E+04  0.25500000920E-02 0.  1.
</event>
<event>
 5   0  0.1116613E-05  0.1500785E+04  0.7818609E-02  0.8883931E-01
        3   -1    0    0  501    0  0.00000000000E+00  0.00000000000E+00  0.44541254009E+03  0.44541255154E+03  0.10100000352E+00 0.  1.
       -3   -1    0    0    0  501  0.00000000000E+00  0.00000000000E+00 -0.12641968775E+04  0.12641968815E+04  0.10100000352E+00 0. -1.
    10030    2    1    2    0    0  0.00000000000E+00  0.00000000000E+00 -0.81878433743E+03  0.17096094331E+04  0.15007853352E+04 0.  0.
        4    1    3    3  502    0 -0.19275520130E+03  0.46887553975E+03  0.22084204892E+03  0.55296624027E+03  0.12699999809E+01 0.  1.
       -4    1    3    3    0  502  0.19275520130E+03 -0.46887553975E+03 -0.10396263863E+04  0.11566431928E+04  0.12699999809E+01 0. -1.
</event>
<event>
 5   0  0.1643498E-05  0.1499299E+04  0.7818609E-02  0.8884919E-01
        1   -1    0    0  501    0  0.00000000000E+00  0.00000000000E+00  0.96394666173E+03  0.96394666175E+03  0.50400001928E-02 0.  1.
       -1   -1    0    0    0  501  0.00000000000E+00  0.00000000000E+00 -0.58299303307E+03  0.58299303309E+03  0.50400001928E-02 0. -1.
    10030    2    1    2    0    0  0.00000000000E+00  0.00000000000E+00  0.38095362866E+03  0.15469396948E+04  0.14992987535E+04 0.  0.
        4    1    3    3  502    0  0.30169711746E+03 -0.44844893548E+02  0.89702861904E+03  0.94746724030E+03  0.12699999809E+01 0.  1.
       -4    1    3    3    0  502 -0.30169711746E+03  0.44844893548E+02 -0.51607499038E+03  0.59947245454E+03  0.12699999809E+01 0. -1.
</event>
<event>
 5   0  0.1116613E-05  0.1492668E+04  0.7818609E-02  0.8889343E-01
        3   -1    0    0  501    0  0.00000000000E+00  0.00000000000E+00  0.10501203170E+04  0.10501203218E+04  0.10100000352E+00 0.  1.
       -3   -1    0    0    0  501  0.00000000000E+00  0.00000000000E+00 -0.53042897920E+03  0.53042898881E+03  0.10100000352E+00 0. -1.
    10030    2    1    2    0    0  0.00000000000E+00  0.00000000000E+00  0.51969133777E+03  0.15805493106E+04  0.14926677583E+04 0.  0.
        3    1    3    3  502    0  0.72478610356E+03 -0.17471093625E+03  0.22354242195E+03  0.77833799327E+03  0.10100000352E+00 0. -1.
       -3    1    3    3    0  502 -0.72478610356E+03  0.17471093625E+03  0.29614891582E+03  0.80221131736E+03  0.10100000352E+00 0.  1.
</event>
<event>
 5   0  0.3070497E-05  0.1499281E+04  0.7818609E-02  0.8884931E-01
       -2   -1    0    0    0  501  0.00000000000E+00  0.00000000000E+00  0.37866959942E+03  0.37866959943E+03  0.25500000920E-02 0. -1.
        2   -1    0    0  501    0  0.00000000000E+00  0.00000000000E+00 -0.14840393051E+04  0.14840393051E+04  0.25500000920E-02 0.  1.
    10030    2    1    2    0    0  0.00000000000E+00  0.00000000000E+00 -0.11053697057E+04  0.18627089045E+04  0.14992805864E+04 0.  0.
        4    1    3    3  502    0  0.31646649771E+03  0.80134841188E+02  0.28571667852E+03  0.43382977103E+03  0.12699999809E+01 0. -1.
       -4    1    3    3    0  502 -0.31646649771E+03 -0.80134841188E+02 -0.13910863842E+04  0.14288791335E+04  0.12699999809E+01 0.  1.
</event>
<event>
 5   0  0.3030702E-05  0.1497686E+04  0.7818609E-02  0.8885993E-01
       -2   -1    0    0    0  501  0.00000000000E+00  0.00000000000E+00  0.43128993388E+03  0.43128993389E+03  0.25500000920E-02 0.  1.
        2   -1    0    0  501    0  0.00000000000E+00  0.00000000000E+00 -0.13002064900E+04  0.13002064900E+04  0.25500000920E-02 0. -1.
    10030    2    1    2    0    0  0.00000000000E+00  0.00000000000E+00 -0.86891655615E+03  0.17314964239E+04  0.14976861769E+04 0.  0.
        5    1    3    3  502    0 -0.59067350560E+03  0.28391723251E+03 -0.15632517946E+02  0.65556895194E+03  0.46999998093E+01 0. -1.
       -5    1    3    3    0  502  0.59067350560E+03 -0.28391723251E+03 -0.85328403820E+03  0.10759274720E+04  0.46999998093E+01 0.  1.
</event>
<event>
 5   0  0.1576214E-05  0.1499518E+04  0.7818609E-02  0.8884773E-01
        1   -1    0    0  501    0  0.00000000000E+00  0.00000000000E+00  0.37413701257E+03  0.37413701261E+03  0.50400001928E-02 0.  1.
       -1   -1    0    0    0  501  0.00000000000E+00  0.00000000000E+00 -0.15024944897E+04  0.15024944897E+04  0.50400001928E-02 0. -1.
    10030    2    1    2    0    0  0.00000000000E+00  0.00000000000E+00 -0.11283574772E+04  0.18766315024E+04  0.14995183224E+04 0.  0.
        1    1    3    3  502    0 -0.39690733421E+03 -0.38858779584E+03  0.66058886964E+02  0.55937436802E+03  0.50400001928E-02 0.  1.
       -1    1    3    3    0  502  0.39690733421E+03  0.38858779584E+03 -0.11944163641E+04  0.13172571343E+04  0.50400001928E-02 0. -1.
</event>
<event>
 5   0  0.3070497E-05  0.1501353E+04  0.7818609E-02  0.8883554E-01
       -2   -1    0    0    0  501  0.00000000000E+00  0.00000000000E+00  0.59757599932E+03  0.59757599933E+03  0.25500000920E-02 0. -1.
        2   -1    0    0  501    0  0.00000000000E+00  0.00000000000E+00 -0.94300182759E+03  0.94300182760E+03  0.25500000920E-02 0.  1.
    10030    2    1    2    0    0  0.00000000000E+00  0.00000000000E+00 -0.34542582827E+03  0.15405778269E+04  0.15013530691E+04 0.  0.
        4    1    3    3  502    0  0.70435895406E+03  0.19399344785E+03  0.43010135851E+01  0.73059914153E+03  0.12699999809E+01 0. -1.
       -4    1    3    3    0  502 -0.70435895406E+03 -0.19399344785E+03 -0.34972684186E+03  0.80997868540E+03  0.12699999809E+01 0.  1.
</event>
<event>
 5   0  0.1116613E-05  0.1502556E+04  0.7818609E-02  0.8882755E-01
       -3   -1    0    0    0  501  0.00000000000E+00  0.00000000000E+00  0.50482164237E+03  0.50482165247E+03  0.10100000352E+00 0. -1.
        3   -1    0    0  501    0  0.00000000000E+00  0.00000000000E+00 -0.11180549730E+04  0.11180549776E+04  0.10100000352E+00 0.  1.
    10030    2    1    2    0    0  0.00000000000E+00  0.00000000000E+00 -0.61323333065E+03  0.16228766300E+04  0.15025556358E+04 0.  0.
        3    1    3    3  502    0 -0.23109987495E+03  0.52914606837E+03  0.21251274282E+03  0.61527586490E+03  0.10100000352E+00 0. -1.
       -3    1    3    3    0  502  0.23109987495E+03 -0.52914606837E+03 -0.82574607346E+03  0.10076007651E+04  0.10100000352E+00 0.  1.
</event>
<event>
 5   0  0.1588657E-05  0.1500545E+04  0.7818609E-02  0.8884091E-01
       -1   -1    0    0    0  501  0.00000000000E+00  0.00000000000E+00  0.36237639292E+03  0.36237639295E+03  0.50400001928E-02 0.  1.
        1   -1    0    0  501    0  0.00000000000E+00  0.00000000000E+00 -0.15533811938E+04  0.15533811938E+04  0.50400001928E-02 0. -1.
    10030    2    1    2    0    0  0.00000000000E+00  0.00000000000E+00 -0.11910048009E+04  0.19157575868E+04  0.15005447996E+04 0.  0.
        3    1    3    3  502    0 -0.32658336693E+03 -0.11161858979E+02  0.26675049180E+03  0.42182593297E+03  0.10100000352E+00 0.  1.
       -3    1    3    3    0  502  0.32658336693E+03  0.11161858979E+02 -0.14577552927E+04  0.14939316538E+04  0.10100000352E+00 0. -1.
</event>
<event>
 5   0  0.1580078E-05  0.1500055E+04  0.7818609E-02  0.8884416E-01
        1   -1    0    0  501    0  0.00000000000E+00  0.00000000000E+00  0.19604845294E+04  0.19604845294E+04  0.50400001928E-02 0. -1.
       -1   -1    0    0    0  501  0.00000000000E+00  0.00000000000E+00 -0.28694008238E+03  0.28694008242E+03  0.50400001928E-02 0.  1.
    10030    2    1    2    0    0  0.00000000000E+00  0.00000000000E+00  0.16735444470E+04  0.22474246118E+04  0.15000554555E+04 0.  0.
        2    1    3    3  502    0 -0.20403989978E+03  0.36535385882E+03  0.17693222226E+04  0.18181355423E+04  0.25500000920E-02 0. -1.
       -2    1    3    3    0  502  0.20403989978E+03 -0.36535385882E+03 -0.95777775617E+02  0.42928906947E+03  0.25500000920E-02 0.  1.
</event>
<event>
 5   0  0.1580078E-05  0.1499014E+04  0.7818609E-02  0.8885109E-01
       -1   -1    0    0    0  501  0.00000000000E+00  0.00000000000E+00  0.75623486052E+03  0.75623486054E+03  0.50400001928E-02 0.  1.
        1   -1    0    0  501    0  0.00000000000E+00  0.00000000000E+00 -0.74283858811E+03  0.74283858813E+03  0.50400001928E-02 0. -1.
    10030    2    1    2    0    0  0.00000000000E+00  0.00000000000E+00  0.13396272405E+02  0.14990734487E+04  0.14990135905E+04 0.  0.
        2    1    3    3  502    0 -0.66192801695E+03 -0.11376481841E+03 -0.32598510829E+03  0.74656374434E+03  0.25500000920E-02 0. -1.
       -2    1    3    3    0  502  0.66192801695E+03  0.11376481841E+03  0.33938138069E+03  0.75250970432E+03  0.25500000920E-02 0.  1.
</event>
<event>
 5   0  0.1576214E-05  0.1499259E+04  0.7818609E-02  0.8884946E-01
       -1   -1    0    0    0  501  0.00000000000E+00  0.00000000000E+00  0.46413486032E+03  0.46413486034E+03  0.50400001928E-02 0. -1.
        1   -1    0    0  501    0  0.00000000000E+00  0.00000000000E+00 -0.12107346230E+04  0.12107346230E+04  0.50400001928E-02 0.  1.
    10030    2    1    2    0    0  0.00000000000E+00  0.00000000000E+00 -0.74659976268E+03  0.16748694834E+04  0.14992586770E+04 0.  0.
        1    1    3    3  502    0  0.39687814923E+03  0.34345718391E+03  0.22462034783E+03  0.57090227115E+03  0.50400001928E-02 0.  1.
       -1    1    3    3    0  502 -0.39687814923E+03 -0.34345718391E+03 -0.97122011052E+03  0.11039672122E+04  0.50400001928E-02 0. -1.
</event>
<event>
 5   0  0.1533777E-05  0.1500204E+04  0.7818609E-02  0.8884317E-01
        1   -1    0    0  501    0  0.00000000000E+00  0.00000000000E+00  0.23207298054E+04  0.23207298055E+04  0.50400001928E-02 0.  1.
       -1   -1    0    0    0  501  0.00000000000E+00  0.00000000000E+00 -0.24244649462E+03  0.24244649467E+03  0.50400001928E-02 0. -1.
    10030    2    1    2    0    0  0.00000000000E+00  0.00000000000E+00  0.20782833108E+04  0.25631763001E+04  0.15002037280E+04 0.  0.
        5    1    3    3  502    0  0.29790176156E+03  0.48571814242E+03  0.20568487005E+03  0.60580188938E+03  0.46999998093E+01 0. -1.
       -5    1    3    3    0  502 -0.29790176156E+03 -0.48571814242E+03  0.18725984408E+04  0.19573744107E+04  0.46999998093E+01 0.  1.
</event>
<event>
 5   0  0.1580078E-05  0.1500377E+04  0.7818609E-02  0.8884203E-01
       -1   -1    0    0    0  501  0.00000000000E+00  0.00000000000E+00  0.10569796815E+04  0.10569796815E+04  0.50400001928E-02 0.  1.
        1   -1    0    0  501    0  0.00000000000E+00  0.00000000000E+00 -0.53244401967E+03  0.53244401969E+03  0.50400001928E-02 0. -1.
    10030    2    1    2    0    0  0.00000000000E+00  0.00000000000E+00  0.52453566180E+03  0.15894237012E+04  0.15003766332E+04 0.  0.
        2    1    3    3  502    0  0.42631921329E+02 -0.35033306892E+03  0.96354761998E+03  0.10261455822E+04  0.25500000920E-02 0.  1.
       -2    1    3    3    0  502 -0.42631921329E+02  0.35033306892E+03 -0.43901195817E+03  0.56327811898E+03  0.25500000920E-02 0. -1.
</event>
<event>
 5   0  0.3070497E-05  0.1499927E+04  0.7818609E-02  0.8884501E-01
        2   -1    0    0  501    0  0.00000000000E+00  0.00000000000E+00  0.88904439752E+03  0.88904439752E+03  0.25500000920E-02 0.  1.
       -2   -1    0    0    0  501  0.00000000000E+00  0.00000000000E+00 -0.63264025527E+03  0.63264025528E+03  0.25500000920E-02 0. -1.
    10030    2    1    2    0    0  0.00000000000E+00  0.00000000000E+00  0.25640414224E+03  0.15216846528E+04  0.14999270310E+04 0.  0.
        4    1    3    3  502    0 -0.91064135701E+01  0.65318080749E+03 -0.24553774054E+03  0.69786709980E+03  0.12699999809E+01 0. -1.
       -4    1    3    3    0  502  0.91064135701E+01 -0.65318080749E+03  0.50194188279E+03  0.82381755301E+03  0.12699999809E+01 0.  1.
</event>
<event>
 5   0  0.3070497E-05  0.1500791E+04  0.7818609E-02  0.8883927E-01
        2   -1    0    0  501    0  0.00000000000E+00  0.00000000000E+00  0.79608495986E+03  0.79608495986E+03  0.25500000920E-02 0.  1.
       -2   -1    0    0    0  501  0.00000000000E+00  0.00000000000E+00 -0.70732841742E+03  0.70732841743E+03  0.25500000920E-02 0. -1.
    10030    2    1    2    0    0  0.00000000000E+00  0.00000000000E+00  0.88756542432E+02  0.15034133773E+04  0.15007911444E+04 0.  0.
        4    1    3    3  502    0  0.37036490690E+03 -0.59119270628E+03 -0.23253358734E+03  0.73535873039E+03  0.12699999809E+01 0. -1.
       -4    1    3    3    0  502 -0.37036490690E+03  0.59119270628E+03  0.32129012978E+03  0.76805464689E+03  0.12699999809E+01 0.  1.
</event>
<event>
 5   0  0.3093600E-05  0.1499812E+04  0.7818609E-02  0.8884578E-01
       -2   -1    0    0    0  501  0.00000000000E+00  0.00000000000E+00  0.44637596601E+03  0.44637596601E+03  0.25500000920E-02 0.  1.
        2   -1    0    0  501    0  0.00000000000E+00  0.00000000000E+00 -0.12598326881E+04  0.12598326881E+04  0.25500000920E-02 0. -1.
    10030    2    1    2    0    0  0.00000000000E+00  0.00000000000E+00 -0.81345672210E+03  0.17062086541E+04  0.14998120324E+04 0.  0.
        1    1    3    3  502    0  0.50398431426E+03 -0.14482720374E+03 -0.10165832968E+04  0.11438604405E+04  0.50400001928E-02 0. -1.
       -1    1    3    3    0  502 -0.50398431426E+03  0.14482720374E+03  0.20312657473E+03  0.56234821361E+03  0.50400001928E-02 0.  1.
</event>
<event>
 5   0  0.1643498E-05  0.1499784E+04  0.7818609E-02  0.8884597E-01
       -1   -1    0    0    0  501  0.00000000000E+00  0.00000000000E+00  0.39372816982E+03  0.39372816985E+03  0.50400001928E-02 0. -1.
        1   -1    0    0  501    0  0.00000000000E+00  0.00000000000E+00 -0.14282385044E+04  0.14282385045E+04  0.50400001928E-02 0.  1.
    10030    2    1    2    0    0  0.00000000000E+00  0.00000000000E+00 -0.10345103346E+04  0.18219666743E+04  0.14997836277E+04 0.  0.
        4    1    3    3  502    0 -0.70362441986E+03  0.25929175909E+03 -0.52220158822E+03  0.91379190858E+03  0.12699999809E+01 0. -1.
       -4    1    3    3    0  502  0.70362441986E+03 -0.25929175909E+03 -0.51230874641E+03  0.90817476573E+03  0.12699999809E+01 0.  1.
</event>
<event>
 5   0  0.1643498E-05  0.1500266E+04  0.7818609E-02  0.8884276E-01
       -1   -1    0    0    0  501  0.00000000000E+00  0.00000000000E+00  0.42546502066E+03  0.42546502069E+03  0.50400001928E-02 0. -1.
        1   -1    0    0  501    0  0.00000000000E+00  0.00000000000E+00 -0.13225523798E+04  0.13225523798E+04  0.50400001928E-02 0.  1.
    10030    2    1    2    0    0  0.00000000000E+00  0.00000000000E+00 -0.89708735911E+03  0.17480174005E+04  0.15002663439E+04 0.  0.
        4    1    3    3  502    0 -0.73918269010E+03  0.79647185082E+01 -0.30004603929E+03  0.79779930100E+03  0.12699999809E+01 0.  1.
       -4    1    3    3    0  502  0.73918269010E+03 -0.79647185082E+01 -0.59704131983E+03  0.95021809947E+03  0.12699999809E+01 0. -1.
</event>
<event>
 5   0  0.3030702E-05  0.1500402E+04  0.7818609E-02  0.8884186E-01
        2   -1    0    0  501    0  0.00000000000E+00  0.00000000000E+00  0.88848351492E+03  0.88848351492E+03  0.25500000920E-02 0. -1.
       -2   -1    0    0    0  501  0.00000000000E+00  0.00000000000E+00 -0.63344069186E+03  0.63344069186E+03  0.25500000920E-02 0.  1.
    10030    2    1    2    0    0  0.00000000000E+00  0.00000000000E+00  0.25504282306E+03  0.15219242068E+04  0.15004020960E+04 0.  0.
        5    1    3    3  502    0 -0.49526926480E+03 -0.44189681602E+03 -0.22708596361E+03  0.70153728734E+03  0.46999998093E+01 0.  1.
       -5    1    3    3    0  502  0.49526926480E+03  0.44189681602E+03  0.48212878667E+03  0.82038691944E+03  0.46999998093E+01 0. -1.
</event>
<event>
 5   0  0.1533777E-05  0.1499657E+04  0.7818609E-02  0.8884681E-01
        1   -1    0    0  501    0  0.00000000000E+00  0.00000000000E+00  0.17493213785E+04  0.17493213785E+04  0.50400001928E-02 0.  1.
       -1   -1    0    0    0  501  0.00000000000E+00  0.00000000000E+00 -0.32140614766E+03  0.32140614770E+03  0.50400001928E-02 0. -1.
    10030    2    1    2    0    0  0.00000000000E+00  0.00000000000E+00  0.14279152308E+04  0.20707275262E+04  0.14996568212E+04 0.  0.
        5    1    3    3  502    0  0.64898359318E+02  0.53905401432E+03  0.14280193297E+04  0.15277605583E+04  0.46999998093E+01 0.  1.
       -5    1    3    3    0  502 -0.64898359318E+02 -0.53905401432E+03 -0.10409891576E+00  0.54296696790E+03  0.46999998093E+01 0. -1.
</event>
<event>
 5   0  0.1533777E-05  0.1500120E+04  0.7818609E-02  0.8884373E-01
        1   -1    0    0  501    0  0.00000000000E+00  0.00000000000E+00  0.10622913915E+04  0.10622913915E+04  0.50400001928E-02 0.  1.
       -1   -1    0    0    0  501  0.00000000000E+00  0.00000000000E+00 -0.52960033490E+03  0.52960033492E+03  0.50400001928E-02 0. -1.
    10030    2    1    2    0    0  0.00000000000E+00  0.00000000000E+00  0.53269105662E+03  0.15918917265E+04  0.15001198309E+04 0.  0.
        5    1    3    3  502    0  0.28034804782E+03  0.69384621017E+03  0.21275669428E+03  0.77801355530E+03  0.46999998093E+01 0.  1.
       -5    1    3    3    0  502 -0.28034804782E+03 -0.69384621017E+03  0.31993436234E+03  0.81387817116E+03  0.46999998093E+01 0. -1.
</event>
<event>
 5   0  0.3018308E-05  0.1499928E+04  0.7818609E-02  0.8884501E-01
       -2   -1    0    0    0  501  0.00000000000E+00  0.00000000000E+00  0.12070736339E+04  0.12070736339E+04  0.25500000920E-02 0. -1.
        2   -1    0    0  501    0  0.00000000000E+00  0.00000000000E+00 -0.46595842882E+03  0.46595842883E+03  0.25500000920E-02 0.  1.
    10030    2    1    2    0    0  0.00000000000E+00  0.00000000000E+00  0.74111520508E+03  0.16730320627E+04  0.14999281769E+04 0.  0.
        2    1    3    3  502    0 -0.49466878060E+03 -0.61387240692E+02  0.99556501085E+03  0.11133801178E+04  0.25500000920E-02 0. -1.
       -2    1    3    3    0  502  0.49466878060E+03  0.61387240692E+02 -0.25444980577E+03  0.55965194495E+03  0.25500000920E-02 0.  1.
</event>
<event>
 5   0  0.1588657E-05  0.1500437E+04  0.7818609E-02  0.8884162E-01
        1   -1    0    0  501    0  0.00000000000E+00  0.00000000000E+00  0.15100258660E+04  0.15100258660E+04  0.50400001928E-02 0.  1.
       -1   -1    0    0    0  501  0.00000000000E+00  0.00000000000E+00 -0.37272736722E+03  0.37272736725E+03  0.50400001928E-02 0. -1.
    10030    2    1    2    0    0  0.00000000000E+00  0.00000000000E+00  0.11372984988E+04  0.18827532333E+04  0.15004372236E+04 0.  0.
        3    1    3    3  502    0 -0.11565092804E+03  0.28235255164E+03  0.14286516313E+04  0.14608708342E+04  0.10100000352E+00 0.  1.
       -3    1    3    3    0  502  0.11565092804E+03 -0.28235255164E+03 -0.29135313251E+03  0.42188239901E+03  0.10100000352E+00 0. -1.
</event>
<event>
 5   0  0.2969498E-05  0.1501311E+04  0.7818609E-02  0.8883581E-01
       -2   -1    0    0    0  501  0.00000000000E+00  0.00000000000E+00  0.29895861095E+03  0.29895861096E+03  0.25500000920E-02 0. -1.
        2   -1    0    0  501    0  0.00000000000E+00  0.00000000000E+00 -0.18848221870E+04  0.18848221870E+04  0.25500000920E-02 0.  1.
    10030    2    1    2    0    0  0.00000000000E+00  0.00000000000E+00 -0.15858635761E+04  0.21837807980E+04  0.15013111908E+04 0.  0.
        3    1    3    3  502    0 -0.32539338861E+03  0.59083436325E+03 -0.31376287745E+03  0.74391750592E+03  0.10100000352E+00 0. -1.
       -3    1    3    3    0  502  0.32539338861E+03 -0.59083436325E+03 -0.12721006986E+04  0.14398632920E+04  0.10100000352E+00 0.  1.
</event>
<event>
 5   0  0.1116613E-05  0.1500071E+04  0.7818609E-02  0.8884405E-01
       -3   -1    0    0    0  501  0.00000000000E+00  0.00000000000E+00  0.92704421950E+03  0.92704422500E+03  0.10100000352E+00 0.  1.
        3   -1    0    0  501    0  0.00000000000E+00  0.00000000000E+00 -0.60682496486E+03  0.60682497327E+03  0.10100000352E+00 0. -1.
    10030    2    1    2    0    0  0.00000000000E+00  0.00000000000E+00  0.32021925464E+03  0.15338691983E+04  0.15000714471E+04 0.  0.
        5    1    3    3  502    0 -0.27429253238E+03  0.48567643066E+03  0.67281832591E+03  0.87397058206E+03  0.46999998093E+01 0.  1.
       -5    1    3    3    0  502  0.27429253238E+03 -0.48567643066E+03 -0.35259907128E+03  0.65989861621E+03  0.46999998093E+01 0. -1.
</event>
<event>
 5   0  0.3070497E-05  0.1499295E+04  0.7818609E-02  0.8884922E-01
       -2   -1    0    0    0  501  0.00000000000E+00  0.00000000000E+00  0.10677899590E+04  0.10677899590E+04  0.25500000920E-02 0. -1.
        2   -1    0    0  501    0  0.00000000000E+00  0.00000000000E+00 -0.52629384756E+03  0.52629384757E+03  0.25500000920E-02 0.  1.
    10030    2    1    2    0    0  0.00000000000E+00  0.00000000000E+00  0.54149611142E+03  0.15940838066E+04  0.14992948821E+04 0.  0.
        4    1    3    3  502    0  0.31082786392E+03  0.66139069035E+03  0.44839868984E+03  0.85738824591E+03  0.12699999809E+01 0. -1.
       -4    1    3    3    0  502 -0.31082786392E+03 -0.66139069035E+03  0.93097421580E+02  0.73669556065E+03  0.12699999809E+01 0.  1.
</event>
<event>
 5   0  0.3070497E-05  0.1500245E+04  0.7818609E-02  0.8884290E-01
       -2   -1    0    0    0  501  0.00000000000E+00  0.00000000000E+00  0.85418304749E+03  0.85418304749E+03  0.25500000920E-02 0.  1.
        2   -1    0    0  501    0  0.00000000000E+00  0.00000000000E+00 -0.65873904488E+03  0.65873904488E+03  0.25500000920E-02 0. -1.
    10030    2    1    2    0    0  0.00000000000E+00  0.00000000000E+00  0.19544400261E+03  0.15129220924E+04  0.15002449465E+04 0.  0.
        4    1    3    3  502    0  0.15399289369E+03  0.23742340910E+03  0.79828523682E+03  0.84696199367E+03  0.12699999809E+01 0.  1.
       -4    1    3    3    0  502 -0.15399289369E+03 -0.23742340910E+03 -0.60284123421E+03  0.66596009870E+03  0.12699999809E+01 0. -1.
</event>
<event>
 5   0  0.1580078E-05  0.1500495E+04  0.7818609E-02  0.8884124E-01
        1   -1    0    0  501    0  0.00000000000E+00  0.00000000000E+00  0.12569770287E+04  0.12569770287E+04  0.50400001928E-02 0.  1.
       -1   -1    0    0    0  501  0.00000000000E+00  0.00000000000E+00 -0.44779781255E+03  0.44779781258E+03  0.50400001928E-02 0. -1.
    10030    2    1    2    0    0  0.00000000000E+00  0.00000000000E+00  0.80917921615E+03  0.17047748413E+04  0.15004953368E+04 0.  0.
        2    1    3    3  502    0 -0.15054636363E+02 -0.68752816964E+03  0.63842003797E+02  0.69065000368E+03  0.25500000920E-02 0. -1.
       -2    1    3    3    0  502  0.15054636363E+02  0.68752816964E+03  0.74533721235E+03  0.10141248376E+04  0.25500000920E-02 0.  1.
</event>
<event>
 5   0  0.3093600E-05  0.1501279E+04  0.7818609E-02  0.8883603E-01
       -2   -1    0    0    0  501  0.00000000000E+00  0.00000000000E+00  0.43649001291E+03  0.43649001291E+03  0.25500000920E-02 0.  1.
        2   -1    0    0  501    0  0.00000000000E+00  0.00000000000E+00 -0.12908886848E+04  0.12908886848E+04  0.25500000920E-02 0. -1.
    10030    2    1    2    0    0  0.00000000000E+00  0.00000000000E+00 -0.85439867187E+03  0.17273786977E+04  0.15012794792E+04 0.  0.
        1    1    3    3  502    0  0.68138270742E+02  0.36526142024E+03  0.32325697173E+03  0.49249751151E+03  0.50400001928E-02 0.  1.
       -1    1    3    3    0  502 -0.68138270742E+02 -0.36526142024E+03 -0.11776556436E+04  0.12348811862E+04  0.50400001928E-02 0. -1.
</event>
<event>
 5   0  0.1576214E-05  0.1503328E+04  0.7818609E-02  0.8882243E-01
       -1   -1    0    0    0  501  0.00000000000E+00  0.00000000000E+00  0.74944975899E+03  0.74944975901E+03  0.50400001928E-02 0.  1.
        1   -1    0    0  501    0  0.00000000000E+00  0.00000000000E+00 -0.75388468304E+03  0.75388468306E+03  0.50400001928E-02 0. -1.
    10030    2    1    2    0    0  0.00000000000E+00  0.00000000000E+00 -0.44349240493E+01  0.15033344421E+04  0.15033279004E+04 0.  0.
        1    1    3    3  502    0  0.21364082479E+03  0.62387905296E+03  0.35852115774E+03  0.75060302112E+03  0.50400001928E-02 0.  1.
       -1    1    3    3    0  502 -0.21364082479E+03 -0.62387905296E+03 -0.36295608179E+03  0.75273142094E+03  0.50400001928E-02 0. -1.
</event>
<event>
 5   0  0.1533777E-05  0.1500208E+04  0.7818609E-02  0.8884314E-01
        1   -1    0    0  501    0  0.00000000000E+00  0.00000000000E+00  0.62281500756E+03  0.62281500758E+03  0.50400001928E-02 0.  1.
       -1   -1    0    0    0  501  0.00000000000E+00  0.00000000000E+00 -0.90340843851E+03  0.90340843853E+03  0.50400001928E-02 0. -1.
    10030    2    1    2    0    0  0.00000000000E+00  0.00000000000E+00 -0.28059343096E+03  0.15262234461E+04  0.15002084302E+04 0.  0.
        5    1    3    3  502    0  0.65738692034E+02  0.64456690846E+03  0.24420724473E+03  0.69242136268E+03  0.46999998093E+01 0.  1.
       -5    1    3    3    0  502 -0.65738692034E+02 -0.64456690846E+03 -0.52480067569E+03  0.83380208342E+03  0.46999998093E+01 0. -1.
</event>
<event>
 5   0  0.3093600E-05  0.1499839E+04  0.7818609E-02  0.8884560E-01
       -2   -1    0    0    0  501  0.00000000000E+00  0.00000000000E+00  0.13610640761E+04  0.13610640761E+04  0.25500000920E-02 0.  1.
        2   -1    0    0  501    0  0.00000000000E+00  0.00000000000E+00 -0.41319107303E+03  0.41319107303E+03  0.25500000920E-02 0. -1.
    10030    2    1    2    0    0  0.00000000000E+00  0.00000000000E+00  0.94787300303E+03  0.17742551491E+04  0.14998393595E+04 0.  0.
        1    1    3    3  502    0  0.59353193668E+03 -0.27552865710E+03  0.40604659455E+02  0.65562560897E+03  0.50400001928E-02 0. -1.
       -1    1    3    3    0  502 -0.59353193668E+03  0.27552865710E+03  0.90726834357E+03  0.11186295401E+04  0.50400001928E-02 0.  1.
</event>
<event>
 5   0  0.1533777E-05  0.1499825E+04  0.7818609E-02  0.8884569E-01
       -1   -1    0    0    0  501  0.00000000000E+00  0.00000000000E+00  0.62504617423E+03  0.62504617425E+03  0.50400001928E-02 0. -1.
        1   -1    0    0  501    0  0.00000000000E+00  0.00000000000E+00 -0.89972388857E+03  0.89972388858E+03  0.50400001928E-02 0.  1.
    10030    2    1    2    0    0  0.00000000000E+00  0.00000000000E+00 -0.27467771434E+03  0.15247700628E+04  0.14998252891E+04 0.  0.
        5    1    3    3  502    0 -0.49888280863E+03  0.43148887520E+03 -0.50003594773E+03  0.82772262576E+03  0.46999998093E+01 0. -1.
       -5    1    3    3    0  502  0.49888280863E+03 -0.43148887520E+03  0.22535823340E+03  0.69704743707E+03  0.46999998093E+01 0.  1.
</event>
<event>
 5   0  0.1588657E-05  0.1500462E+04  0.7818609E-02  0.8884146E-01
        1   -1    0    0  501    0  0.00000000000E+00  0.00000000000E+00  0.17408127213E+04  0.17408127213E+04  0.50400001928E-02 0. -1.
       -1   -1    0    0    0  501  0.00000000000E+00  0.00000000000E+00 -0.32332416284E+03  0.32332416288E+03  0.50400001928E-02 0.  1.
    10030    2    1    2    0    0  0.00000000000E+00  0.00000000000E+00  0.14174885585E+04  0.20641368842E+04  0.15004623499E+04 0.  0.
        3    1    3    3  502    0 -0.54193787374E+03  0.53074516006E+02  0.14186915273E+04  0.15196049563E+04  0.10100000352E+00 0. -1.
       -3    1    3    3    0  502  0.54193787374E+03 -0.53074516006E+02 -0.12029688111E+01  0.54453192797E+03  0.10100000352E+00 0.  1.
</event>
<event>
 5   0  0.1643498E-05  0.1501048E+04  0.7818609E-02  0.8883756E-01
        1   -1    0    0  501    0  0.00000000000E+00  0.00000000000E+00  0.89111806513E+03  0.89111806514E+03  0.50400001928E-02 0. -1.
       -1   -1    0    0    0  501  0.00000000000E+00  0.00000000000E+00 -0.63211195386E+03  0.63211195388E+03  0.50400001928E-02 0.  1.
    10030    2    1    2    0    0  0.00000000000E+00  0.00000000000E+00  0.25900611127E+03  0.15232300190E+04  0.15010481422E+04 0.  0.
        4    1    3    3  502    0 -0.35325608746E+03  0.14866537298E+03  0.78432442789E+03  0.87295914998E+03  0.12699999809E+01 0. -1.
       -4    1    3    3    0  502  0.35325608746E+03 -0.14866537298E+03 -0.52531831662E+03  0.65027086904E+03  0.12699999809E+01 0.  1.
</event>
<event>
 5   0  0.3030702E-05  0.1499491E+04  0.7818609E-02  0.8884791E-01
       -2   -1    0    0    0  501  0.00000000000E+00  0.00000000000E+00  0.27251558705E+03  0.27251558706E+03  0.25500000920E-02 0. -1.
        2   -1    0    0  501    0  0.00000000000E+00  0.00000000000E+00 -0.20627018052E+04  0.20627018052E+04  0.25500000920E-02 0.  1.
    10030    2    1    2    0    0  0.00000000000E+00  0.00000000000E+00 -0.17901862181E+04  0.23352173923E+04  0.14994911048E+04 0.  0.
        5    1    3    3  502    0 -0.60992691058E+03  0.41980251628E+03 -0.71180726801E+03  0.10271010981E+04  0.46999998093E+01 0. -1.
       -5    1    3    3    0  502  0.60992691058E+03 -0.41980251628E+03 -0.10783789501E+04  0.13081162942E+04  0.46999998093E+01 0.  1.
</event>
<event>
 5   0  0.3093600E-05  0.1500819E+04  0.7818609E-02  0.8883909E-01
       -2   -1    0    0    0  501  0.00000000000E+00  0.00000000000E+00  0.26933934646E+03  0.26933934648E+03  0.25500000920E-02 0.  1.
        2   -1    0    0  501    0  0.00000000000E+00  0.00000000000E+00 -0.20907241941E+04  0.20907241941E+04  0.25500000920E-02 0. -1.
    10030    2    1    2    0    0  0.00000000000E+00  0.00000000000E+00 -0.18213848476E+04  0.23600635405E+04  0.15008188273E+04 0.  0.
        1    1    3    3  502    0 -0.50597110888E+03  0.22914550513E+03 -0.11723339020E+03  0.56767780769E+03  0.50400001928E-02 0.  1.
       -1    1    3    3    0  502  0.50597110888E+03 -0.22914550513E+03 -0.17041514574E+04  0.17923857328E+04  0.50400001928E-02 0. -1.
</event>
<event>
 5   0  0.1580078E-05  0.1500152E+04  0.7818609E-02  0.8884352E-01
       -1   -1    0    0    0  501  0.00000000000E+00  0.00000000000E+00  0.11592233664E+04  0.11592233664E+04  0.50400001928E-02 0. -1.
        1   -1    0    0  501    0  0.00000000000E+00  0.00000000000E+00 -0.48533728739E+03  0.48533728742E+03  0.50400001928E-02 0.  1.
    10030    2    1    2    0    0  0.00000000000E+00  0.00000000000E+00  0.67388607904E+03  0.16445606539E+04  0.15001524245E+04 0.  0.
        2    1    3    3  502    0 -0.25470561985E+03 -0.47920302170E+03  0.90457392872E+03  0.10548765242E+04  0.25500000920E-02 0. -1.
       -2    1    3    3    0  502  0.25470561985E+03  0.47920302170E+03 -0.23068784967E+03  0.58968412967E+03  0.25500000920E-02 0.  1.
</event>
<event>
 5   0  0.1533777E-05  0.1500524E+04  0.7818609E-02  0.8884105E-01
       -1   -1    0    0    0  501  0.00000000000E+00  0.00000000000E+00  0.12565513183E+04  0.12565513183E+04  0.50400001928E-02 0.  1.
        1   -1    0    0  501    0  0.00000000000E+00  0.00000000000E+00 -0.44796637075E+03  0.44796637078E+03  0.50400001928E-02 0. -1.
    10030    2    1    2    0    0  0.00000000000E+00  0.00000000000E+00  0.80858494753E+03  0.17045176891E+04  0.15005235536E+04 0.  0.
        5    1    3    3  502    0 -0.44563112915E+02  0.84069203326E+02 -0.44106791208E+03  0.45123884479E+03  0.46999998093E+01 0. -1.
       -5    1    3    3    0  502  0.44563112915E+02 -0.84069203326E+02  0.12496528596E+04  0.12532788443E+04  0.46999998093E+01 0.  1.
</event>
<event>
 5   0  0.2969498E-05  0.1500208E+04  0.7818609E-02  0.8884315E-01
        2   -1    0    0  501    0  0.00000000000E+00  0.00000000000E+00  0.91176837315E+03  0.91176837316E+03  0.25500000920E-02 0.  1.
       -2   -1    0    0    0  501  0.00000000000E+00  0.00000000000E+00 -0.61710372002E+03  0.61710372002E+03  0.25500000920E-02 0. -1.
    10030    2    1    2    0    0  0.00000000000E+00  0.00000000000E+00  0.29466465314E+03  0.15288720932E+04  0.15002075255E+04 0.  0.
        3    1    3    3  502    0  0.39670560433E+03 -0.59292799711E+03  0.38352937684E+03  0.80995909734E+03  0.10100000352E+00 0.  1.
       -3    1    3    3    0  502 -0.39670560433E+03  0.59292799711E+03 -0.88864723700E+02  0.71891299584E+03  0.10100000352E+00 0. -1.
</event>
<event>
 5   0  0.3093600E-05  0.1500357E+04  0.7818609E-02  0.8884216E-01
       -2   -1    0    0    0  501  0.00000000000E+00  0.00000000000E+00  0.68484846673E+03  0.68484846674E+03  0.25500000920E-02 0.  1.
        2   -1    0    0  501    0  0.00000000000E+00  0.00000000000E+00 -0.82174043615E+03  0.82174043615E+03  0.25500000920E-02 0. -1.
    10030    2    1    2    0    0  0.00000000000E+00  0.00000000000E+00 -0.13689196941E+03  0.15065889029E+04  0.15003568612E+04 0.  0.
        1    1    3    3  502    0 -0.26330259228E+03  0.53239615091E+03 -0.52860018604E+03  0.79510507061E+03  0.50400001928E-02 0.  1.
       -1    1    3    3    0  502  0.26330259228E+03 -0.53239615091E+03  0.39170821662E+03  0.71148383228E+03  0.50400001928E-02 0. -1.
</event>
<event>
 5   0  0.1533777E-05  0.1500144E+04  0.7818609E-02  0.8884357E-01
        1   -1    0    0  501    0  0.00000000000E+00  0.00000000000E+00  0.11791574695E+04  0.11791574695E+04  0.50400001928E-02 0. -1.
       -1   -1    0    0    0  501  0.00000000000E+00  0.00000000000E+00 -0.47712721588E+03  0.47712721590E+03  0.50400001928E-02 0.  1.
    10030    2    1    2    0    0  0.00000000000E+00  0.00000000000E+00  0.70203025362E+03  0.16562846854E+04  0.15001441538E+04 0.  0.
        5    1    3    3  502    0 -0.27711257530E+03  0.49742736150E+02 -0.41655756568E+03  0.50280017374E+03  0.46999998093E+01 0.  1.
       -5    1    3    3    0  502  0.27711257530E+03 -0.49742736150E+02  0.11185878193E+04  0.11534845117E+04  0.46999998093E+01 0. -1.
</event>
<event>
 5   0  0.1580078E-05  0.1499112E+04  0.7818609E-02  0.8885044E-01
       -1   -1    0    0    0  501  0.00000000000E+00  0.00000000000E+00  0.24874307000E+03  0.24874307005E+03  0.50400001928E-02 0.  1.
        1   -1    0    0  501    0  0.00000000000E+00  0.00000000000E+00 -0.22586926032E+04  0.22586926032E+04  0.50400001928E-02 0. -1.
    10030    2    1    2    0    0  0.00000000000E+00  0.00000000000E+00 -0.20099495332E+04  0.25074356732E+04  0.14991119136E+04 0.  0.
        2    1    3    3  502    0  0.16278042136E+03 -0.13845398982E+03  0.19671103414E+03  0.29045172376E+03  0.25500000920E-02 0.  1.
       -2    1    3    3    0  502 -0.16278042136E+03  0.13845398982E+03 -0.22066605673E+04  0.22169839495E+04  0.25500000920E-02 0. -1.
</event>
<event>
 5   0  0.1533777E-05  0.1500157E+04  0.7818609E-02  0.8884349E-01
        1   -1    0    0  501    0  0.00000000000E+00  0.00000000000E+00  0.11603829837E+04  0.11603829837E+04  0.50400001928E-02 0.  1.
       -1   -1    0    0    0  501  0.00000000000E+00  0.00000000000E+00 -0.48485516250E+03  0.48485516252E+03  0.50400001928E-02 0. -1.
    10030    2    1    2    0    0  0.00000000000E+00  0.00000000000E+00  0.67552782120E+03  0.16452381462E+04  0.15001568987E+04 0.  0.
        5    1    3    3  502    0 -0.45020549274E+03 -0.59992263479E+03  0.33979703818E+03  0.82345386670E+03  0.46999998093E+01 0.  1.
       -5    1    3    3    0  502  0.45020549274E+03  0.59992263479E+03  0.33573078302E+03  0.82178427954E+03  0.46999998093E+01 0. -1.
</event>
<event>
 5   0  0.1580078E-05  0.1499763E+04  0.7818609E-02  0.8884610E-01
       -1   -1    0    0    0  501  0.00000000000E+00  0.00000000000E+00  0.12867663376E+04  0.12867663376E+04  0.50400001928E-02 0.  1.
        1   -1    0    0  501    0  0.00000000000E+00  0.00000000000E+00 -0.43700422349E+03  0.43700422352E+03  0.50400001928E-02 0. -1.
    10030    2    1    2    0    0  0.00000000000E+00  0.00000000000E+00  0.84976211414E+03  0.17237705612E+04  0.14997630802E+04 0.  0.
        2    1    3    3  502    0 -0.78123780716E+02 -0.99199943178E+02  0.12744596295E+04  0.12806995359E+04  0.25500000920E-02 0.  1.
       -2    1    3    3    0  502  0.78123780716E+02  0.99199943178E+02 -0.42469751541E+03  0.44307102528E+03  0.25500000920E-02 0. -1.
</event>
<event>
 5   0  0.1533777E-05  0.1498814E+04  0.7818609E-02  0.8885242E-01
        1   -1    0    0  501    0  0.00000000000E+00  0.00000000000E+00  0.19877056318E+04  0.19877056318E+04  0.50400001928E-02 0. -1.
       -1   -1    0    0    0  501  0.00000000000E+00  0.00000000000E+00 -0.28254238179E+03  0.28254238184E+03  0.50400001928E-02 0.  1.
    10030    2    1    2    0    0  0.00000000000E+00  0.00000000000E+00  0.17051632500E+04  0.22702480136E+04  0.14988143095E+04 0.  0.
        5    1    3    3  502    0 -0.20667052698E+03  0.53032084077E+03  0.11419864909E+03  0.58053106922E+03  0.46999998093E+01 0.  1.
       -5    1    3    3    0  502  0.20667052698E+03 -0.53032084077E+03  0.15909646009E+04  0.16897169444E+04  0.46999998093E+01 0. -1.
</event>
<event>
 5   0  0.1580078E-05  0.1499989E+04  0.7818609E-02  0.8884460E-01
        1   -1    0    0  501    0  0.00000000000E+00  0.00000000000E+00  0.47469199108E+03  0.47469199110E+03  0.50400001928E-02 0.  1.
       -1   -1    0    0    0  501  0.00000000000E+00  0.00000000000E+00 -0.11849623050E+04  0.11849623050E+04  0.50400001928E-02 0. -1.
    10030    2    1    2    0    0  0.00000000000E+00  0.00000000000E+00 -0.71027031393E+03  0.16596542961E+04  0.14999894879E+04 0.  0.
        2    1    3    3  502    0  0.66163668619E+03  0.81203747261E+02  0.25158116276E+02  0.66707577074E+03  0.25500000920E-02 0.  1.
       -2    1    3    3    0  502 -0.66163668619E+03 -0.81203747261E+02 -0.73542843021E+03  0.99257852538E+03  0.25500000920E-02 0. -1.
</event>
<event>
 5   0  0.2969498E-05  0.1501122E+04  0.7818609E-02  0.8883707E-01
        2   -1    0    0  501    0  0.00000000000E+00  0.00000000000E+00  0.10801627999E+04  0.10801627999E+04  0.25500000920E-02 0.  1.
       -2   -1    0    0    0  501  0.00000000000E+00  0.00000000000E+00 -0.52153382894E+03  0.52153382894E+03  0.25500000920E-02 0. -1.
    10030    2    1    2    0    0  0.00000000000E+00  0.00000000000E+00  0.55862897097E+03  0.16016966289E+04  0.15011215020E+04 0.  0.
        3    1    3    3  502    0  0.32702243262E+03  0.21299900952E+03 -0.40475582776E+03  0.56226287429E+03  0.10100000352E+00 0. -1.
       -3    1    3    3    0  502 -0.32702243262E+03 -0.21299900952E+03  0.96338479874E+03  0.10394337546E+04  0.10100000352E+00 0.  1.
</event>
<event>
 5   0  0.3018308E-05  0.1500401E+04  0.7818609E-02  0.8884186E-01
       -2   -1    0    0    0  501  0.00000000000E+00  0.00000000000E+00  0.69577828073E+03  0.69577828073E+03  0.25500000920E-02 0. -1.
        2   -1    0    0  501    0  0.00000000000E+00  0.00000000000E+00 -0.80887974597E+03  0.80887974597E+03  0.25500000920E-02 0.  1.
    10030    2    1    2    0    0  0.00000000000E+00  0.00000000000E+00 -0.11310146524E+03  0.15046580267E+04  0.15004012250E+04 0.  0.
        2    1    3    3  502    0  0.59803110045E+03 -0.44850316168E+03 -0.12001278004E+03  0.75709930030E+03  0.25500000920E-02 0.  1.
       -2    1    3    3    0  502 -0.59803110045E+03  0.44850316168E+03  0.69113147983E+01  0.74755872640E+03  0.25500000920E-02 0. -1.
</event>
<event>
 5   0  0.3093600E-05  0.1500325E+04  0.7818609E-02  0.8884237E-01
       -2   -1    0    0    0  501  0.00000000000E+00  0.00000000000E+00  0.27963751438E+03  0.27963751439E+03  0.25500000920E-02 0. -1.
        2   -1    0    0  501    0  0.00000000000E+00  0.00000000000E+00 -0.20124055625E+04  0.20124055625E+04  0.25500000920E-02 0.  1.
    10030    2    1    2    0    0  0.00000000000E+00  0.00000000000E+00 -0.17327680481E+04  0.22920430769E+04  0.15003254173E+04 0.  0.
        1    1    3    3  502    0 -0.27140757581E+03  0.61311322315E+03 -0.13803223571E+04  0.15345552144E+04  0.50400001928E-02 0. -1.
       -1    1    3    3    0  502  0.27140757581E+03 -0.61311322315E+03 -0.35244569098E+03  0.75748786243E+03  0.50400001928E-02 0.  1.
</event>
<event>
 5   0  0.1580078E-05  0.1501689E+04  0.7818609E-02  0.8883330E-01
       -1   -1    0    0    0  501  0.00000000000E+00  0.00000000000E+00  0.10750369650E+04  0.10750369651E+04  0.50400001928E-02 0.  1.
        1   -1    0    0  501    0  0.00000000000E+00  0.00000000000E+00 -0.52441707708E+03  0.52441707710E+03  0.50400001928E-02 0. -1.
    10030    2    1    2    0    0  0.00000000000E+00  0.00000000000E+00  0.55061988797E+03  0.15994540422E+04  0.15016893727E+04 0.  0.
        2    1    3    3  502    0 -0.73101468548E+03 -0.47812499960E+01  0.92799582850E+02  0.73689693534E+03  0.25500000920E-02 0. -1.
       -2    1    3    3    0  502  0.73101468548E+03  0.47812499960E+01  0.45782030512E+03  0.86255710682E+03  0.25500000920E-02 0.  1.
</event>
<event>
 5   0  0.3070497E-05  0.1500080E+04  0.7818609E-02  0.8884400E-01
       -2   -1    0    0    0  501  0.00000000000E+00  0.00000000000E+00  0.23270912771E+03  0.23270912773E+03  0.25500000920E-02 0. -1.
        2   -1    0    0  501    0  0.00000000000E+00  0.00000000000E+00 -0.24174378302E+04  0.24174378302E+04  0.25500000920E-02 0.  1.
    10030    2    1    2    0    0  0.00000000000E+00  0.00000000000E+00 -0.21847287025E+04  0.26501469579E+04  0.15000797962E+04 0.  0.
        4    1    3    3  502    0 -0.92491944158E+02  0.19330505383E+03 -0.23622019850E+04  0.23719024926E+04  0.12699999809E+01 0.  1.
       -4    1    3    3    0  502  0.92491944158E+02 -0.19330505383E+03  0.17747328252E+03  0.27824446532E+03  0.12699999809E+01 0. -1.
</event>
<event>
 5   0  0.1576214E-05  0.1500217E+04  0.7818609E-02  0.8884309E-01
       -1   -1    0    0    0  501  0.00000000000E+00  0.00000000000E+00  0.79072286267E+03  0.79072286269E+03  0.50400001928E-02 0. -1.
        1   -1    0    0  501    0  0.00000000000E+00  0.00000000000E+00 -0.71158014963E+03  0.71158014964E+03  0.50400001928E-02 0.  1.
    10030    2    1    2    0    0  0.00000000000E+00  0.00000000000E+00  0.79142713045E+02  0.15023030123E+04  0.15002169083E+04 0.  0.
        1    1    3    3  502    0 -0.12456007588E+02  0.30656878558E+03  0.72501064779E+03  0.78726108239E+03  0.50400001928E-02 0. -1.
       -1    1    3    3    0  502  0.12456007588E+02 -0.30656878558E+03 -0.64586793474E+03  0.71504192994E+03  0.50400001928E-02 0.  1.
</event>
<event>
 5   0  0.1643498E-05  0.1499468E+04  0.7818609E-02  0.8884807E-01
       -1   -1    0    0    0  501  0.00000000000E+00  0.00000000000E+00  0.12702509225E+04  0.12702509225E+04  0.50400001928E-02 0. -1.
        1   -1    0    0  501    0  0.00000000000E+00  0.00000000000E+00 -0.44251202580E+03  0.44251202583E+03  0.50400001928E-02 0.  1.
    10030    2    1    2    0    0  0.00000000000E+00  0.00000000000E+00  0.82773889673E+03  0.17127629484E+04  0.14994683178E+04 0.  0.
        4    1    3    3  502    0  0.31106678452E+03  0.23616502155E+02 -0.36485427741E+03  0.48004222757E+03  0.12699999809E+01 0.  1.
       -4    1    3    3    0  502 -0.31106678452E+03 -0.23616502155E+02  0.11925931741E+04  0.12327207208E+04  0.12699999809E+01 0. -1.
</event>
<event>
 5   0  0.2969498E-05  0.1500324E+04  0.7818609E-02  0.8884237E-01
       -2   -1    0    0    0  501  0.00000000000E+00  0.00000000000E+00  0.41505498808E+03  0.41505498809E+03  0.25500000920E-02 0.  1.
        2   -1    0    0  501    0  0.00000000000E+00  0.00000000000E+00 -0.13558276896E+04  0.13558276896E+04  0.25500000920E-02 0. -1.
    10030    2    1    2    0    0  0.00000000000E+00  0.00000000000E+00 -0.94077270149E+03  0.17708826777E+04  0.15003240257E+04 0.  0.
        3    1    3    3  502    0  0.36089976476E+02  0.24363735275E+03  0.36597082544E+03  0.44113070776E+03  0.10100000352E+00 0.  1.
       -3    1    3    3    0  502 -0.36089976476E+02 -0.24363735275E+03 -0.13067435269E+04  0.13297519699E+04  0.10100000352E+00 0. -1.
</event>
<event>
 5   0  0.1533777E-05  0.1500257E+04  0.7818609E-02  0.8884282E-01
       -1   -1    0    0    0  501  0.00000000000E+00  0.00000000000E+00  0.54128482950E+03  0.54128482953E+03  0.50400001928E-02 0.  1.
        1   -1    0    0  501    0  0.00000000000E+00  0.00000000000E+00 -0.10395495443E+04  0.10395495443E+04  0.50400001928E-02 0. -1.
    10030    2    1    2    0    0  0.00000000000E+00  0.00000000000E+00 -0.49826471483E+03  0.15808343739E+04  0.15002565086E+04 0.  0.
        5    1    3    3  502    0 -0.77961808344E+02  0.52342733707E+03 -0.80930164075E+03  0.96697748498E+03  0.46999998093E+01 0. -1.
       -5    1    3    3    0  502  0.77961808344E+02 -0.52342733707E+03  0.31103692592E+03  0.61385688889E+03  0.46999998093E+01 0.  1.
</event>
<event>
 5   0  0.2969498E-05  0.1500491E+04  0.7818609E-02  0.8884127E-01
       -2   -1    0    0    0  501  0.00000000000E+00  0.00000000000E+00  0.46739655333E+03  0.46739655333E+03  0.25500000920E-02 0.  1.
        2   -1    0    0  501    0  0.00000000000E+00  0.00000000000E+00 -0.12042627906E+04  0.12042627906E+04  0.25500000920E-02 0. -1.
    10030    2    1    2    0    0  0.00000000000E+00  0.00000000000E+00 -0.73686623727E+03  0.16716593439E+04  0.15004909565E+04 0.  0.
        3    1    3    3  502    0 -0.18039184512E+03 -0.59443182758E+03 -0.83711035223E+03  0.10424222597E+04  0.10100000352E+00 0. -1.
       -3    1    3    3    0  502  0.18039184512E+03  0.59443182758E+03  0.10024411497E+03  0.62923708427E+03  0.10100000352E+00 0.  1.
</event>
<event>
 5   0  0.1643498E-05  0.1500774E+04  0.7818609E-02  0.8883939E-01
        1   -1    0    0  501    0  0.00000000000E+00  0.00000000000E+00  0.19282030035E+04  0.19282030035E+04  0.50400001928E-02 0.  1.
       -1   -1    0    0    0  501  0.00000000000E+00  0.00000000000E+00 -0.29202336351E+03  0.29202336355E+03  0.50400001928E-02 0. -1.
    10030    2    1    2    0    0  0.00000000000E+00  0.00000000000E+00  0.16361796400E+04  0.22202263671E+04  0.15007735694E+04 0.  0.
        4    1    3    3  502    0 -0.13608580945E+03 -0.12282926783E+01 -0.27361215961E+03  0.30559136608E+03  0.12699999809E+01 0. -1.
       -4    1    3    3    0  502  0.13608580945E+03  0.12282926783E+01  0.19097917996E+04  0.19146350010E+04  0.12699999809E+01 0.  1.
</event>
<event>
 5   0  0.1533777E-05  0.1499033E+04  0.7818609E-02  0.8885096E-01
        1   -1    0    0  501    0  0.00000000000E+00  0.00000000000E+00  0.15005031889E+04  0.15005031889E+04  0.50400001928E-02 0.  1.
       -1   -1    0    0    0  501  0.00000000000E+00  0.00000000000E+00 -0.37439104762E+03  0.37439104766E+03  0.50400001928E-02 0. -1.
    10030    2    1    2    0    0  0.00000000000E+00  0.00000000000E+00  0.11261121413E+04  0.18748942366E+04  0.14990329695E+04 0.  0.
        5    1    3    3  502    0  0.68008500281E+03  0.30842941241E+03  0.48288636874E+03  0.88929502900E+03  0.46999998093E+01 0. -1.
       -5    1    3    3    0  502 -0.68008500281E+03 -0.30842941241E+03  0.64322577253E+03  0.98559920756E+03  0.46999998093E+01 0.  1.
</event>
<event>
 5   0  0.3030702E-05  0.1497479E+04  0.7818609E-02  0.8886131E-01
        2   -1    0    0  501    0  0.00000000000E+00  0.00000000000E+00  0.13789202336E+04  0.13789202336E+04  0.25500000920E-02 0. -1.
       -2   -1    0    0    0  501  0.00000000000E+00  0.00000000000E+00 -0.40655759282E+03  0.40655759282E+03  0.25500000920E-02 0.  1.
    10030    2    1    2    0    0  0.00000000000E+00  0.00000000000E+00  0.97236264077E+03  0.17854778264E+04  0.14974785352E+04 0.  0.
        5    1    3    3  502    0  0.19425143726E+03 -0.33493796558E+03 -0.27790258600E+03  0.47662249104E+03  0.46999998093E+01 0.  1.
       -5    1    3    3    0  502 -0.19425143726E+03  0.33493796558E+03  0.12502652268E+04  0.13088553354E+04  0.46999998093E+01 0. -1.
</event>
<event>
 5   0  0.1576214E-05  0.1500279E+04  0.7818609E-02  0.8884267E-01
        1   -1    0    0  501    0  0.00000000000E+00  0.00000000000E+00  0.11420403971E+04  0.11420403971E+04  0.50400001928E-02 0. -1.
       -1   -1    0    0    0  501  0.00000000000E+00  0.00000000000E+00 -0.49272273956E+03  0.49272273959E+03  0.50400001928E-02 0.  1.
    10030    2    1    2    0    0  0.00000000000E+00  0.00000000000E+00  0.64931765757E+03  0.16347631367E+04  0.15002790050E+04 0.  0.
        1    1    3    3  502    0 -0.38097646099E+03  0.63389751608E+03  0.46136471552E+03  0.87168028856E+03  0.50400001928E-02 0. -1.
       -1    1    3    3    0  502  0.38097646099E+03 -0.63389751608E+03  0.18795294205E+03  0.76308284817E+03  0.50400001928E-02 0.  1.
</event>
<event>
 5   0  0.3030702E-05  0.1498444E+04  0.7818609E-02  0.8885488E-01
       -2   -1    0    0    0  501  0.00000000000E+00  0.00000000000E+00  0.57359945710E+03  0.57359945711E+03  0.25500000920E-02 0.  1.
        2   -1    0    0  501    0  0.00000000000E+00  0.00000000000E+00 -0.97861643770E+03  0.97861643770E+03  0.25500000920E-02 0. -1.
    10030    2    1    2    0    0  0.00000000000E+00  0.00000000000E+00 -0.40501698060E+03  0.15522158948E+04  0.14984443365E+04 0.  0.
        5    1    3    3  502    0 -0.86173624588E+02 -0.70391462112E+03 -0.45282013095E+03  0.84142132633E+03  0.46999998093E+01 0.  1.
       -5    1    3    3    0  502  0.86173624588E+02  0.70391462112E+03  0.47803150353E+02  0.71079456849E+03  0.46999998093E+01 0. -1.
</event>
<event>
 5   0  0.1580078E-05  0.1500840E+04  0.7818609E-02  0.8883894E-01
        1   -1    0    0  501    0  0.00000000000E+00  0.00000000000E+00  0.16344299619E+04  0.16344299619E+04  0.50400001928E-02 0. -1.
       -1   -1    0    0    0  501  0.00000000000E+00  0.00000000000E+00 -0.34454246046E+03  0.34454246050E+03  0.50400001928E-02 0.  1.
    10030    2    1    2    0    0  0.00000000000E+00  0.00000000000E+00  0.12898875014E+04  0.19789724224E+04  0.15008404586E+04 0.  0.
        2    1    3    3  502    0 -0.24663356536E+03 -0.38110870969E+03  0.14328507092E+04  0.15030412898E+04  0.25500000920E-02 0. -1.
       -2    1    3    3    0  502  0.24663356536E+03  0.38110870969E+03 -0.14296320776E+03  0.47593113256E+03  0.25500000920E-02 0.  1.
</event>
<event>
 5   0  0.1588657E-05  0.1500027E+04  0.7818609E-02  0.8884435E-01
        1   -1    0    0  501    0  0.00000000000E+00  0.00000000000E+00  0.11655112203E+04  0.11655112203E+04  0.50400001928E-02 0. -1.
       -1   -1    0    0    0  501  0.00000000000E+00  0.00000000000E+00 -0.48263812045E+03  0.48263812047E+03  0.50400001928E-02 0.  1.
    10030    2    1    2    0    0  0.00000000000E+00  0.00000000000E+00  0.68287309984E+03  0.16481493408E+04  0.15000268594E+04 0.  0.
        3    1    3    3  502    0  0.28667386694E+03 -0.62640465471E+01  0.11029075395E+04  0.11395728126E+04  0.10100000352E+00 0. -1.
       -3    1    3    3    0  502 -0.28667386694E+03  0.62640465471E+01 -0.42003443969E+03  0.50857652816E+03  0.10100000352E+00 0.  1.
</event>
<event>
 5   0  0.1533777E-05  0.1499352E+04  0.7818609E-02  0.8884884E-01
       -1   -1    0    0    0  501  0.00000000000E+00  0.00000000000E+00  0.56871133657E+03  0.56871133659E+03  0.50400001928E-02 0.  1.
        1   -1    0    0  501    0  0.00000000000E+00  0.00000000000E+00 -0.98822364433E+03  0.98822364434E+03  0.50400001928E-02 0. -1.
    10030    2    1    2    0    0  0.00000000000E+00  0.00000000000E+00 -0.41951230776E+03  0.15569349809E+04  0.14993518461E+04 0.  0.
        5    1    3    3  502    0  0.68549203888E+03 -0.14098489013E+03 -0.48880684740E+03  0.85365701466E+03  0.46999998093E+01 0. -1.
       -5    1    3    3    0  502 -0.68549203888E+03  0.14098489013E+03  0.69294539640E+02  0.70327796627E+03  0.46999998093E+01 0.  1.
</event>
<event>
 5   0  0.3018308E-05  0.1499901E+04  0.7818609E-02  0.8884519E-01
       -2   -1    0    0    0  501  0.00000000000E+00  0.00000000000E+00  0.42808421382E+03  0.42808421383E+03  0.25500000920E-02 0.  1.
        2   -1    0    0  501    0  0.00000000000E+00  0.00000000000E+00 -0.13138201926E+04  0.13138201926E+04  0.25500000920E-02 0. -1.
    10030    2    1    2    0    0  0.00000000000E+00  0.00000000000E+00 -0.88573597873E+03  0.17419044064E+04  0.14999009091E+04 0.  0.
        2    1    3    3  502    0 -0.40889735414E+03  0.60404944294E+03 -0.24053723268E+03  0.76806961667E+03  0.25500000920E-02 0.  1.
       -2    1    3    3    0  502  0.40889735414E+03 -0.60404944294E+03 -0.64519874605E+03  0.97383478971E+03  0.25500000920E-02 0. -1.
</event>
<event>
 5   0  0.3093600E-05  0.1500070E+04  0.7818609E-02  0.8884407E-01
       -2   -1    0    0    0  501  0.00000000000E+00  0.00000000000E+00  0.24068313636E+03  0.24068313637E+03  0.25500000920E-02 0. -1.
        2   -1    0    0  501    0  0.00000000000E+00  0.00000000000E+00 -0.23373144608E+04  0.23373144608E+04  0.25500000920E-02 0.  1.
    10030    2    1    2    0    0  0.00000000000E+00  0.00000000000E+00 -0.20966313244E+04  0.25779975972E+04  0.15000695652E+04 0.  0.
        1    1    3    3  502    0 -0.45543729910E+03 -0.76224410513E+02 -0.20640546873E+04  0.21150780237E+04  0.50400001928E-02 0.  1.
       -1    1    3    3    0  502  0.45543729910E+03  0.76224410513E+02 -0.32576637110E+02  0.46291957344E+03  0.50400001928E-02 0. -1.
</event>
<event>
 5   0  0.1576214E-05  0.1502344E+04  0.7818609E-02  0.8882895E-01
       -1   -1    0    0    0  501  0.00000000000E+00  0.00000000000E+00  0.47283374254E+03  0.47283374257E+03  0.50400001928E-02 0.  1.
        1   -1    0    0  501    0  0.00000000000E+00  0.00000000000E+00 -0.11933573476E+04  0.11933573476E+04  0.50400001928E-02 0. -1.
    10030    2    1    2    0    0  0.00000000000E+00  0.00000000000E+00 -0.72052360505E+03  0.16661910902E+04  0.15023443292E+04 0.  0.
        1    1    3    3  502    0 -0.39965803991E+02 -0.75010778891E+03 -0.36116306198E+03  0.83348528352E+03  0.50400001928E-02 0.  1.
       -1    1    3    3    0  502  0.39965803991E+02  0.75010778891E+03 -0.35936054307E+03  0.83270580664E+03  0.50400001928E-02 0. -1.
</event>
<event>
 5   0  0.1588657E-05  0.1500939E+04  0.7818609E-02  0.8883829E-01
       -1   -1    0    0    0  501  0.00000000000E+00  0.00000000000E+00  0.95035464376E+03  0.95035464377E+03  0.50400001928E-02 0.  1.
        1   -1    0    0  501    0  0.00000000000E+00  0.00000000000E+00 -0.59262581867E+03  0.59262581869E+03  0.50400001928E-02 0. -1.
    10030    2    1    2    0    0  0.00000000000E+00  0.00000000000E+00  0.35772882509E+03  0.15429804625E+04  0.15009393043E+04 0.  0.
        3    1    3    3  502    0 -0.49419696043E+03 -0.46393816108E+03  0.50996569588E+03  0.84825366146E+03  0.10100000352E+00 0. -1.
       -3    1    3    3    0  502  0.49419696043E+03  0.46393816108E+03 -0.15223687079E+03  0.69472680100E+03  0.10100000352E+00 0.  1.
</event>
<event>
 5   0  0.1588657E-05  0.1494966E+04  0.7818609E-02  0.8887807E-01
        1   -1    0    0  501    0  0.00000000000E+00  0.00000000000E+00  0.18069768378E+04  0.18069768378E+04  0.50400001928E-02 0.  1.
       -1   -1    0    0    0  501  0.00000000000E+00  0.00000000000E+00 -0.30920758607E+03  0.30920758611E+03  0.50400001928E-02 0. -1.
    10030    2    1    2    0    0  0.00000000000E+00  0.00000000000E+00  0.14977692517E+04  0.21161844239E+04  0.14949661483E+04 0.  0.
        3    1    3    3  502    0 -0.70419225405E+03 -0.95779126241E+02  0.10768214869E+04  0.12901956815E+04  0.10100000352E+00 0.  1.
       -3    1    3    3    0  502  0.70419225405E+03  0.95779126241E+02  0.42094776479E+03  0.82598874239E+03  0.10100000352E+00 0. -1.
</event>
<event>
 5   0  0.1580078E-05  0.1499446E+04  0.7818609E-02  0.8884822E-01
       -1   -1    0    0    0  501  0.00000000000E+00  0.00000000000E+00  0.63640434514E+03  0.63640434516E+03  0.50400001928E-02 0.  1.
        1   -1    0    0  501    0  0.00000000000E+00  0.00000000000E+00 -0.88321887464E+03  0.88321887465E+03  0.50400001928E-02 0. -1.
    10030    2    1    2    0    0  0.00000000000E+00  0.00000000000E+00 -0.24681452949E+03  0.15196232198E+04  0.14994456703E+04 0.  0.
        2    1    3    3  502    0  0.51385465548E+03  0.14421306385E+03 -0.65702883699E+03  0.84648148673E+03  0.25500000920E-02 0. -1.
       -2    1    3    3    0  502 -0.51385465548E+03 -0.14421306385E+03  0.41021430749E+03  0.67314173308E+03  0.25500000920E-02 0.  1.
</event>
<event>
 5   0  0.3093600E-05  0.1500514E+04  0.7818609E-02  0.8884111E-01
       -2   -1    0    0    0  501  0.00000000000E+00  0.00000000000E+00  0.58563828994E+03  0.58563828995E+03  0.25500000920E-02 0.  1.
        2   -1    0    0  501    0  0.00000000000E+00  0.00000000000E+00 -0.96114936565E+03  0.96114936565E+03  0.25500000920E-02 0. -1.
    10030    2    1    2    0    0  0.00000000000E+00  0.00000000000E+00 -0.37551107571E+03  0.15467876556E+04  0.15005144063E+04 0.  0.
        1    1    3    3  502    0  0.22953504545E+03 -0.10984548047E+03 -0.91530647526E+03  0.95002016313E+03  0.50400001928E-02 0. -1.
       -1    1    3    3    0  502 -0.22953504545E+03  0.10984548047E+03  0.53979539955E+03  0.59676749247E+03  0.50400001928E-02 0.  1.
</event>
<event>
 5   0  0.2969498E-05  0.1501954E+04  0.7818609E-02  0.8883155E-01
        2   -1    0    0  501    0  0.00000000000E+00  0.00000000000E+00  0.15342356204E+04  0.15342356204E+04  0.25500000920E-02 0.  1.
       -2   -1    0    0    0  501  0.00000000000E+00  0.00000000000E+00 -0.36758767357E+03  0.36758767358E+03  0.25500000920E-02 0. -1.
    10030    2    1    2    0    0  0.00000000000E+00  0.00000000000E+00  0.11666479468E+04  0.19018232939E+04  0.15019535311E+04 0.  0.
        3    1    3    3  502    0 -0.58890568573E+03 -0.18633679461E+03  0.11241623371E+04  0.12826816745E+04  0.10100000352E+00 0.  1.
       -3    1    3    3    0  502  0.58890568573E+03  0.18633679461E+03  0.42485609702E+02  0.61914161946E+03  0.10100000352E+00 0. -1.
</event>
<event>
 5   0  0.1588657E-05  0.1502730E+04  0.7818609E-02  0.8882640E-01
        1   -1    0    0  501    0  0.00000000000E+00  0.00000000000E+00  0.13821642813E+04  0.13821642813E+04  0.50400001928E-02 0. -1.
       -1   -1    0    0    0  501  0.00000000000E+00  0.00000000000E+00 -0.40845306059E+03  0.40845306062E+03  0.50400001928E-02 0.  1.
    10030    2    1    2    0    0  0.00000000000E+00  0.00000000000E+00  0.97371122073E+03  0.17906173420E+04  0.15027298240E+04 0.  0.
        3    1    3    3  502    0 -0.72313955581E+03 -0.10291068668E+03  0.27696291169E+03  0.78117212653E+03  0.10100000352E+00 0.  1.
       -3    1    3    3    0  502  0.72313955581E+03  0.10291068668E+03  0.69674830904E+03  0.10094452154E+04  0.10100000352E+00 0. -1.
</event>
<event>
 5   0  0.3070497E-05  0.1499866E+04  0.7818609E-02  0.8884542E-01
        2   -1    0    0  501    0  0.00000000000E+00  0.00000000000E+00  0.18477294236E+04  0.18477294236E+04  0.25500000920E-02 0.  1.
       -2   -1    0    0    0  501  0.00000000000E+00  0.00000000000E+00 -0.30437331124E+03  0.30437331125E+03  0.25500000920E-02 0. -1.
    10030    2    1    2    0    0  0.00000000000E+00  0.00000000000E+00  0.15433561124E+04  0.21521027348E+04  0.14998660246E+04 0.  0.
        4    1    3    3  502    0  0.38326605652E+03  0.46483142569E+03  0.14124642779E+04  0.15355839520E+04  0.12699999809E+01 0.  1.
       -4    1    3    3    0  502 -0.38326605652E+03 -0.46483142569E+03  0.13089183446E+03  0.61651878286E+03  0.12699999809E+01 0. -1.
</event>
<event>
 5   0  0.1588657E-05  0.1500578E+04  0.7818609E-02  0.8884068E-01
       -1   -1    0    0    0  501  0.00000000000E+00  0.00000000000E+00  0.48078634032E+03  0.48078634034E+03  0.50400001928E-02 0.  1.
        1   -1    0    0  501    0  0.00000000000E+00  0.00000000000E+00 -0.11708606793E+04  0.11708606793E+04  0.50400001928E-02 0. -1.
    10030    2    1    2    0    0  0.00000000000E+00  0.00000000000E+00 -0.69007433900E+03  0.16516470197E+04  0.15005783166E+04 0.  0.
        3    1    3    3  502    0  0.46879458746E+03 -0.57449669612E+03 -0.21896802627E+03  0.77315058418E+03  0.10100000352E+00 0.  1.
       -3    1    3    3    0  502 -0.46879458746E+03  0.57449669612E+03 -0.47110631272E+03  0.87849643549E+03  0.10100000352E+00 0. -1.
</event>
<event>
 5   0  0.1588657E-05  0.1499868E+04  0.7818609E-02  0.8884541E-01
        1   -1    0    0  501    0  0.00000000000E+00  0.00000000000E+00  0.15381706884E+04  0.15381706884E+04  0.50400001928E-02 0.  1.
       -1   -1    0    0    0  501  0.00000000000E+00  0.00000000000E+00 -0.36562976003E+03  0.36562976007E+03  0.50400001928E-02 0. -1.
    10030    2    1    2    0    0  0.00000000000E+00  0.00000000000E+00  0.11725409283E+04  0.19038004484E+04  0.14998679671E+04 0.  0.
        3    1    3    3  502    0 -0.42828336360E+03 -0.21803616072E+03 -0.14447695898E+03  0.50183663557E+03  0.10100000352E+00 0. -1.
       -3    1    3    3    0  502  0.42828336360E+03  0.21803616072E+03  0.13170178873E+04  0.14019638129E+04  0.10100000352E+00 0.  1.
</event>
<event>
 5   0  0.3030702E-05  0.1499990E+04  0.7818609E-02  0.8884460E-01
        2   -1    0    0  501    0  0.00000000000E+00  0.00000000000E+00  0.24436271888E+04  0.24436271888E+04  0.25500000920E-02 0.  1.
       -2   -1    0    0    0  501  0.00000000000E+00  0.00000000000E+00 -0.23018754019E+03  0.23018754020E+03  0.25500000920E-02 0. -1.
    10030    2    1    2    0    0  0.00000000000E+00  0.00000000000E+00  0.22134396486E+04  0.26738147290E+04  0.14999900423E+04 0.  0.
        5    1    3    3  502    0  0.30672772640E+03 -0.25390463222E+03  0.22396186894E+04  0.22747446943E+04  0.46999998093E+01 0.  1.
       -5    1    3    3    0  502 -0.30672772640E+03  0.25390463222E+03 -0.26179040794E+02  0.39907003468E+03  0.46999998093E+01 0. -1.
</event>
<event>
 5   0  0.1643498E-05  0.1501009E+04  0.7818609E-02  0.8883782E-01
       -1   -1    0    0    0  501  0.00000000000E+00  0.00000000000E+00  0.47819509808E+03  0.47819509811E+03  0.50400001928E-02 0. -1.
        1   -1    0    0  501    0  0.00000000000E+00  0.00000000000E+00 -0.11778813490E+04  0.11778813490E+04  0.50400001928E-02 0.  1.
    10030    2    1    2    0    0  0.00000000000E+00  0.00000000000E+00 -0.69968625089E+03  0.16560764471E+04  0.15010091102E+04 0.  0.
        4    1    3    3  502    0  0.50876305727E+03 -0.25993588236E+03  0.18710557576E+03  0.60117935823E+03  0.12699999809E+01 0. -1.
       -4    1    3    3    0  502 -0.50876305727E+03  0.25993588236E+03 -0.88679182665E+03  0.10548970889E+04  0.12699999809E+01 0.  1.
</event>
<event>
 5   0  0.1588657E-05  0.1501478E+04  0.7818609E-02  0.8883470E-01
        1   -1    0    0  501    0  0.00000000000E+00  0.00000000000E+00  0.16365209869E+04  0.16365209869E+04  0.50400001928E-02 0.  1.
       -1   -1    0    0    0  501  0.00000000000E+00  0.00000000000E+00 -0.34439482276E+03  0.34439482279E+03  0.50400001928E-02 0. -1.
    10030    2    1    2    0    0  0.00000000000E+00  0.00000000000E+00  0.12921261641E+04  0.19809158097E+04  0.15014784118E+04 0.  0.
        3    1    3    3  502    0  0.32743451356E+03  0.31696912858E+03  0.14331580247E+04  0.15038699156E+04  0.10100000352E+00 0.  1.
       -3    1    3    3    0  502 -0.32743451356E+03 -0.31696912858E+03 -0.14103186058E+03  0.47704589406E+03  0.10100000352E+00 0. -1.
</event>
<event>
 5   0  0.3018308E-05  0.1500052E+04  0.7818609E-02  0.8884418E-01
        2   -1    0    0  501    0  0.00000000000E+00  0.00000000000E+00  0.12158431204E+04  0.12158431204E+04  0.25500000920E-02 0. -1.
       -2   -1    0    0    0  501  0.00000000000E+00  0.00000000000E+00 -0.46267429110E+03  0.46267429110E+03  0.25500000920E-02 0.  1.
    10030    2    1    2    0    0  0.00000000000E+00  0.00000000000E+00  0.75316882927E+03  0.16785174115E+04  0.15000524708E+04 0.  0.
        2    1    3    3  502    0  0.15412816222E+03 -0.26484072094E+03 -0.38943642672E+03  0.49553690914E+03  0.25500000920E-02 0.  1.
       -2    1    3    3    0  502 -0.15412816222E+03  0.26484072094E+03  0.11426052560E+04  0.11829805023E+04  0.25500000920E-02 0. -1.
</event>
<event>
 5   0  0.1643498E-05  0.1499649E+04  0.7818609E-02  0.8884686E-01
        1   -1    0    0  501    0  0.00000000000E+00  0.00000000000E+00  0.69044779700E+03  0.69044779702E+03  0.50400001928E-02 0.  1.
       -1   -1    0    0    0  501  0.00000000000E+00  0.00000000000E+00 -0.81430780425E+03  0.81430780427E+03  0.50400001928E-02 0. -1.
    10030    2    1    2    0    0  0.00000000000E+00  0.00000000000E+00 -0.12386000725E+03  0.15047556013E+04  0.14996493317E+04 0.  0.
        4    1    3    3  502    0 -0.22488742986E+02 -0.49948688445E+03  0.49875930595E+03  0.70622613196E+03  0.12699999809E+01 0.  1.
       -4    1    3    3    0  502  0.22488742986E+02  0.49948688445E+03 -0.62261931320E+03  0.79852946932E+03  0.12699999809E+01 0. -1.
</event>
<event>
 5   0  0.3093600E-05  0.1500195E+04  0.7818609E-02  0.8884323E-01
        2   -1    0    0  501    0  0.00000000000E+00  0.00000000000E+00  0.20155981329E+04  0.20155981329E+04  0.25500000920E-02 0. -1.
       -2   -1    0    0    0  501  0.00000000000E+00  0.00000000000E+00 -0.27914596068E+03  0.27914596069E+03  0.25500000920E-02 0.  1.
    10030    2    1    2    0    0  0.00000000000E+00  0.00000000000E+00  0.17364521723E+04  0.22947440936E+04  0.15001947569E+04 0.  0.
        1    1    3    3  502    0  0.61340230499E+03  0.33463236073E+03  0.45098477071E+03  0.83164203120E+03  0.50400001928E-02 0.  1.
       -1    1    3    3    0  502 -0.61340230499E+03 -0.33463236073E+03  0.12854674015E+04  0.14631020624E+04  0.50400001928E-02 0. -1.
</event>
<event>
 5   0  0.1580078E-05  0.1500831E+04  0.7818609E-02  0.8883900E-01
       -1   -1    0    0    0  501  0.00000000000E+00  0.00000000000E+00  0.90905650155E+03  0.90905650156E+03  0.50400001928E-02 0.  1.
        1   -1    0    0  501    0  0.00000000000E+00  0.00000000000E+00 -0.61945938764E+03  0.61945938766E+03  0.50400001928E-02 0. -1.
    10030    2    1    2    0    0  0.00000000000E+00  0.00000000000E+00  0.28959711391E+03  0.15285158892E+04  0.15008312148E+04 0.  0.
        2    1    3    3  502    0  0.61951443333E+02 -0.49785808834E+03  0.71314532489E+03  0.87193859409E+03  0.25500000920E-02 0.  1.
       -2    1    3    3    0  502 -0.61951443333E+02  0.49785808834E+03 -0.42354821097E+03  0.65657729513E+03  0.25500000920E-02 0. -1.
</event>
<event>
 5   0  0.1643498E-05  0.1499425E+04  0.7818609E-02  0.8884835E-01
        1   -1    0    0  501    0  0.00000000000E+00  0.00000000000E+00  0.13501134408E+04  0.13501134408E+04  0.50400001928E-02 0.  1.
       -1   -1    0    0    0  501  0.00000000000E+00  0.00000000000E+00 -0.41631223201E+03  0.41631223204E+03  0.50400001928E-02 0. -1.
    10030    2    1    2    0    0  0.00000000000E+00  0.00000000000E+00  0.93380120874E+03  0.17664256728E+04  0.14994248764E+04 0.  0.
        4    1    3    3  502    0 -0.58271920197E+03  0.14833850079E+03  0.99440865003E+03  0.11620740748E+04  0.12699999809E+01 0.  1.
       -4    1    3    3    0  502  0.58271920197E+03 -0.14833850079E+03 -0.60607441283E+02  0.60435159800E+03  0.12699999809E+01 0. -1.
</event>
<event>
 5   0  0.2969498E-05  0.1498159E+04  0.7818609E-02  0.8885678E-01
        2   -1    0    0  501    0  0.00000000000E+00  0.00000000000E+00  0.18760772737E+04  0.18760772737E+04  0.25500000920E-02 0.  1.
       -2   -1    0    0    0  501  0.00000000000E+00  0.00000000000E+00 -0.29909232272E+03  0.29909232273E+03  0.25500000920E-02 0. -1.
    10030    2    1    2    0    0  0.00000000000E+00  0.00000000000E+00  0.15769849510E+04  0.21751695964E+04  0.14981592831E+04 0.  0.
        3    1    3    3  502    0  0.19390360430E+03  0.75537714499E+02  0.18332674478E+04  0.18450404059E+04  0.10100000352E+00 0.  1.
       -3    1    3    3    0  502 -0.19390360430E+03 -0.75537714499E+02 -0.25628249681E+03  0.33012919053E+03  0.10100000352E+00 0. -1.
</event>
<event>
 5   0  0.1588657E-05  0.1500156E+04  0.7818609E-02  0.8884349E-01
        1   -1    0    0  501    0  0.00000000000E+00  0.00000000000E+00  0.59690395755E+03  0.59690395757E+03  0.50400001928E-02 0. -1.
       -1   -1    0    0    0  501  0.00000000000E+00  0.00000000000E+00 -0.94255856419E+03  0.94255856420E+03  0.50400001928E-02 0.  1.
    10030    2    1    2    0    0  0.00000000000E+00  0.00000000000E+00 -0.34565460664E+03  0.15394625218E+04  0.15001559082E+04 0.  0.
        3    1    3    3  502    0  0.69618682696E+02  0.24772622509E+03  0.55019123700E+03  0.60739233701E+03  0.10100000352E+00 0. -1.
       -3    1    3    3    0  502 -0.69618682696E+02 -0.24772622509E+03 -0.89584584364E+03  0.93207018477E+03  0.10100000352E+00 0.  1.
</event>
<event>
 5   0  0.3018308E-05  0.1500137E+04  0.7818609E-02  0.8884362E-01
        2   -1    0    0  501    0  0.00000000000E+00  0.00000000000E+00  0.11118972327E+04  0.11118972327E+04  0.25500000920E-02 0.  1.
       -2   -1    0    0    0  501  0.00000000000E+00  0.00000000000E+00 -0.50598464431E+03  0.50598464432E+03  0.25500000920E-02 0. -1.
    10030    2    1    2    0    0  0.00000000000E+00  0.00000000000E+00  0.60591258840E+03  0.16178818770E+04  0.15001372281E+04 0.  0.
        2    1    3    3  502    0 -0.38702821102E+03 -0.63304032597E+03  0.42145294378E+03  0.85331909287E+03  0.25500000920E-02 0.  1.
       -2    1    3    3    0  502  0.38702821102E+03  0.63304032597E+03  0.18445964463E+03  0.76456278417E+03  0.25500000920E-02 0. -1.
</event>
<event>
 5   0  0.2969498E-05  0.1500006E+04  0.7818609E-02  0.8884449E-01
        2   -1    0    0  501    0  0.00000000000E+00  0.00000000000E+00  0.18178032804E+04  0.18178032804E+04  0.25500000920E-02 0.  1.
       -2   -1    0    0    0  501  0.00000000000E+00  0.00000000000E+00 -0.30944175218E+03  0.30944175219E+03  0.25500000920E-02 0. -1.
    10030    2    1    2    0    0  0.00000000000E+00  0.00000000000E+00  0.15083615282E+04  0.21272450326E+04  0.15000056429E+04 0.  0.
        3    1    3    3  502    0 -0.51353882271E+03 -0.26734095988E+03  0.14303178638E+04  0.15430497441E+04  0.10100000352E+00 0.  1.
       -3    1    3    3    0  502  0.51353882271E+03  0.26734095988E+03  0.78043664410E+02  0.58419528842E+03  0.10100000352E+00 0. -1.
</event>
<event>
 5   0  0.3018308E-05  0.1498888E+04  0.7818609E-02  0.8885193E-01
       -2   -1    0    0    0  501  0.00000000000E+00  0.00000000000E+00  0.33523977515E+03  0.33523977516E+03  0.25500000920E-02 0.  1.
        2   -1    0    0  501    0  0.00000000000E+00  0.00000000000E+00 -0.16754155875E+04  0.16754155875E+04  0.25500000920E-02 0. -1.
    10030    2    1    2    0    0  0.00000000000E+00  0.00000000000E+00 -0.13401758124E+04  0.20106553627E+04  0.14988875139E+04 0.  0.
        2    1    3    3  502    0 -0.64914760920E+02 -0.49634892690E+03  0.78101325997E+02  0.50663201690E+03  0.25500000920E-02 0.  1.
       -2    1    3    3    0  502  0.64914760920E+02  0.49634892690E+03 -0.14182771384E+04  0.15040233458E+04  0.25500000920E-02 0. -1.
</event>
<event>
 5   0  0.3018308E-05  0.1501389E+04  0.7818609E-02  0.8883530E-01
       -2   -1    0    0    0  501  0.00000000000E+00  0.00000000000E+00  0.65039882036E+03  0.65039882036E+03  0.25500000920E-02 0. -1.
        2   -1    0    0  501    0  0.00000000000E+00  0.00000000000E+00 -0.86645672316E+03  0.86645672316E+03  0.25500000920E-02 0.  1.
    10030    2    1    2    0    0  0.00000000000E+00  0.00000000000E+00 -0.21605790280E+03  0.15168555435E+04  0.15013892642E+04 0.  0.
        2    1    3    3  502    0 -0.20098903149E+03  0.72097314272E+03 -0.49609704593E+02  0.75010664982E+03  0.25500000920E-02 0.  1.
       -2    1    3    3    0  502  0.20098903149E+03 -0.72097314272E+03 -0.16644819821E+03  0.76674889370E+03  0.25500000920E-02 0. -1.
</event>
<event>
 5   0  0.1533777E-05  0.1501167E+04  0.7818609E-02  0.8883677E-01
        1   -1    0    0  501    0  0.00000000000E+00  0.00000000000E+00  0.94660370225E+03  0.94660370227E+03  0.50400001928E-02 0. -1.
       -1   -1    0    0    0  501  0.00000000000E+00  0.00000000000E+00 -0.59515478758E+03  0.59515478760E+03  0.50400001928E-02 0.  1.
    10030    2    1    2    0    0  0.00000000000E+00  0.00000000000E+00  0.35144891467E+03  0.15417584899E+04  0.15011671797E+04 0.  0.
        5    1    3    3  502    0  0.37441219476E+00  0.64920161771E+02  0.94369953965E+03  0.94594168886E+03  0.46999998093E+01 0. -1.
       -5    1    3    3    0  502 -0.37441219476E+00 -0.64920161771E+02 -0.59225062497E+03  0.59581680101E+03  0.46999998093E+01 0.  1.
</event>
<event>
 5   0  0.1643498E-05  0.1500004E+04  0.7818609E-02  0.8884451E-01
       -1   -1    0    0    0  501  0.00000000000E+00  0.00000000000E+00  0.17161175923E+04  0.17161175923E+04  0.50400001928E-02 0.  1.
        1   -1    0    0  501    0  0.00000000000E+00  0.00000000000E+00 -0.32777633077E+03  0.32777633080E+03  0.50400001928E-02 0. -1.
    10030    2    1    2    0    0  0.00000000000E+00  0.00000000000E+00  0.13883412615E+04  0.20438939231E+04  0.15000036368E+04 0.  0.
        4    1    3    3  502    0 -0.72579173328E+03 -0.44194481338E+02  0.44375619404E+03  0.85184973142E+03  0.12699999809E+01 0. -1.
       -4    1    3    3    0  502  0.72579173328E+03  0.44194481338E+02  0.94458506747E+03  0.11920441917E+04  0.12699999809E+01 0.  1.
</event>
<event>
 5   0  0.3018308E-05  0.1500885E+04  0.7818609E-02  0.8883865E-01
       -2   -1    0    0    0  501  0.00000000000E+00  0.00000000000E+00  0.35490343926E+03  0.35490343927E+03  0.25500000920E-02 0. -1.
        2   -1    0    0  501    0  0.00000000000E+00  0.00000000000E+00 -0.15868086341E+04  0.15868086341E+04  0.25500000920E-02 0.  1.
    10030    2    1    2    0    0  0.00000000000E+00  0.00000000000E+00 -0.12319051948E+04  0.19417120733E+04  0.15008848612E+04 0.  0.
        2    1    3    3  502    0 -0.23015923013E+02  0.21835522024E+03  0.31241962722E+03  0.38185698684E+03  0.25500000920E-02 0. -1.
       -2    1    3    3    0  502  0.23015923013E+02 -0.21835522024E+03 -0.15443248220E+04  0.15598550865E+04  0.25500000920E-02 0.  1.
</event>
<event>
 5   0  0.3018308E-05  0.1499535E+04  0.7818609E-02  0.8884762E-01
        2   -1    0    0  501    0  0.00000000000E+00  0.00000000000E+00  0.10211805867E+04  0.10211805867E+04  0.25500000920E-02 0. -1.
       -2   -1    0    0    0  501  0.00000000000E+00  0.00000000000E+00 -0.55049191873E+03  0.55049191873E+03  0.25500000920E-02 0.  1.
    10030    2    1    2    0    0  0.00000000000E+00  0.00000000000E+00  0.47068866802E+03  0.15716725055E+04  0.14995354755E+04 0.  0.
        2    1    3    3  502    0 -0.27996705749E+02 -0.94057172319E+02 -0.54373151646E+03  0.55251654201E+03  0.25500000920E-02 0.  1.
       -2    1    3    3    0  502  0.27996705749E+02  0.94057172319E+02  0.10144201845E+04  0.10191559635E+04  0.25500000920E-02 0. -1.
</event>
<event>
 5   0  0.1116613E-05  0.1500540E+04  0.7818609E-02  0.8884094E-01
        3   -1    0    0  501    0  0.00000000000E+00  0.00000000000E+00  0.49487233970E+03  0.49487235001E+03  0.10100000352E+00 0.  1.
       -3   -1    0    0    0  501  0.00000000000E+00  0.00000000000E+00 -0.11374753482E+04  0.11374753527E+04  0.10100000352E+00 0. -1.
    10030    2    1    2    0    0  0.00000000000E+00  0.00000000000E+00 -0.64260300854E+03  0.16323477027E+04  0.15005400348E+04 0.  0.
        1    1    3    3  502    0  0.66650991515E+03  0.33469706501E+03 -0.23260745634E+03  0.78125784545E+03  0.50400001928E-02 0. -1.
       -1    1    3    3    0  502 -0.66650991515E+03 -0.33469706501E+03 -0.40999555220E+03  0.85108985728E+03  0.50400001928E-02 0.  1.
</event>
<event>
 5   0  0.2969498E-05  0.1499982E+04  0.7818609E-02  0.8884465E-01
       -2   -1    0    0    0  501  0.00000000000E+00  0.00000000000E+00  0.26515257197E+03  0.26515257198E+03  0.25500000920E-02 0. -1.
        2   -1    0    0  501    0  0.00000000000E+00  0.00000000000E+00 -0.21213681253E+04  0.21213681253E+04  0.25500000920E-02 0.  1.
    10030    2    1    2    0    0  0.00000000000E+00  0.00000000000E+00 -0.18562155533E+04  0.23865206973E+04  0.14999816193E+04 0.  0.
        3    1    3    3  502    0 -0.10658078469E+03 -0.58014520940E+03 -0.19113422198E+03  0.62004856960E+03  0.10100000352E+00 0. -1.
       -3    1    3    3    0  502  0.10658078469E+03  0.58014520940E+03 -0.16650813314E+04  0.17664721277E+04  0.10100000352E+00 0.  1.
</event>
<event>
 5   0  0.1580078E-05  0.1501520E+04  0.7818609E-02  0.8883443E-01
       -1   -1    0    0    0  501  0.00000000000E+00  0.00000000000E+00  0.95965572054E+03  0.95965572056E+03  0.50400001928E-02 0.  1.
        1   -1    0    0  501    0  0.00000000000E+00  0.00000000000E+00 -0.58733624862E+03  0.58733624864E+03  0.50400001928E-02 0. -1.
    10030    2    1    2    0    0  0.00000000000E+00  0.00000000000E+00  0.37231947192E+03  0.15469919692E+04  0.15015200177E+04 0.  0.
        2    1    3    3  502    0  0.36162851994E+02 -0.30055546073E+03  0.89398749244E+03  0.94385113947E+03  0.25500000920E-02 0.  1.
       -2    1    3    3    0  502 -0.36162851994E+02  0.30055546073E+03 -0.52166802052E+03  0.60314082972E+03  0.25500000920E-02 0. -1.
</event>
<event>
 5   0  0.1576214E-05  0.1500016E+04  0.7818609E-02  0.8884442E-01
        1   -1    0    0  501    0  0.00000000000E+00  0.00000000000E+00  0.52012396665E+03  0.52012396667E+03  0.50400001928E-02 0. -1.
       -1   -1    0    0    0  501  0.00000000000E+00  0.00000000000E+00 -0.10814957355E+04  0.10814957356E+04  0.50400001928E-02 0.  1.
    10030    2    1    2    0    0  0.00000000000E+00  0.00000000000E+00 -0.56137176889E+03  0.16016197022E+04  0.15000158025E+04 0.  0.
        1    1    3    3  502    0 -0.28612021895E+03 -0.54231394697E+03  0.18047519307E+03  0.63917172349E+03  0.50400001928E-02 0. -1.
       -1    1    3    3    0  502  0.28612021895E+03  0.54231394697E+03 -0.74184696196E+03  0.96244797873E+03  0.50400001928E-02 0.  1.
</event>
<event>
 5   0  0.3018308E-05  0.1500659E+04  0.7818609E-02  0.8884015E-01
       -2   -1    0    0    0  501  0.00000000000E+00  0.00000000000E+00  0.79265974002E+03  0.79265974002E+03  0.25500000920E-02 0.  1.
        2   -1    0    0  501    0  0.00000000000E+00  0.00000000000E+00 -0.71025957903E+03  0.71025957903E+03  0.25500000920E-02 0. -1.
    10030    2    1    2    0    0  0.00000000000E+00  0.00000000000E+00  0.82400160993E+02  0.15029193191E+04  0.15006587530E+04 0.  0.
        2    1    3    3  502    0  0.23665570755E+03 -0.64148396413E+02 -0.66900370190E+03  0.71252150412E+03  0.25500000920E-02 0. -1.
       -2    1    3    3    0  502 -0.23665570755E+03  0.64148396413E+02  0.75140386289E+03  0.79039781493E+03  0.25500000920E-02 0.  1.
</event>
<event>
 5   0  0.3030702E-05  0.1499983E+04  0.7818609E-02  0.8884464E-01
        2   -1    0    0  501    0  0.00000000000E+00  0.00000000000E+00  0.11925418106E+04  0.11925418106E+04  0.25500000920E-02 0.  1.
       -2   -1    0    0    0  501  0.00000000000E+00  0.00000000000E+00 -0.47167079018E+03  0.47167079019E+03  0.25500000920E-02 0. -1.
    10030    2    1    2    0    0  0.00000000000E+00  0.00000000000E+00  0.72087102040E+03  0.16642126008E+04  0.14999828507E+04 0.  0.
        5    1    3    3  502    0  0.41470479341E+03 -0.48732370139E+03  0.79441486373E+03  0.10200889772E+04  0.46999998093E+01 0. -1.
       -5    1    3    3    0  502 -0.41470479341E+03  0.48732370139E+03 -0.73543843331E+02  0.64412362362E+03  0.46999998093E+01 0.  1.
</event>
<event>
 5   0  0.1580078E-05  0.1500470E+04  0.7818609E-02  0.8884140E-01
       -1   -1    0    0    0  501  0.00000000000E+00  0.00000000000E+00  0.62863625590E+03  0.62863625592E+03  0.50400001928E-02 0. -1.
        1   -1    0    0  501    0  0.00000000000E+00  0.00000000000E+00 -0.89535524807E+03  0.89535524809E+03  0.50400001928E-02 0.  1.
    10030    2    1    2    0    0  0.00000000000E+00  0.00000000000E+00 -0.26671899218E+03  0.15239915040E+04  0.15004702874E+04 0.  0.
        2    1    3    3  502    0 -0.54211099189E+03 -0.49467897289E+03 -0.29156110692E+03  0.78968315977E+03  0.25500000920E-02 0.  1.
       -2    1    3    3    0  502  0.54211099189E+03  0.49467897289E+03  0.24842114744E+02  0.73430834424E+03  0.25500000920E-02 0. -1.
</event>
<event>
 5   0  0.1533777E-05  0.1498365E+04  0.7818609E-02  0.8885541E-01
        1   -1    0    0  501    0  0.00000000000E+00  0.00000000000E+00  0.63660217693E+03  0.63660217695E+03  0.50400001928E-02 0.  1.
       -1   -1    0    0    0  501  0.00000000000E+00  0.00000000000E+00 -0.88167274672E+03  0.88167274674E+03  0.50400001928E-02 0. -1.
    10030    2    1    2    0    0  0.00000000000E+00  0.00000000000E+00 -0.24507056979E+03  0.15182749237E+04  0.14983654960E+04 0.  0.
        5    1    3    3  502    0  0.56540165514E+03  0.41602114421E+01 -0.62054967818E+03  0.83952387225E+03  0.46999998093E+01 0. -1.
       -5    1    3    3    0  502 -0.56540165514E+03 -0.41602114421E+01  0.37547910839E+03  0.67875105144E+03  0.46999998093E+01 0.  1.
</event>
<event>
 5   0  0.3070497E-05  0.1499651E+04  0.7818609E-02  0.8884685E-01
        2   -1    0    0  501    0  0.00000000000E+00  0.00000000000E+00  0.12109677115E+04  0.12109677115E+04  0.25500000920E-02 0.  1.
       -2   -1    0    0    0  501  0.00000000000E+00  0.00000000000E+00 -0.46428872249E+03  0.46428872250E+03  0.25500000920E-02 0. -1.
    10030    2    1    2    0    0  0.00000000000E+00  0.00000000000E+00  0.74667898901E+03  0.16752564340E+04  0.14996514952E+04 0.  0.
        4    1    3    3  502    0 -0.53148692666E+03  0.27147992688E+03 -0.13375043871E+03  0.61161302853E+03  0.12699999809E+01 0. -1.
       -4    1    3    3    0  502  0.53148692666E+03 -0.27147992688E+03  0.88042942772E+03  0.10636434055E+04  0.12699999809E+01 0.  1.
</event>
<event>
 5   0  0.1588657E-05  0.1500109E+04  0.7818609E-02  0.8884380E-01
       -1   -1    0    0    0  501  0.00000000000E+00  0.00000000000E+00  0.58817929802E+03  0.58817929805E+03  0.50400001928E-02 0.  1.
        1   -1    0    0  501    0  0.00000000000E+00  0.00000000000E+00 -0.95648053557E+03  0.95648053558E+03  0.50400001928E-02 0. -1.
    10030    2    1    2    0    0  0.00000000000E+00  0.00000000000E+00 -0.36830123754E+03  0.15446598336E+04  0.15001093960E+04 0.  0.
        3    1    3    3  502    0  0.33022955846E+03 -0.67316863746E+03 -0.16422485399E+03  0.76757891360E+03  0.10100000352E+00 0. -1.
       -3    1    3    3    0  502 -0.33022955846E+03  0.67316863746E+03 -0.20407638355E+03  0.77708092002E+03  0.10100000352E+00 0.  1.
</event>
<event>
 5   0  0.1580078E-05  0.1498730E+04  0.7818609E-02  0.8885298E-01
        1   -1    0    0  501    0  0.00000000000E+00  0.00000000000E+00  0.10064911671E+04  0.10064911671E+04  0.50400001928E-02 0.  1.
       -1   -1    0    0    0  501  0.00000000000E+00  0.00000000000E+00 -0.55792593822E+03  0.55792593824E+03  0.50400001928E-02 0. -1.
    10030    2    1    2    0    0  0.00000000000E+00  0.00000000000E+00  0.44856522887E+03  0.15644171053E+04  0.14987295003E+04 0.  0.
        2    1    3    3  502    0  0.46023829157E+03 -0.43226281723E+03  0.64555143311E+03  0.90299893742E+03  0.25500000920E-02 0.  1.
       -2    1    3    3    0  502 -0.46023829157E+03  0.43226281723E+03 -0.19698620424E+03  0.66141816792E+03  0.25500000920E-02 0. -1.
</event>
<event>
 5   0  0.3018308E-05  0.1500552E+04  0.7818609E-02  0.8884086E-01
        2   -1    0    0  501    0  0.00000000000E+00  0.00000000000E+00  0.74680704401E+03  0.74680704402E+03  0.25500000920E-02 0.  1.
       -2   -1    0    0    0  501  0.00000000000E+00  0.00000000000E+00 -0.75376147573E+03  0.75376147574E+03  0.25500000920E-02 0. -1.
    10030    2    1    2    0    0  0.00000000000E+00  0.00000000000E+00 -0.69544317233E+01  0.15005685198E+04  0.15005524044E+04 0.  0.
        2    1    3    3  502    0 -0.61911172077E+02 -0.49191504193E+01  0.74423208359E+03  0.74681897775E+03  0.25500000920E-02 0.  1.
       -2    1    3    3    0  502  0.61911172077E+02  0.49191504193E+01 -0.75118651532E+03  0.75374954200E+03  0.25500000920E-02 0. -1.
</event>
<event>
 5   0  0.3030702E-05  0.1498840E+04  0.7818609E-02  0.8885225E-01
        2   -1    0    0  501    0  0.00000000000E+00  0.00000000000E+00  0.54284892258E+03  0.54284892259E+03  0.25500000920E-02 0.  1.
       -2   -1    0    0    0  501  0.00000000000E+00  0.00000000000E+00 -0.10345979032E+04  0.10345979032E+04  0.25500000920E-02 0. -1.
    10030    2    1    2    0    0  0.00000000000E+00  0.00000000000E+00 -0.49174898057E+03  0.15774468257E+04  0.14988400275E+04 0.  0.
        5    1    3    3  502    0 -0.36463460264E+03  0.95798168676E+02  0.43575949677E+03  0.57623268875E+03  0.46999998093E+01 0.  1.
       -5    1    3    3    0  502  0.36463460264E+03 -0.95798168676E+02 -0.92750847734E+03  0.10012141370E+04  0.46999998093E+01 0. -1.
</event>
<event>
 5   0  0.1643498E-05  0.1499892E+04  0.7818609E-02  0.8884524E-01
       -1   -1    0    0    0  501  0.00000000000E+00  0.00000000000E+00  0.32866928663E+03  0.32866928666E+03  0.50400001928E-02 0. -1.
        1   -1    0    0  501    0  0.00000000000E+00  0.00000000000E+00 -0.17112013901E+04  0.17112013901E+04  0.50400001928E-02 0.  1.
    10030    2    1    2    0    0  0.00000000000E+00  0.00000000000E+00 -0.13825321035E+04  0.20398706768E+04  0.14998924498E+04 0.  0.
        4    1    3    3  502    0  0.17270585753E+02  0.17270324734E+03  0.30097664466E+03  0.34743810715E+03  0.12699999809E+01 0. -1.
       -4    1    3    3    0  502 -0.17270585753E+02 -0.17270324734E+03 -0.16835087482E+04  0.16924325697E+04  0.12699999809E+01 0.  1.
</event>
<event>
 5   0  0.3030702E-05  0.1503919E+04  0.7818609E-02  0.8881851E-01
        2   -1    0    0  501    0  0.00000000000E+00  0.00000000000E+00  0.23141327636E+04  0.23141327636E+04  0.25500000920E-02 0. -1.
       -2   -1    0    0    0  501  0.00000000000E+00  0.00000000000E+00 -0.24434343775E+03  0.24434343776E+03  0.25500000920E-02 0.  1.
    10030    2    1    2    0    0  0.00000000000E+00  0.00000000000E+00  0.20697893259E+04  0.25584762014E+04  0.15039190868E+04 0.  0.
        5    1    3    3  502    0  0.49205248607E+03 -0.17292725579E+03  0.11340995056E+03  0.53376342299E+03  0.46999998093E+01 0.  1.
       -5    1    3    3    0  502 -0.49205248607E+03  0.17292725579E+03  0.19563793753E+04  0.20247127784E+04  0.46999998093E+01 0. -1.
</event>
<event>
 5   0  0.1588657E-05  0.1498976E+04  0.7818609E-02  0.8885134E-01
        1   -1    0    0  501    0  0.00000000000E+00  0.00000000000E+00  0.63443865302E+03  0.63443865304E+03  0.50400001928E-02 0.  1.
       -1   -1    0    0    0  501  0.00000000000E+00  0.00000000000E+00 -0.88540080864E+03  0.88540080865E+03  0.50400001928E-02 0. -1.
    10030    2    1    2    0    0  0.00000000000E+00  0.00000000000E+00 -0.25096215562E+03  0.15198394617E+04  0.14989763126E+04 0.  0.
        3    1    3    3  502    0 -0.47038695397E+03 -0.52657064732E+03 -0.38035994951E+03  0.80200638057E+03  0.10100000352E+00 0. -1.
       -3    1    3    3    0  502  0.47038695397E+03  0.52657064732E+03  0.12939779390E+03  0.71783308112E+03  0.10100000352E+00 0.  1.
</event>
<event>
 5   0  0.3018308E-05  0.1499704E+04  0.7818609E-02  0.8884650E-01
        2   -1    0    0  501    0  0.00000000000E+00  0.00000000000E+00  0.18135587726E+04  0.18135587726E+04  0.25500000920E-02 0. -1.
       -2   -1    0    0    0  501  0.00000000000E+00  0.00000000000E+00 -0.31004134515E+03  0.31004134516E+03  0.25500000920E-02 0.  1.
    10030    2    1    2    0    0  0.00000000000E+00  0.00000000000E+00  0.15035174275E+04  0.21236001178E+04  0.14997042393E+04 0.  0.
        2    1    3    3  502    0 -0.42310198791E+03  0.18125320769E+03  0.15899738161E+04  0.16552597238E+04  0.25500000920E-02 0. -1.
       -2    1    3    3    0  502  0.42310198791E+03 -0.18125320769E+03 -0.86456388614E+02  0.46834039395E+03  0.25500000920E-02 0.  1.
</event>
<event>
 5   0  0.2969498E-05  0.1499986E+04  0.7818609E-02  0.8884462E-01
       -2   -1    0    0    0  501  0.00000000000E+00  0.00000000000E+00  0.36811815003E+03  0.36811815004E+03  0.25500000920E-02 0.  1.
        2   -1    0    0  501    0  0.00000000000E+00  0.00000000000E+00 -0.15280141238E+04  0.15280141238E+04  0.25500000920E-02 0. -1.
    10030    2    1    2    0    0  0.00000000000E+00  0.00000000000E+00 -0.11598959737E+04  0.18961322738E+04  0.14999863099E+04 0.  0.
        3    1    3    3  502    0 -0.37574283399E+03  0.44090689185E+03  0.22204369054E+02  0.57971942246E+03  0.10100000352E+00 0.  1.
       -3    1    3    3    0  502  0.37574283399E+03 -0.44090689185E+03 -0.11821003428E+04  0.13164128514E+04  0.10100000352E+00 0. -1.
</event>
<event>
 5   0  0.3093600E-05  0.1500782E+04  0.7818609E-02  0.8883933E-01
        2   -1    0    0  501    0  0.00000000000E+00  0.00000000000E+00  0.64572485951E+03  0.64572485952E+03  0.25500000920E-02 0. -1.
       -2   -1    0    0    0  501  0.00000000000E+00  0.00000000000E+00 -0.87202225758E+03  0.87202225758E+03  0.25500000920E-02 0.  1.
    10030    2    1    2    0    0  0.00000000000E+00  0.00000000000E+00 -0.22629739806E+03  0.15177471171E+04  0.15007817293E+04 0.  0.
        1    1    3    3  502    0  0.64301411458E+03 -0.20909545444E+03 -0.44224769676E+03  0.80794250162E+03  0.50400001928E-02 0.  1.
       -1    1    3    3    0  502 -0.64301411458E+03  0.20909545444E+03  0.21595029870E+03  0.70980461547E+03  0.50400001928E-02 0. -1.
</event>
<event>
 5   0  0.1576214E-05  0.1503733E+04  0.7818609E-02  0.8881974E-01
        1   -1    0    0  501    0  0.00000000000E+00  0.00000000000E+00  0.17812427936E+04  0.17812427936E+04  0.50400001928E-02 0.  1.
       -1   -1    0    0    0  501  0.00000000000E+00  0.00000000000E+00 -0.31736465738E+03  0.31736465742E+03  0.50400001928E-02 0. -1.
    10030    2    1    2    0    0  0.00000000000E+00  0.00000000000E+00  0.14638781362E+04  0.20986074510E+04  0.15037333659E+04 0.  0.
        1    1    3    3  502    0 -0.55235253178E+03 -0.24322253405E+03  0.13577103676E+04  0.14858088580E+04  0.50400001928E-02 0.  1.
       -1    1    3    3    0  502  0.55235253178E+03  0.24322253405E+03  0.10616776865E+03  0.61279859298E+03  0.50400001928E-02 0. -1.
</event>
<event>
 5   0  0.2969498E-05  0.1499515E+04  0.7818609E-02  0.8884776E-01
        2   -1    0    0  501    0  0.00000000000E+00  0.00000000000E+00  0.16311678507E+04  0.16311678507E+04  0.25500000920E-02 0.  1.
       -2   -1    0    0    0  501  0.00000000000E+00  0.00000000000E+00 -0.34462193835E+03  0.34462193836E+03  0.25500000920E-02 0. -1.
    10030    2    1    2    0    0  0.00000000000E+00  0.00000000000E+00  0.12865459123E+04  0.19757897891E+04  0.14995148902E+04 0.  0.
        3    1    3    3  502    0  0.35059533431E+03  0.58296416361E+03  0.22791572416E+03  0.71743284843E+03  0.10100000352E+00 0.  1.
       -3    1    3    3    0  502 -0.35059533431E+03 -0.58296416361E+03  0.10586301882E+04  0.12583569406E+04  0.10100000352E+00 0. -1.
</event>
<event>
 5   0  0.1643498E-05  0.1500352E+04  0.7818609E-02  0.8884219E-01
       -1   -1    0    0    0  501  0.00000000000E+00  0.00000000000E+00  0.29630157008E+03  0.29630157012E+03  0.50400001928E-02 0. -1.
        1   -1    0    0  501    0  0.00000000000E+00  0.00000000000E+00 -0.18992959402E+04  0.18992959402E+04  0.50400001928E-02 0.  1.
    10030    2    1    2    0    0  0.00000000000E+00  0.00000000000E+00 -0.16029943701E+04  0.21955975103E+04  0.15003524508E+04 0.  0.
        4    1    3    3  502    0 -0.81184211495E+02  0.18851587391E+03  0.25440953257E+03  0.32688672973E+03  0.12699999809E+01 0. -1.
       -4    1    3    3    0  502  0.81184211495E+02 -0.18851587391E+03 -0.18574039027E+04  0.18687107806E+04  0.12699999809E+01 0.  1.
</event>
<event>
 5   0  0.3030702E-05  0.1498746E+04  0.7818609E-02  0.8885288E-01
        2   -1    0    0  501    0  0.00000000000E+00  0.00000000000E+00  0.89498207852E+03  0.89498207852E+03  0.25500000920E-02 0.  1.
       -2   -1    0    0    0  501  0.00000000000E+00  0.00000000000E+00 -0.62745345247E+03  0.62745345248E+03  0.25500000920E-02 0. -1.
    10030    2    1    2    0    0  0.00000000000E+00  0.00000000000E+00  0.26752862605E+03  0.15224355310E+04  0.14987456023E+04 0.  0.
        5    1    3    3  502    0 -0.25547421803E+03 -0.60577011661E+03 -0.23152088502E+03  0.69702834982E+03  0.46999998093E+01 0. -1.
       -5    1    3    3    0  502  0.25547421803E+03  0.60577011661E+03  0.49904951107E+03  0.82540718118E+03  0.46999998093E+01 0.  1.
</event>
<event>
 5   0  0.1643498E-05  0.1500014E+04  0.7818609E-02  0.8884444E-01
        1   -1    0    0  501    0  0.00000000000E+00  0.00000000000E+00  0.12923983104E+04  0.12923983104E+04  0.50400001928E-02 0.  1.
       -1   -1    0    0    0  501  0.00000000000E+00  0.00000000000E+00 -0.43524533647E+03  0.43524533650E+03  0.50400001928E-02 0. -1.
    10030    2    1    2    0    0  0.00000000000E+00  0.00000000000E+00  0.85715297394E+03  0.17276436469E+04  0.15000137833E+04 0.  0.
        4    1    3    3  502    0  0.34675990042E+03 -0.66148092354E+03  0.50761456149E+03  0.90303576712E+03  0.12699999809E+01 0.  1.
       -4    1    3    3    0  502 -0.34675990042E+03  0.66148092354E+03  0.34953841244E+03  0.82460787980E+03  0.12699999809E+01 0. -1.
</event>
<event>
 5   0  0.1588657E-05  0.1500228E+04  0.7818609E-02  0.8884301E-01
        1   -1    0    0  501    0  0.00000000000E+00  0.00000000000E+00  0.96949914058E+03  0.96949914059E+03  0.50400001928E-02 0. -1.
       -1   -1    0    0    0  501  0.00000000000E+00  0.00000000000E+00 -0.58037307551E+03  0.58037307553E+03  0.50400001928E-02 0.  1.
    10030    2    1    2    0    0  0.00000000000E+00  0.00000000000E+00  0.38912606507E+03  0.15498722161E+04  0.15002282466E+04 0.  0.
        3    1    3    3  502    0  0.64571764715E+03 -0.99090272658E+02  0.57540949165E+03  0.87055514200E+03  0.10100000352E+00 0. -1.
       -3    1    3    3    0  502 -0.64571764715E+03  0.99090272658E+02 -0.18628342658E+03  0.67931707413E+03  0.10100000352E+00 0.  1.
</event>
<event>
 5   0  0.3093600E-05  0.1500224E+04  0.7818609E-02  0.8884304E-01
       -2   -1    0    0    0  501  0.00000000000E+00  0.00000000000E+00  0.72993242434E+03  0.72993242434E+03  0.25500000920E-02 0. -1.
        2   -1    0    0  501    0  0.00000000000E+00  0.00000000000E+00 -0.77084939359E+03  0.77084939359E+03  0.25500000920E-02 0.  1.
    10030    2    1    2    0    0  0.00000000000E+00  0.00000000000E+00 -0.40916969249E+02  0.15007818179E+04  0.15002239388E+04 0.  0.
        1    1    3    3  502    0  0.64214386794E+03  0.16443475011E+03  0.33078521510E+03  0.74081468177E+03  0.50400001928E-02 0. -1.
       -1    1    3    3    0  502 -0.64214386794E+03 -0.16443475011E+03 -0.37170218435E+03  0.75996713616E+03  0.50400001928E-02 0.  1.
</event>
<event>
 5   0  0.3070497E-05  0.1501051E+04  0.7818609E-02  0.8883754E-01
       -2   -1    0    0    0  501  0.00000000000E+00  0.00000000000E+00  0.35241282627E+03  0.35241282628E+03  0.25500000920E-02 0.  1.
        2   -1    0    0  501    0  0.00000000000E+00  0.00000000000E+00 -0.15983774544E+04  0.15983774544E+04  0.25500000920E-02 0. -1.
    10030    2    1    2    0    0  0.00000000000E+00  0.00000000000E+00 -0.12459646281E+04  0.19507902806E+04  0.15010512531E+04 0.  0.
        4    1    3    3  502    0 -0.13334878253E+03 -0.64199990236E+03 -0.14841540254E+03  0.67229050049E+03  0.12699999809E+01 0.  1.
       -4    1    3    3    0  502  0.13334878253E+03  0.64199990236E+03 -0.10975492256E+04  0.12784997802E+04  0.12699999809E+01 0. -1.
</event>
<event>
 5   0  0.2969498E-05  0.1499855E+04  0.7818609E-02  0.8884549E-01
       -2   -1    0    0    0  501  0.00000000000E+00  0.00000000000E+00  0.30369701382E+03  0.30369701383E+03  0.25500000920E-02 0. -1.
        2   -1    0    0  501    0  0.00000000000E+00  0.00000000000E+00 -0.18518176955E+04  0.18518176955E+04  0.25500000920E-02 0.  1.
    10030    2    1    2    0    0  0.00000000000E+00  0.00000000000E+00 -0.15481206817E+04  0.21555147093E+04  0.14998553321E+04 0.  0.
        3    1    3    3  502    0  0.23892361338E+03 -0.89457397896E+02  0.23941400406E+03  0.34986596664E+03  0.10100000352E+00 0. -1.
       -3    1    3    3    0  502 -0.23892361338E+03  0.89457397896E+02 -0.17875346858E+04  0.18056487427E+04  0.10100000352E+00 0.  1.
</event>
<event>
 5   0  0.1643498E-05  0.1499701E+04  0.7818609E-02  0.8884652E-01
        1   -1    0    0  501    0  0.00000000000E+00  0.00000000000E+00  0.65589868698E+03  0.65589868700E+03  0.50400001928E-02 0.  1.
       -1   -1    0    0    0  501  0.00000000000E+00  0.00000000000E+00 -0.85726055151E+03  0.85726055152E+03  0.50400001928E-02 0. -1.
    10030    2    1    2    0    0  0.00000000000E+00  0.00000000000E+00 -0.20136186453E+03  0.15131592385E+04  0.14997013972E+04 0.  0.
        4    1    3    3  502    0 -0.33886394474E+03 -0.40685076367E+03  0.43504337093E+03  0.68528874530E+03  0.12699999809E+01 0.  1.
       -4    1    3    3    0  502  0.33886394474E+03  0.40685076367E+03 -0.63640523545E+03  0.82787049323E+03  0.12699999809E+01 0. -1.
</event>
<event>
 5   0  0.1580078E-05  0.1500407E+04  0.7818609E-02  0.8884182E-01
        1   -1    0    0  501    0  0.00000000000E+00  0.00000000000E+00  0.12744367634E+04  0.12744367634E+04  0.50400001928E-02 0.  1.
       -1   -1    0    0    0  501  0.00000000000E+00  0.00000000000E+00 -0.44161092729E+03  0.44161092732E+03  0.50400001928E-02 0. -1.
    10030    2    1    2    0    0  0.00000000000E+00  0.00000000000E+00  0.83282583613E+03  0.17160476908E+04  0.15004068794E+04 0.  0.
        2    1    3    3  502    0  0.65652668955E+03  0.12162086232E+03  0.25222905398E+02  0.66817297402E+03  0.25500000920E-02 0. -1.
       -2    1    3    3    0  502 -0.65652668955E+03 -0.12162086232E+03  0.80760293073E+03  0.10478747167E+04  0.25500000920E-02 0.  1.
</event>
<event>
 5   0  0.3030702E-05  0.1499874E+04  0.7818609E-02  0.8884537E-01
       -2   -1    0    0    0  501  0.00000000000E+00  0.00000000000E+00  0.36604330383E+03  0.36604330384E+03  0.25500000920E-02 0. -1.
        2   -1    0    0  501    0  0.00000000000E+00  0.00000000000E+00 -0.15364444762E+04  0.15364444762E+04  0.25500000920E-02 0.  1.
    10030    2    1    2    0    0  0.00000000000E+00  0.00000000000E+00 -0.11704011724E+04  0.19024877800E+04  0.14998736110E+04 0.  0.
        5    1    3    3  502    0  0.15178459297E+03  0.43245825984E+03  0.16770163837E+03  0.48806212584E+03  0.46999998093E+01 0. -1.
       -5    1    3    3    0  502 -0.15178459297E+03 -0.43245825984E+03 -0.13381028107E+04  0.14144256542E+04  0.46999998093E+01 0.  1.
</event>
<event>
 5   0  0.1576214E-05  0.1500417E+04  0.7818609E-02  0.8884175E-01
        1   -1    0    0  501    0  0.00000000000E+00  0.00000000000E+00  0.79965276434E+03  0.79965276435E+03  0.50400001928E-02 0. -1.
       -1   -1    0    0    0  501  0.00000000000E+00  0.00000000000E+00 -0.70382187893E+03  0.70382187894E+03  0.50400001928E-02 0.  1.
    10030    2    1    2    0    0  0.00000000000E+00  0.00000000000E+00  0.95830885410E+02  0.15034746433E+04  0.15004174234E+04 0.  0.
        1    1    3    3  502    0  0.59268577065E+03  0.20059334329E+03  0.46264159435E+03  0.77817180426E+03  0.50400001928E-02 0. -1.
       -1    1    3    3    0  502 -0.59268577065E+03 -0.20059334329E+03 -0.36681070894E+03  0.72530283904E+03  0.50400001928E-02 0.  1.
</event>
<event>
 5   0  0.2969498E-05  0.1498587E+04  0.7818609E-02  0.8885393E-01
        2   -1    0    0  501    0  0.00000000000E+00  0.00000000000E+00  0.15755786244E+04  0.15755786244E+04  0.25500000920E-02 0. -1.
       -2   -1    0    0    0  501  0.00000000000E+00  0.00000000000E+00 -0.35633959216E+03  0.35633959217E+03  0.25500000920E-02 0.  1.
    10030    2    1    2    0    0  0.00000000000E+00  0.00000000000E+00  0.12192390323E+04  0.19319182166E+04  0.14985873941E+04 0.  0.
        3    1    3    3  502    0 -0.54634396314E+03 -0.40989233361E+03  0.21240441763E+03  0.71527553995E+03  0.10100000352E+00 0.  1.
       -3    1    3    3    0  502  0.54634396314E+03  0.40989233361E+03  0.10068346146E+04  0.12166426766E+04  0.10100000352E+00 0. -1.
</event>
<event>
 5   0  0.1580078E-05  0.1499915E+04  0.7818609E-02  0.8884510E-01
        1   -1    0    0  501    0  0.00000000000E+00  0.00000000000E+00  0.15916734303E+04  0.15916734303E+04  0.50400001928E-02 0.  1.
       -1   -1    0    0    0  501  0.00000000000E+00  0.00000000000E+00 -0.35336150594E+03  0.35336150597E+03  0.50400001928E-02 0. -1.
    10030    2    1    2    0    0  0.00000000000E+00  0.00000000000E+00  0.12383119244E+04  0.19450349363E+04  0.14999148247E+04 0.  0.
        2    1    3    3  502    0  0.67905538627E+03 -0.13708012056E+03  0.24662364742E+03  0.73534372952E+03  0.25500000920E-02 0.  1.
       -2    1    3    3    0  502 -0.67905538627E+03  0.13708012056E+03  0.99168827694E+03  0.12096912068E+04  0.25500000920E-02 0. -1.
</event>
<event>
 5   0  0.1643498E-05  0.1505637E+04  0.7818609E-02  0.8880713E-01
       -1   -1    0    0    0  501  0.00000000000E+00  0.00000000000E+00  0.96542933890E+03  0.96542933891E+03  0.50400001928E-02 0.  1.
        1   -1    0    0  501    0  0.00000000000E+00  0.00000000000E+00 -0.58702983231E+03  0.58702983233E+03  0.50400001928E-02 0. -1.
    10030    2    1    2    0    0  0.00000000000E+00  0.00000000000E+00  0.37839950659E+03  0.15524591712E+04  0.15056371714E+04 0.  0.
        4    1    3    3  502    0 -0.55205380345E+02  0.41022543289E+03  0.83756407579E+03  0.93426320368E+03  0.12699999809E+01 0.  1.
       -4    1    3    3    0  502  0.55205380345E+02 -0.41022543289E+03 -0.45916456920E+03  0.61819596756E+03  0.12699999809E+01 0. -1.
</event>
<event>
 5   0  0.1116613E-05  0.1499949E+04  0.7818609E-02  0.8884487E-01
       -3   -1    0    0    0  501  0.00000000000E+00  0.00000000000E+00  0.95779777793E+03  0.95779778325E+03  0.10100000352E+00 0.  1.
        3   -1    0    0  501    0  0.00000000000E+00  0.00000000000E+00 -0.58724479087E+03  0.58724479955E+03  0.10100000352E+00 0. -1.
    10030    2    1    2    0    0  0.00000000000E+00  0.00000000000E+00  0.37055298706E+03  0.15450425828E+04  0.14999490213E+04 0.  0.
        2    1    3    3  502    0  0.25771184237E+03  0.70314145692E+03  0.22697134867E+03  0.78252111490E+03  0.25500000920E-02 0.  1.
       -2    1    3    3    0  502 -0.25771184237E+03 -0.70314145692E+03  0.14358163839E+03  0.76252146791E+03  0.25500000920E-02 0. -1.
</event>
<event>
 5   0  0.3070497E-05  0.1499800E+04  0.7818609E-02  0.8884586E-01
        2   -1    0    0  501    0  0.00000000000E+00  0.00000000000E+00  0.15469492010E+04  0.15469492010E+04  0.25500000920E-02 0. -1.
       -2   -1    0    0    0  501  0.00000000000E+00  0.00000000000E+00 -0.36352197092E+03  0.36352197093E+03  0.25500000920E-02 0.  1.
    10030    2    1    2    0    0  0.00000000000E+00  0.00000000000E+00  0.11834272301E+04  0.19104711719E+04  0.14998000166E+04 0.  0.
        4    1    3    3  502    0  0.44173334756E+03 -0.55785672396E+03  0.29023054541E+03  0.76848412945E+03  0.12699999809E+01 0.  1.
       -4    1    3    3    0  502 -0.44173334756E+03  0.55785672396E+03  0.89319668468E+03  0.11419870425E+04  0.12699999809E+01 0. -1.
</event>
<event>
 5   0  0.1533777E-05  0.1498803E+04  0.7818609E-02  0.8885249E-01
       -1   -1    0    0    0  501  0.00000000000E+00  0.00000000000E+00  0.83358534152E+03  0.83358534154E+03  0.50400001928E-02 0. -1.
        1   -1    0    0  501    0  0.00000000000E+00  0.00000000000E+00 -0.67371951905E+03  0.67371951907E+03  0.50400001928E-02 0.  1.
    10030    2    1    2    0    0  0.00000000000E+00  0.00000000000E+00  0.15986582247E+03  0.15073048606E+04  0.14988031430E+04 0.  0.
        5    1    3    3  502    0  0.46995746901E+03 -0.57976146829E+03  0.14812048162E+03  0.76088445237E+03  0.46999998093E+01 0.  1.
       -5    1    3    3    0  502 -0.46995746901E+03  0.57976146829E+03  0.11745340852E+02  0.74642040823E+03  0.46999998093E+01 0. -1.
</event>
<event>
 5   0  0.3018308E-05  0.1499643E+04  0.7818609E-02  0.8884690E-01
        2   -1    0    0  501    0  0.00000000000E+00  0.00000000000E+00  0.82779677935E+03  0.82779677935E+03  0.25500000920E-02 0. -1.
       -2   -1    0    0    0  501  0.00000000000E+00  0.00000000000E+00 -0.67919116811E+03  0.67919116812E+03  0.25500000920E-02 0.  1.
    10030    2    1    2    0    0  0.00000000000E+00  0.00000000000E+00  0.14860561123E+03  0.15069879475E+04  0.14996429729E+04 0.  0.
        2    1    3    3  502    0 -0.43956928580E+03 -0.51343621126E+03 -0.25193222317E+03  0.72132360639E+03  0.25500000920E-02 0.  1.
       -2    1    3    3    0  502  0.43956928580E+03  0.51343621126E+03  0.40053783440E+03  0.78566434108E+03  0.25500000920E-02 0. -1.
</event>
<event>
 5   0  0.1643498E-05  0.1499880E+04  0.7818609E-02  0.8884533E-01
       -1   -1    0    0    0  501  0.00000000000E+00  0.00000000000E+00  0.75629201458E+03  0.75629201460E+03  0.50400001928E-02 0.  1.
        1   -1    0    0  501    0  0.00000000000E+00  0.00000000000E+00 -0.74364121908E+03  0.74364121910E+03  0.50400001928E-02 0. -1.
    10030    2    1    2    0    0  0.00000000000E+00  0.00000000000E+00  0.12650795500E+02  0.14999332337E+04  0.14998798828E+04 0.  0.
        4    1    3    3  502    0 -0.37751255045E+03  0.87113455463E+02 -0.63580632927E+03  0.74455072434E+03  0.12699999809E+01 0. -1.
       -4    1    3    3    0  502  0.37751255045E+03 -0.87113455463E+02  0.64845712477E+03  0.75538250936E+03  0.12699999809E+01 0.  1.
</event>
<event>
 5   0  0.1576214E-05  0.1499980E+04  0.7818609E-02  0.8884466E-01
        1   -1    0    0  501    0  0.00000000000E+00  0.00000000000E+00  0.18373554755E+04  0.18373554755E+04  0.50400001928E-02 0. -1.
       -1   -1    0    0    0  501  0.00000000000E+00  0.00000000000E+00 -0.30613850848E+03  0.30613850853E+03  0.50400001928E-02 0.  1.
    10030    2    1    2    0    0  0.00000000000E+00  0.00000000000E+00  0.15312169670E+04  0.21434939841E+04  0.14999803530E+04 0.  0.
        1    1    3    3  502    0 -0.59563890085E+03  0.40454410537E+03  0.46570724567E+03  0.85751085829E+03  0.50400001928E-02 0.  1.
       -1    1    3    3    0  502  0.59563890085E+03 -0.40454410537E+03  0.10655097214E+04  0.12859831258E+04  0.50400001928E-02 0. -1.
</event>
<event>
 5   0  0.3018308E-05  0.1499956E+04  0.7818609E-02  0.8884482E-01
        2   -1    0    0  501    0  0.00000000000E+00  0.00000000000E+00  0.59634813062E+03  0.59634813063E+03  0.25500000920E-02 0.  1.
       -2   -1    0    0    0  501  0.00000000000E+00  0.00000000000E+00 -0.94318520177E+03  0.94318520177E+03  0.25500000920E-02 0. -1.
    10030    2    1    2    0    0  0.00000000000E+00  0.00000000000E+00 -0.34683707115E+03  0.15395333324E+04  0.14999556419E+04 0.  0.
        2    1    3    3  502    0 -0.69702529658E+03  0.82608828995E+02  0.97746034623E+02  0.70867677399E+03  0.25500000920E-02 0.  1.
       -2    1    3    3    0  502  0.69702529658E+03 -0.82608828995E+02 -0.44458310577E+03  0.83085655841E+03  0.25500000920E-02 0. -1.
</event>
<event>
 5   0  0.3093600E-05  0.1499356E+04  0.7818609E-02  0.8884881E-01
       -2   -1    0    0    0  501  0.00000000000E+00  0.00000000000E+00  0.25188529220E+03  0.25188529222E+03  0.25500000920E-02 0.  1.
        2   -1    0    0  501    0  0.00000000000E+00  0.00000000000E+00 -0.22312435465E+04  0.22312435465E+04  0.25500000920E-02 0. -1.
    10030    2    1    2    0    0  0.00000000000E+00  0.00000000000E+00 -0.19793582543E+04  0.24831288387E+04  0.14993564389E+04 0.  0.
        1    1    3    3  502    0  0.25686665335E+03  0.68014099253E+03 -0.68680570243E+03  0.10001371507E+04  0.50400001928E-02 0. -1.
       -1    1    3    3    0  502 -0.25686665335E+03 -0.68014099253E+03 -0.12925525519E+04  0.14829916880E+04  0.50400001928E-02 0.  1.
</event>
<event>
 5   0  0.1580078E-05  0.1499210E+04  0.7818609E-02  0.8884979E-01
        1   -1    0    0  501    0  0.00000000000E+00  0.00000000000E+00  0.10960539806E+04  0.10960539806E+04  0.50400001928E-02 0.  1.
       -1   -1    0    0    0  501  0.00000000000E+00  0.00000000000E+00 -0.51266398733E+03  0.51266398736E+03  0.50400001928E-02 0. -1.
    10030    2    1    2    0    0  0.00000000000E+00  0.00000000000E+00  0.58338999327E+03  0.16087179680E+04  0.14992096639E+04 0.  0.
        2    1    3    3  502    0  0.73889859049E+03 -0.44499693133E+02  0.41845985205E+03  0.85032934649E+03  0.25500000920E-02 0. -1.
       -2    1    3    3    0  502 -0.73889859049E+03  0.44499693133E+02  0.16493014122E+03  0.75838862149E+03  0.25500000920E-02 0.  1.
</event>
<event>
 5   0  0.1576214E-05  0.1495687E+04  0.7818609E-02  0.8887326E-01
       -1   -1    0    0    0  501  0.00000000000E+00  0.00000000000E+00  0.34230455354E+03  0.34230455358E+03  0.50400001928E-02 0. -1.
        1   -1    0    0  501    0  0.00000000000E+00  0.00000000000E+00 -0.16338361497E+04  0.16338361497E+04  0.50400001928E-02 0.  1.
    10030    2    1    2    0    0  0.00000000000E+00  0.00000000000E+00 -0.12915315962E+04  0.19761407033E+04  0.14956865365E+04 0.  0.
        1    1    3    3  502    0  0.80631585834E+02  0.55153854223E+03  0.12959816085E+02  0.55755194651E+03  0.50400001928E-02 0. -1.
       -1    1    3    3    0  502 -0.80631585834E+02 -0.55153854223E+03 -0.13044914123E+04  0.14185887568E+04  0.50400001928E-02 0.  1.
</event>
<event>
 5   0  0.1643498E-05  0.1502224E+04  0.7818609E-02  0.8882975E-01
        1   -1    0    0  501    0  0.00000000000E+00  0.00000000000E+00  0.11333068499E+04  0.11333068499E+04  0.50400001928E-02 0.  1.
       -1   -1    0    0    0  501  0.00000000000E+00  0.00000000000E+00 -0.49780789057E+03  0.49780789059E+03  0.50400001928E-02 0. -1.
    10030    2    1    2    0    0  0.00000000000E+00  0.00000000000E+00  0.63549895930E+03  0.16311147405E+04  0.15022238080E+04 0.  0.
        4    1    3    3  502    0  0.28898026626E+03 -0.37767675488E+03 -0.31352740139E+03  0.56960545099E+03  0.12699999809E+01 0. -1.
       -4    1    3    3    0  502 -0.28898026626E+03  0.37767675488E+03  0.94902636069E+03  0.10615092895E+04  0.12699999809E+01 0.  1.
</event>
<event>
 5   0  0.3070497E-05  0.1499189E+04  0.7818609E-02  0.8884992E-01
       -2   -1    0    0    0  501  0.00000000000E+00  0.00000000000E+00  0.43463784280E+03  0.43463784281E+03  0.25500000920E-02 0.  1.
        2   -1    0    0  501    0  0.00000000000E+00  0.00000000000E+00 -0.12927817297E+04  0.12927817297E+04  0.25500000920E-02 0. -1.
    10030    2    1    2    0    0  0.00000000000E+00  0.00000000000E+00 -0.85814388690E+03  0.17274195725E+04  0.14991889303E+04 0.  0.
        4    1    3    3  502    0  0.71045615073E+03  0.12037925777E+02 -0.15398563523E+03  0.72705298467E+03  0.12699999809E+01 0.  1.
       -4    1    3    3    0  502 -0.71045615073E+03 -0.12037925777E+02 -0.70415825167E+03  0.10003665878E+04  0.12699999809E+01 0. -1.
</event>
<event>
 5   0  0.1588657E-05  0.1502597E+04  0.7818609E-02  0.8882728E-01
        1   -1    0    0  501    0  0.00000000000E+00  0.00000000000E+00  0.49178017908E+03  0.49178017910E+03  0.50400001928E-02 0.  1.
       -1   -1    0    0    0  501  0.00000000000E+00  0.00000000000E+00 -0.11477677474E+04  0.11477677474E+04  0.50400001928E-02 0. -1.
    10030    2    1    2    0    0  0.00000000000E+00  0.00000000000E+00 -0.65598756832E+03  0.16395479265E+04  0.15025969897E+04 0.  0.
        3    1    3    3  502    0 -0.22263965606E+02  0.73426315451E+03 -0.49986645824E+03  0.88854068590E+03  0.10100000352E+00 0.  1.
       -3    1    3    3    0  502  0.22263965606E+02 -0.73426315451E+03 -0.15612111009E+03  0.75100724061E+03  0.10100000352E+00 0. -1.
</event>
<event>
 5   0  0.1576214E-05  0.1504701E+04  0.7818609E-02  0.8881333E-01
       -1   -1    0    0    0  501  0.00000000000E+00  0.00000000000E+00  0.75918745590E+03  0.75918745592E+03  0.50400001928E-02 0. -1.
        1   -1    0    0  501    0  0.00000000000E+00  0.00000000000E+00 -0.74557550047E+03  0.74557550048E+03  0.50400001928E-02 0.  1.
    10030    2    1    2    0    0  0.00000000000E+00  0.00000000000E+00  0.13611955433E+02  0.15047629564E+04  0.15047013889E+04 0.  0.
        1    1    3    3  502    0 -0.69602834799E+01  0.68021597522E+03 -0.31459377586E+03  0.74947412385E+03  0.50400001928E-02 0.  1.
       -1    1    3    3    0  502  0.69602834799E+01 -0.68021597522E+03  0.32820573129E+03  0.75528883255E+03  0.50400001928E-02 0. -1.
</event>
<event>
 5   0  0.1576214E-05  0.1499752E+04  0.7818609E-02  0.8884618E-01
        1   -1    0    0  501    0  0.00000000000E+00  0.00000000000E+00  0.41509568427E+03  0.41509568430E+03  0.50400001928E-02 0.  1.
       -1   -1    0    0    0  501  0.00000000000E+00  0.00000000000E+00 -0.13546606856E+04  0.13546606856E+04  0.50400001928E-02 0. -1.
    10030    2    1    2    0    0  0.00000000000E+00  0.00000000000E+00 -0.93956500133E+03  0.17697563699E+04  0.14997517185E+04 0.  0.
        1    1    3    3  502    0  0.13214953542E+03 -0.20914764767E+03 -0.13051154185E+04  0.13283570657E+04  0.50400001928E-02 0. -1.
       -1    1    3    3    0  502 -0.13214953542E+03  0.20914764767E+03  0.36555041720E+03  0.44139930423E+03  0.50400001928E-02 0.  1.
</event>
<event>
 5   0  0.3070497E-05  0.1500437E+04  0.7818609E-02  0.8884162E-01
        2   -1    0    0  501    0  0.00000000000E+00  0.00000000000E+00  0.76861375741E+03  0.76861375742E+03  0.25500000920E-02 0.  1.
       -2   -1    0    0    0  501  0.00000000000E+00  0.00000000000E+00 -0.73226370332E+03  0.73226370332E+03  0.25500000920E-02 0. -1.
    10030    2    1    2    0    0  0.00000000000E+00  0.00000000000E+00  0.36350054098E+02  0.15008774607E+04  0.15004372115E+04 0.  0.
        4    1    3    3  502    0 -0.27621716822E+03  0.27728503008E+03  0.65839675198E+03  0.76594438952E+03  0.12699999809E+01 0.  1.
       -4    1    3    3    0  502  0.27621716822E+03 -0.27728503008E+03 -0.62204669788E+03  0.73493307122E+03  0.12699999809E+01 0. -1.
</event>
<event>
 5   0  0.2969498E-05  0.1499935E+04  0.7818609E-02  0.8884496E-01
       -2   -1    0    0    0  501  0.00000000000E+00  0.00000000000E+00  0.49411391747E+03  0.49411391748E+03  0.25500000920E-02 0. -1.
        2   -1    0    0  501    0  0.00000000000E+00  0.00000000000E+00 -0.11383020732E+04  0.11383020732E+04  0.25500000920E-02 0.  1.
    10030    2    1    2    0    0  0.00000000000E+00  0.00000000000E+00 -0.64418815574E+03  0.16324159907E+04  0.14999345275E+04 0.  0.
        3    1    3    3  502    0 -0.74900030740E+03  0.37521303453E+02 -0.32911168579E+03  0.81897730166E+03  0.10100000352E+00 0. -1.
       -3    1    3    3    0  502  0.74900030740E+03 -0.37521303453E+02 -0.31507646995E+03  0.81343868903E+03  0.10100000352E+00 0.  1.
</event>
<event>
 5   0  0.3030702E-05  0.1499988E+04  0.7818609E-02  0.8884461E-01
       -2   -1    0    0    0  501  0.00000000000E+00  0.00000000000E+00  0.30722714958E+03  0.30722714959E+03  0.25500000920E-02 0.  1.
        2   -1    0    0  501    0  0.00000000000E+00  0.00000000000E+00 -0.18308627808E+04  0.18308627808E+04  0.25500000920E-02 0. -1.
    10030    2    1    2    0    0  0.00000000000E+00  0.00000000000E+00 -0.15236356313E+04  0.21380899304E+04  0.14999876712E+04 0.  0.
        5    1    3    3  502    0  0.71232137198E+02  0.72538605065E+03 -0.51000186268E+03  0.88959706035E+03  0.46999998093E+01 0.  1.
       -5    1    3    3    0  502 -0.71232137198E+02 -0.72538605065E+03 -0.10136337686E+04  0.12484928701E+04  0.46999998093E+01 0. -1.
</event>
<event>
 5   0  0.2969498E-05  0.1496386E+04  0.7818609E-02  0.8886860E-01
        2   -1    0    0  501    0  0.00000000000E+00  0.00000000000E+00  0.10543515269E+04  0.10543515269E+04  0.25500000920E-02 0. -1.
       -2   -1    0    0    0  501  0.00000000000E+00  0.00000000000E+00 -0.53093546447E+03  0.53093546448E+03  0.25500000920E-02 0.  1.
    10030    2    1    2    0    0  0.00000000000E+00  0.00000000000E+00  0.52341606239E+03  0.15852869913E+04  0.14963858027E+04 0.  0.
        3    1    3    3  502    0 -0.32320927905E+03 -0.23313347616E+03  0.93255603229E+03  0.10141381658E+04  0.10100000352E+00 0. -1.
       -3    1    3    3    0  502  0.32320927905E+03  0.23313347616E+03 -0.40913996989E+03  0.57114882555E+03  0.10100000352E+00 0.  1.
</event>
<event>
 5   0  0.1533777E-05  0.1500456E+04  0.7818609E-02  0.8884150E-01
       -1   -1    0    0    0  501  0.00000000000E+00  0.00000000000E+00  0.52439823652E+03  0.52439823655E+03  0.50400001928E-02 0. -1.
        1   -1    0    0  501    0  0.00000000000E+00  0.00000000000E+00 -0.10733106933E+04  0.10733106933E+04  0.50400001928E-02 0.  1.
    10030    2    1    2    0    0  0.00000000000E+00  0.00000000000E+00 -0.54891245680E+03  0.15977089299E+04  0.15004562437E+04 0.  0.
        5    1    3    3  502    0 -0.90385840606E+02 -0.29302288620E+03 -0.10035151554E+04  0.10493315821E+04  0.46999998093E+01 0.  1.
       -5    1    3    3    0  502  0.90385840606E+02  0.29302288620E+03  0.45460269860E+03  0.54837734781E+03  0.46999998093E+01 0. -1.
</event>
<event>
 5   0  0.3030702E-05  0.1500929E+04  0.7818609E-02  0.8883835E-01
       -2   -1    0    0    0  501  0.00000000000E+00  0.00000000000E+00  0.62944981079E+03  0.62944981079E+03  0.25500000920E-02 0. -1.
        2   -1    0    0  501    0  0.00000000000E+00  0.00000000000E+00 -0.89474466970E+03  0.89474466970E+03  0.25500000920E-02 0.  1.
    10030    2    1    2    0    0  0.00000000000E+00  0.00000000000E+00 -0.26529485891E+03  0.15241944805E+04  0.15009288631E+04 0.  0.
        5    1    3    3  502    0 -0.29171517637E+03 -0.35563205597E+03  0.46950505263E+03  0.65728912040E+03  0.46999998093E+01 0. -1.
       -5    1    3    3    0  502  0.29171517637E+03  0.35563205597E+03 -0.73479991154E+03  0.86690536009E+03  0.46999998093E+01 0.  1.
</event>
<event>
 5   0  0.3018308E-05  0.1499311E+04  0.7818609E-02  0.8884911E-01
       -2   -1    0    0    0  501  0.00000000000E+00  0.00000000000E+00  0.33830104755E+03  0.33830104756E+03  0.25500000920E-02 0.  1.
        2   -1    0    0  501    0  0.00000000000E+00  0.00000000000E+00 -0.16611933560E+04  0.16611933560E+04  0.25500000920E-02 0. -1.
    10030    2    1    2    0    0  0.00000000000E+00  0.00000000000E+00 -0.13228923085E+04  0.19994944036E+04  0.14993111118E+04 0.  0.
        2    1    3    3  502    0 -0.18662572634E+03 -0.68892552004E+03 -0.35577349266E+03  0.79751007015E+03  0.25500000920E-02 0. -1.
       -2    1    3    3    0  502  0.18662572634E+03  0.68892552004E+03 -0.96711881579E+03  0.12019843334E+04  0.25500000920E-02 0.  1.
</event>
<event>
 5   0  0.3030702E-05  0.1500063E+04  0.7818609E-02  0.8884411E-01
       -2   -1    0    0    0  501  0.00000000000E+00  0.00000000000E+00  0.56021174091E+03  0.56021174092E+03  0.25500000920E-02 0.  1.
        2   -1    0    0  501    0  0.00000000000E+00  0.00000000000E+00 -0.10041693245E+04  0.10041693245E+04  0.25500000920E-02 0. -1.
    10030    2    1    2    0    0  0.00000000000E+00  0.00000000000E+00 -0.44395758355E+03  0.15643810654E+04  0.15000632592E+04 0.  0.
        5    1    3    3  502    0 -0.74377680318E+03  0.32055436828E+02 -0.31695430014E+03  0.80914374641E+03  0.46999998093E+01 0. -1.
       -5    1    3    3    0  502  0.74377680318E+03 -0.32055436828E+02 -0.12700328341E+03  0.75523731897E+03  0.46999998093E+01 0.  1.
</event>
<event>
 5   0  0.1576214E-05  0.1499342E+04  0.7818609E-02  0.8884890E-01
       -1   -1    0    0    0  501  0.00000000000E+00  0.00000000000E+00  0.33505001015E+03  0.33505001019E+03  0.50400001928E-02 0.  1.
        1   -1    0    0  501    0  0.00000000000E+00  0.00000000000E+00 -0.16773819141E+04  0.16773819141E+04  0.50400001928E-02 0. -1.
    10030    2    1    2    0    0  0.00000000000E+00  0.00000000000E+00 -0.13423319039E+04  0.20124319243E+04  0.14993422923E+04 0.  0.
        1    1    3    3  502    0 -0.55686439626E+03 -0.34196980034E+03 -0.17806954901E+03  0.67731090681E+03  0.50400001928E-02 0.  1.
       -1    1    3    3    0  502  0.55686439626E+03  0.34196980034E+03 -0.11642623549E+04  0.13351210175E+04  0.50400001928E-02 0. -1.
</event>
<event>
 5   0  0.3018308E-05  0.1499905E+04  0.7818609E-02  0.8884516E-01
       -2   -1    0    0    0  501  0.00000000000E+00  0.00000000000E+00  0.55260706652E+03  0.55260706652E+03  0.25500000920E-02 0. -1.
        2   -1    0    0  501    0  0.00000000000E+00  0.00000000000E+00 -0.10177727145E+04  0.10177727145E+04  0.25500000920E-02 0.  1.
    10030    2    1    2    0    0  0.00000000000E+00  0.00000000000E+00 -0.46516564794E+03  0.15703797810E+04  0.14999045225E+04 0.  0.
        2    1    3    3  502    0 -0.39454294560E+03  0.36342263834E+03 -0.78131587224E+03  0.94773131330E+03  0.25500000920E-02 0.  1.
       -2    1    3    3    0  502  0.39454294560E+03 -0.36342263834E+03  0.31615022430E+03  0.62264846768E+03  0.25500000920E-02 0. -1.
</event>
<event>
 5   0  0.1533777E-05  0.1500345E+04  0.7818609E-02  0.8884224E-01
        1   -1    0    0  501    0  0.00000000000E+00  0.00000000000E+00  0.98245509391E+03  0.98245509392E+03  0.50400001928E-02 0. -1.
       -1   -1    0    0    0  501  0.00000000000E+00  0.00000000000E+00 -0.57280869023E+03  0.57280869025E+03  0.50400001928E-02 0.  1.
    10030    2    1    2    0    0  0.00000000000E+00  0.00000000000E+00  0.40964640368E+03  0.15552637842E+04  0.15003450477E+04 0.  0.
        5    1    3    3  502    0 -0.39305232829E+03 -0.32692173423E+03  0.77388841045E+03  0.92751998087E+03  0.46999998093E+01 0. -1.
       -5    1    3    3    0  502  0.39305232829E+03  0.32692173423E+03 -0.36424200677E+03  0.62774380330E+03  0.46999998093E+01 0.  1.
</event>
<event>
 5   0  0.1588657E-05  0.1499092E+04  0.7818609E-02  0.8885057E-01
        1   -1    0    0  501    0  0.00000000000E+00  0.00000000000E+00  0.11285611849E+04  0.11285611849E+04  0.50400001928E-02 0. -1.
       -1   -1    0    0    0  501  0.00000000000E+00  0.00000000000E+00 -0.49781906071E+03  0.49781906074E+03  0.50400001928E-02 0.  1.
    10030    2    1    2    0    0  0.00000000000E+00  0.00000000000E+00  0.63074212422E+03  0.16263802457E+04  0.14990920840E+04 0.  0.
        3    1    3    3  502    0 -0.33196414004E+03 -0.88761025862E+02  0.10380715333E+04  0.10934675251E+04  0.10100000352E+00 0. -1.
       -3    1    3    3    0  502  0.33196414004E+03  0.88761025862E+02 -0.40732940912E+03  0.53291272055E+03  0.10100000352E+00 0.  1.
</event>
<event>
 5   0  0.3070497E-05  0.1500364E+04  0.7818609E-02  0.8884211E-01
       -2   -1    0    0    0  501  0.00000000000E+00  0.00000000000E+00  0.45666544824E+03  0.45666544825E+03  0.25500000920E-02 0.  1.
        2   -1    0    0  501    0  0.00000000000E+00  0.00000000000E+00 -0.12323523220E+04  0.12323523220E+04  0.25500000920E-02 0. -1.
    10030    2    1    2    0    0  0.00000000000E+00  0.00000000000E+00 -0.77568687374E+03  0.16890177702E+04  0.15003635900E+04 0.  0.
        4    1    3    3  502    0  0.70189085222E+03  0.73757130416E+02 -0.10154203146E+03  0.71302403870E+03  0.12699999809E+01 0.  1.
       -4    1    3    3    0  502 -0.70189085222E+03 -0.73757130416E+02 -0.67414484228E+03  0.97599373153E+03  0.12699999809E+01 0. -1.
</event>
<event>
 5   0  0.1533777E-05  0.1499347E+04  0.7818609E-02  0.8884887E-01
        1   -1    0    0  501    0  0.00000000000E+00  0.00000000000E+00  0.11971866026E+04  0.11971866026E+04  0.50400001928E-02 0.  1.
       -1   -1    0    0    0  501  0.00000000000E+00  0.00000000000E+00 -0.46944236375E+03  0.46944236377E+03  0.50400001928E-02 0. -1.
    10030    2    1    2    0    0  0.00000000000E+00  0.00000000000E+00  0.72774423884E+03  0.16666289664E+04  0.14993466692E+04 0.  0.
        5    1    3    3  502    0  0.48830090148E+03 -0.25677353352E+03  0.92806114229E+03  0.10796712424E+04  0.46999998093E+01 0.  1.
       -5    1    3    3    0  502 -0.48830090148E+03  0.25677353352E+03 -0.20031690345E+03  0.58695772395E+03  0.46999998093E+01 0. -1.
</event>
<event>
 5   0  0.1576214E-05  0.1500086E+04  0.7818609E-02  0.8884396E-01
        1   -1    0    0  501    0  0.00000000000E+00  0.00000000000E+00  0.13699161889E+04  0.13699161889E+04  0.50400001928E-02 0.  1.
       -1   -1    0    0    0  501  0.00000000000E+00  0.00000000000E+00 -0.41065599518E+03  0.41065599521E+03  0.50400001928E-02 0. -1.
    10030    2    1    2    0    0  0.00000000000E+00  0.00000000000E+00  0.95926019374E+03  0.17805721841E+04  0.15000857254E+04 0.  0.
        1    1    3    3  502    0  0.21771275894E+03 -0.56671261663E+03  0.10024437271E+04  0.11719451614E+04  0.50400001928E-02 0.  1.
       -1    1    3    3    0  502 -0.21771275894E+03  0.56671261663E+03 -0.43183533376E+02  0.60862702276E+03  0.50400001928E-02 0. -1.
</event>
<event>
 5   0  0.1588657E-05  0.1498960E+04  0.7818609E-02  0.8885145E-01
        1   -1    0    0  501    0  0.00000000000E+00  0.00000000000E+00  0.18329517496E+03  0.18329517503E+03  0.50400001928E-02 0.  1.
       -1   -1    0    0    0  501  0.00000000000E+00  0.00000000000E+00 -0.30645676727E+04  0.30645676727E+04  0.50400001928E-02 0. -1.
    10030    2    1    2    0    0  0.00000000000E+00  0.00000000000E+00 -0.28812724977E+04  0.32478628477E+04  0.14989602635E+04 0.  0.
        3    1    3    3  502    0  0.22181009317E+03  0.71352733313E+03 -0.15669684703E+04  0.17360043691E+04  0.10100000352E+00 0.  1.
       -3    1    3    3    0  502 -0.22181009317E+03 -0.71352733313E+03 -0.13143040274E+04  0.15118584786E+04  0.10100000352E+00 0. -1.
</event>
<event>
 5   0  0.3030702E-05  0.1506825E+04  0.7818609E-02  0.8879927E-01
       -2   -1    0    0    0  501  0.00000000000E+00  0.00000000000E+00  0.51079483814E+03  0.51079483814E+03  0.25500000920E-02 0. -1.
        2   -1    0    0  501    0  0.00000000000E+00  0.00000000000E+00 -0.11112687653E+04  0.11112687653E+04  0.25500000920E-02 0.  1.
    10030    2    1    2    0    0  0.00000000000E+00  0.00000000000E+00 -0.60047392719E+03  0.16220636035E+04  0.15068249389E+04 0.  0.
        5    1    3    3  502    0 -0.12797071827E+03 -0.11115641270E+03 -0.10904596680E+04  0.11035654173E+04  0.46999998093E+01 0.  1.
       -5    1    3    3    0  502  0.12797071827E+03  0.11115641270E+03  0.48998574081E+03  0.51849818613E+03  0.46999998093E+01 0. -1.
</event>
<event>
 5   0  0.1643498E-05  0.1500296E+04  0.7818609E-02  0.8884256E-01
       -1   -1    0    0    0  501  0.00000000000E+00  0.00000000000E+00  0.74051388270E+03  0.74051388272E+03  0.50400001928E-02 0. -1.
        1   -1    0    0  501    0  0.00000000000E+00  0.00000000000E+00 -0.75990779475E+03  0.75990779476E+03  0.50400001928E-02 0.  1.
    10030    2    1    2    0    0  0.00000000000E+00  0.00000000000E+00 -0.19393912044E+02  0.15004216775E+04  0.15002963329E+04 0.  0.
        4    1    3    3  502    0  0.23018816799E+03 -0.27465924767E+03 -0.66876367091E+03  0.75872969853E+03  0.12699999809E+01 0.  1.
       -4    1    3    3    0  502 -0.23018816799E+03  0.27465924767E+03  0.64936975886E+03  0.74169197895E+03  0.12699999809E+01 0. -1.
</event>
<event>
 5   0  0.1533777E-05  0.1497886E+04  0.7818609E-02  0.8885860E-01
       -1   -1    0    0    0  501  0.00000000000E+00  0.00000000000E+00  0.50009700326E+03  0.50009700328E+03  0.50400001928E-02 0. -1.
        1   -1    0    0  501    0  0.00000000000E+00  0.00000000000E+00 -0.11216135110E+04  0.11216135110E+04  0.50400001928E-02 0.  1.
    10030    2    1    2    0    0  0.00000000000E+00  0.00000000000E+00 -0.62151650772E+03  0.16217105143E+04  0.14978859178E+04 0.  0.
        5    1    3    3  502    0 -0.55847792197E+03 -0.26041479369E+03  0.15008128796E+03  0.63423965273E+03  0.46999998093E+01 0. -1.
       -5    1    3    3    0  502  0.55847792197E+03  0.26041479369E+03 -0.77159779568E+03  0.98747086154E+03  0.46999998093E+01 0.  1.
</event>
<event>
 5   0  0.3030702E-05  0.1500166E+04  0.7818609E-02  0.8884343E-01
       -2   -1    0    0    0  501  0.00000000000E+00  0.00000000000E+00  0.12749233049E+04  0.12749233049E+04  0.25500000920E-02 0.  1.
        2   -1    0    0  501    0  0.00000000000E+00  0.00000000000E+00 -0.44130054894E+03  0.44130054895E+03  0.25500000920E-02 0. -1.
    10030    2    1    2    0    0  0.00000000000E+00  0.00000000000E+00  0.83362275599E+03  0.17162238539E+04  0.15001657966E+04 0.  0.
        5    1    3    3  502    0  0.15397560884E+03 -0.43354419478E+03  0.10945260804E+04  0.11872988198E+04  0.46999998093E+01 0.  1.
       -5    1    3    3    0  502 -0.15397560884E+03  0.43354419478E+03 -0.26090332441E+03  0.52892503404E+03  0.46999998093E+01 0. -1.
</event>
<event>
 5   0  0.1533777E-05  0.1499806E+04  0.7818609E-02  0.8884582E-01
        1   -1    0    0  501    0  0.00000000000E+00  0.00000000000E+00  0.50074229146E+03  0.50074229149E+03  0.50400001928E-02 0.  1.
       -1   -1    0    0    0  501  0.00000000000E+00  0.00000000000E+00 -0.11230414886E+04  0.11230414886E+04  0.50400001928E-02 0. -1.
    10030    2    1    2    0    0  0.00000000000E+00  0.00000000000E+00 -0.62229919717E+03  0.16237837801E+04  0.14998058120E+04 0.  0.
        5    1    3    3  502    0  0.49405691345E+03 -0.25173084408E+03 -0.85772982003E+03  0.10213633955E+04  0.46999998093E+01 0. -1.
       -5    1    3    3    0  502 -0.49405691345E+03  0.25173084408E+03  0.23543062286E+03  0.60242038459E+03  0.46999998093E+01 0.  1.
</event>
<event>
 5   0  0.3070497E-05  0.1500832E+04  0.7818609E-02  0.8883900E-01
        2   -1    0    0  501    0  0.00000000000E+00  0.00000000000E+00  0.17059825085E+04  0.17059825085E+04  0.25500000920E-02 0.  1.
       -2   -1    0    0    0  501  0.00000000000E+00  0.00000000000E+00 -0.33008790423E+03  0.33008790424E+03  0.25500000920E-02 0. -1.
    10030    2    1    2    0    0  0.00000000000E+00  0.00000000000E+00  0.13758946043E+04  0.20360704128E+04  0.15008320238E+04 0.  0.
        4    1    3    3  502    0 -0.73291455161E+03 -0.15064730159E+03  0.61043850704E+03  0.96565787586E+03  0.12699999809E+01 0. -1.
       -4    1    3    3    0  502  0.73291455161E+03  0.15064730159E+03  0.76545609728E+03  0.10704125369E+04  0.12699999809E+01 0.  1.
</event>
<event>
 5   0  0.1643498E-05  0.1499532E+04  0.7818609E-02  0.8884764E-01
        1   -1    0    0  501    0  0.00000000000E+00  0.00000000000E+00  0.20251885764E+04  0.20251885764E+04  0.50400001928E-02 0.  1.
       -1   -1    0    0    0  501  0.00000000000E+00  0.00000000000E+00 -0.27757855956E+03  0.27757855960E+03  0.50400001928E-02 0. -1.
    10030    2    1    2    0    0  0.00000000000E+00  0.00000000000E+00  0.17476100168E+04  0.23027671360E+04  0.14995318308E+04 0.  0.
        4    1    3    3  502    0  0.40968714462E+03  0.56391470417E+03  0.12980022954E+04  0.14733142644E+04  0.12699999809E+01 0. -1.
       -4    1    3    3    0  502 -0.40968714462E+03 -0.56391470417E+03  0.44960772143E+03  0.82945287154E+03  0.12699999809E+01 0.  1.
</event>
<event>
 5   0  0.1580078E-05  0.1500925E+04  0.7818609E-02  0.8883838E-01
        1   -1    0    0  501    0  0.00000000000E+00  0.00000000000E+00  0.14721693577E+04  0.14721693577E+04  0.50400001928E-02 0.  1.
       -1   -1    0    0    0  501  0.00000000000E+00  0.00000000000E+00 -0.38256051890E+03  0.38256051893E+03  0.50400001928E-02 0. -1.
    10030    2    1    2    0    0  0.00000000000E+00  0.00000000000E+00  0.10896088388E+04  0.18547298766E+04  0.15009248794E+04 0.  0.
        2    1    3    3  502    0 -0.57329306552E+03 -0.37240143655E+02 -0.51862649397E+02  0.57683750024E+03  0.25500000920E-02 0. -1.
       -2    1    3    3    0  502  0.57329306552E+03  0.37240143655E+02  0.11414714882E+04  0.12778923764E+04  0.25500000920E-02 0.  1.
</event>
<event>
 5   0  0.1588657E-05  0.1499558E+04  0.7818609E-02  0.8884747E-01
        1   -1    0    0  501    0  0.00000000000E+00  0.00000000000E+00  0.29019860860E+03  0.29019860865E+03  0.50400001928E-02 0. -1.
       -1   -1    0    0    0  501  0.00000000000E+00  0.00000000000E+00 -0.19371853455E+04  0.19371853455E+04  0.50400001928E-02 0.  1.
    10030    2    1    2    0    0  0.00000000000E+00  0.00000000000E+00 -0.16469867369E+04  0.22273839542E+04  0.14995579241E+04 0.  0.
        3    1    3    3  502    0  0.38641167706E+03 -0.58212307304E+03 -0.12275202032E+04  0.14124401282E+04  0.10100000352E+00 0.  1.
       -3    1    3    3    0  502 -0.38641167706E+03  0.58212307304E+03 -0.41946653368E+03  0.81494382593E+03  0.10100000352E+00 0. -1.
</event>
<event>
 5   0  0.2969498E-05  0.1505106E+04  0.7818609E-02  0.8881064E-01
        2   -1    0    0  501    0  0.00000000000E+00  0.00000000000E+00  0.17538660093E+04  0.17538660093E+04  0.25500000920E-02 0. -1.
       -2   -1    0    0    0  501  0.00000000000E+00  0.00000000000E+00 -0.32290742709E+03  0.32290742710E+03  0.25500000920E-02 0.  1.
    10030    2    1    2    0    0  0.00000000000E+00  0.00000000000E+00  0.14309585822E+04  0.20767734364E+04  0.15051064554E+04 0.  0.
        3    1    3    3  502    0  0.39767805173E+03  0.41577990364E+01 -0.16606288826E+03  0.43097797296E+03  0.10100000352E+00 0.  1.
       -3    1    3    3    0  502 -0.39767805173E+03 -0.41577990364E+01  0.15970214705E+04  0.16457954634E+04  0.10100000352E+00 0. -1.
</event>
<event>
 5   0  0.1580078E-05  0.1498995E+04  0.7818609E-02  0.8885122E-01
        1   -1    0    0  501    0  0.00000000000E+00  0.00000000000E+00  0.79963898004E+03  0.79963898005E+03  0.50400001928E-02 0. -1.
       -1   -1    0    0    0  501  0.00000000000E+00  0.00000000000E+00 -0.70249976272E+03  0.70249976273E+03  0.50400001928E-02 0.  1.
    10030    2    1    2    0    0  0.00000000000E+00  0.00000000000E+00  0.97139217320E+02  0.15021387428E+04  0.14989945881E+04 0.  0.
        2    1    3    3  502    0  0.35433384212E+03 -0.50315340279E+03 -0.38014824300E+03  0.72334535671E+03  0.25500000920E-02 0.  1.
       -2    1    3    3    0  502 -0.35433384212E+03  0.50315340279E+03  0.47728746032E+03  0.77879338608E+03  0.25500000920E-02 0. -1.
</event>
<event>
 5   0  0.1580078E-05  0.1499887E+04  0.7818609E-02  0.8884528E-01
       -1   -1    0    0    0  501  0.00000000000E+00  0.00000000000E+00  0.40085139808E+03  0.40085139811E+03  0.50400001928E-02 0. -1.
        1   -1    0    0  501    0  0.00000000000E+00  0.00000000000E+00 -0.14030514460E+04  0.14030514460E+04  0.50400001928E-02 0.  1.
    10030    2    1    2    0    0  0.00000000000E+00  0.00000000000E+00 -0.10022000479E+04  0.18039028442E+04  0.14998868407E+04 0.  0.
        2    1    3    3  502    0 -0.29906212398E+02 -0.73834271986E+03 -0.34721748695E+03  0.81645841092E+03  0.25500000920E-02 0. -1.
       -2    1    3    3    0  502  0.29906212398E+02  0.73834271986E+03 -0.65498256100E+03  0.98744443323E+03  0.25500000920E-02 0.  1.
</event>
<event>
 5   0  0.3030702E-05  0.1499891E+04  0.7818609E-02  0.8884526E-01
       -2   -1    0    0    0  501  0.00000000000E+00  0.00000000000E+00  0.57321197830E+03  0.57321197831E+03  0.25500000920E-02 0. -1.
        2   -1    0    0  501    0  0.00000000000E+00  0.00000000000E+00 -0.98116928172E+03  0.98116928173E+03  0.25500000920E-02 0.  1.
    10030    2    1    2    0    0  0.00000000000E+00  0.00000000000E+00 -0.40795730342E+03  0.15543812600E+04  0.14998906427E+04 0.  0.
        5    1    3    3  502    0 -0.36442498183E+03 -0.21134183015E+03  0.43898436317E+03  0.60844087441E+03  0.46999998093E+01 0. -1.
       -5    1    3    3    0  502  0.36442498183E+03  0.21134183015E+03 -0.84694166659E+03  0.94594038562E+03  0.46999998093E+01 0.  1.
</event>
<event>
 5   0  0.3070497E-05  0.1501537E+04  0.7818609E-02  0.8883431E-01
        2   -1    0    0  501    0  0.00000000000E+00  0.00000000000E+00  0.16997472735E+04  0.16997472735E+04  0.25500000920E-02 0.  1.
       -2   -1    0    0    0  501  0.00000000000E+00  0.00000000000E+00 -0.33161007301E+03  0.33161007302E+03  0.25500000920E-02 0. -1.
    10030    2    1    2    0    0  0.00000000000E+00  0.00000000000E+00  0.13681372005E+04  0.20313573466E+04  0.15015369692E+04 0.  0.
        4    1    3    3  502    0 -0.74313178561E+03  0.90535800726E+02  0.76071841500E+03  0.10673030037E+04  0.12699999809E+01 0.  1.
       -4    1    3    3    0  502  0.74313178561E+03 -0.90535800726E+02  0.60741878552E+03  0.96405434281E+03  0.12699999809E+01 0. -1.
</event>
<event>
 5   0  0.1580078E-05  0.1500245E+04  0.7818609E-02  0.8884290E-01
        1   -1    0    0  501    0  0.00000000000E+00  0.00000000000E+00  0.10239451339E+04  0.10239451339E+04  0.50400001928E-02 0. -1.
       -1   -1    0    0    0  501  0.00000000000E+00  0.00000000000E+00 -0.54952540438E+03  0.54952540441E+03  0.50400001928E-02 0.  1.
    10030    2    1    2    0    0  0.00000000000E+00  0.00000000000E+00  0.47441972954E+03  0.15734705383E+04  0.15002451317E+04 0.  0.
        2    1    3    3  502    0  0.38747333838E+03 -0.96230711421E+02  0.90325551963E+03  0.98755580679E+03  0.25500000920E-02 0. -1.
       -2    1    3    3    0  502 -0.38747333838E+03  0.96230711421E+02 -0.42883579009E+03  0.58591473155E+03  0.25500000920E-02 0.  1.
</event>
<event>
 5   0  0.1588657E-05  0.1504190E+04  0.7818609E-02  0.8881672E-01
       -1   -1    0    0    0  501  0.00000000000E+00  0.00000000000E+00  0.61702242763E+03  0.61702242765E+03  0.50400001928E-02 0. -1.
        1   -1    0    0  501    0  0.00000000000E+00  0.00000000000E+00 -0.91673606730E+03  0.91673606731E+03  0.50400001928E-02 0.  1.
    10030    2    1    2    0    0  0.00000000000E+00  0.00000000000E+00 -0.29971363967E+03  0.15337584950E+04  0.15041897670E+04 0.  0.
        3    1    3    3  502    0 -0.59022583700E+03 -0.97855802701E+02  0.31484803191E+03  0.67607069911E+03  0.10100000352E+00 0. -1.
       -3    1    3    3    0  502  0.59022583700E+03  0.97855802701E+02 -0.61456167158E+03  0.85768779586E+03  0.10100000352E+00 0.  1.
</event>
<event>
 5   0  0.1588657E-05  0.1500120E+04  0.7818609E-02  0.8884373E-01
        1   -1    0    0  501    0  0.00000000000E+00  0.00000000000E+00  0.80643559861E+03  0.80643559862E+03  0.50400001928E-02 0.  1.
       -1   -1    0    0    0  501  0.00000000000E+00  0.00000000000E+00 -0.69762544480E+03  0.69762544482E+03  0.50400001928E-02 0. -1.
    10030    2    1    2    0    0  0.00000000000E+00  0.00000000000E+00  0.10881015381E+03  0.15040610434E+04  0.15001199861E+04 0.  0.
        3    1    3    3  502    0  0.48887073830E+03  0.73441413426E+00  0.62475352310E+03  0.79329194686E+03  0.10100000352E+00 0.  1.
       -3    1    3    3    0  502 -0.48887073830E+03 -0.73441413426E+00 -0.51594336929E+03  0.71076909658E+03  0.10100000352E+00 0. -1.
</event>
<event>
 5   0  0.3018308E-05  0.1499831E+04  0.7818609E-02  0.8884565E-01
        2   -1    0    0  501    0  0.00000000000E+00  0.00000000000E+00  0.53275095926E+03  0.53275095927E+03  0.25500000920E-02 0.  1.
       -2   -1    0    0    0  501  0.00000000000E+00  0.00000000000E+00 -0.10556024688E+04  0.10556024688E+04  0.25500000920E-02 0. -1.
    10030    2    1    2    0    0  0.00000000000E+00  0.00000000000E+00 -0.52285150957E+03  0.15883534281E+04  0.14998309610E+04 0.  0.
        2    1    3    3  502    0 -0.34100331479E+03 -0.53543741268E+03 -0.68423507630E+03  0.93335637526E+03  0.25500000920E-02 0. -1.
       -2    1    3    3    0  502  0.34100331479E+03  0.53543741268E+03  0.16138356673E+03  0.65499705283E+03  0.25500000920E-02 0.  1.
</event>
<event>
 5   0  0.1576214E-05  0.1499473E+04  0.7818609E-02  0.8884803E-01
       -1   -1    0    0    0  501  0.00000000000E+00  0.00000000000E+00  0.64602948300E+03  0.64602948302E+03  0.50400001928E-02 0.  1.
        1   -1    0    0  501    0  0.00000000000E+00  0.00000000000E+00 -0.87009196253E+03  0.87009196254E+03  0.50400001928E-02 0. -1.
    10030    2    1    2    0    0  0.00000000000E+00  0.00000000000E+00 -0.22406247952E+03  0.15161214456E+04  0.14994733219E+04 0.  0.
        1    1    3    3  502    0 -0.31524633140E+03 -0.22389859847E+03  0.53743536092E+03  0.66207824239E+03  0.50400001928E-02 0.  1.
       -1    1    3    3    0  502  0.31524633140E+03  0.22389859847E+03 -0.76149784044E+03  0.85404320317E+03  0.50400001928E-02 0. -1.
</event>
<event>
 5   0  0.3030702E-05  0.1500239E+04  0.7818609E-02  0.8884294E-01
        2   -1    0    0  501    0  0.00000000000E+00  0.00000000000E+00  0.94687688634E+03  0.94687688634E+03  0.25500000920E-02 0. -1.
       -2   -1    0    0    0  501  0.00000000000E+00  0.00000000000E+00 -0.59424778365E+03  0.59424778366E+03  0.25500000920E-02 0.  1.
    10030    2    1    2    0    0  0.00000000000E+00  0.00000000000E+00  0.35262910269E+03  0.15411246700E+04  0.15002393024E+04 0.  0.
        5    1    3    3  502    0 -0.53191750815E+03 -0.52612109084E+03  0.23180295999E+03  0.78325879502E+03  0.46999998093E+01 0.  1.
       -5    1    3    3    0  502  0.53191750815E+03  0.52612109084E+03  0.12082614269E+03  0.75786587498E+03  0.46999998093E+01 0. -1.
</event>
<event>
 5   0  0.1588657E-05  0.1500502E+04  0.7818609E-02  0.8884119E-01
        1   -1    0    0  501    0  0.00000000000E+00  0.00000000000E+00  0.77329399478E+03  0.77329399479E+03  0.50400001928E-02 0. -1.
       -1   -1    0    0    0  501  0.00000000000E+00  0.00000000000E+00 -0.72789433684E+03  0.72789433686E+03  0.50400001928E-02 0.  1.
    10030    2    1    2    0    0  0.00000000000E+00  0.00000000000E+00  0.45399657939E+02  0.15011883317E+04  0.15005016755E+04 0.  0.
        3    1    3    3  502    0 -0.48590162794E+03 -0.56734534728E+03  0.92697368141E+02  0.75271106500E+03  0.10100000352E+00 0.  1.
       -3    1    3    3    0  502  0.48590162794E+03  0.56734534728E+03 -0.47297710202E+02  0.74847726665E+03  0.10100000352E+00 0. -1.
</event>
<event>
 5   0  0.3018308E-05  0.1499943E+04  0.7818609E-02  0.8884491E-01
       -2   -1    0    0    0  501  0.00000000000E+00  0.00000000000E+00  0.78883668746E+03  0.78883668747E+03  0.25500000920E-02 0. -1.
        2   -1    0    0  501    0  0.00000000000E+00  0.00000000000E+00 -0.71302086467E+03  0.71302086467E+03  0.25500000920E-02 0.  1.
    10030    2    1    2    0    0  0.00000000000E+00  0.00000000000E+00  0.75815822796E+02  0.15018575521E+04  0.14999426882E+04 0.  0.
        2    1    3    3  502    0 -0.27184616908E+02  0.47964276662E+03  0.61454313697E+03  0.78003811072E+03  0.25500000920E-02 0. -1.
       -2    1    3    3    0  502  0.27184616908E+02 -0.47964276662E+03 -0.53872731418E+03  0.72181944142E+03  0.25500000920E-02 0.  1.
</event>
<event>
 5   0  0.1116613E-05  0.1500007E+04  0.7818609E-02  0.8884448E-01
        3   -1    0    0  501    0  0.00000000000E+00  0.00000000000E+00  0.42091311227E+03  0.42091312439E+03  0.10100000352E+00 0. -1.
       -3   -1    0    0    0  501  0.00000000000E+00  0.00000000000E+00 -0.13363923732E+04  0.13363923771E+04  0.10100000352E+00 0.  1.
    10030    2    1    2    0    0  0.00000000000E+00  0.00000000000E+00 -0.91547926096E+03  0.17573055014E+04  0.15000067827E+04 0.  0.
        1    1    3    3  502    0  0.38086271012E+03 -0.28679824544E+03  0.22053114149E+03  0.52530336182E+03  0.50400001928E-02 0. -1.
       -1    1    3    3    0  502 -0.38086271012E+03  0.28679824544E+03 -0.11360104024E+04  0.12320021396E+04  0.50400001928E-02 0.  1.
</event>
<event>
 5   0  0.3030702E-05  0.1500153E+04  0.7818609E-02  0.8884351E-01
        2   -1    0    0  501    0  0.00000000000E+00  0.00000000000E+00  0.16764232836E+04  0.16764232836E+04  0.25500000920E-02 0. -1.
       -2   -1    0    0    0  501  0.00000000000E+00  0.00000000000E+00 -0.33560437155E+03  0.33560437156E+03  0.25500000920E-02 0.  1.
    10030    2    1    2    0    0  0.00000000000E+00  0.00000000000E+00  0.13408189121E+04  0.20120276552E+04  0.15001533022E+04 0.  0.
        5    1    3    3  502    0  0.53688345010E+03 -0.35455896921E+03  0.11874942372E+04  0.13506000722E+04  0.46999998093E+01 0. -1.
       -5    1    3    3    0  502 -0.53688345010E+03  0.35455896921E+03  0.15332467491E+03  0.66142758301E+03  0.46999998093E+01 0.  1.
</event>
<event>
 5   0  0.1576214E-05  0.1500402E+04  0.7818609E-02  0.8884186E-01
        1   -1    0    0  501    0  0.00000000000E+00  0.00000000000E+00  0.15914096895E+04  0.15914096895E+04  0.50400001928E-02 0.  1.
       -1   -1    0    0    0  501  0.00000000000E+00  0.00000000000E+00 -0.35364947320E+03  0.35364947323E+03  0.50400001928E-02 0. -1.
    10030    2    1    2    0    0  0.00000000000E+00  0.00000000000E+00  0.12377602163E+04  0.19450591627E+04  0.15004015441E+04 0.  0.
        1    1    3    3  502    0 -0.53292658736E+03  0.49536268784E+03  0.85582057014E+03  0.11233093022E+04  0.50400001928E-02 0.  1.
       -1    1    3    3    0  502  0.53292658736E+03 -0.49536268784E+03  0.38193964617E+03  0.82174986058E+03  0.50400001928E-02 0. -1.
</event>
<event>
 5   0  0.1643498E-05  0.1499489E+04  0.7818609E-02  0.8884793E-01
       -1   -1    0    0    0  501  0.00000000000E+00  0.00000000000E+00  0.53016753518E+03  0.53016753520E+03  0.50400001928E-02 0. -1.
        1   -1    0    0  501    0  0.00000000000E+00  0.00000000000E+00 -0.10602629381E+04  0.10602629381E+04  0.50400001928E-02 0.  1.
    10030    2    1    2    0    0  0.00000000000E+00  0.00000000000E+00 -0.53009540291E+03  0.15904304733E+04  0.14994892311E+04 0.  0.
        4    1    3    3  502    0  0.50376268368E+02  0.63783282089E+03 -0.67957920299E+03  0.93337987007E+03  0.12699999809E+01 0.  1.
       -4    1    3    3    0  502 -0.50376268368E+02 -0.63783282089E+03  0.14948380009E+03  0.65705060323E+03  0.12699999809E+01 0. -1.
</event>
<event>
 5   0  0.2969498E-05  0.1498614E+04  0.7818609E-02  0.8885375E-01
        2   -1    0    0  501    0  0.00000000000E+00  0.00000000000E+00  0.10924058683E+04  0.10924058683E+04  0.25500000920E-02 0.  1.
       -2   -1    0    0    0  501  0.00000000000E+00  0.00000000000E+00 -0.51396750781E+03  0.51396750782E+03  0.25500000920E-02 0. -1.
    10030    2    1    2    0    0  0.00000000000E+00  0.00000000000E+00  0.57843836047E+03  0.16063733761E+04  0.14986141887E+04 0.  0.
        3    1    3    3  502    0  0.10877026473E+03  0.92167985602E+02  0.10777334393E+04  0.10871224791E+04  0.10100000352E+00 0.  1.
       -3    1    3    3    0  502 -0.10877026473E+03 -0.92167985602E+02 -0.49929507888E+03  0.51925089701E+03  0.10100000352E+00 0. -1.
</event>
<event>
 5   0  0.1533777E-05  0.1500087E+04  0.7818609E-02  0.8884395E-01
       -1   -1    0    0    0  501  0.00000000000E+00  0.00000000000E+00  0.35592754184E+03  0.35592754188E+03  0.50400001928E-02 0.  1.
        1   -1    0    0  501    0  0.00000000000E+00  0.00000000000E+00 -0.15805615260E+04  0.15805615261E+04  0.50400001928E-02 0. -1.
    10030    2    1    2    0    0  0.00000000000E+00  0.00000000000E+00 -0.12246339842E+04  0.19364890679E+04  0.15000871691E+04 0.  0.
        5    1    3    3  502    0 -0.53146956934E+03  0.52081204806E+03 -0.49095564947E+03  0.89149572758E+03  0.46999998093E+01 0. -1.
       -5    1    3    3    0  502  0.53146956934E+03 -0.52081204806E+03 -0.73367833473E+03  0.10449933404E+04  0.46999998093E+01 0.  1.
</event>
<event>
 5   0  0.3093600E-05  0.1499944E+04  0.7818609E-02  0.8884490E-01
        2   -1    0    0  501    0  0.00000000000E+00  0.00000000000E+00  0.14868568310E+04  0.14868568310E+04  0.25500000920E-02 0.  1.
       -2   -1    0    0    0  501  0.00000000000E+00  0.00000000000E+00 -0.37828654428E+03  0.37828654429E+03  0.25500000920E-02 0. -1.
    10030    2    1    2    0    0  0.00000000000E+00  0.00000000000E+00  0.11085702868E+04  0.18651433753E+04  0.14999439089E+04 0.  0.
        1    1    3    3  502    0 -0.63476881163E+03 -0.36545083176E+03  0.35388806440E+03  0.81346328547E+03  0.50400001928E-02 0. -1.
       -1    1    3    3    0  502  0.63476881163E+03  0.36545083176E+03  0.75468222236E+03  0.10516800899E+04  0.50400001928E-02 0.  1.
</event>
<event>
 5   0  0.1576214E-05  0.1500116E+04  0.7818609E-02  0.8884376E-01
       -1   -1    0    0    0  501  0.00000000000E+00  0.00000000000E+00  0.31062711064E+03  0.31062711068E+03  0.50400001928E-02 0. -1.
        1   -1    0    0  501    0  0.00000000000E+00  0.00000000000E+00 -0.18111339959E+04  0.18111339959E+04  0.50400001928E-02 0.  1.
    10030    2    1    2    0    0  0.00000000000E+00  0.00000000000E+00 -0.15005068853E+04  0.21217611066E+04  0.15001164224E+04 0.  0.
        1    1    3    3  502    0  0.30177558033E+03  0.56437535991E+03 -0.19701009380E+03  0.66962752694E+03  0.50400001928E-02 0. -1.
       -1    1    3    3    0  502 -0.30177558033E+03 -0.56437535991E+03 -0.13034967915E+04  0.14521335797E+04  0.50400001928E-02 0.  1.
</event>
<event>
 5   0  0.3018308E-05  0.1497998E+04  0.7818609E-02  0.8885785E-01
        2   -1    0    0  501    0  0.00000000000E+00  0.00000000000E+00  0.10715056601E+04  0.10715056601E+04  0.25500000920E-02 0.  1.
       -2   -1    0    0    0  501  0.00000000000E+00  0.00000000000E+00 -0.52356197365E+03  0.52356197366E+03  0.25500000920E-02 0. -1.
    10030    2    1    2    0    0  0.00000000000E+00  0.00000000000E+00  0.54794368649E+03  0.15950676338E+04  0.14979981552E+04 0.  0.
        2    1    3    3  502    0 -0.16014664357E+03 -0.30729824681E+02 -0.50443104954E+03  0.53013390131E+03  0.25500000920E-02 0. -1.
       -2    1    3    3    0  502  0.16014664357E+03  0.30729824681E+02  0.10523747360E+04  0.10649337325E+04  0.25500000920E-02 0.  1.
</event>
<event>
 5   0  0.1588657E-05  0.1500593E+04  0.7818609E-02  0.8884059E-01
        1   -1    0    0  501    0  0.00000000000E+00  0.00000000000E+00  0.15269964720E+04  0.15269964720E+04  0.50400001928E-02 0.  1.
       -1   -1    0    0    0  501  0.00000000000E+00  0.00000000000E+00 -0.36866131544E+03  0.36866131547E+03  0.50400001928E-02 0. -1.
    10030    2    1    2    0    0  0.00000000000E+00  0.00000000000E+00  0.11583351565E+04  0.18956577875E+04  0.15005925870E+04 0.  0.
        3    1    3    3  502    0 -0.24755794002E+03  0.44534960135E+03  0.12749124931E+04  0.13729614256E+04  0.10100000352E+00 0.  1.
       -3    1    3    3    0  502  0.24755794002E+03 -0.44534960135E+03 -0.11657733651E+03  0.52269636184E+03  0.10100000352E+00 0. -1.
</event>
<event>
 5   0  0.3070497E-05  0.1500223E+04  0.7818609E-02  0.8884305E-01
        2   -1    0    0  501    0  0.00000000000E+00  0.00000000000E+00  0.12526042610E+04  0.12526042610E+04  0.25500000920E-02 0.  1.
       -2   -1    0    0    0  501  0.00000000000E+00  0.00000000000E+00 -0.44919793421E+03  0.44919793422E+03  0.25500000920E-02 0. -1.
    10030    2    1    2    0    0  0.00000000000E+00  0.00000000000E+00  0.80340632680E+03  0.17018021952E+04  0.15002229787E+04 0.  0.
        4    1    3    3  502    0  0.98148126670E+00  0.72146285917E+03  0.16879590053E+03  0.74094756185E+03  0.12699999809E+01 0. -1.
       -4    1    3    3    0  502 -0.98148126670E+00 -0.72146285917E+03  0.63461042627E+03  0.96085463339E+03  0.12699999809E+01 0.  1.
</event>
<event>
 5   0  0.3093600E-05  0.1500232E+04  0.7818609E-02  0.8884298E-01
        2   -1    0    0  501    0  0.00000000000E+00  0.00000000000E+00  0.20690271121E+04  0.20690271121E+04  0.25500000920E-02 0.  1.
       -2   -1    0    0    0  501  0.00000000000E+00  0.00000000000E+00 -0.27195111472E+03  0.27195111473E+03  0.25500000920E-02 0. -1.
    10030    2    1    2    0    0  0.00000000000E+00  0.00000000000E+00  0.17970759974E+04  0.23409782269E+04  0.15002322881E+04 0.  0.
        1    1    3    3  502    0 -0.18509148041E+03 -0.30034757007E+03  0.19314858064E+04  0.19634421151E+04  0.50400001928E-02 0.  1.
       -1    1    3    3    0  502  0.18509148041E+03  0.30034757007E+03 -0.13440980894E+03  0.37753611182E+03  0.50400001928E-02 0. -1.
</event>
<event>
 5   0  0.1588657E-05  0.1500107E+04  0.7818609E-02  0.8884382E-01
       -1   -1    0    0    0  501  0.00000000000E+00  0.00000000000E+00  0.75498295650E+03  0.75498295652E+03  0.50400001928E-02 0.  1.
        1   -1    0    0  501    0  0.00000000000E+00  0.00000000000E+00 -0.74515589194E+03  0.74515589195E+03  0.50400001928E-02 0. -1.
    10030    2    1    2    0    0  0.00000000000E+00  0.00000000000E+00  0.98270645667E+01  0.15001388485E+04  0.15001066607E+04 0.  0.
        3    1    3    3  502    0 -0.32781583732E+03  0.43754625382E+03 -0.50858559722E+03  0.74670560954E+03  0.10100000352E+00 0. -1.
       -3    1    3    3    0  502  0.32781583732E+03 -0.43754625382E+03  0.51841266179E+03  0.75343323893E+03  0.10100000352E+00 0.  1.
</event>
<event>
 5   0  0.1533777E-05  0.1502911E+04  0.7818609E-02  0.8882519E-01
        1   -1    0    0  501    0  0.00000000000E+00  0.00000000000E+00  0.47819945943E+03  0.47819945946E+03  0.50400001928E-02 0.  1.
       -1   -1    0    0    0  501  0.00000000000E+00  0.00000000000E+00 -0.11808576700E+04  0.11808576700E+04  0.50400001928E-02 0. -1.
    10030    2    1    2    0    0  0.00000000000E+00  0.00000000000E+00 -0.70265821055E+03  0.16590571295E+04  0.15029111743E+04 0.  0.
        5    1    3    3  502    0  0.13739072156E+03 -0.39730355841E+03 -0.10388860528E+04  0.11207286240E+04  0.46999998093E+01 0. -1.
       -5    1    3    3    0  502 -0.13739072156E+03  0.39730355841E+03  0.33622784226E+03  0.53832850547E+03  0.46999998093E+01 0.  1.
</event>
<event>
 5   0  0.1588657E-05  0.1499442E+04  0.7818609E-02  0.8884824E-01
        1   -1    0    0  501    0  0.00000000000E+00  0.00000000000E+00  0.13485765454E+04  0.13485765454E+04  0.50400001928E-02 0.  1.
       -1   -1    0    0    0  501  0.00000000000E+00  0.00000000000E+00 -0.41679597173E+03  0.41679597177E+03  0.50400001928E-02 0. -1.
    10030    2    1    2    0    0  0.00000000000E+00  0.00000000000E+00  0.93178057362E+03  0.17653725171E+04  0.14994415917E+04 0.  0.
        3    1    3    3  502    0 -0.45020596973E+01  0.35491522121E+03 -0.31160532892E+03  0.47231660356E+03  0.10100000352E+00 0. -1.
       -3    1    3    3    0  502  0.45020596973E+01 -0.35491522121E+03  0.12433859025E+04  0.12930559136E+04  0.10100000352E+00 0.  1.
</event>
<event>
 5   0  0.1533777E-05  0.1499964E+04  0.7818609E-02  0.8884477E-01
        1   -1    0    0  501    0  0.00000000000E+00  0.00000000000E+00  0.12729696841E+04  0.12729696842E+04  0.50400001928E-02 0. -1.
       -1   -1    0    0    0  501  0.00000000000E+00  0.00000000000E+00 -0.44185883859E+03  0.44185883861E+03  0.50400001928E-02 0.  1.
    10030    2    1    2    0    0  0.00000000000E+00  0.00000000000E+00  0.83111084556E+03  0.17148285228E+04  0.14999638745E+04 0.  0.
        5    1    3    3  502    0 -0.64803911340E+03 -0.11958725914E+03  0.82488720019E+03  0.10558014909E+04  0.46999998093E+01 0. -1.
       -5    1    3    3    0  502  0.64803911340E+03  0.11958725914E+03  0.62236453697E+01  0.65902703192E+03  0.46999998093E+01 0.  1.
</event>
<event>
 5   0  0.3018308E-05  0.1500405E+04  0.7818609E-02  0.8884184E-01
       -2   -1    0    0    0  501  0.00000000000E+00  0.00000000000E+00  0.88788593409E+03  0.88788593409E+03  0.25500000920E-02 0.  1.
        2   -1    0    0  501    0  0.00000000000E+00  0.00000000000E+00 -0.63386912467E+03  0.63386912468E+03  0.25500000920E-02 0. -1.
    10030    2    1    2    0    0  0.00000000000E+00  0.00000000000E+00  0.25401680942E+03  0.15217550588E+04  0.15004045852E+04 0.  0.
        2    1    3    3  502    0 -0.42633009934E+03  0.60556412561E+03  0.24845460486E+03  0.78114976446E+03  0.25500000920E-02 0.  1.
       -2    1    3    3    0  502  0.42633009934E+03 -0.60556412561E+03  0.55622045598E+01  0.74060529431E+03  0.25500000920E-02 0. -1.
</event>
<event>
 5   0  0.1588657E-05  0.1499489E+04  0.7818609E-02  0.8884793E-01
       -1   -1    0    0    0  501  0.00000000000E+00  0.00000000000E+00  0.58433076173E+03  0.58433076176E+03  0.50400001928E-02 0. -1.
        1   -1    0    0  501    0  0.00000000000E+00  0.00000000000E+00 -0.96198368860E+03  0.96198368862E+03  0.50400001928E-02 0.  1.
    10030    2    1    2    0    0  0.00000000000E+00  0.00000000000E+00 -0.37765292687E+03  0.15463144504E+04  0.14994887950E+04 0.  0.
        3    1    3    3  502    0  0.35252403540E+03 -0.23497570791E+02  0.49310388414E+03  0.60661089846E+03  0.10100000352E+00 0. -1.
       -3    1    3    3    0  502 -0.35252403540E+03  0.23497570791E+02 -0.87075681101E+03  0.93970355192E+03  0.10100000352E+00 0.  1.
</event>
<event>
 5   0  0.3093600E-05  0.1499949E+04  0.7818609E-02  0.8884487E-01
       -2   -1    0    0    0  501  0.00000000000E+00  0.00000000000E+00  0.81311774551E+03  0.81311774552E+03  0.25500000920E-02 0. -1.
        2   -1    0    0  501    0  0.00000000000E+00  0.00000000000E+00 -0.69173431765E+03  0.69173431766E+03  0.25500000920E-02 0.  1.
    10030    2    1    2    0    0  0.00000000000E+00  0.00000000000E+00  0.12138342786E+03  0.15048520632E+04  0.14999485976E+04 0.  0.
        1    1    3    3  502    0 -0.58426057587E+03  0.19750039368E+03 -0.36742875503E+03  0.71789324838E+03  0.50400001928E-02 0.  1.
       -1    1    3    3    0  502  0.58426057587E+03 -0.19750039368E+03  0.48881218289E+03  0.78695881480E+03  0.50400001928E-02 0. -1.
</event>
<event>
 5   0  0.3070497E-05  0.1500076E+04  0.7818609E-02  0.8884402E-01
       -2   -1    0    0    0  501  0.00000000000E+00  0.00000000000E+00  0.34089774173E+03  0.34089774174E+03  0.25500000920E-02 0. -1.
        2   -1    0    0  501    0  0.00000000000E+00  0.00000000000E+00 -0.16502221479E+04  0.16502221479E+04  0.25500000920E-02 0.  1.
    10030    2    1    2    0    0  0.00000000000E+00  0.00000000000E+00 -0.13093244062E+04  0.19911198897E+04  0.15000760029E+04 0.  0.
        4    1    3    3  502    0  0.38843599341E+03 -0.63128081093E+03 -0.80691641272E+03  0.10956795577E+04  0.12699999809E+01 0. -1.
       -4    1    3    3    0  502 -0.38843599341E+03  0.63128081093E+03 -0.50240799346E+03  0.89544033191E+03  0.12699999809E+01 0.  1.
</event>
<event>
 5   0  0.1588657E-05  0.1499556E+04  0.7818609E-02  0.8884749E-01
        1   -1    0    0  501    0  0.00000000000E+00  0.00000000000E+00  0.77215821556E+03  0.77215821558E+03  0.50400001928E-02 0. -1.
       -1   -1    0    0    0  501  0.00000000000E+00  0.00000000000E+00 -0.72804604868E+03  0.72804604869E+03  0.50400001928E-02 0.  1.
    10030    2    1    2    0    0  0.00000000000E+00  0.00000000000E+00  0.44112166888E+02  0.15002042643E+04  0.14995555846E+04 0.  0.
        3    1    3    3  502    0 -0.61693917021E+03 -0.22470343771E+03  0.38423637927E+03  0.76075172035E+03  0.10100000352E+00 0. -1.
       -3    1    3    3    0  502  0.61693917021E+03  0.22470343771E+03 -0.34012421238E+03  0.73945254392E+03  0.10100000352E+00 0.  1.
</event>
<event>
 5   0  0.2969498E-05  0.1501138E+04  0.7818609E-02  0.8883697E-01
       -2   -1    0    0    0  501  0.00000000000E+00  0.00000000000E+00  0.66861395220E+03  0.66861395220E+03  0.25500000920E-02 0. -1.
        2   -1    0    0  501    0  0.00000000000E+00  0.00000000000E+00 -0.84256946535E+03  0.84256946535E+03  0.25500000920E-02 0.  1.
    10030    2    1    2    0    0  0.00000000000E+00  0.00000000000E+00 -0.17395551315E+03  0.15111834176E+04  0.15011378354E+04 0.  0.
        3    1    3    3  502    0 -0.75051602814E+03  0.76315176134E+01 -0.82349000223E+02  0.75505888286E+03  0.10100000352E+00 0. -1.
       -3    1    3    3    0  502  0.75051602814E+03 -0.76315176134E+01 -0.91606512925E+02  0.75612453469E+03  0.10100000352E+00 0.  1.
</event>
<event>
 5   0  0.2969498E-05  0.1501667E+04  0.7818609E-02  0.8883345E-01
        2   -1    0    0  501    0  0.00000000000E+00  0.00000000000E+00  0.15539426445E+04  0.15539426445E+04  0.25500000920E-02 0. -1.
       -2   -1    0    0    0  501  0.00000000000E+00  0.00000000000E+00 -0.36278744420E+03  0.36278744421E+03  0.25500000920E-02 0.  1.
    10030    2    1    2    0    0  0.00000000000E+00  0.00000000000E+00  0.11911552003E+04  0.19167300887E+04  0.15016669144E+04 0.  0.
        3    1    3    3  502    0  0.51955588783E+03 -0.46384650325E+03  0.23759536213E+03  0.73589636870E+03  0.10100000352E+00 0.  1.
       -3    1    3    3    0  502 -0.51955588783E+03  0.46384650325E+03  0.95355983814E+03  0.11808337200E+04  0.10100000352E+00 0. -1.
</event>
<event>
 5   0  0.1580078E-05  0.1501245E+04  0.7818609E-02  0.8883626E-01
        1   -1    0    0  501    0  0.00000000000E+00  0.00000000000E+00  0.64766420270E+03  0.64766420272E+03  0.50400001928E-02 0. -1.
       -1   -1    0    0    0  501  0.00000000000E+00  0.00000000000E+00 -0.86994778737E+03  0.86994778738E+03  0.50400001928E-02 0.  1.
    10030    2    1    2    0    0  0.00000000000E+00  0.00000000000E+00 -0.22228358466E+03  0.15176119901E+04  0.15012448703E+04 0.  0.
        2    1    3    3  502    0 -0.17231222868E+03 -0.26759676093E+03 -0.79835803044E+03  0.85946208491E+03  0.25500000920E-02 0.  1.
       -2    1    3    3    0  502  0.17231222868E+03  0.26759676093E+03  0.57607444578E+03  0.65814990519E+03  0.25500000920E-02 0. -1.
</event>
<event>
 5   0  0.1533777E-05  0.1500193E+04  0.7818609E-02  0.8884325E-01
       -1   -1    0    0    0  501  0.00000000000E+00  0.00000000000E+00  0.61467580819E+03  0.61467580821E+03  0.50400001928E-02 0. -1.
        1   -1    0    0  501    0  0.00000000000E+00  0.00000000000E+00 -0.91535175699E+03  0.91535175700E+03  0.50400001928E-02 0.  1.
    10030    2    1    2    0    0  0.00000000000E+00  0.00000000000E+00 -0.30067594880E+03  0.15300275652E+04  0.15001927623E+04 0.  0.
        5    1    3    3  502    0 -0.17688329147E+03 -0.62836721181E+03  0.22645406110E+03  0.69096785994E+03  0.46999998093E+01 0. -1.
       -5    1    3    3    0  502  0.17688329147E+03  0.62836721181E+03 -0.52713000990E+03  0.83905970527E+03  0.46999998093E+01 0.  1.
</event>
<event>
 5   0  0.1576214E-05  0.1500224E+04  0.7818609E-02  0.8884304E-01
        1   -1    0    0  501    0  0.00000000000E+00  0.00000000000E+00  0.12380101768E+04  0.12380101768E+04  0.50400001928E-02 0. -1.
       -1   -1    0    0    0  501  0.00000000000E+00  0.00000000000E+00 -0.45449372721E+03  0.45449372724E+03  0.50400001928E-02 0.  1.
    10030    2    1    2    0    0  0.00000000000E+00  0.00000000000E+00  0.78351644962E+03  0.16925039041E+04  0.15002237961E+04 0.  0.
        1    1    3    3  502    0 -0.48797048857E+03  0.24741756360E+03  0.97069314378E+03  0.11142602155E+04  0.50400001928E-02 0. -1.
       -1    1    3    3    0  502  0.48797048857E+03 -0.24741756360E+03 -0.18717669416E+03  0.57824368855E+03  0.50400001928E-02 0.  1.
</event>
<event>
 5   0  0.3030702E-05  0.1499945E+04  0.7818609E-02  0.8884490E-01
       -2   -1    0    0    0  501  0.00000000000E+00  0.00000000000E+00  0.61233371829E+03  0.61233371830E+03  0.25500000920E-02 0. -1.
        2   -1    0    0  501    0  0.00000000000E+00  0.00000000000E+00 -0.91854913555E+03  0.91854913555E+03  0.25500000920E-02 0.  1.
    10030    2    1    2    0    0  0.00000000000E+00  0.00000000000E+00 -0.30621541725E+03  0.15308828538E+04  0.14999448091E+04 0.  0.
        5    1    3    3  502    0 -0.61804572178E+02 -0.65308879408E+03  0.21783301022E+03  0.69124387045E+03  0.46999998093E+01 0. -1.
       -5    1    3    3    0  502  0.61804572178E+02  0.65308879408E+03 -0.52404842748E+03  0.83963898339E+03  0.46999998093E+01 0.  1.
</event>
<event>
 5   0  0.2969498E-05  0.1500020E+04  0.7818609E-02  0.8884440E-01
       -2   -1    0    0    0  501  0.00000000000E+00  0.00000000000E+00  0.31983900140E+03  0.31983900141E+03  0.25500000920E-02 0.  1.
        2   -1    0    0  501    0  0.00000000000E+00  0.00000000000E+00 -0.17587446508E+04  0.17587446508E+04  0.25500000920E-02 0. -1.
    10030    2    1    2    0    0  0.00000000000E+00  0.00000000000E+00 -0.14389056494E+04  0.20785836522E+04  0.15000201770E+04 0.  0.
        3    1    3    3  502    0  0.25497461969E+03 -0.11379032932E+03 -0.16840408552E+04  0.17070307285E+04  0.10100000352E+00 0. -1.
       -3    1    3    3    0  502 -0.25497461969E+03  0.11379032932E+03  0.24513520587E+03  0.37155292367E+03  0.10100000352E+00 0.  1.
</event>
<event>
 5   0  0.3070497E-05  0.1499378E+04  0.7818609E-02  0.8884866E-01
        2   -1    0    0  501    0  0.00000000000E+00  0.00000000000E+00  0.16107821080E+04  0.16107821080E+04  0.25500000920E-02 0. -1.
       -2   -1    0    0    0  501  0.00000000000E+00  0.00000000000E+00 -0.34891982865E+03  0.34891982866E+03  0.25500000920E-02 0.  1.
    10030    2    1    2    0    0  0.00000000000E+00  0.00000000000E+00  0.12618622794E+04  0.19597019367E+04  0.14993782940E+04 0.  0.
        4    1    3    3  502    0  0.74419842679E+03 -0.90558541965E+02  0.63124117789E+03  0.98005060355E+03  0.12699999809E+01 0. -1.
       -4    1    3    3    0  502 -0.74419842679E+03  0.90558541965E+02  0.63062110148E+03  0.97965133313E+03  0.12699999809E+01 0.  1.
</event>
<event>
 5   0  0.2969498E-05  0.1500832E+04  0.7818609E-02  0.8883900E-01
       -2   -1    0    0    0  501  0.00000000000E+00  0.00000000000E+00  0.32887314735E+03  0.32887314736E+03  0.25500000920E-02 0. -1.
        2   -1    0    0  501    0  0.00000000000E+00  0.00000000000E+00 -0.17122843065E+04  0.17122843066E+04  0.25500000920E-02 0.  1.
    10030    2    1    2    0    0  0.00000000000E+00  0.00000000000E+00 -0.13834111592E+04  0.20411574539E+04  0.15008322079E+04 0.  0.
        3    1    3    3  502    0  0.23638650034E+03 -0.38522082667E+03 -0.15064121868E+04  0.15727527936E+04  0.10100000352E+00 0.  1.
       -3    1    3    3    0  502 -0.23638650034E+03  0.38522082667E+03  0.12300102762E+03  0.46840466035E+03  0.10100000352E+00 0. -1.
</event>
<event>
 5   0  0.1533777E-05  0.1498633E+04  0.7818609E-02  0.8885363E-01
       -1   -1    0    0    0  501  0.00000000000E+00  0.00000000000E+00  0.10693742886E+04  0.10693742886E+04  0.50400001928E-02 0. -1.
        1   -1    0    0  501    0  0.00000000000E+00  0.00000000000E+00 -0.52504989350E+03  0.52504989352E+03  0.50400001928E-02 0.  1.
    10030    2    1    2    0    0  0.00000000000E+00  0.00000000000E+00  0.54432439513E+03  0.15944241822E+04  0.14986325185E+04 0.  0.
        5    1    3    3  502    0  0.25909202037E+03 -0.49910923916E+03  0.79900542723E+03  0.97707239772E+03  0.46999998093E+01 0. -1.
       -5    1    3    3    0  502 -0.25909202037E+03  0.49910923916E+03 -0.25468103210E+03  0.61735178444E+03  0.46999998093E+01 0.  1.
</event>
<event>
 5   0  0.1643498E-05  0.1499121E+04  0.7818609E-02  0.8885038E-01
       -1   -1    0    0    0  501  0.00000000000E+00  0.00000000000E+00  0.38945869748E+03  0.38945869751E+03  0.50400001928E-02 0.  1.
        1   -1    0    0  501    0  0.00000000000E+00  0.00000000000E+00 -0.14426194091E+04  0.14426194091E+04  0.50400001928E-02 0. -1.
    10030    2    1    2    0    0  0.00000000000E+00  0.00000000000E+00 -0.10531607116E+04  0.18320781066E+04  0.14991206437E+04 0.  0.
        4    1    3    3  502    0  0.12582678153E+03  0.46924036998E+03 -0.12241641393E+04  0.13170415167E+04  0.12699999809E+01 0. -1.
       -4    1    3    3    0  502 -0.12582678153E+03 -0.46924036998E+03  0.17100342771E+03  0.51503658992E+03  0.12699999809E+01 0.  1.
</event>
<event>
 5   0  0.1533777E-05  0.1499594E+04  0.7818609E-02  0.8884723E-01
        1   -1    0    0  501    0  0.00000000000E+00  0.00000000000E+00  0.87783262500E+03  0.87783262502E+03  0.50400001928E-02 0. -1.
       -1   -1    0    0    0  501  0.00000000000E+00  0.00000000000E+00 -0.64043613834E+03  0.64043613836E+03  0.50400001928E-02 0.  1.
    10030    2    1    2    0    0  0.00000000000E+00  0.00000000000E+00  0.23739648667E+03  0.15182687634E+04  0.14995942604E+04 0.  0.
        5    1    3    3  502    0  0.43750702953E+03  0.25403248309E+03  0.67896888178E+03  0.84673829238E+03  0.46999998093E+01 0. -1.
       -5    1    3    3    0  502 -0.43750702953E+03 -0.25403248309E+03 -0.44157239511E+03  0.67153047100E+03  0.46999998093E+01 0.  1.
</event>
<event>
 5   0  0.1643498E-05  0.1501124E+04  0.7818609E-02  0.8883706E-01
       -1   -1    0    0    0  501  0.00000000000E+00  0.00000000000E+00  0.80451847380E+03  0.80451847382E+03  0.50400001928E-02 0.  1.
        1   -1    0    0  501    0  0.00000000000E+00  0.00000000000E+00 -0.70022386659E+03  0.70022386661E+03  0.50400001928E-02 0. -1.
    10030    2    1    2    0    0  0.00000000000E+00  0.00000000000E+00  0.10429460721E+03  0.15047423404E+04  0.15011236278E+04 0.  0.
        4    1    3    3  502    0  0.17234778358E+03  0.66266372950E+03  0.36032044017E+03  0.77373083783E+03  0.12699999809E+01 0.  1.
       -4    1    3    3    0  502 -0.17234778358E+03 -0.66266372950E+03 -0.25602583296E+03  0.73101150261E+03  0.12699999809E+01 0. -1.
</event>
<event>
 5   0  0.2969498E-05  0.1500163E+04  0.7818609E-02  0.8884344E-01
       -2   -1    0    0    0  501  0.00000000000E+00  0.00000000000E+00  0.10265732055E+04  0.10265732055E+04  0.25500000920E-02 0.  1.
        2   -1    0    0  501    0  0.00000000000E+00  0.00000000000E+00 -0.54805879892E+03  0.54805879892E+03  0.25500000920E-02 0. -1.
    10030    2    1    2    0    0  0.00000000000E+00  0.00000000000E+00  0.47851440661E+03  0.15746320044E+04  0.15001632951E+04 0.  0.
        3    1    3    3  502    0  0.48754248691E+03 -0.51120311658E+03  0.50395845948E+03  0.86775598069E+03  0.10100000352E+00 0.  1.
       -3    1    3    3    0  502 -0.48754248691E+03  0.51120311658E+03 -0.25444052870E+02  0.70687602376E+03  0.10100000352E+00 0. -1.
</event>
<event>
 5   0  0.1588657E-05  0.1500040E+04  0.7818609E-02  0.8884427E-01
       -1   -1    0    0    0  501  0.00000000000E+00  0.00000000000E+00  0.42949457969E+03  0.42949457972E+03  0.50400001928E-02 0.  1.
        1   -1    0    0  501    0  0.00000000000E+00  0.00000000000E+00 -0.13097481567E+04  0.13097481568E+04  0.50400001928E-02 0. -1.
    10030    2    1    2    0    0  0.00000000000E+00  0.00000000000E+00 -0.88025357705E+03  0.17392427365E+04  0.15000396450E+04 0.  0.
        3    1    3    3  502    0 -0.29903080561E+03  0.53539140121E+03  0.60550272667E+02  0.61622213602E+03  0.10100000352E+00 0.  1.
       -3    1    3    3    0  502  0.29903080561E+03 -0.53539140121E+03 -0.94080384972E+03  0.11230206005E+04  0.10100000352E+00 0. -1.
</event>
<event>
 5   0  0.1116613E-05  0.1499126E+04  0.7818609E-02  0.8885034E-01
       -4   -1    0    0    0  501  0.00000000000E+00  0.00000000000E+00  0.11848339416E+04  0.11848346222E+04  0.12699999809E+01 0. -1.
        4   -1    0    0  501    0  0.00000000000E+00  0.00000000000E+00 -0.47419516334E+03  0.47419686401E+03  0.12699999809E+01 0.  1.
    10030    2    1    2    0    0  0.00000000000E+00  0.00000000000E+00  0.71063877826E+03  0.16590314863E+04  0.14991257450E+04 0.  0.
        4    1    3    3  502    0 -0.24927907629E+02 -0.27161334259E+03  0.11279654043E+04  0.11604752365E+04  0.12699999809E+01 0. -1.
       -4    1    3    3    0  502  0.24927907629E+02  0.27161334259E+03 -0.41732662602E+03  0.49855624972E+03  0.12699999809E+01 0.  1.
</event>
<event>
 5   0  0.2969498E-05  0.1499614E+04  0.7818609E-02  0.8884710E-01
       -2   -1    0    0    0  501  0.00000000000E+00  0.00000000000E+00  0.35315627375E+03  0.35315627375E+03  0.25500000920E-02 0.  1.
        2   -1    0    0  501    0  0.00000000000E+00  0.00000000000E+00 -0.15919590658E+04  0.15919590658E+04  0.25500000920E-02 0. -1.
    10030    2    1    2    0    0  0.00000000000E+00  0.00000000000E+00 -0.12388027920E+04  0.19451153395E+04  0.14996137258E+04 0.  0.
        3    1    3    3  502    0  0.24816742866E+03 -0.49297875883E+03  0.38915237488E+02  0.55328973894E+03  0.10100000352E+00 0.  1.
       -3    1    3    3    0  502 -0.24816742866E+03  0.49297875883E+03 -0.12777180295E+04  0.13918256006E+04  0.10100000352E+00 0. -1.
</event>
<event>
 5   0  0.1588657E-05  0.1498816E+04  0.7818609E-02  0.8885240E-01
        1   -1    0    0  501    0  0.00000000000E+00  0.00000000000E+00  0.12899774876E+04  0.12899774876E+04  0.50400001928E-02 0.  1.
       -1   -1    0    0    0  501  0.00000000000E+00  0.00000000000E+00 -0.43536614264E+03  0.43536614267E+03  0.50400001928E-02 0. -1.
    10030    2    1    2    0    0  0.00000000000E+00  0.00000000000E+00  0.85461134492E+03  0.17253436302E+04  0.14988162301E+04 0.  0.
        3    1    3    3  502    0 -0.53135685471E+03 -0.46431542308E+03  0.13680910944E+03  0.71878067711E+03  0.10100000352E+00 0. -1.
       -3    1    3    3    0  502  0.53135685471E+03  0.46431542308E+03  0.71780223548E+03  0.10065629531E+04  0.10100000352E+00 0.  1.
</event>
<event>
 5   0  0.3070497E-05  0.1497893E+04  0.7818609E-02  0.8885855E-01
        2   -1    0    0  501    0  0.00000000000E+00  0.00000000000E+00  0.88431210830E+03  0.88431210831E+03  0.25500000920E-02 0. -1.
       -2   -1    0    0    0  501  0.00000000000E+00  0.00000000000E+00 -0.63430208476E+03  0.63430208477E+03  0.25500000920E-02 0.  1.
    10030    2    1    2    0    0  0.00000000000E+00  0.00000000000E+00  0.25001002354E+03  0.15186141931E+04  0.14978932056E+04 0.  0.
        4    1    3    3  502    0  0.71281129363E+03  0.15306232837E+03  0.29881575806E+03  0.78792162481E+03  0.12699999809E+01 0.  1.
       -4    1    3    3    0  502 -0.71281129363E+03 -0.15306232837E+03 -0.48805734516E+02  0.73069256826E+03  0.12699999809E+01 0. -1.
</event>
<event>
 5   0  0.1116613E-05  0.1500706E+04  0.7818609E-02  0.8883984E-01
       -4   -1    0    0    0  501  0.00000000000E+00  0.00000000000E+00  0.58538479120E+03  0.58538616884E+03  0.12699999809E+01 0.  1.
        4   -1    0    0  501    0  0.00000000000E+00  0.00000000000E+00 -0.96180759979E+03  0.96180843826E+03  0.12699999809E+01 0. -1.
    10030    2    1    2    0    0  0.00000000000E+00  0.00000000000E+00 -0.37642280859E+03  0.15471946071E+04  0.15007055079E+04 0.  0.
        1    1    3    3  502    0 -0.39898983660E+03  0.40594455337E+03 -0.69228000865E+03  0.89623405455E+03  0.50400001928E-02 0. -1.
       -1    1    3    3    0  502  0.39898983660E+03 -0.40594455337E+03  0.31585720007E+03  0.65096055255E+03  0.50400001928E-02 0.  1.
</event>
<event>
 5   0  0.1580078E-05  0.1501006E+04  0.7818609E-02  0.8883784E-01
       -1   -1    0    0    0  501  0.00000000000E+00  0.00000000000E+00  0.47474354426E+03  0.47474354429E+03  0.50400001928E-02 0. -1.
        1   -1    0    0  501    0  0.00000000000E+00  0.00000000000E+00 -0.11864407239E+04  0.11864407240E+04  0.50400001928E-02 0.  1.
    10030    2    1    2    0    0  0.00000000000E+00  0.00000000000E+00 -0.71169717969E+03  0.16611842682E+04  0.15010064282E+04 0.  0.
        2    1    3    3  502    0 -0.28512148898E+03  0.57779030509E+03 -0.78178120670E+03  0.10130734205E+04  0.25500000920E-02 0.  1.
       -2    1    3    3    0  502  0.28512148898E+03 -0.57779030509E+03  0.70084027007E+02  0.64811084776E+03  0.25500000920E-02 0. -1.
</event>
<event>
 5   0  0.1643498E-05  0.1498112E+04  0.7818609E-02  0.8885710E-01
       -1   -1    0    0    0  501  0.00000000000E+00  0.00000000000E+00  0.59672544866E+03  0.59672544869E+03  0.50400001928E-02 0.  1.
        1   -1    0    0  501    0  0.00000000000E+00  0.00000000000E+00 -0.94027285903E+03  0.94027285904E+03  0.50400001928E-02 0. -1.
    10030    2    1    2    0    0  0.00000000000E+00  0.00000000000E+00 -0.34354741036E+03  0.15369983077E+04  0.14981118032E+04 0.  0.
        4    1    3    3  502    0  0.69276696184E+03  0.17668652306E+03 -0.40104454581E+03  0.81974540649E+03  0.12699999809E+01 0. -1.
       -4    1    3    3    0  502 -0.69276696184E+03 -0.17668652306E+03  0.57497135446E+02  0.71725290123E+03  0.12699999809E+01 0.  1.
</event>
<event>
 5   0  0.1588657E-05  0.1499981E+04  0.7818609E-02  0.8884466E-01
        1   -1    0    0  501    0  0.00000000000E+00  0.00000000000E+00  0.86522142564E+03  0.86522142565E+03  0.50400001928E-02 0.  1.
       -1   -1    0    0    0  501  0.00000000000E+00  0.00000000000E+00 -0.65010571757E+03  0.65010571759E+03  0.50400001928E-02 0. -1.
    10030    2    1    2    0    0  0.00000000000E+00  0.00000000000E+00  0.21511570807E+03  0.15153271432E+04  0.14999805276E+04 0.  0.
        3    1    3    3  502    0  0.58609109953E+03 -0.16152727281E+03  0.55124554608E+03  0.82064943739E+03  0.10100000352E+00 0.  1.
       -3    1    3    3    0  502 -0.58609109953E+03  0.16152727281E+03 -0.33612983801E+03  0.69467770585E+03  0.10100000352E+00 0. -1.
</event>
<event>
 5   0  0.1533777E-05  0.1500025E+04  0.7818609E-02  0.8884436E-01
        1   -1    0    0  501    0  0.00000000000E+00  0.00000000000E+00  0.10718519439E+04  0.10718519439E+04  0.50400001928E-02 0.  1.
       -1   -1    0    0    0  501  0.00000000000E+00  0.00000000000E+00 -0.52481010307E+03  0.52481010309E+03  0.50400001928E-02 0. -1.
    10030    2    1    2    0    0  0.00000000000E+00  0.00000000000E+00  0.54704184079E+03  0.15966620470E+04  0.15000249720E+04 0.  0.
        5    1    3    3  502    0  0.31704190214E+03  0.37729792966E+03  0.87529915481E+03  0.10045098286E+04  0.46999998093E+01 0.  1.
       -5    1    3    3    0  502 -0.31704190214E+03 -0.37729792966E+03 -0.32825731402E+03  0.59215221831E+03  0.46999998093E+01 0. -1.
</event>
<event>
 5   0  0.2969498E-05  0.1499440E+04  0.7818609E-02  0.8884825E-01
        2   -1    0    0  501    0  0.00000000000E+00  0.00000000000E+00  0.21790732492E+04  0.21790732492E+04  0.25500000920E-02 0. -1.
       -2   -1    0    0    0  501  0.00000000000E+00  0.00000000000E+00 -0.25794469528E+03  0.25794469529E+03  0.25500000920E-02 0.  1.
    10030    2    1    2    0    0  0.00000000000E+00  0.00000000000E+00  0.19211285539E+04  0.24370179445E+04  0.14994404093E+04 0.  0.
        3    1    3    3  502    0 -0.36279899459E+03  0.17400940948E+03  0.19887134145E+04  0.20290104584E+04  0.10100000352E+00 0. -1.
       -3    1    3    3    0  502  0.36279899459E+03 -0.17400940948E+03 -0.67584860649E+02  0.40800748602E+03  0.10100000352E+00 0.  1.
</event>
<event>
 5   0  0.1576214E-05  0.1500028E+04  0.7818609E-02  0.8884434E-01
        1   -1    0    0  501    0  0.00000000000E+00  0.00000000000E+00  0.77136078611E+03  0.77136078613E+03  0.50400001928E-02 0.  1.
       -1   -1    0    0    0  501  0.00000000000E+00  0.00000000000E+00 -0.72925807434E+03  0.72925807436E+03  0.50400001928E-02 0. -1.
    10030    2    1    2    0    0  0.00000000000E+00  0.00000000000E+00  0.42102711773E+02  0.15006188605E+04  0.15000281084E+04 0.  0.
        1    1    3    3  502    0 -0.25420559517E+03 -0.10057524074E+03 -0.67763992056E+03  0.73070631968E+03  0.50400001928E-02 0. -1.
       -1    1    3    3    0  502  0.25420559517E+03  0.10057524074E+03  0.71974263233E+03  0.76991254080E+03  0.50400001928E-02 0.  1.
</event>
<event>
 5   0  0.3093600E-05  0.1500485E+04  0.7818609E-02  0.8884131E-01
        2   -1    0    0  501    0  0.00000000000E+00  0.00000000000E+00  0.10849079718E+04  0.10849079718E+04  0.25500000920E-02 0.  1.
       -2   -1    0    0    0  501  0.00000000000E+00  0.00000000000E+00 -0.51881219270E+03  0.51881219271E+03  0.25500000920E-02 0. -1.
    10030    2    1    2    0    0  0.00000000000E+00  0.00000000000E+00  0.56609577914E+03  0.16037201645E+04  0.15004845667E+04 0.  0.
        1    1    3    3  502    0 -0.93704946970E+02 -0.47100384820E+02 -0.51093885985E+03  0.52159139359E+03  0.50400001928E-02 0. -1.
       -1    1    3    3    0  502  0.93704946970E+02  0.47100384820E+02  0.10770346390E+04  0.10821287710E+04  0.50400001928E-02 0.  1.
</event>
<event>
 5   0  0.1588657E-05  0.1507370E+04  0.7818609E-02  0.8879567E-01
        1   -1    0    0  501    0  0.00000000000E+00  0.00000000000E+00  0.71524900128E+03  0.71524900129E+03  0.50400001928E-02 0. -1.
       -1   -1    0    0    0  501  0.00000000000E+00  0.00000000000E+00 -0.79418650206E+03  0.79418650207E+03  0.50400001928E-02 0.  1.
    10030    2    1    2    0    0  0.00000000000E+00  0.00000000000E+00 -0.78937500783E+02  0.15094355034E+04  0.15073700308E+04 0.  0.
        3    1    3    3  502    0 -0.13514897526E+03  0.71120673420E+03  0.17048692371E+03  0.74373790117E+03  0.10100000352E+00 0. -1.
       -3    1    3    3    0  502  0.13514897526E+03 -0.71120673420E+03 -0.24942442450E+03  0.76569760220E+03  0.10100000352E+00 0.  1.
</event>
<event>
 5   0  0.1580078E-05  0.1499125E+04  0.7818609E-02  0.8885035E-01
        1   -1    0    0  501    0  0.00000000000E+00  0.00000000000E+00  0.20379555100E+04  0.20379555100E+04  0.50400001928E-02 0. -1.
       -1   -1    0    0    0  501  0.00000000000E+00  0.00000000000E+00 -0.27569017707E+03  0.27569017712E+03  0.50400001928E-02 0.  1.
    10030    2    1    2    0    0  0.00000000000E+00  0.00000000000E+00  0.17622653329E+04  0.23136456871E+04  0.14991254990E+04 0.  0.
        2    1    3    3  502    0  0.44924306944E+03  0.41964118788E+03  0.21925043472E+03  0.65267818650E+03  0.25500000920E-02 0. -1.
       -2    1    3    3    0  502 -0.44924306944E+03 -0.41964118788E+03  0.15430148982E+04  0.16609675006E+04  0.25500000920E-02 0.  1.
</event>
<event>
 5   0  0.1533777E-05  0.1500379E+04  0.7818609E-02  0.8884201E-01
        1   -1    0    0  501    0  0.00000000000E+00  0.00000000000E+00  0.85314291791E+03  0.85314291792E+03  0.50400001928E-02 0. -1.
       -1   -1    0    0    0  501  0.00000000000E+00  0.00000000000E+00 -0.65966034081E+03  0.65966034083E+03  0.50400001928E-02 0.  1.
    10030    2    1    2    0    0  0.00000000000E+00  0.00000000000E+00  0.19348257710E+03  0.15128032588E+04  0.15003793494E+04 0.  0.
        5    1    3    3  502    0  0.31042250009E+03 -0.51746395687E+03 -0.35262998497E+03  0.69892851674E+03  0.46999998093E+01 0.  1.
       -5    1    3    3    0  502 -0.31042250009E+03  0.51746395687E+03  0.54611256208E+03  0.81387474201E+03  0.46999998093E+01 0. -1.
</event>
<event>
 5   0  0.3030702E-05  0.1499887E+04  0.7818609E-02  0.8884528E-01
       -2   -1    0    0    0  501  0.00000000000E+00  0.00000000000E+00  0.31366242670E+03  0.31366242671E+03  0.25500000920E-02 0.  1.
        2   -1    0    0  501    0  0.00000000000E+00  0.00000000000E+00 -0.17930584890E+04  0.17930584890E+04  0.25500000920E-02 0. -1.
    10030    2    1    2    0    0  0.00000000000E+00  0.00000000000E+00 -0.14793960623E+04  0.21067209157E+04  0.14998867649E+04 0.  0.
        5    1    3    3  502    0  0.51953998596E+03  0.31464661986E+03 -0.13575065389E+04  0.14872022006E+04  0.46999998093E+01 0. -1.
       -5    1    3    3    0  502 -0.51953998596E+03 -0.31464661986E+03 -0.12188952337E+03  0.61951871505E+03  0.46999998093E+01 0.  1.
</event>
<event>
 5   0  0.3030702E-05  0.1500180E+04  0.7818609E-02  0.8884333E-01
        2   -1    0    0  501    0  0.00000000000E+00  0.00000000000E+00  0.22262899559E+04  0.22262899559E+04  0.25500000920E-02 0. -1.
       -2   -1    0    0    0  501  0.00000000000E+00  0.00000000000E+00 -0.25272306108E+03  0.25272306109E+03  0.25500000920E-02 0.  1.
    10030    2    1    2    0    0  0.00000000000E+00  0.00000000000E+00  0.19735668948E+04  0.24790130170E+04  0.15001797392E+04 0.  0.
        5    1    3    3  502    0 -0.17707398770E+03 -0.70272534725E+03  0.13065051948E+04  0.14940401684E+04  0.46999998093E+01 0.  1.
       -5    1    3    3    0  502  0.17707398770E+03  0.70272534725E+03  0.66706169999E+03  0.98497284855E+03  0.46999998093E+01 0. -1.
</event>
<event>
 5   0  0.3030702E-05  0.1499976E+04  0.7818609E-02  0.8884469E-01
        2   -1    0    0  501    0  0.00000000000E+00  0.00000000000E+00  0.11587753208E+04  0.11587753208E+04  0.25500000920E-02 0.  1.
       -2   -1    0    0    0  501  0.00000000000E+00  0.00000000000E+00 -0.48541066134E+03  0.48541066135E+03  0.25500000920E-02 0. -1.
    10030    2    1    2    0    0  0.00000000000E+00  0.00000000000E+00  0.67336465946E+03  0.16441859822E+04  0.14999758596E+04 0.  0.
        5    1    3    3  502    0  0.26112879066E+03 -0.68609219736E+03  0.50489295494E+03  0.89098245467E+03  0.46999998093E+01 0. -1.
       -5    1    3    3    0  502 -0.26112879066E+03  0.68609219736E+03  0.16847170452E+03  0.75320352748E+03  0.46999998093E+01 0.  1.
</event>
<event>
 5   0  0.1643498E-05  0.1500155E+04  0.7818609E-02  0.8884350E-01
       -1   -1    0    0    0  501  0.00000000000E+00  0.00000000000E+00  0.80170560554E+03  0.80170560555E+03  0.50400001928E-02 0. -1.
        1   -1    0    0  501    0  0.00000000000E+00  0.00000000000E+00 -0.70177366903E+03  0.70177366905E+03  0.50400001928E-02 0.  1.
    10030    2    1    2    0    0  0.00000000000E+00  0.00000000000E+00  0.99931936506E+02  0.15034792746E+04  0.15001545044E+04 0.  0.
        4    1    3    3  502    0 -0.16162660448E+03 -0.53830372973E+03 -0.44784425986E+03  0.71865162541E+03  0.12699999809E+01 0.  1.
       -4    1    3    3    0  502  0.16162660448E+03  0.53830372973E+03  0.54777619637E+03  0.78482764918E+03  0.12699999809E+01 0. -1.
</event>
<event>
 5   0  0.3018308E-05  0.1498817E+04  0.7818609E-02  0.8885240E-01
       -2   -1    0    0    0  501  0.00000000000E+00  0.00000000000E+00  0.80905006366E+03  0.80905006367E+03  0.25500000920E-02 0.  1.
        2   -1    0    0  501    0  0.00000000000E+00  0.00000000000E+00 -0.69416376040E+03  0.69416376041E+03  0.25500000920E-02 0. -1.
    10030    2    1    2    0    0  0.00000000000E+00  0.00000000000E+00  0.11488630326E+03  0.15032138241E+04  0.14988171797E+04 0.  0.
        2    1    3    3  502    0 -0.61757539739E+03  0.29049482505E+03  0.36790996418E+03  0.77533499636E+03  0.25500000920E-02 0.  1.
       -2    1    3    3    0  502  0.61757539739E+03 -0.29049482505E+03 -0.25302366092E+03  0.72787882771E+03  0.25500000920E-02 0. -1.
</event>
<event>
 5   0  0.2969498E-05  0.1500100E+04  0.7818609E-02  0.8884387E-01
        2   -1    0    0  501    0  0.00000000000E+00  0.00000000000E+00  0.15992673755E+04  0.15992673755E+04  0.25500000920E-02 0.  1.
       -2   -1    0    0    0  501  0.00000000000E+00  0.00000000000E+00 -0.35177022229E+03  0.35177022230E+03  0.25500000920E-02 0. -1.
    10030    2    1    2    0    0  0.00000000000E+00  0.00000000000E+00  0.12474971532E+04  0.19510375978E+04  0.15000995170E+04 0.  0.
        3    1    3    3  502    0  0.47062105876E+01 -0.94020748397E+02  0.15915533568E+04  0.15943350172E+04  0.10100000352E+00 0.  1.
       -3    1    3    3    0  502 -0.47062105876E+01  0.94020748397E+02 -0.34405620358E+03  0.35670258055E+03  0.10100000352E+00 0. -1.
</event>
<event>
 5   0  0.1576214E-05  0.1499842E+04  0.7818609E-02  0.8884558E-01
        1   -1    0    0  501    0  0.00000000000E+00  0.00000000000E+00  0.12328787177E+04  0.12328787177E+04  0.50400001928E-02 0. -1.
       -1   -1    0    0    0  501  0.00000000000E+00  0.00000000000E+00 -0.45615329790E+03  0.45615329793E+03  0.50400001928E-02 0.  1.
    10030    2    1    2    0    0  0.00000000000E+00  0.00000000000E+00  0.77672541976E+03  0.16890320156E+04  0.14998422490E+04 0.  0.
        1    1    3    3  502    0 -0.49690867907E+03 -0.38875246700E+03 -0.68154656167E+02  0.63457999741E+03  0.50400001928E-02 0.  1.
       -1    1    3    3    0  502  0.49690867907E+03  0.38875246700E+03  0.84488007593E+03  0.10544520182E+04  0.50400001928E-02 0. -1.
</event>
<event>
 5   0  0.2969498E-05  0.1498376E+04  0.7818609E-02  0.8885534E-01
       -2   -1    0    0    0  501  0.00000000000E+00  0.00000000000E+00  0.69632385304E+03  0.69632385305E+03  0.25500000920E-02 0. -1.
        2   -1    0    0  501    0  0.00000000000E+00  0.00000000000E+00 -0.80606502637E+03  0.80606502637E+03  0.25500000920E-02 0.  1.
    10030    2    1    2    0    0  0.00000000000E+00  0.00000000000E+00 -0.10974117333E+03  0.15023888794E+04  0.14983755270E+04 0.  0.
        3    1    3    3  502    0  0.25805548159E+03 -0.61960010319E+03 -0.38860647102E+03  0.77557199470E+03  0.10100000352E+00 0.  1.
       -3    1    3    3    0  502 -0.25805548159E+03  0.61960010319E+03  0.27886529769E+03  0.72681688472E+03  0.10100000352E+00 0. -1.
</event>
<event>
 5   0  0.1643498E-05  0.1500402E+04  0.7818609E-02  0.8884185E-01
       -1   -1    0    0    0  501  0.00000000000E+00  0.00000000000E+00  0.42084929908E+03  0.42084929911E+03  0.50400001928E-02 0. -1.
        1   -1    0    0  501    0  0.00000000000E+00  0.00000000000E+00 -0.13373002159E+04  0.13373002159E+04  0.50400001928E-02 0.  1.
    10030    2    1    2    0    0  0.00000000000E+00  0.00000000000E+00 -0.91645091684E+03  0.17581495150E+04  0.15004024241E+04 0.  0.
        4    1    3    3  502    0 -0.82688230228E+02 -0.63286556834E+03 -0.92021818048E+03  0.11198925322E+04  0.12699999809E+01 0.  1.
       -4    1    3    3    0  502  0.82688230228E+02  0.63286556834E+03  0.37672636446E+01  0.63825698288E+03  0.12699999809E+01 0. -1.
</event>
<event>
 5   0  0.3030702E-05  0.1499772E+04  0.7818609E-02  0.8884605E-01
        2   -1    0    0  501    0  0.00000000000E+00  0.00000000000E+00  0.15063274257E+04  0.15063274257E+04  0.25500000920E-02 0.  1.
       -2   -1    0    0    0  501  0.00000000000E+00  0.00000000000E+00 -0.37331125617E+03  0.37331125618E+03  0.25500000920E-02 0. -1.
    10030    2    1    2    0    0  0.00000000000E+00  0.00000000000E+00  0.11330161695E+04  0.18796386819E+04  0.14997719607E+04 0.  0.
        5    1    3    3  502    0  0.15549988545E+03  0.61253871493E+03  0.10723797398E+04  0.12447506931E+04  0.46999998093E+01 0.  1.
       -5    1    3    3    0  502 -0.15549988545E+03 -0.61253871493E+03  0.60636429713E+02  0.63488798875E+03  0.46999998093E+01 0. -1.
</event>
<event>
 5   0  0.1588657E-05  0.1501002E+04  0.7818609E-02  0.8883787E-01
        1   -1    0    0  501    0  0.00000000000E+00  0.00000000000E+00  0.64312622396E+03  0.64312622398E+03  0.50400001928E-02 0. -1.
       -1   -1    0    0    0  501  0.00000000000E+00  0.00000000000E+00 -0.87580305104E+03  0.87580305106E+03  0.50400001928E-02 0.  1.
    10030    2    1    2    0    0  0.00000000000E+00  0.00000000000E+00 -0.23267682708E+03  0.15189292750E+04  0.15010022108E+04 0.  0.
        3    1    3    3  502    0 -0.44811243451E+03 -0.36726044137E+03 -0.59907562787E+03  0.83341262522E+03  0.10100000352E+00 0.  1.
       -3    1    3    3    0  502  0.44811243451E+03  0.36726044137E+03  0.36639880079E+03  0.68551664982E+03  0.10100000352E+00 0. -1.
</event>
<event>
 5   0  0.3018308E-05  0.1499135E+04  0.7818609E-02  0.8885028E-01
        2   -1    0    0  501    0  0.00000000000E+00  0.00000000000E+00  0.83799373987E+03  0.83799373987E+03  0.25500000920E-02 0.  1.
       -2   -1    0    0    0  501  0.00000000000E+00  0.00000000000E+00 -0.67047196068E+03  0.67047196068E+03  0.25500000920E-02 0. -1.
    10030    2    1    2    0    0  0.00000000000E+00  0.00000000000E+00  0.16752177919E+03  0.15084657006E+04  0.14991348249E+04 0.  0.
        2    1    3    3  502    0 -0.12103068922E+03 -0.16120078420E+03  0.81020818296E+03  0.83490803104E+03  0.25500000920E-02 0.  1.
       -2    1    3    3    0  502  0.12103068922E+03  0.16120078420E+03 -0.64268640377E+03  0.67355766951E+03  0.25500000920E-02 0. -1.
</event>
<event>
 5   0  0.1533777E-05  0.1499546E+04  0.7818609E-02  0.8884755E-01
        1   -1    0    0  501    0  0.00000000000E+00  0.00000000000E+00  0.91816526520E+03  0.91816526521E+03  0.50400001928E-02 0. -1.
       -1   -1    0    0    0  501  0.00000000000E+00  0.00000000000E+00 -0.61226366531E+03  0.61226366533E+03  0.50400001928E-02 0.  1.
    10030    2    1    2    0    0  0.00000000000E+00  0.00000000000E+00  0.30590159989E+03  0.15304289305E+04  0.14995455720E+04 0.  0.
        5    1    3    3  502    0 -0.16666763254E+03  0.15927255974E+03 -0.57517878010E+03  0.61967617923E+03  0.46999998093E+01 0.  1.
       -5    1    3    3    0  502  0.16666763254E+03 -0.15927255974E+03  0.88108037999E+03  0.91075275132E+03  0.46999998093E+01 0. -1.
</event>
<event>
 5   0  0.1580078E-05  0.1499790E+04  0.7818609E-02  0.8884593E-01
        1   -1    0    0  501    0  0.00000000000E+00  0.00000000000E+00  0.14699574842E+04  0.14699574843E+04  0.50400001928E-02 0. -1.
       -1   -1    0    0    0  501  0.00000000000E+00  0.00000000000E+00 -0.38255689494E+03  0.38255689498E+03  0.50400001928E-02 0.  1.
    10030    2    1    2    0    0  0.00000000000E+00  0.00000000000E+00  0.10874005893E+04  0.18525143792E+04  0.14997898132E+04 0.  0.
        2    1    3    3  502    0  0.27058580500E+02  0.70894673214E+03  0.84373716085E+03  0.11023747241E+04  0.25500000920E-02 0.  1.
       -2    1    3    3    0  502 -0.27058580500E+02 -0.70894673214E+03  0.24366342846E+03  0.75013965511E+03  0.25500000920E-02 0. -1.
</event>
<event>
 5   0  0.1533777E-05  0.1503114E+04  0.7818609E-02  0.8882385E-01
        1   -1    0    0  501    0  0.00000000000E+00  0.00000000000E+00  0.47008536008E+03  0.47008536011E+03  0.50400001928E-02 0.  1.
       -1   -1    0    0    0  501  0.00000000000E+00  0.00000000000E+00 -0.12015639548E+04  0.12015639548E+04  0.50400001928E-02 0. -1.
    10030    2    1    2    0    0  0.00000000000E+00  0.00000000000E+00 -0.73147859468E+03  0.16716493149E+04  0.15031136010E+04 0.  0.
        5    1    3    3  502    0 -0.33588750938E+03  0.66423551393E+03 -0.25023728083E+03  0.78528340338E+03  0.46999998093E+01 0. -1.
       -5    1    3    3    0  502  0.33588750938E+03 -0.66423551393E+03 -0.48124131385E+03  0.88636591150E+03  0.46999998093E+01 0.  1.
</event>
<event>
 5   0  0.3030702E-05  0.1499802E+04  0.7818609E-02  0.8884585E-01
       -2   -1    0    0    0  501  0.00000000000E+00  0.00000000000E+00  0.19364706249E+03  0.19364706251E+03  0.25500000920E-02 0. -1.
        2   -1    0    0  501    0  0.00000000000E+00  0.00000000000E+00 -0.29040005702E+04  0.29040005702E+04  0.25500000920E-02 0.  1.
    10030    2    1    2    0    0  0.00000000000E+00  0.00000000000E+00 -0.27103535077E+04  0.30976476327E+04  0.14998015601E+04 0.  0.
        5    1    3    3  502    0 -0.58499630730E+03 -0.67573395583E+01 -0.23240600743E+04  0.23965691436E+04  0.46999998093E+01 0.  1.
       -5    1    3    3    0  502  0.58499630730E+03  0.67573395583E+01 -0.38629343344E+03  0.70107848913E+03  0.46999998093E+01 0. -1.
</event>
<event>
 5   0  0.1533777E-05  0.1500053E+04  0.7818609E-02  0.8884418E-01
       -1   -1    0    0    0  501  0.00000000000E+00  0.00000000000E+00  0.25569161274E+04  0.25569161274E+04  0.50400001928E-02 0. -1.
        1   -1    0    0  501    0  0.00000000000E+00  0.00000000000E+00 -0.22000714186E+03  0.22000714191E+03  0.50400001928E-02 0.  1.
    10030    2    1    2    0    0  0.00000000000E+00  0.00000000000E+00  0.23369089856E+04  0.27769232693E+04  0.15000530781E+04 0.  0.
        5    1    3    3  502    0 -0.40646954084E+03 -0.35548918732E+03  0.20488302047E+03  0.57757180680E+03  0.46999998093E+01 0.  1.
       -5    1    3    3    0  502  0.40646954084E+03  0.35548918732E+03  0.21320259651E+04  0.21993514625E+04  0.46999998093E+01 0. -1.
</event>
<event>
 5   0  0.3093600E-05  0.1500159E+04  0.7818609E-02  0.8884347E-01
       -2   -1    0    0    0  501  0.00000000000E+00  0.00000000000E+00  0.60283483380E+03  0.60283483380E+03  0.25500000920E-02 0. -1.
        2   -1    0    0  501    0  0.00000000000E+00  0.00000000000E+00 -0.93328916757E+03  0.93328916757E+03  0.25500000920E-02 0.  1.
    10030    2    1    2    0    0  0.00000000000E+00  0.00000000000E+00 -0.33045433377E+03  0.15361240014E+04  0.15001589519E+04 0.  0.
        1    1    3    3  502    0  0.50244059781E+03  0.75090664651E+01  0.40500443205E+03  0.64539253979E+03  0.50400001928E-02 0. -1.
       -1    1    3    3    0  502 -0.50244059781E+03 -0.75090664651E+01 -0.73545876582E+03  0.89073146158E+03  0.50400001928E-02 0.  1.
</event>
<event>
 5   0  0.3030702E-05  0.1499016E+04  0.7818609E-02  0.8885108E-01
       -2   -1    0    0    0  501  0.00000000000E+00  0.00000000000E+00  0.10272138275E+04  0.10272138275E+04  0.25500000920E-02 0. -1.
        2   -1    0    0  501    0  0.00000000000E+00  0.00000000000E+00 -0.54687952275E+03  0.54687952276E+03  0.25500000920E-02 0.  1.
    10030    2    1    2    0    0  0.00000000000E+00  0.00000000000E+00  0.48033430471E+03  0.15740933502E+04  0.14990159542E+04 0.  0.
        5    1    3    3  502    0 -0.18724677939E+02  0.13485311732E+03  0.10141044293E+04  0.10232134970E+04  0.46999998093E+01 0. -1.
       -5    1    3    3    0  502  0.18724677939E+02 -0.13485311732E+03 -0.53377012460E+03  0.55087985326E+03  0.46999998093E+01 0.  1.
</event>
<event>
 5   0  0.3030702E-05  0.1500485E+04  0.7818609E-02  0.8884131E-01
        2   -1    0    0  501    0  0.00000000000E+00  0.00000000000E+00  0.21198888516E+04  0.21198888516E+04  0.25500000920E-02 0. -1.
       -2   -1    0    0    0  501  0.00000000000E+00  0.00000000000E+00 -0.26551567057E+03  0.26551567058E+03  0.25500000920E-02 0.  1.
    10030    2    1    2    0    0  0.00000000000E+00  0.00000000000E+00  0.18543731811E+04  0.23854045222E+04  0.15004848683E+04 0.  0.
        5    1    3    3  502    0 -0.16089512833E+03  0.59859653570E+03  0.25526963909E+03  0.67036537315E+03  0.46999998093E+01 0.  1.
       -5    1    3    3    0  502  0.16089512833E+03 -0.59859653570E+03  0.15991035420E+04  0.17150391491E+04  0.46999998093E+01 0. -1.
</event>
<event>
 5   0  0.1533777E-05  0.1499504E+04  0.7818609E-02  0.8884783E-01
       -1   -1    0    0    0  501  0.00000000000E+00  0.00000000000E+00  0.43302606087E+03  0.43302606090E+03  0.50400001928E-02 0.  1.
        1   -1    0    0  501    0  0.00000000000E+00  0.00000000000E+00 -0.12981392335E+04  0.12981392335E+04  0.50400001928E-02 0. -1.
    10030    2    1    2    0    0  0.00000000000E+00  0.00000000000E+00 -0.86511317259E+03  0.17311652944E+04  0.14995040764E+04 0.  0.
        5    1    3    3  502    0  0.14161824134E+03  0.43645578528E+03 -0.11170803742E+04  0.12076589052E+04  0.46999998093E+01 0. -1.
       -5    1    3    3    0  502 -0.14161824134E+03 -0.43645578528E+03  0.25196720166E+03  0.52350638917E+03  0.46999998093E+01 0.  1.
</event>
<event>
 5   0  0.1533777E-05  0.1499557E+04  0.7818609E-02  0.8884748E-01
        1   -1    0    0  501    0  0.00000000000E+00  0.00000000000E+00  0.23296340806E+03  0.23296340811E+03  0.50400001928E-02 0. -1.
       -1   -1    0    0    0  501  0.00000000000E+00  0.00000000000E+00 -0.24131152642E+04  0.24131152642E+04  0.50400001928E-02 0.  1.
    10030    2    1    2    0    0  0.00000000000E+00  0.00000000000E+00 -0.21801518562E+04  0.26460786724E+04  0.14995566759E+04 0.  0.
        5    1    3    3  502    0 -0.65061356100E+03  0.34554858315E+03 -0.84402295333E+03  0.11203118605E+04  0.46999998093E+01 0. -1.
       -5    1    3    3    0  502  0.65061356100E+03 -0.34554858315E+03 -0.13361289028E+04  0.15257668118E+04  0.46999998093E+01 0.  1.
</event>
<event>
 5   0  0.3030702E-05  0.1499855E+04  0.7818609E-02  0.8884550E-01
       -2   -1    0    0    0  501  0.00000000000E+00  0.00000000000E+00  0.44203758264E+03  0.44203758265E+03  0.25500000920E-02 0.  1.
        2   -1    0    0  501    0  0.00000000000E+00  0.00000000000E+00 -0.12722696240E+04  0.12722696240E+04  0.25500000920E-02 0. -1.
    10030    2    1    2    0    0  0.00000000000E+00  0.00000000000E+00 -0.83023204138E+03  0.17143072067E+04  0.14998546451E+04 0.  0.
        5    1    3    3  502    0 -0.48396363276E+03 -0.48403146342E+03 -0.64942295758E+02  0.68756588571E+03  0.46999998093E+01 0.  1.
       -5    1    3    3    0  502  0.48396363276E+03  0.48403146342E+03 -0.76528974562E+03  0.10267413210E+04  0.46999998093E+01 0. -1.
</event>
<event>
 5   0  0.1643498E-05  0.1500402E+04  0.7818609E-02  0.8884186E-01
        1   -1    0    0  501    0  0.00000000000E+00  0.00000000000E+00  0.39873404390E+03  0.39873404393E+03  0.50400001928E-02 0. -1.
       -1   -1    0    0    0  501  0.00000000000E+00  0.00000000000E+00 -0.14114703285E+04  0.14114703286E+04  0.50400001928E-02 0.  1.
    10030    2    1    2    0    0  0.00000000000E+00  0.00000000000E+00 -0.10127362846E+04  0.18102043725E+04  0.15004016422E+04 0.  0.
        4    1    3    3  502    0  0.34290088699E+03 -0.65454295209E+03 -0.66270933500E+03  0.99256877345E+03  0.12699999809E+01 0.  1.
       -4    1    3    3    0  502 -0.34290088699E+03  0.65454295209E+03 -0.35002694964E+03  0.81763559903E+03  0.12699999809E+01 0. -1.
</event>
<event>
 5   0  0.3093600E-05  0.1499646E+04  0.7818609E-02  0.8884688E-01
       -2   -1    0    0    0  501  0.00000000000E+00  0.00000000000E+00  0.44518298653E+03  0.44518298654E+03  0.25500000920E-02 0. -1.
        2   -1    0    0  501    0  0.00000000000E+00  0.00000000000E+00 -0.12629294607E+04  0.12629294607E+04  0.25500000920E-02 0.  1.
    10030    2    1    2    0    0  0.00000000000E+00  0.00000000000E+00 -0.81774647421E+03  0.17081124473E+04  0.14996462371E+04 0.  0.
        1    1    3    3  502    0 -0.58747366340E+03  0.10197557627E+03  0.10898249055E+03  0.60613654123E+03  0.50400001928E-02 0. -1.
       -1    1    3    3    0  502  0.58747366340E+03 -0.10197557627E+03 -0.92672896475E+03  0.11019759060E+04  0.50400001928E-02 0.  1.
</event>
<event>
 5   0  0.1533777E-05  0.1500840E+04  0.7818609E-02  0.8883894E-01
       -1   -1    0    0    0  501  0.00000000000E+00  0.00000000000E+00  0.10722515712E+04  0.10722515712E+04  0.50400001928E-02 0. -1.
        1   -1    0    0  501    0  0.00000000000E+00  0.00000000000E+00 -0.52518483284E+03  0.52518483286E+03  0.50400001928E-02 0.  1.
    10030    2    1    2    0    0  0.00000000000E+00  0.00000000000E+00  0.54706673837E+03  0.15974364041E+04  0.15008401144E+04 0.  0.
        5    1    3    3  502    0 -0.64386607764E+03  0.21747108171E+03 -0.65146010114E+02  0.68273222419E+03  0.46999998093E+01 0. -1.
       -5    1    3    3    0  502  0.64386607764E+03 -0.21747108171E+03  0.61221274849E+03  0.91470417990E+03  0.46999998093E+01 0.  1.
</event>
<event>
 5   0  0.1576214E-05  0.1500254E+04  0.7818609E-02  0.8884284E-01
        1   -1    0    0  501    0  0.00000000000E+00  0.00000000000E+00  0.73782579145E+03  0.73782579147E+03  0.50400001928E-02 0.  1.
       -1   -1    0    0    0  501  0.00000000000E+00  0.00000000000E+00 -0.76263360293E+03  0.76263360294E+03  0.50400001928E-02 0. -1.
    10030    2    1    2    0    0  0.00000000000E+00  0.00000000000E+00 -0.24807811475E+02  0.15004593944E+04  0.15002543007E+04 0.  0.
        1    1    3    3  502    0  0.59842852495E+03  0.43098092599E+03  0.12483541874E+03  0.74796065394E+03  0.50400001928E-02 0. -1.
       -1    1    3    3    0  502 -0.59842852495E+03 -0.43098092599E+03 -0.14964323021E+03  0.75249874047E+03  0.50400001928E-02 0.  1.
</event>
<event>
 5   0  0.1576214E-05  0.1499833E+04  0.7818609E-02  0.8884564E-01
        1   -1    0    0  501    0  0.00000000000E+00  0.00000000000E+00  0.29502876707E+04  0.29502876707E+04  0.50400001928E-02 0.  1.
       -1   -1    0    0    0  501  0.00000000000E+00  0.00000000000E+00 -0.19061695494E+03  0.19061695501E+03  0.50400001928E-02 0. -1.
    10030    2    1    2    0    0  0.00000000000E+00  0.00000000000E+00  0.27596707158E+04  0.31409046257E+04  0.14998331269E+04 0.  0.
        1    1    3    3  502    0 -0.11644590952E+03 -0.43110800993E+02  0.29286101284E+04  0.29312412857E+04  0.50400001928E-02 0.  1.
       -1    1    3    3    0  502  0.11644590952E+03  0.43110800993E+02 -0.16893941258E+03  0.20966334004E+03  0.50400001928E-02 0. -1.
</event>
<event>
 5   0  0.1643498E-05  0.1504842E+04  0.7818609E-02  0.8881239E-01
        1   -1    0    0  501    0  0.00000000000E+00  0.00000000000E+00  0.11387725734E+04  0.11387725734E+04  0.50400001928E-02 0.  1.
       -1   -1    0    0    0  501  0.00000000000E+00  0.00000000000E+00 -0.49714730795E+03  0.49714730798E+03  0.50400001928E-02 0. -1.
    10030    2    1    2    0    0  0.00000000000E+00  0.00000000000E+00  0.64162526542E+03  0.16359198814E+04  0.15048424758E+04 0.  0.
        4    1    3    3  502    0  0.29270886900E+02  0.17210641093E+03  0.11164498187E+04  0.11300173504E+04  0.12699999809E+01 0.  1.
       -4    1    3    3    0  502 -0.29270886900E+02 -0.17210641093E+03 -0.47482455332E+03  0.50590253097E+03  0.12699999809E+01 0. -1.
</event>
<event>
 5   0  0.3070497E-05  0.1501421E+04  0.7818609E-02  0.8883509E-01
       -2   -1    0    0    0  501  0.00000000000E+00  0.00000000000E+00  0.48393400749E+03  0.48393400750E+03  0.25500000920E-02 0. -1.
        2   -1    0    0  501    0  0.00000000000E+00  0.00000000000E+00 -0.11645515602E+04  0.11645515602E+04  0.25500000920E-02 0.  1.
    10030    2    1    2    0    0  0.00000000000E+00  0.00000000000E+00 -0.68061755275E+03  0.16484855677E+04  0.15014207984E+04 0.  0.
        4    1    3    3  502    0 -0.10952533291E+03 -0.53057818837E+03  0.23026159700E+03  0.58866886148E+03  0.12699999809E+01 0. -1.
       -4    1    3    3    0  502  0.10952533291E+03  0.53057818837E+03 -0.91087914975E+03  0.10598167063E+04  0.12699999809E+01 0.  1.
</event>
<event>
 5   0  0.2969498E-05  0.1500318E+04  0.7818609E-02  0.8884241E-01
       -2   -1    0    0    0  501  0.00000000000E+00  0.00000000000E+00  0.49623189352E+03  0.49623189353E+03  0.25500000920E-02 0.  1.
        2   -1    0    0  501    0  0.00000000000E+00  0.00000000000E+00 -0.11340236550E+04  0.11340236550E+04  0.25500000920E-02 0. -1.
    10030    2    1    2    0    0  0.00000000000E+00  0.00000000000E+00 -0.63779176151E+03  0.16302555486E+04  0.15003182404E+04 0.  0.
        3    1    3    3  502    0  0.18341135300E+03 -0.37238361319E+03 -0.99785490192E+03  0.10807514493E+04  0.10100000352E+00 0. -1.
       -3    1    3    3    0  502 -0.18341135300E+03  0.37238361319E+03  0.36006314040E+03  0.54950409922E+03  0.10100000352E+00 0.  1.
</event>
<event>
 5   0  0.1643498E-05  0.1500166E+04  0.7818609E-02  0.8884342E-01
       -1   -1    0    0    0  501  0.00000000000E+00  0.00000000000E+00  0.23979138553E+03  0.23979138559E+03  0.50400001928E-02 0. -1.
        1   -1    0    0  501    0  0.00000000000E+00  0.00000000000E+00 -0.23463093956E+04  0.23463093956E+04  0.50400001928E-02 0.  1.
    10030    2    1    2    0    0  0.00000000000E+00  0.00000000000E+00 -0.21065180101E+04  0.25861007812E+04  0.15001663654E+04 0.  0.
        4    1    3    3  502    0  0.56474285338E+03 -0.48812051100E+03 -0.11802543219E+04  0.13964948983E+04  0.12699999809E+01 0.  1.
       -4    1    3    3    0  502 -0.56474285338E+03  0.48812051100E+03 -0.92626368814E+03  0.11896058829E+04  0.12699999809E+01 0. -1.
</event>
<event>
 5   0  0.3030702E-05  0.1500527E+04  0.7818609E-02  0.8884103E-01
        2   -1    0    0  501    0  0.00000000000E+00  0.00000000000E+00  0.16239576047E+04  0.16239576047E+04  0.25500000920E-02 0. -1.
       -2   -1    0    0    0  501  0.00000000000E+00  0.00000000000E+00 -0.34661942741E+03  0.34661942742E+03  0.25500000920E-02 0.  1.
    10030    2    1    2    0    0  0.00000000000E+00  0.00000000000E+00  0.12773381773E+04  0.19705770321E+04  0.15005269142E+04 0.  0.
        5    1    3    3  502    0  0.90054422220E+02  0.73486075946E+03  0.79812587476E+03  0.10886492257E+04  0.46999998093E+01 0.  1.
       -5    1    3    3    0  502 -0.90054422220E+02 -0.73486075946E+03  0.47921230250E+03  0.88192780635E+03  0.46999998093E+01 0. -1.
</event>
<event>
 5   0  0.2969498E-05  0.1500585E+04  0.7818609E-02  0.8884064E-01
        2   -1    0    0  501    0  0.00000000000E+00  0.00000000000E+00  0.72447625905E+03  0.72447625905E+03  0.25500000920E-02 0. -1.
       -2   -1    0    0    0  501  0.00000000000E+00  0.00000000000E+00 -0.77702904713E+03  0.77702904713E+03  0.25500000920E-02 0.  1.
    10030    2    1    2    0    0  0.00000000000E+00  0.00000000000E+00 -0.52552788081E+02  0.15015053062E+04  0.15005853488E+04 0.  0.
        3    1    3    3  502    0  0.53886790982E+03 -0.99289435212E+02  0.48658253086E+03  0.73280255575E+03  0.10100000352E+00 0. -1.
       -3    1    3    3    0  502 -0.53886790982E+03  0.99289435212E+02 -0.53913531894E+03  0.76870275043E+03  0.10100000352E+00 0.  1.
</event>
<event>
 5   0  0.3070497E-05  0.1501610E+04  0.7818609E-02  0.8883383E-01
        2   -1    0    0  501    0  0.00000000000E+00  0.00000000000E+00  0.10669724841E+04  0.10669724841E+04  0.25500000920E-02 0. -1.
       -2   -1    0    0    0  501  0.00000000000E+00  0.00000000000E+00 -0.52832471539E+03  0.52832471540E+03  0.25500000920E-02 0.  1.
    10030    2    1    2    0    0  0.00000000000E+00  0.00000000000E+00  0.53864776870E+03  0.15952971995E+04  0.15016097149E+04 0.  0.
        4    1    3    3  502    0  0.42423207021E+03  0.42726118191E+03  0.74584088216E+03  0.95854327047E+03  0.12699999809E+01 0. -1.
       -4    1    3    3    0  502 -0.42423207021E+03 -0.42726118191E+03 -0.20719311346E+03  0.63675392903E+03  0.12699999809E+01 0.  1.
</event>
<event>
 5   0  0.3018308E-05  0.1491241E+04  0.7818609E-02  0.8890299E-01
        2   -1    0    0  501    0  0.00000000000E+00  0.00000000000E+00  0.10241477301E+04  0.10241477301E+04  0.25500000920E-02 0. -1.
       -2   -1    0    0    0  501  0.00000000000E+00  0.00000000000E+00 -0.54284152449E+03  0.54284152449E+03  0.25500000920E-02 0.  1.
    10030    2    1    2    0    0  0.00000000000E+00  0.00000000000E+00  0.48130620563E+03  0.15669892546E+04  0.14912409800E+04 0.  0.
        2    1    3    3  502    0 -0.40410640050E+03 -0.22019062425E+03 -0.37580124821E+03  0.59414852697E+03  0.25500000920E-02 0.  1.
       -2    1    3    3    0  502  0.40410640050E+03  0.22019062425E+03  0.85710745385E+03  0.97284072765E+03  0.25500000920E-02 0. -1.
</event>
<event>
 5   0  0.3018308E-05  0.1499178E+04  0.7818609E-02  0.8885000E-01
       -2   -1    0    0    0  501  0.00000000000E+00  0.00000000000E+00  0.47955718408E+03  0.47955718409E+03  0.25500000920E-02 0. -1.
        2   -1    0    0  501    0  0.00000000000E+00  0.00000000000E+00 -0.11716717640E+04  0.11716717640E+04  0.25500000920E-02 0.  1.
    10030    2    1    2    0    0  0.00000000000E+00  0.00000000000E+00 -0.69211457992E+03  0.16512289481E+04  0.14991779238E+04 0.  0.
        2    1    3    3  502    0 -0.30125821191E+03  0.17082364943E+03 -0.10782727713E+04  0.11325234650E+04  0.25500000920E-02 0.  1.
       -2    1    3    3    0  502  0.30125821191E+03 -0.17082364943E+03  0.38615819136E+03  0.51870548311E+03  0.25500000920E-02 0. -1.
</event>
<event>
 5   0  0.3018308E-05  0.1499774E+04  0.7818609E-02  0.8884603E-01
       -2   -1    0    0    0  501  0.00000000000E+00  0.00000000000E+00  0.69294195239E+03  0.69294195240E+03  0.25500000920E-02 0. -1.
        2   -1    0    0  501    0  0.00000000000E+00  0.00000000000E+00 -0.81151138962E+03  0.81151138962E+03  0.25500000920E-02 0.  1.
    10030    2    1    2    0    0  0.00000000000E+00  0.00000000000E+00 -0.11856943723E+03  0.15044533420E+04  0.14997736986E+04 0.  0.
        2    1    3    3  502    0 -0.43924820290E+03 -0.60659869449E+03 -0.97209122192E+02  0.75521558071E+03  0.25500000920E-02 0.  1.
       -2    1    3    3    0  502  0.43924820290E+03  0.60659869449E+03 -0.21360315034E+02  0.74923776131E+03  0.25500000920E-02 0. -1.
</event>
<event>
 5   0  0.2969498E-05  0.1499426E+04  0.7818609E-02  0.8884835E-01
       -2   -1    0    0    0  501  0.00000000000E+00  0.00000000000E+00  0.53188398359E+03  0.53188398360E+03  0.25500000920E-02 0.  1.
        2   -1    0    0  501    0  0.00000000000E+00  0.00000000000E+00 -0.10567515980E+04  0.10567515980E+04  0.25500000920E-02 0. -1.
    10030    2    1    2    0    0  0.00000000000E+00  0.00000000000E+00 -0.52486761445E+03  0.15886355816E+04  0.14994255562E+04 0.  0.
        3    1    3    3  502    0  0.65060209462E+03 -0.12370012847E+03  0.10987686146E+03  0.67131046632E+03  0.10100000352E+00 0. -1.
       -3    1    3    3    0  502 -0.65060209462E+03  0.12370012847E+03 -0.63474447591E+03  0.91732511532E+03  0.10100000352E+00 0.  1.
</event>
<event>
 5   0  0.3070497E-05  0.1499951E+04  0.7818609E-02  0.8884485E-01
        2   -1    0    0  501    0  0.00000000000E+00  0.00000000000E+00  0.21153710125E+04  0.21153710125E+04  0.25500000920E-02 0. -1.
       -2   -1    0    0    0  501  0.00000000000E+00  0.00000000000E+00 -0.26589349938E+03  0.26589349939E+03  0.25500000920E-02 0.  1.
    10030    2    1    2    0    0  0.00000000000E+00  0.00000000000E+00  0.18494775131E+04  0.23812645118E+04  0.14999512005E+04 0.  0.
        4    1    3    3  502    0 -0.70697975568E+03  0.23051667237E+03  0.76997410580E+03  0.10704298425E+04  0.12699999809E+01 0.  1.
       -4    1    3    3    0  502  0.70697975568E+03 -0.23051667237E+03  0.10795034073E+04  0.13108346694E+04  0.12699999809E+01 0. -1.
</event>
<event>
 5   0  0.3093600E-05  0.1498577E+04  0.7818609E-02  0.8885400E-01
        2   -1    0    0  501    0  0.00000000000E+00  0.00000000000E+00  0.96118790042E+03  0.96118790043E+03  0.25500000920E-02 0.  1.
       -2   -1    0    0    0  501  0.00000000000E+00  0.00000000000E+00 -0.58410373106E+03  0.58410373107E+03  0.25500000920E-02 0. -1.
    10030    2    1    2    0    0  0.00000000000E+00  0.00000000000E+00  0.37708416936E+03  0.15452916315E+04  0.14985772438E+04 0.  0.
        1    1    3    3  502    0 -0.51275129225E+03 -0.47875503214E+02 -0.37269194582E+03  0.63569272295E+03  0.50400001928E-02 0. -1.
       -1    1    3    3    0  502  0.51275129225E+03  0.47875503214E+02  0.74977611518E+03  0.90959890854E+03  0.50400001928E-02 0.  1.
</event>
<event>
 5   0  0.1576214E-05  0.1499842E+04  0.7818609E-02  0.8884558E-01
       -1   -1    0    0    0  501  0.00000000000E+00  0.00000000000E+00  0.60046215328E+03  0.60046215330E+03  0.50400001928E-02 0. -1.
        1   -1    0    0  501    0  0.00000000000E+00  0.00000000000E+00 -0.93658094996E+03  0.93658094997E+03  0.50400001928E-02 0.  1.
    10030    2    1    2    0    0  0.00000000000E+00  0.00000000000E+00 -0.33611879668E+03  0.15370431033E+04  0.14998418769E+04 0.  0.
        1    1    3    3  502    0 -0.53180183046E+03  0.44815200684E+03  0.11948518882E+03  0.70564163602E+03  0.50400001928E-02 0. -1.
       -1    1    3    3    0  502  0.53180183046E+03 -0.44815200684E+03 -0.45560398551E+03  0.83140146725E+03  0.50400001928E-02 0.  1.
</event>
<event>
 5   0  0.1588657E-05  0.1500990E+04  0.7818609E-02  0.8883795E-01
       -1   -1    0    0    0  501  0.00000000000E+00  0.00000000000E+00  0.84010873113E+03  0.84010873114E+03  0.50400001928E-02 0.  1.
        1   -1    0    0  501    0  0.00000000000E+00  0.00000000000E+00 -0.67043986257E+03  0.67043986259E+03  0.50400001928E-02 0. -1.
    10030    2    1    2    0    0  0.00000000000E+00  0.00000000000E+00  0.16966886856E+03  0.15105485937E+04  0.15009895166E+04 0.  0.
        3    1    3    3  502    0 -0.44755417720E+03 -0.57365915860E+03  0.26999749094E+03  0.77607230790E+03  0.10100000352E+00 0.  1.
       -3    1    3    3    0  502  0.44755417720E+03  0.57365915860E+03 -0.10032862238E+03  0.73447628583E+03  0.10100000352E+00 0. -1.
</event>
<event>
 5   0  0.1576214E-05  0.1500438E+04  0.7818609E-02  0.8884162E-01
        1   -1    0    0  501    0  0.00000000000E+00  0.00000000000E+00  0.74115197301E+03  0.74115197303E+03  0.50400001928E-02 0. -1.
       -1   -1    0    0    0  501  0.00000000000E+00  0.00000000000E+00 -0.75939646590E+03  0.75939646592E+03  0.50400001928E-02 0.  1.
    10030    2    1    2    0    0  0.00000000000E+00  0.00000000000E+00 -0.18244492885E+02  0.15005484389E+04  0.15004375216E+04 0.  0.
        1    1    3    3  502    0  0.25692585434E+03  0.35766716207E+03 -0.61653152935E+03  0.75765943547E+03  0.50400001928E-02 0.  1.
       -1    1    3    3    0  502 -0.25692585434E+03 -0.35766716207E+03  0.59828703647E+03  0.74288900347E+03  0.50400001928E-02 0. -1.
</event>
<event>
 5   0  0.3070497E-05  0.1500581E+04  0.7818609E-02  0.8884067E-01
        2   -1    0    0  501    0  0.00000000000E+00  0.00000000000E+00  0.76336284242E+03  0.76336284243E+03  0.25500000920E-02 0. -1.
       -2   -1    0    0    0  501  0.00000000000E+00  0.00000000000E+00 -0.73744193774E+03  0.73744193775E+03  0.25500000920E-02 0.  1.
    10030    2    1    2    0    0  0.00000000000E+00  0.00000000000E+00  0.25920904676E+02  0.15008047802E+04  0.15005809191E+04 0.  0.
        4    1    3    3  502    0 -0.45620691032E+03 -0.64651194894E+02 -0.57926776592E+03  0.74017381713E+03  0.12699999809E+01 0.  1.
       -4    1    3    3    0  502  0.45620691032E+03  0.64651194894E+02  0.60518867060E+03  0.76063096305E+03  0.12699999809E+01 0. -1.
</event>
<event>
 5   0  0.3018308E-05  0.1500146E+04  0.7818609E-02  0.8884356E-01
       -2   -1    0    0    0  501  0.00000000000E+00  0.00000000000E+00  0.23533979540E+03  0.23533979542E+03  0.25500000920E-02 0. -1.
        2   -1    0    0  501    0  0.00000000000E+00  0.00000000000E+00 -0.23906276037E+04  0.23906276037E+04  0.25500000920E-02 0.  1.
    10030    2    1    2    0    0  0.00000000000E+00  0.00000000000E+00 -0.21552878083E+04  0.26259673991E+04  0.15001464077E+04 0.  0.
        2    1    3    3  502    0  0.25832241070E+03 -0.25881058103E+03 -0.22240326069E+04  0.22538931699E+04  0.25500000920E-02 0.  1.
       -2    1    3    3    0  502 -0.25832241070E+03  0.25881058103E+03  0.68744798590E+02  0.37207422924E+03  0.25500000920E-02 0. -1.
</event>
<event>
 5   0  0.3018308E-05  0.1499969E+04  0.7818609E-02  0.8884473E-01
       -2   -1    0    0    0  501  0.00000000000E+00  0.00000000000E+00  0.39641657997E+03  0.39641657998E+03  0.25500000920E-02 0. -1.
        2   -1    0    0  501    0  0.00000000000E+00  0.00000000000E+00 -0.14189035640E+04  0.14189035640E+04  0.25500000920E-02 0.  1.
    10030    2    1    2    0    0  0.00000000000E+00  0.00000000000E+00 -0.10224869840E+04  0.18153201440E+04  0.14999691972E+04 0.  0.
        2    1    3    3  502    0 -0.56214876453E+03 -0.24357087854E+03 -0.10347871619E+04  0.12025483262E+04  0.25500000920E-02 0.  1.
       -2    1    3    3    0  502  0.56214876453E+03  0.24357087854E+03  0.12300177861E+02  0.61277181782E+03  0.25500000920E-02 0. -1.
</event>
<event>
 5   0  0.3093600E-05  0.1499898E+04  0.7818609E-02  0.8884521E-01
       -2   -1    0    0    0  501  0.00000000000E+00  0.00000000000E+00  0.12928055878E+04  0.12928055878E+04  0.25500000920E-02 0.  1.
        2   -1    0    0  501    0  0.00000000000E+00  0.00000000000E+00 -0.43504117499E+03  0.43504117500E+03  0.25500000920E-02 0. -1.
    10030    2    1    2    0    0  0.00000000000E+00  0.00000000000E+00  0.85776441277E+03  0.17278467628E+04  0.14998982125E+04 0.  0.
        1    1    3    3  502    0 -0.21176441690E+03 -0.17498651214E+02 -0.39963868417E+03  0.45261622702E+03  0.50400001928E-02 0. -1.
       -1    1    3    3    0  502  0.21176441690E+03  0.17498651214E+02  0.12574030969E+04  0.12752305357E+04  0.50400001928E-02 0.  1.
</event>
<event>
 5   0  0.3030702E-05  0.1500946E+04  0.7818609E-02  0.8883824E-01
       -2   -1    0    0    0  501  0.00000000000E+00  0.00000000000E+00  0.58306715525E+03  0.58306715525E+03  0.25500000920E-02 0.  1.
        2   -1    0    0  501    0  0.00000000000E+00  0.00000000000E+00 -0.96594360608E+03  0.96594360608E+03  0.25500000920E-02 0. -1.
    10030    2    1    2    0    0  0.00000000000E+00  0.00000000000E+00 -0.38287645083E+03  0.15490107613E+04  0.15009463555E+04 0.  0.
        5    1    3    3  502    0 -0.37694688292E+03 -0.85426274693E+02 -0.85531150568E+03  0.93859813696E+03  0.46999998093E+01 0. -1.
       -5    1    3    3    0  502  0.37694688292E+03  0.85426274693E+02  0.47243505485E+03  0.61041262438E+03  0.46999998093E+01 0.  1.
</event>
<event>
 5   0  0.1580078E-05  0.1502168E+04  0.7818609E-02  0.8883013E-01
        1   -1    0    0  501    0  0.00000000000E+00  0.00000000000E+00  0.68437892401E+03  0.68437892403E+03  0.50400001928E-02 0.  1.
       -1   -1    0    0    0  501  0.00000000000E+00  0.00000000000E+00 -0.82429043327E+03  0.82429043329E+03  0.50400001928E-02 0. -1.
    10030    2    1    2    0    0  0.00000000000E+00  0.00000000000E+00 -0.13991150926E+03  0.15086693573E+04  0.15021677667E+04 0.  0.
        2    1    3    3  502    0 -0.23816324214E+03 -0.48473156910E+03 -0.59417326737E+03  0.80294974666E+03  0.25500000920E-02 0. -1.
       -2    1    3    3    0  502  0.23816324214E+03  0.48473156910E+03  0.45426175810E+03  0.70571961066E+03  0.25500000920E-02 0.  1.
</event>
<event>
 5   0  0.1588657E-05  0.1500431E+04  0.7818609E-02  0.8884166E-01
       -1   -1    0    0    0  501  0.00000000000E+00  0.00000000000E+00  0.79328619226E+03  0.79328619228E+03  0.50400001928E-02 0. -1.
        1   -1    0    0  501    0  0.00000000000E+00  0.00000000000E+00 -0.70948344097E+03  0.70948344099E+03  0.50400001928E-02 0.  1.
    10030    2    1    2    0    0  0.00000000000E+00  0.00000000000E+00  0.83802751292E+02  0.15027696333E+04  0.15004311612E+04 0.  0.
        3    1    3    3  502    0 -0.38690994539E+03  0.20576028698E+03  0.65177306175E+03  0.78539463696E+03  0.10100000352E+00 0. -1.
       -3    1    3    3    0  502  0.38690994539E+03 -0.20576028698E+03 -0.56797031046E+03  0.71737499630E+03  0.10100000352E+00 0.  1.
</event>
<event>
 5   0  0.1576214E-05  0.1500244E+04  0.7818609E-02  0.8884291E-01
        1   -1    0    0  501    0  0.00000000000E+00  0.00000000000E+00  0.61894036369E+03  0.61894036371E+03  0.50400001928E-02 0.  1.
       -1   -1    0    0    0  501  0.00000000000E+00  0.00000000000E+00 -0.90910707414E+03  0.90910707416E+03  0.50400001928E-02 0. -1.
    10030    2    1    2    0    0  0.00000000000E+00  0.00000000000E+00 -0.29016671045E+03  0.15280474379E+04  0.15002440643E+04 0.  0.
        1    1    3    3  502    0 -0.36244071291E+03  0.61664455627E+03  0.85089870521E+02  0.72031525407E+03  0.50400001928E-02 0. -1.
       -1    1    3    3    0  502  0.36244071291E+03 -0.61664455627E+03 -0.37525658097E+03  0.80773218380E+03  0.50400001928E-02 0.  1.
</event>
<event>
 5   0  0.1580078E-05  0.1498500E+04  0.7818609E-02  0.8885451E-01
       -1   -1    0    0    0  501  0.00000000000E+00  0.00000000000E+00  0.46252272014E+03  0.46252272017E+03  0.50400001928E-02 0. -1.
        1   -1    0    0  501    0  0.00000000000E+00  0.00000000000E+00 -0.12137259828E+04  0.12137259828E+04  0.50400001928E-02 0.  1.
    10030    2    1    2    0    0  0.00000000000E+00  0.00000000000E+00 -0.75120326265E+03  0.16762487030E+04  0.14985003745E+04 0.  0.
        2    1    3    3  502    0  0.40463575131E+03 -0.40316346307E+03 -0.91799267254E+03  0.10811944395E+04  0.25500000920E-02 0.  1.
       -2    1    3    3    0  502 -0.40463575131E+03  0.40316346307E+03  0.16678940988E+03  0.59505426345E+03  0.25500000920E-02 0. -1.
</event>
<event>
 5   0  0.2969498E-05  0.1499323E+04  0.7818609E-02  0.8884903E-01
       -2   -1    0    0    0  501  0.00000000000E+00  0.00000000000E+00  0.46857210977E+03  0.46857210978E+03  0.25500000920E-02 0.  1.
        2   -1    0    0  501    0  0.00000000000E+00  0.00000000000E+00 -0.11993725531E+04  0.11993725531E+04  0.25500000920E-02 0. -1.
    10030    2    1    2    0    0  0.00000000000E+00  0.00000000000E+00 -0.73080044331E+03  0.16679446629E+04  0.14993232175E+04 0.  0.
        3    1    3    3  502    0 -0.31952933962E+03  0.57927382423E+03 -0.75766895339E+03  0.10058426395E+04  0.10100000352E+00 0.  1.
       -3    1    3    3    0  502  0.31952933962E+03 -0.57927382423E+03  0.26868510081E+02  0.66210202336E+03  0.10100000352E+00 0. -1.
</event>
<event>
 5   0  0.1580078E-05  0.1499892E+04  0.7818609E-02  0.8884525E-01
       -1   -1    0    0    0  501  0.00000000000E+00  0.00000000000E+00  0.90836119398E+03  0.90836119400E+03  0.50400001928E-02 0. -1.
        1   -1    0    0  501    0  0.00000000000E+00  0.00000000000E+00 -0.61915758828E+03  0.61915758830E+03  0.50400001928E-02 0.  1.
    10030    2    1    2    0    0  0.00000000000E+00  0.00000000000E+00  0.28920360570E+03  0.15275187823E+04  0.14998916310E+04 0.  0.
        2    1    3    3  502    0  0.29352142983E+03 -0.77924053554E+02  0.84293738975E+03  0.89597457047E+03  0.25500000920E-02 0. -1.
       -2    1    3    3    0  502 -0.29352142983E+03  0.77924053554E+02 -0.55373378405E+03  0.63154421183E+03  0.25500000920E-02 0.  1.
</event>
<event>
 5   0  0.3030702E-05  0.1500193E+04  0.7818609E-02  0.8884325E-01
        2   -1    0    0  501    0  0.00000000000E+00  0.00000000000E+00  0.23375163308E+04  0.23375163308E+04  0.25500000920E-02 0. -1.
       -2   -1    0    0    0  501  0.00000000000E+00  0.00000000000E+00 -0.24070181669E+03  0.24070181670E+03  0.25500000920E-02 0.  1.
    10030    2    1    2    0    0  0.00000000000E+00  0.00000000000E+00  0.20968145141E+04  0.25782181475E+04  0.15001925575E+04 0.  0.
        5    1    3    3  502    0 -0.37879118199E+03  0.26021255519E+03  0.29601347996E+02  0.46053410648E+03  0.46999998093E+01 0.  1.
       -5    1    3    3    0  502  0.37879118199E+03 -0.26021255519E+03  0.20672131661E+04  0.21176840410E+04  0.46999998093E+01 0. -1.
</event>
<event>
 5   0  0.3093600E-05  0.1499912E+04  0.7818609E-02  0.8884511E-01
        2   -1    0    0  501    0  0.00000000000E+00  0.00000000000E+00  0.96465924996E+03  0.96465924997E+03  0.25500000920E-02 0. -1.
       -2   -1    0    0    0  501  0.00000000000E+00  0.00000000000E+00 -0.58303940436E+03  0.58303940436E+03  0.25500000920E-02 0.  1.
    10030    2    1    2    0    0  0.00000000000E+00  0.00000000000E+00  0.38161984561E+03  0.15476986543E+04  0.14999124701E+04 0.  0.
        1    1    3    3  502    0 -0.32227934188E+03 -0.20411845407E+03 -0.47544369631E+03  0.60956954146E+03  0.50400001928E-02 0.  1.
       -1    1    3    3    0  502  0.32227934188E+03  0.20411845407E+03  0.85706354192E+03  0.93812911286E+03  0.50400001928E-02 0. -1.
</event>
<event>
 5   0  0.1533777E-05  0.1499735E+04  0.7818609E-02  0.8884629E-01
        1   -1    0    0  501    0  0.00000000000E+00  0.00000000000E+00  0.99354437087E+03  0.99354437088E+03  0.50400001928E-02 0.  1.
       -1   -1    0    0    0  501  0.00000000000E+00  0.00000000000E+00 -0.56595507574E+03  0.56595507577E+03  0.50400001928E-02 0. -1.
    10030    2    1    2    0    0  0.00000000000E+00  0.00000000000E+00  0.42758929513E+03  0.15594994466E+04  0.14997352829E+04 0.  0.
        5    1    3    3  502    0  0.15703717220E+03 -0.22016831276E+03 -0.51346461511E+03  0.58034710335E+03  0.46999998093E+01 0. -1.
       -5    1    3    3    0  502 -0.15703717220E+03  0.22016831276E+03  0.94105391024E+03  0.97915234329E+03  0.46999998093E+01 0.  1.
</event>
<event>
 5   0  0.1588657E-05  0.1498706E+04  0.7818609E-02  0.8885314E-01
        1   -1    0    0  501    0  0.00000000000E+00  0.00000000000E+00  0.25080633750E+04  0.25080633750E+04  0.50400001928E-02 0.  1.
       -1   -1    0    0    0  501  0.00000000000E+00  0.00000000000E+00 -0.22388977446E+03  0.22388977452E+03  0.50400001928E-02 0. -1.
    10030    2    1    2    0    0  0.00000000000E+00  0.00000000000E+00  0.22841736005E+04  0.27319531495E+04  0.14987057663E+04 0.  0.
        3    1    3    3  502    0  0.84615604868E+02  0.65155126339E+03  0.48521695685E+03  0.81677068681E+03  0.10100000352E+00 0. -1.
       -3    1    3    3    0  502 -0.84615604868E+02 -0.65155126339E+03  0.17989566437E+04  0.19151824627E+04  0.10100000352E+00 0.  1.
</event>
<event>
 5   0  0.1576214E-05  0.1498942E+04  0.7818609E-02  0.8885157E-01
        1   -1    0    0  501    0  0.00000000000E+00  0.00000000000E+00  0.90118388569E+03  0.90118388570E+03  0.50400001928E-02 0.  1.
       -1   -1    0    0    0  501  0.00000000000E+00  0.00000000000E+00 -0.62329890045E+03  0.62329890047E+03  0.50400001928E-02 0. -1.
    10030    2    1    2    0    0  0.00000000000E+00  0.00000000000E+00  0.27788498524E+03  0.15244827862E+04  0.14989421938E+04 0.  0.
        1    1    3    3  502    0  0.71614554871E+03 -0.19562750246E+03  0.24351645851E+03  0.78130329082E+03  0.50400001928E-02 0.  1.
       -1    1    3    3    0  502 -0.71614554871E+03  0.19562750246E+03  0.34368526731E+02  0.74317949535E+03  0.50400001928E-02 0. -1.
</event>
<event>
 5   0  0.1533777E-05  0.1500770E+04  0.7818609E-02  0.8883941E-01
       -1   -1    0    0    0  501  0.00000000000E+00  0.00000000000E+00  0.52970700558E+03  0.52970700560E+03  0.50400001928E-02 0. -1.
        1   -1    0    0  501    0  0.00000000000E+00  0.00000000000E+00 -0.10629988788E+04  0.10629988788E+04  0.50400001928E-02 0.  1.
    10030    2    1    2    0    0  0.00000000000E+00  0.00000000000E+00 -0.53329187318E+03  0.15927058844E+04  0.15007704062E+04 0.  0.
        5    1    3    3  502    0  0.11801309206E+03 -0.12218002311E+03  0.50901800095E+03  0.53663438507E+03  0.46999998093E+01 0. -1.
       -5    1    3    3    0  502 -0.11801309206E+03  0.12218002311E+03 -0.10423098741E+04  0.10560714993E+04  0.46999998093E+01 0.  1.
</event>
<event>
 5   0  0.3018308E-05  0.1499268E+04  0.7818609E-02  0.8884940E-01
       -2   -1    0    0    0  501  0.00000000000E+00  0.00000000000E+00  0.42666634567E+03  0.42666634568E+03  0.25500000920E-02 0. -1.
        2   -1    0    0  501    0  0.00000000000E+00  0.00000000000E+00 -0.13170734149E+04  0.13170734149E+04  0.25500000920E-02 0.  1.
    10030    2    1    2    0    0  0.00000000000E+00  0.00000000000E+00 -0.89040706921E+03  0.17437397606E+04  0.14992676891E+04 0.  0.
        2    1    3    3  502    0 -0.54951796873E+01 -0.64243761716E+02 -0.13138422683E+04  0.13154234922E+04  0.25500000920E-02 0.  1.
       -2    1    3    3    0  502  0.54951796873E+01  0.64243761716E+02  0.42343519907E+03  0.42831626835E+03  0.25500000920E-02 0. -1.
</event>
<event>
 5   0  0.1580078E-05  0.1501307E+04  0.7818609E-02  0.8883584E-01
       -1   -1    0    0    0  501  0.00000000000E+00  0.00000000000E+00  0.12426011389E+04  0.12426011389E+04  0.50400001928E-02 0. -1.
        1   -1    0    0  501    0  0.00000000000E+00  0.00000000000E+00 -0.45346847804E+03  0.45346847807E+03  0.50400001928E-02 0.  1.
    10030    2    1    2    0    0  0.00000000000E+00  0.00000000000E+00  0.78913266082E+03  0.16960696169E+04  0.15013066939E+04 0.  0.
        2    1    3    3  502    0 -0.34296276581E+03  0.39989257066E+03 -0.20954075240E+03  0.56696106897E+03  0.25500000920E-02 0.  1.
       -2    1    3    3    0  502  0.34296276581E+03 -0.39989257066E+03  0.99867341322E+03  0.11291085480E+04  0.25500000920E-02 0. -1.
</event>
<event>
 5   0  0.3030702E-05  0.1496705E+04  0.7818609E-02  0.8886647E-01
       -2   -1    0    0    0  501  0.00000000000E+00  0.00000000000E+00  0.35487486919E+03  0.35487486920E+03  0.25500000920E-02 0. -1.
        2   -1    0    0  501    0  0.00000000000E+00  0.00000000000E+00 -0.15781100570E+04  0.15781100570E+04  0.25500000920E-02 0.  1.
    10030    2    1    2    0    0  0.00000000000E+00  0.00000000000E+00 -0.12232351878E+04  0.19329849262E+04  0.14967051815E+04 0.  0.
        5    1    3    3  502    0  0.27037457192E+03  0.29106304610E+03 -0.14306621301E+04  0.14848017802E+04  0.46999998093E+01 0.  1.
       -5    1    3    3    0  502 -0.27037457192E+03 -0.29106304610E+03  0.20742694232E+03  0.44818314598E+03  0.46999998093E+01 0. -1.
</event>
<event>
 5   0  0.1576214E-05  0.1499646E+04  0.7818609E-02  0.8884689E-01
       -1   -1    0    0    0  501  0.00000000000E+00  0.00000000000E+00  0.15254748672E+04  0.15254748672E+04  0.50400001928E-02 0.  1.
        1   -1    0    0  501    0  0.00000000000E+00  0.00000000000E+00 -0.36856342448E+03  0.36856342451E+03  0.50400001928E-02 0. -1.
    10030    2    1    2    0    0  0.00000000000E+00  0.00000000000E+00  0.11569114427E+04  0.18940382917E+04  0.14996456129E+04 0.  0.
        1    1    3    3  502    0 -0.20523722185E+03  0.38596831075E+03 -0.19097446678E+03  0.47703784035E+03  0.50400001928E-02 0. -1.
       -1    1    3    3    0  502  0.20523722185E+03 -0.38596831075E+03  0.13478859095E+04  0.14170004513E+04  0.50400001928E-02 0.  1.
</event>
<event>
 5   0  0.2969498E-05  0.1500477E+04  0.7818609E-02  0.8884135E-01
        2   -1    0    0  501    0  0.00000000000E+00  0.00000000000E+00  0.11040447703E+04  0.11040447703E+04  0.25500000920E-02 0. -1.
       -2   -1    0    0    0  501  0.00000000000E+00  0.00000000000E+00 -0.50981460279E+03  0.50981460280E+03  0.25500000920E-02 0.  1.
    10030    2    1    2    0    0  0.00000000000E+00  0.00000000000E+00  0.59423016748E+03  0.16138593731E+04  0.15004774521E+04 0.  0.
        3    1    3    3  502    0  0.36937000575E+03  0.63014707596E+03  0.11288697716E+03  0.73909608192E+03  0.10100000352E+00 0.  1.
       -3    1    3    3    0  502 -0.36937000575E+03 -0.63014707596E+03  0.48134319033E+03  0.87476329116E+03  0.10100000352E+00 0. -1.
</event>
<event>
 5   0  0.3030702E-05  0.1499189E+04  0.7818609E-02  0.8884992E-01
       -2   -1    0    0    0  501  0.00000000000E+00  0.00000000000E+00  0.42539476993E+03  0.42539476994E+03  0.25500000920E-02 0. -1.
        2   -1    0    0  501    0  0.00000000000E+00  0.00000000000E+00 -0.13208718167E+04  0.13208718167E+04  0.25500000920E-02 0.  1.
    10030    2    1    2    0    0  0.00000000000E+00  0.00000000000E+00 -0.89547704676E+03  0.17462665866E+04  0.14991890642E+04 0.  0.
        5    1    3    3  502    0  0.29167134269E+03 -0.10044290288E+03 -0.12434895197E+04  0.12811905496E+04  0.46999998093E+01 0.  1.
       -5    1    3    3    0  502 -0.29167134269E+03  0.10044290288E+03  0.34801247293E+03  0.46507603701E+03  0.46999998093E+01 0. -1.
</event>
<event>
 5   0  0.3030702E-05  0.1499852E+04  0.7818609E-02  0.8884551E-01
       -2   -1    0    0    0  501  0.00000000000E+00  0.00000000000E+00  0.70991566050E+03  0.70991566050E+03  0.25500000920E-02 0. -1.
        2   -1    0    0  501    0  0.00000000000E+00  0.00000000000E+00 -0.79219121025E+03  0.79219121025E+03  0.25500000920E-02 0.  1.
    10030    2    1    2    0    0  0.00000000000E+00  0.00000000000E+00 -0.82275549751E+02  0.15021068708E+04  0.14998519211E+04 0.  0.
        5    1    3    3  502    0  0.94085995287E+02  0.66690498048E+02 -0.78324240908E+03  0.79170105369E+03  0.46999998093E+01 0.  1.
       -5    1    3    3    0  502 -0.94085995287E+02 -0.66690498048E+02  0.70096685933E+03  0.71040581706E+03  0.46999998093E+01 0. -1.
</event>
<event>
 5   0  0.2969498E-05  0.1500460E+04  0.7818609E-02  0.8884147E-01
       -2   -1    0    0    0  501  0.00000000000E+00  0.00000000000E+00  0.92808350712E+03  0.92808350712E+03  0.25500000920E-02 0.  1.
        2   -1    0    0  501    0  0.00000000000E+00  0.00000000000E+00 -0.60645949745E+03  0.60645949746E+03  0.25500000920E-02 0. -1.
    10030    2    1    2    0    0  0.00000000000E+00  0.00000000000E+00  0.32162400967E+03  0.15345430046E+04  0.15004600059E+04 0.  0.
        3    1    3    3  502    0 -0.82716242900E+02 -0.73460326645E+03  0.29995952845E+02  0.73985383915E+03  0.10100000352E+00 0. -1.
       -3    1    3    3    0  502  0.82716242900E+02  0.73460326645E+03  0.29162805682E+03  0.79468916543E+03  0.10100000352E+00 0.  1.
</event>
<event>
 5   0  0.1576214E-05  0.1499688E+04  0.7818609E-02  0.8884661E-01
       -1   -1    0    0    0  501  0.00000000000E+00  0.00000000000E+00  0.84402184095E+03  0.84402184097E+03  0.50400001928E-02 0.  1.
        1   -1    0    0  501    0  0.00000000000E+00  0.00000000000E+00 -0.66617460665E+03  0.66617460667E+03  0.50400001928E-02 0. -1.
    10030    2    1    2    0    0  0.00000000000E+00  0.00000000000E+00  0.17784723430E+03  0.15101964476E+04  0.14996878581E+04 0.  0.
        1    1    3    3  502    0  0.30778390835E+03 -0.28366988580E+03 -0.53758246889E+03  0.68131817034E+03  0.50400001928E-02 0. -1.
       -1    1    3    3    0  502 -0.30778390835E+03  0.28366988580E+03  0.71542970319E+03  0.82887827730E+03  0.50400001928E-02 0.  1.
</event>
<event>
 5   0  0.1643498E-05  0.1499824E+04  0.7818609E-02  0.8884570E-01
        1   -1    0    0  501    0  0.00000000000E+00  0.00000000000E+00  0.65769980502E+03  0.65769980504E+03  0.50400001928E-02 0.  1.
       -1   -1    0    0    0  501  0.00000000000E+00  0.00000000000E+00 -0.85505270819E+03  0.85505270820E+03  0.50400001928E-02 0. -1.
    10030    2    1    2    0    0  0.00000000000E+00  0.00000000000E+00 -0.19735290317E+03  0.15127525132E+04  0.14998239890E+04 0.  0.
        4    1    3    3  502    0 -0.31714427165E+03 -0.63977599151E+03 -0.32971996988E+03  0.78651807341E+03  0.12699999809E+01 0. -1.
       -4    1    3    3    0  502  0.31714427165E+03  0.63977599151E+03  0.13236706672E+03  0.72623443984E+03  0.12699999809E+01 0.  1.
</event>
<event>
 5   0  0.1533777E-05  0.1499239E+04  0.7818609E-02  0.8884959E-01
        1   -1    0    0  501    0  0.00000000000E+00  0.00000000000E+00  0.78490961306E+03  0.78490961308E+03  0.50400001928E-02 0.  1.
       -1   -1    0    0    0  501  0.00000000000E+00  0.00000000000E+00 -0.71591615163E+03  0.71591615165E+03  0.50400001928E-02 0. -1.
    10030    2    1    2    0    0  0.00000000000E+00  0.00000000000E+00  0.68993461428E+02  0.15008257647E+04  0.14992390998E+04 0.  0.
        5    1    3    3  502    0  0.33832651169E+03 -0.20445513469E+03 -0.60307655389E+03  0.72110342563E+03  0.46999998093E+01 0. -1.
       -5    1    3    3    0  502 -0.33832651169E+03  0.20445513469E+03  0.67207001531E+03  0.77972233910E+03  0.46999998093E+01 0.  1.
</event>
<event>
 5   0  0.3018308E-05  0.1499956E+04  0.7818609E-02  0.8884482E-01
       -2   -1    0    0    0  501  0.00000000000E+00  0.00000000000E+00  0.38172706407E+03  0.38172706407E+03  0.25500000920E-02 0. -1.
        2   -1    0    0  501    0  0.00000000000E+00  0.00000000000E+00 -0.14734791611E+04  0.14734791611E+04  0.25500000920E-02 0.  1.
    10030    2    1    2    0    0  0.00000000000E+00  0.00000000000E+00 -0.10917520970E+04  0.18552062252E+04  0.14999558315E+04 0.  0.
        2    1    3    3  502    0 -0.27399720550E+03  0.24682167666E+03 -0.13535920959E+04  0.14029279992E+04  0.25500000920E-02 0.  1.
       -2    1    3    3    0  502  0.27399720550E+03 -0.24682167666E+03  0.26183999889E+03  0.45227822600E+03  0.25500000920E-02 0. -1.
</event>
<event>
 5   0  0.1588657E-05  0.1500598E+04  0.7818609E-02  0.8884055E-01
        1   -1    0    0  501    0  0.00000000000E+00  0.00000000000E+00  0.74497569119E+03  0.74497569120E+03  0.50400001928E-02 0.  1.
       -1   -1    0    0    0  501  0.00000000000E+00  0.00000000000E+00 -0.75566024768E+03  0.75566024770E+03  0.50400001928E-02 0. -1.
    10030    2    1    2    0    0  0.00000000000E+00  0.00000000000E+00 -0.10684556493E+02  0.15006359389E+04  0.15005979013E+04 0.  0.
        3    1    3    3  502    0 -0.78510449854E+02  0.38725842993E+03 -0.64317936347E+03  0.75485938166E+03  0.10100000352E+00 0. -1.
       -3    1    3    3    0  502  0.78510449854E+02 -0.38725842993E+03  0.63249480697E+03  0.74577655724E+03  0.10100000352E+00 0.  1.
</event>
<event>
 5   0  0.1643498E-05  0.1499904E+04  0.7818609E-02  0.8884517E-01
        1   -1    0    0  501    0  0.00000000000E+00  0.00000000000E+00  0.93437589938E+03  0.93437589939E+03  0.50400001928E-02 0. -1.
       -1   -1    0    0    0  501  0.00000000000E+00  0.00000000000E+00 -0.60192917913E+03  0.60192917916E+03  0.50400001928E-02 0.  1.
    10030    2    1    2    0    0  0.00000000000E+00  0.00000000000E+00  0.33244672024E+03  0.15363050785E+04  0.14999041545E+04 0.  0.
        4    1    3    3  502    0  0.22070193657E+03  0.26712842113E+02 -0.56740169979E+03  0.60940070771E+03  0.12699999809E+01 0.  1.
       -4    1    3    3    0  502 -0.22070193657E+03 -0.26712842113E+02  0.89984842003E+03  0.92690437083E+03  0.12699999809E+01 0. -1.
</event>
<event>
 5   0  0.3070497E-05  0.1500577E+04  0.7818609E-02  0.8884069E-01
        2   -1    0    0  501    0  0.00000000000E+00  0.00000000000E+00  0.12481864164E+04  0.12481864164E+04  0.25500000920E-02 0.  1.
       -2   -1    0    0    0  501  0.00000000000E+00  0.00000000000E+00 -0.45100062995E+03  0.45100062996E+03  0.25500000920E-02 0. -1.
    10030    2    1    2    0    0  0.00000000000E+00  0.00000000000E+00  0.79718578641E+03  0.16991870463E+04  0.15005770358E+04 0.  0.
        4    1    3    3  502    0  0.41353483040E+02 -0.71076098214E+03  0.66665276912E+03  0.97535573601E+03  0.12699999809E+01 0.  1.
       -4    1    3    3    0  502 -0.41353483040E+02  0.71076098214E+03  0.13053301729E+03  0.72383131032E+03  0.12699999809E+01 0. -1.
</event>
<event>
 5   0  0.1643498E-05  0.1500358E+04  0.7818609E-02  0.8884215E-01
       -1   -1    0    0    0  501  0.00000000000E+00  0.00000000000E+00  0.11881384605E+04  0.11881384605E+04  0.50400001928E-02 0.  1.
        1   -1    0    0  501    0  0.00000000000E+00  0.00000000000E+00 -0.47365595569E+03  0.47365595572E+03  0.50400001928E-02 0. -1.
    10030    2    1    2    0    0  0.00000000000E+00  0.00000000000E+00  0.71448250476E+03  0.16617944162E+04  0.15003584345E+04 0.  0.
        4    1    3    3  502    0 -0.63104781614E+03 -0.38000238091E+03  0.51444253710E+03  0.89848533245E+03  0.12699999809E+01 0.  1.
       -4    1    3    3    0  502  0.63104781614E+03  0.38000238091E+03  0.20003996766E+03  0.76330908374E+03  0.12699999809E+01 0. -1.
</event>
<event>
 5   0  0.1643498E-05  0.1499658E+04  0.7818609E-02  0.8884681E-01
        1   -1    0    0  501    0  0.00000000000E+00  0.00000000000E+00  0.15577502092E+04  0.15577502092E+04  0.50400001928E-02 0.  1.
       -1   -1    0    0    0  501  0.00000000000E+00  0.00000000000E+00 -0.36093288002E+03  0.36093288006E+03  0.50400001928E-02 0. -1.
    10030    2    1    2    0    0  0.00000000000E+00  0.00000000000E+00  0.11968173292E+04  0.19186830893E+04  0.14996576535E+04 0.  0.
        4    1    3    3  502    0  0.14167383869E+02  0.72094547088E+03  0.33533870193E+03  0.79524634212E+03  0.12699999809E+01 0.  1.
       -4    1    3    3    0  502 -0.14167383869E+02 -0.72094547088E+03  0.86147862725E+03  0.11234367472E+04  0.12699999809E+01 0. -1.
</event>
<event>
 5   0  0.1576214E-05  0.1496273E+04  0.7818609E-02  0.8886935E-01
       -1   -1    0    0    0  501  0.00000000000E+00  0.00000000000E+00  0.58240071107E+03  0.58240071109E+03  0.50400001928E-02 0. -1.
        1   -1    0    0  501    0  0.00000000000E+00  0.00000000000E+00 -0.96103603427E+03  0.96103603429E+03  0.50400001928E-02 0.  1.
    10030    2    1    2    0    0  0.00000000000E+00  0.00000000000E+00 -0.37863532320E+03  0.15434367454E+04  0.14962727957E+04 0.  0.
        1    1    3    3  502    0 -0.23280826466E+03  0.18776657902E+03  0.51804710549E+03  0.59818791347E+03  0.50400001928E-02 0. -1.
       -1    1    3    3    0  502  0.23280826466E+03 -0.18776657902E+03 -0.89668242869E+03  0.94524883191E+03  0.50400001928E-02 0.  1.
</event>
<event>
 5   0  0.3093600E-05  0.1500041E+04  0.7818609E-02  0.8884426E-01
       -2   -1    0    0    0  501  0.00000000000E+00  0.00000000000E+00  0.40490315338E+03  0.40490315339E+03  0.25500000920E-02 0. -1.
        2   -1    0    0  501    0  0.00000000000E+00  0.00000000000E+00 -0.13892970475E+04  0.13892970475E+04  0.25500000920E-02 0.  1.
    10030    2    1    2    0    0  0.00000000000E+00  0.00000000000E+00 -0.98439389413E+03  0.17942002009E+04  0.15000410068E+04 0.  0.
        1    1    3    3  502    0  0.62294337885E+03 -0.89063134217E+02 -0.40763562453E+01  0.62929111851E+03  0.50400001928E-02 0. -1.
       -1    1    3    3    0  502 -0.62294337885E+03  0.89063134217E+02 -0.98031753788E+03  0.11649090824E+04  0.50400001928E-02 0.  1.
</event>
<event>
 5   0  0.1588657E-05  0.1496470E+04  0.7818609E-02  0.8886804E-01
       -1   -1    0    0    0  501  0.00000000000E+00  0.00000000000E+00  0.85162868475E+03  0.85162868477E+03  0.50400001928E-02 0. -1.
        1   -1    0    0  501    0  0.00000000000E+00  0.00000000000E+00 -0.65739410508E+03  0.65739410510E+03  0.50400001928E-02 0.  1.
    10030    2    1    2    0    0  0.00000000000E+00  0.00000000000E+00  0.19423457967E+03  0.15090227899E+04  0.14964700827E+04 0.  0.
        3    1    3    3  502    0  0.68425671512E+03  0.61139929129E+02  0.39610111895E+03  0.79299523942E+03  0.10100000352E+00 0. -1.
       -3    1    3    3    0  502 -0.68425671512E+03 -0.61139929129E+02 -0.20186653928E+03  0.71602755044E+03  0.10100000352E+00 0.  1.
</event>
<event>
 5   0  0.3018308E-05  0.1499146E+04  0.7818609E-02  0.8885021E-01
       -2   -1    0    0    0  501  0.00000000000E+00  0.00000000000E+00  0.79400093339E+03  0.79400093340E+03  0.25500000920E-02 0. -1.
        2   -1    0    0  501    0  0.00000000000E+00  0.00000000000E+00 -0.70763076246E+03  0.70763076246E+03  0.25500000920E-02 0.  1.
    10030    2    1    2    0    0  0.00000000000E+00  0.00000000000E+00  0.86370170934E+02  0.15016316959E+04  0.14991457379E+04 0.  0.
        2    1    3    3  502    0 -0.16189854628E+03  0.54092764312E+03 -0.45062900963E+03  0.72241287274E+03  0.25500000920E-02 0.  1.
       -2    1    3    3    0  502  0.16189854628E+03 -0.54092764312E+03  0.53699918056E+03  0.77921882312E+03  0.25500000920E-02 0. -1.
</event>
<event>
 5   0  0.2969498E-05  0.1499521E+04  0.7818609E-02  0.8884772E-01
        2   -1    0    0  501    0  0.00000000000E+00  0.00000000000E+00  0.18345733822E+04  0.18345733822E+04  0.25500000920E-02 0.  1.
       -2   -1    0    0    0  501  0.00000000000E+00  0.00000000000E+00 -0.30641483135E+03  0.30641483136E+03  0.25500000920E-02 0. -1.
    10030    2    1    2    0    0  0.00000000000E+00  0.00000000000E+00  0.15281585509E+04  0.21409882136E+04  0.14995205814E+04 0.  0.
        3    1    3    3  502    0 -0.71007604627E+03  0.20646891115E+03  0.94070391053E+03  0.11965622676E+04  0.10100000352E+00 0.  1.
       -3    1    3    3    0  502  0.71007604627E+03 -0.20646891115E+03  0.58745464033E+03  0.94442594596E+03  0.10100000352E+00 0. -1.
</event>
<event>
 5   0  0.1116613E-05  0.1500100E+04  0.7818609E-02  0.8884387E-01
       -3   -1    0    0    0  501  0.00000000000E+00  0.00000000000E+00  0.84674677610E+03  0.84674678212E+03  0.10100000352E+00 0. -1.
        3   -1    0    0  501    0  0.00000000000E+00  0.00000000000E+00 -0.66439534815E+03  0.66439535582E+03  0.10100000352E+00 0.  1.
    10030    2    1    2    0    0  0.00000000000E+00  0.00000000000E+00  0.18235142795E+03  0.15111421379E+04  0.15000995026E+04 0.  0.
        3    1    3    3  502    0  0.29888895294E+03  0.47297200644E+03 -0.41203879417E+03  0.69484753951E+03  0.10100000352E+00 0.  1.
       -3    1    3    3    0  502 -0.29888895294E+03 -0.47297200644E+03  0.59439022213E+03  0.81629459843E+03  0.10100000352E+00 0. -1.
</event>
<event>
 5   0  0.1533777E-05  0.1500297E+04  0.7818609E-02  0.8884256E-01
       -1   -1    0    0    0  501  0.00000000000E+00  0.00000000000E+00  0.42394981965E+03  0.42394981968E+03  0.50400001928E-02 0. -1.
        1   -1    0    0  501    0  0.00000000000E+00  0.00000000000E+00 -0.13273332182E+04  0.13273332182E+04  0.50400001928E-02 0.  1.
    10030    2    1    2    0    0  0.00000000000E+00  0.00000000000E+00 -0.90338339857E+03  0.17512830379E+04  0.15002968753E+04 0.  0.
        5    1    3    3  502    0 -0.22130510994E+03 -0.31137574929E+01  0.38495140371E+03  0.44406679722E+03  0.46999998093E+01 0. -1.
       -5    1    3    3    0  502  0.22130510994E+03  0.31137574929E+01 -0.12883348023E+04  0.13072162407E+04  0.46999998093E+01 0.  1.
</event>
<event>
 5   0  0.3070497E-05  0.1500412E+04  0.7818609E-02  0.8884179E-01
       -2   -1    0    0    0  501  0.00000000000E+00  0.00000000000E+00  0.68292428084E+03  0.68292428085E+03  0.25500000920E-02 0. -1.
        2   -1    0    0  501    0  0.00000000000E+00  0.00000000000E+00 -0.82411630218E+03  0.82411630219E+03  0.25500000920E-02 0.  1.
    10030    2    1    2    0    0  0.00000000000E+00  0.00000000000E+00 -0.14119202134E+03  0.15070405830E+04  0.15004119874E+04 0.  0.
        4    1    3    3  502    0 -0.33550853438E+02 -0.73309708498E+03  0.85817438652E+02  0.73886618643E+03  0.12699999809E+01 0. -1.
       -4    1    3    3    0  502  0.33550853438E+02  0.73309708498E+03 -0.22700945999E+03  0.76817439660E+03  0.12699999809E+01 0.  1.
</event>
<event>
 5   0  0.3070497E-05  0.1499922E+04  0.7818609E-02  0.8884505E-01
       -2   -1    0    0    0  501  0.00000000000E+00  0.00000000000E+00  0.38115407519E+03  0.38115407520E+03  0.25500000920E-02 0. -1.
        2   -1    0    0  501    0  0.00000000000E+00  0.00000000000E+00 -0.14756283875E+04  0.14756283875E+04  0.25500000920E-02 0.  1.
    10030    2    1    2    0    0  0.00000000000E+00  0.00000000000E+00 -0.10944743124E+04  0.18567824627E+04  0.14999223625E+04 0.  0.
        4    1    3    3  502    0  0.34870429484E+03  0.31519032244E+03 -0.12706528734E+04  0.13548062453E+04  0.12699999809E+01 0.  1.
       -4    1    3    3    0  502 -0.34870429484E+03 -0.31519032244E+03  0.17617856109E+03  0.50197621745E+03  0.12699999809E+01 0. -1.
</event>
<event>
 5   0  0.3018308E-05  0.1499779E+04  0.7818609E-02  0.8884600E-01
       -2   -1    0    0    0  501  0.00000000000E+00  0.00000000000E+00  0.79891635788E+03  0.79891635789E+03  0.25500000920E-02 0.  1.
        2   -1    0    0  501    0  0.00000000000E+00  0.00000000000E+00 -0.70387117049E+03  0.70387117049E+03  0.25500000920E-02 0. -1.
    10030    2    1    2    0    0  0.00000000000E+00  0.00000000000E+00  0.95045187394E+02  0.15027875284E+04  0.14997789063E+04 0.  0.
        2    1    3    3  502    0  0.77403121169E+02  0.68364688021E+03  0.34639916517E+03  0.77029648943E+03  0.25500000920E-02 0.  1.
       -2    1    3    3    0  502 -0.77403121169E+02 -0.68364688021E+03 -0.25135397777E+03  0.73249103895E+03  0.25500000920E-02 0. -1.
</event>
<event>
 5   0  0.1533777E-05  0.1499922E+04  0.7818609E-02  0.8884505E-01
       -1   -1    0    0    0  501  0.00000000000E+00  0.00000000000E+00  0.77597322020E+03  0.77597322021E+03  0.50400001928E-02 0. -1.
        1   -1    0    0  501    0  0.00000000000E+00  0.00000000000E+00 -0.72482053776E+03  0.72482053778E+03  0.50400001928E-02 0.  1.
    10030    2    1    2    0    0  0.00000000000E+00  0.00000000000E+00  0.51152682434E+02  0.15007937580E+04  0.14999217670E+04 0.  0.
        5    1    3    3  502    0  0.21887206085E+03 -0.23405420382E+02 -0.69175497304E+03  0.72594753629E+03  0.46999998093E+01 0.  1.
       -5    1    3    3    0  502 -0.21887206085E+03  0.23405420382E+02  0.74290765547E+03  0.77484622170E+03  0.46999998093E+01 0. -1.
</event>
<event>
 5   0  0.2969498E-05  0.1499253E+04  0.7818609E-02  0.8884950E-01
       -2   -1    0    0    0  501  0.00000000000E+00  0.00000000000E+00  0.17377495466E+03  0.17377495467E+03  0.25500000920E-02 0. -1.
        2   -1    0    0  501    0  0.00000000000E+00  0.00000000000E+00 -0.32337207592E+04  0.32337207592E+04  0.25500000920E-02 0.  1.
    10030    2    1    2    0    0  0.00000000000E+00  0.00000000000E+00 -0.30599458046E+04  0.34074957139E+04  0.14992527183E+04 0.  0.
        3    1    3    3  502    0  0.31731309331E+03  0.53948532481E+03 -0.59230291539E+03  0.86171617639E+03  0.10100000352E+00 0. -1.
       -3    1    3    3    0  502 -0.31731309331E+03 -0.53948532481E+03 -0.24676428892E+04  0.25457795375E+04  0.10100000352E+00 0.  1.
</event>
<event>
 5   0  0.1116613E-05  0.1501528E+04  0.7818609E-02  0.8883438E-01
       -3   -1    0    0    0  501  0.00000000000E+00  0.00000000000E+00  0.21236869732E+03  0.21236872134E+03  0.10100000352E+00 0. -1.
        3   -1    0    0  501    0  0.00000000000E+00  0.00000000000E+00 -0.26540935548E+04  0.26540935568E+04  0.10100000352E+00 0.  1.
    10030    2    1    2    0    0  0.00000000000E+00  0.00000000000E+00 -0.24417248575E+04  0.28664622781E+04  0.15015277926E+04 0.  0.
        2    1    3    3  502    0 -0.52194178543E+03 -0.10054700218E+03 -0.20869185385E+03  0.57103871751E+03  0.25500000920E-02 0. -1.
       -2    1    3    3    0  502  0.52194178543E+03  0.10054700218E+03 -0.22330330037E+04  0.22954235606E+04  0.25500000920E-02 0.  1.
</event>
<event>
 5   0  0.1588657E-05  0.1497868E+04  0.7818609E-02  0.8885872E-01
       -1   -1    0    0    0  501  0.00000000000E+00  0.00000000000E+00  0.40753476094E+03  0.40753476097E+03  0.50400001928E-02 0. -1.
        1   -1    0    0  501    0  0.00000000000E+00  0.00000000000E+00 -0.13763295154E+04  0.13763295154E+04  0.50400001928E-02 0.  1.
    10030    2    1    2    0    0  0.00000000000E+00  0.00000000000E+00 -0.96879475441E+03  0.17838642763E+04  0.14978679782E+04 0.  0.
        3    1    3    3  502    0 -0.32636573578E+03 -0.56436625112E+03 -0.45398665301E+02  0.65351733558E+03  0.10100000352E+00 0. -1.
       -3    1    3    3    0  502  0.32636573578E+03  0.56436625112E+03 -0.92339608911E+03  0.11303469408E+04  0.10100000352E+00 0.  1.
</event>
<event>
 5   0  0.1116613E-05  0.1500503E+04  0.7818609E-02  0.8884118E-01
        3   -1    0    0  501    0  0.00000000000E+00  0.00000000000E+00  0.57245439891E+03  0.57245440782E+03  0.10100000352E+00 0. -1.
       -3   -1    0    0    0  501  0.00000000000E+00  0.00000000000E+00 -0.98327033860E+03  0.98327034379E+03  0.10100000352E+00 0.  1.
    10030    2    1    2    0    0  0.00000000000E+00  0.00000000000E+00 -0.41081593969E+03  0.15557247516E+04  0.15005031711E+04 0.  0.
        4    1    3    3  502    0  0.38163098488E+03 -0.46796873681E+03  0.25621803191E+03  0.65596207210E+03  0.12699999809E+01 0. -1.
       -4    1    3    3    0  502 -0.38163098488E+03  0.46796873681E+03 -0.66703397160E+03  0.89976267950E+03  0.12699999809E+01 0.  1.
</event>
<event>
 5   0  0.3070497E-05  0.1500670E+04  0.7818609E-02  0.8884007E-01
       -2   -1    0    0    0  501  0.00000000000E+00  0.00000000000E+00  0.43053732348E+03  0.43053732349E+03  0.25500000920E-02 0.  1.
        2   -1    0    0  501    0  0.00000000000E+00  0.00000000000E+00 -0.13076748575E+04  0.13076748575E+04  0.25500000920E-02 0. -1.
    10030    2    1    2    0    0  0.00000000000E+00  0.00000000000E+00 -0.87713753401E+03  0.17382121810E+04  0.15006702944E+04 0.  0.
        4    1    3    3  502    0  0.44827203333E+02  0.26255488321E+03 -0.12510719428E+04  0.12791118653E+04  0.12699999809E+01 0. -1.
       -4    1    3    3    0  502 -0.44827203333E+02 -0.26255488321E+03  0.37393440884E+03  0.45910031569E+03  0.12699999809E+01 0.  1.
</event>
<event>
 5   0  0.1643498E-05  0.1498800E+04  0.7818609E-02  0.8885251E-01
       -1   -1    0    0    0  501  0.00000000000E+00  0.00000000000E+00  0.33976040104E+03  0.33976040108E+03  0.50400001928E-02 0. -1.
        1   -1    0    0  501    0  0.00000000000E+00  0.00000000000E+00 -0.16529306211E+04  0.16529306211E+04  0.50400001928E-02 0.  1.
    10030    2    1    2    0    0  0.00000000000E+00  0.00000000000E+00 -0.13131702200E+04  0.19926910222E+04  0.14988000144E+04 0.  0.
        4    1    3    3  502    0 -0.41031963260E+03 -0.16192546671E+03  0.14886600798E+03  0.46555854508E+03  0.12699999809E+01 0. -1.
       -4    1    3    3    0  502  0.41031963260E+03  0.16192546671E+03 -0.14620362280E+04  0.15271324771E+04  0.12699999809E+01 0.  1.
</event>
<event>
 5   0  0.1588657E-05  0.1499692E+04  0.7818609E-02  0.8884658E-01
        1   -1    0    0  501    0  0.00000000000E+00  0.00000000000E+00  0.50565119934E+03  0.50565119937E+03  0.50400001928E-02 0.  1.
       -1   -1    0    0    0  501  0.00000000000E+00  0.00000000000E+00 -0.11119697064E+04  0.11119697064E+04  0.50400001928E-02 0. -1.
    10030    2    1    2    0    0  0.00000000000E+00  0.00000000000E+00 -0.60631850703E+03  0.16176209058E+04  0.14996917226E+04 0.  0.
        3    1    3    3  502    0 -0.31420422428E+03 -0.34508882828E+03 -0.93621656314E+03  0.10460937134E+04  0.10100000352E+00 0. -1.
       -3    1    3    3    0  502  0.31420422428E+03  0.34508882828E+03  0.32989805610E+03  0.57152719234E+03  0.10100000352E+00 0.  1.
</event>
<event>
 5   0  0.3018308E-05  0.1498609E+04  0.7818609E-02  0.8885379E-01
        2   -1    0    0  501    0  0.00000000000E+00  0.00000000000E+00  0.65778437976E+03  0.65778437977E+03  0.25500000920E-02 0.  1.
       -2   -1    0    0    0  501  0.00000000000E+00  0.00000000000E+00 -0.85355792098E+03  0.85355792099E+03  0.25500000920E-02 0. -1.
    10030    2    1    2    0    0  0.00000000000E+00  0.00000000000E+00 -0.19577354122E+03  0.15113423008E+04  0.14986087784E+04 0.  0.
        2    1    3    3  502    0 -0.56782944841E+03 -0.42916532076E+03  0.13829087058E+03  0.72507759579E+03  0.25500000920E-02 0.  1.
       -2    1    3    3    0  502  0.56782944841E+03  0.42916532076E+03 -0.33406441180E+03  0.78626470496E+03  0.25500000920E-02 0. -1.
</event>
<event>
 5   0  0.1588657E-05  0.1499917E+04  0.7818609E-02  0.8884508E-01
       -1   -1    0    0    0  501  0.00000000000E+00  0.00000000000E+00  0.20146408341E+04  0.20146408341E+04  0.50400001928E-02 0. -1.
        1   -1    0    0  501    0  0.00000000000E+00  0.00000000000E+00 -0.27917521684E+03  0.27917521688E+03  0.50400001928E-02 0.  1.
    10030    2    1    2    0    0  0.00000000000E+00  0.00000000000E+00  0.17354656172E+04  0.22938160510E+04  0.14999170534E+04 0.  0.
        3    1    3    3  502    0  0.28338865252E+03 -0.87054747539E+02 -0.18576197650E+03  0.34985022447E+03  0.10100000352E+00 0.  1.
       -3    1    3    3    0  502 -0.28338865252E+03  0.87054747539E+02  0.19212275937E+04  0.19439658265E+04  0.10100000352E+00 0. -1.
</event>
<event>
 5   0  0.3070497E-05  0.1499757E+04  0.7818609E-02  0.8884615E-01
       -2   -1    0    0    0  501  0.00000000000E+00  0.00000000000E+00  0.99420343768E+03  0.99420343769E+03  0.25500000920E-02 0.  1.
        2   -1    0    0  501    0  0.00000000000E+00  0.00000000000E+00 -0.56559593530E+03  0.56559593530E+03  0.25500000920E-02 0. -1.
    10030    2    1    2    0    0  0.00000000000E+00  0.00000000000E+00  0.42860750239E+03  0.15597993730E+04  0.14997565445E+04 0.  0.
        4    1    3    3  502    0  0.35042105449E+03  0.28853648232E+03  0.83508149140E+03  0.95047931447E+03  0.12699999809E+01 0.  1.
       -4    1    3    3    0  502 -0.35042105449E+03 -0.28853648232E+03 -0.40647398902E+03  0.60932005851E+03  0.12699999809E+01 0. -1.
</event>
<event>
 5   0  0.3093600E-05  0.1500486E+04  0.7818609E-02  0.8884130E-01
        2   -1    0    0  501    0  0.00000000000E+00  0.00000000000E+00  0.87057141009E+03  0.87057141009E+03  0.25500000920E-02 0. -1.
       -2   -1    0    0    0  501  0.00000000000E+00  0.00000000000E+00 -0.64654599585E+03  0.64654599585E+03  0.25500000920E-02 0.  1.
    10030    2    1    2    0    0  0.00000000000E+00  0.00000000000E+00  0.22402541424E+03  0.15171174059E+04  0.15004858670E+04 0.  0.
        1    1    3    3  502    0  0.89632810183E+02 -0.46573815444E+03  0.69976346202E+03  0.84534902376E+03  0.50400001928E-02 0. -1.
       -1    1    3    3    0  502 -0.89632810183E+02  0.46573815444E+03 -0.47573804778E+03  0.67176838218E+03  0.50400001928E-02 0.  1.
</event>
<event>
 5   0  0.2969498E-05  0.1500399E+04  0.7818609E-02  0.8884188E-01
       -2   -1    0    0    0  501  0.00000000000E+00  0.00000000000E+00  0.30485222801E+03  0.30485222802E+03  0.25500000920E-02 0. -1.
        2   -1    0    0  501    0  0.00000000000E+00  0.00000000000E+00 -0.18461380852E+04  0.18461380852E+04  0.25500000920E-02 0.  1.
    10030    2    1    2    0    0  0.00000000000E+00  0.00000000000E+00 -0.15412858572E+04  0.21509903133E+04  0.15003990249E+04 0.  0.
        3    1    3    3  502    0 -0.68676216602E+03  0.22876171987E+03 -0.10531231073E+04  0.12779055077E+04  0.10100000352E+00 0.  1.
       -3    1    3    3    0  502  0.68676216602E+03 -0.22876171987E+03 -0.48816274993E+03  0.87308480560E+03  0.10100000352E+00 0. -1.
</event>
<event>
 5   0  0.2969498E-05  0.1500488E+04  0.7818609E-02  0.8884128E-01
        2   -1    0    0  501    0  0.00000000000E+00  0.00000000000E+00  0.66704373812E+03  0.66704373813E+03  0.25500000920E-02 0.  1.
       -2   -1    0    0    0  501  0.00000000000E+00  0.00000000000E+00 -0.84382184412E+03  0.84382184412E+03  0.25500000920E-02 0. -1.
    10030    2    1    2    0    0  0.00000000000E+00  0.00000000000E+00 -0.17677810600E+03  0.15108655822E+04  0.15004880236E+04 0.  0.
        3    1    3    3  502    0  0.42875058872E+03 -0.43206569133E+02  0.53000190042E+03  0.68307825291E+03  0.10100000352E+00 0.  1.
       -3    1    3    3    0  502 -0.42875058872E+03  0.43206569133E+02 -0.70678000642E+03  0.82778732934E+03  0.10100000352E+00 0. -1.
</event>
<event>
 5   0  0.3030702E-05  0.1500378E+04  0.7818609E-02  0.8884202E-01
       -2   -1    0    0    0  501  0.00000000000E+00  0.00000000000E+00  0.37117815023E+03  0.37117815024E+03  0.25500000920E-02 0.  1.
        2   -1    0    0  501    0  0.00000000000E+00  0.00000000000E+00 -0.15162088334E+04  0.15162088334E+04  0.25500000920E-02 0. -1.
    10030    2    1    2    0    0  0.00000000000E+00  0.00000000000E+00 -0.11450306832E+04  0.18873869837E+04  0.15003780726E+04 0.  0.
        5    1    3    3  502    0 -0.14502328968E+03 -0.53770264578E+03  0.59724329667E+02  0.56012942734E+03  0.46999998093E+01 0.  1.
       -5    1    3    3    0  502  0.14502328968E+03  0.53770264578E+03 -0.12047550129E+04  0.13272575563E+04  0.46999998093E+01 0. -1.
</event>
<event>
 5   0  0.1588657E-05  0.1499839E+04  0.7818609E-02  0.8884560E-01
        1   -1    0    0  501    0  0.00000000000E+00  0.00000000000E+00  0.12415371580E+04  0.12415371580E+04  0.50400001928E-02 0.  1.
       -1   -1    0    0    0  501  0.00000000000E+00  0.00000000000E+00 -0.45297020130E+03  0.45297020132E+03  0.50400001928E-02 0. -1.
    10030    2    1    2    0    0  0.00000000000E+00  0.00000000000E+00  0.78856695671E+03  0.16945073593E+04  0.14998391066E+04 0.  0.
        3    1    3    3  502    0 -0.30238534796E+03 -0.23408873780E+03  0.11231048001E+04  0.11864227063E+04  0.10100000352E+00 0.  1.
       -3    1    3    3    0  502  0.30238534796E+03  0.23408873780E+03 -0.33453784337E+03  0.50808465306E+03  0.10100000352E+00 0. -1.
</event>
<event>
 5   0  0.1643498E-05  0.1499553E+04  0.7818609E-02  0.8884750E-01
       -1   -1    0    0    0  501  0.00000000000E+00  0.00000000000E+00  0.71315102941E+03  0.71315102943E+03  0.50400001928E-02 0.  1.
        1   -1    0    0  501    0  0.00000000000E+00  0.00000000000E+00 -0.78828343586E+03  0.78828343588E+03  0.50400001928E-02 0. -1.
    10030    2    1    2    0    0  0.00000000000E+00  0.00000000000E+00 -0.75132406453E+02  0.15014344653E+04  0.14995534586E+04 0.  0.
        4    1    3    3  502    0  0.56804987823E+03  0.32858286755E+03  0.32554027531E+03  0.73254723312E+03  0.12699999809E+01 0.  1.
       -4    1    3    3    0  502 -0.56804987823E+03 -0.32858286755E+03 -0.40067268176E+03  0.76888723219E+03  0.12699999809E+01 0. -1.
</event>
<event>
 5   0  0.3070497E-05  0.1499972E+04  0.7818609E-02  0.8884472E-01
       -2   -1    0    0    0  501  0.00000000000E+00  0.00000000000E+00  0.59449311545E+03  0.59449311546E+03  0.25500000920E-02 0. -1.
        2   -1    0    0  501    0  0.00000000000E+00  0.00000000000E+00 -0.94614865505E+03  0.94614865505E+03  0.25500000920E-02 0.  1.
    10030    2    1    2    0    0  0.00000000000E+00  0.00000000000E+00 -0.35165553959E+03  0.15406417705E+04  0.14999718152E+04 0.  0.
        4    1    3    3  502    0  0.51158692146E+03 -0.54817135789E+03 -0.19252375360E+03  0.77413178751E+03  0.12699999809E+01 0. -1.
       -4    1    3    3    0  502 -0.51158692146E+03  0.54817135789E+03 -0.15913178599E+03  0.76650998300E+03  0.12699999809E+01 0.  1.
</event>
<event>
 5   0  0.1588657E-05  0.1499634E+04  0.7818609E-02  0.8884696E-01
        1   -1    0    0  501    0  0.00000000000E+00  0.00000000000E+00  0.72514252249E+03  0.72514252251E+03  0.50400001928E-02 0.  1.
       -1   -1    0    0    0  501  0.00000000000E+00  0.00000000000E+00 -0.77533096452E+03  0.77533096453E+03  0.50400001928E-02 0. -1.
    10030    2    1    2    0    0  0.00000000000E+00  0.00000000000E+00 -0.50188442022E+02  0.15004734870E+04  0.14996338905E+04 0.  0.
        3    1    3    3  502    0  0.36072628173E+03 -0.89503889307E+02 -0.67668155002E+03  0.77203129915E+03  0.10100000352E+00 0. -1.
       -3    1    3    3    0  502 -0.36072628173E+03  0.89503889307E+02  0.62649310800E+03  0.72844218789E+03  0.10100000352E+00 0.  1.
</event>
<event>
 5   0  0.1580078E-05  0.1501427E+04  0.7818609E-02  0.8883504E-01
        1   -1    0    0  501    0  0.00000000000E+00  0.00000000000E+00  0.65125969686E+03  0.65125969688E+03  0.50400001928E-02 0. -1.
       -1   -1    0    0    0  501  0.00000000000E+00  0.00000000000E+00 -0.86535522649E+03  0.86535522651E+03  0.50400001928E-02 0.  1.
    10030    2    1    2    0    0  0.00000000000E+00  0.00000000000E+00 -0.21409552964E+03  0.15166149234E+04  0.15014272976E+04 0.  0.
        2    1    3    3  502    0  0.70892149669E+03 -0.22669843850E+03 -0.20606542181E+03  0.77228545794E+03  0.25500000920E-02 0.  1.
       -2    1    3    3    0  502 -0.70892149669E+03  0.22669843850E+03 -0.80301078280E+01  0.74432946544E+03  0.25500000920E-02 0. -1.
</event>
<event>
 5   0  0.1588657E-05  0.1500700E+04  0.7818609E-02  0.8883988E-01
       -1   -1    0    0    0  501  0.00000000000E+00  0.00000000000E+00  0.25853699519E+03  0.25853699524E+03  0.50400001928E-02 0. -1.
        1   -1    0    0  501    0  0.00000000000E+00  0.00000000000E+00 -0.21777343073E+04  0.21777343073E+04  0.50400001928E-02 0.  1.
    10030    2    1    2    0    0  0.00000000000E+00  0.00000000000E+00 -0.19191973121E+04  0.24362713025E+04  0.15006996824E+04 0.  0.
        3    1    3    3  502    0 -0.53973651757E+03 -0.25362290727E+03 -0.16988979746E+04  0.18005261525E+04  0.10100000352E+00 0.  1.
       -3    1    3    3    0  502  0.53973651757E+03  0.25362290727E+03 -0.22029933749E+03  0.63574515003E+03  0.10100000352E+00 0. -1.
</event>
<event>
 5   0  0.1588657E-05  0.1499156E+04  0.7818609E-02  0.8885015E-01
        1   -1    0    0  501    0  0.00000000000E+00  0.00000000000E+00  0.80816870016E+03  0.80816870018E+03  0.50400001928E-02 0.  1.
       -1   -1    0    0    0  501  0.00000000000E+00  0.00000000000E+00 -0.69523457497E+03  0.69523457499E+03  0.50400001928E-02 0. -1.
    10030    2    1    2    0    0  0.00000000000E+00  0.00000000000E+00  0.11293412519E+03  0.15034032752E+04  0.14991555260E+04 0.  0.
        3    1    3    3  502    0 -0.45352472598E+03  0.52282675554E+03 -0.23215794389E+03  0.73002042060E+03  0.10100000352E+00 0. -1.
       -3    1    3    3    0  502  0.45352472598E+03 -0.52282675554E+03  0.34509206908E+03  0.77338285456E+03  0.10100000352E+00 0.  1.
</event>
<event>
 5   0  0.1533777E-05  0.1500664E+04  0.7818609E-02  0.8884011E-01
       -1   -1    0    0    0  501  0.00000000000E+00  0.00000000000E+00  0.70471604581E+03  0.70471604583E+03  0.50400001928E-02 0. -1.
        1   -1    0    0  501    0  0.00000000000E+00  0.00000000000E+00 -0.79890099452E+03  0.79890099453E+03  0.50400001928E-02 0.  1.
    10030    2    1    2    0    0  0.00000000000E+00  0.00000000000E+00 -0.94184948708E+02  0.15036170404E+04  0.15006643194E+04 0.  0.
        5    1    3    3  502    0 -0.70250580605E+03  0.28956477847E+02  0.21538359765E+03  0.73536730229E+03  0.46999998093E+01 0. -1.
       -5    1    3    3    0  502  0.70250580605E+03 -0.28956477847E+02 -0.30956854636E+03  0.76824973807E+03  0.46999998093E+01 0.  1.
</event>
<event>
 5   0  0.1580078E-05  0.1499754E+04  0.7818609E-02  0.8884617E-01
        1   -1    0    0  501    0  0.00000000000E+00  0.00000000000E+00  0.38668772657E+03  0.38668772661E+03  0.50400001928E-02 0. -1.
       -1   -1    0    0    0  501  0.00000000000E+00  0.00000000000E+00 -0.14541845967E+04  0.14541845967E+04  0.50400001928E-02 0.  1.
    10030    2    1    2    0    0  0.00000000000E+00  0.00000000000E+00 -0.10674968702E+04  0.18408723233E+04  0.14997537608E+04 0.  0.
        2    1    3    3  502    0  0.75189157126E+02 -0.51968013631E+03  0.12336087609E+03  0.53938739249E+03  0.25500000920E-02 0. -1.
       -2    1    3    3    0  502 -0.75189157126E+02  0.51968013631E+03 -0.11908577463E+04  0.13014849309E+04  0.25500000920E-02 0.  1.
</event>
<event>
 5   0  0.1116613E-05  0.1499380E+04  0.7818609E-02  0.8884865E-01
       -3   -1    0    0    0  501  0.00000000000E+00  0.00000000000E+00  0.20403946406E+04  0.20403946431E+04  0.10100000352E+00 0. -1.
        3   -1    0    0  501    0  0.00000000000E+00  0.00000000000E+00 -0.27545424337E+03  0.27545426189E+03  0.10100000352E+00 0.  1.
    10030    2    1    2    0    0  0.00000000000E+00  0.00000000000E+00  0.17649403972E+04  0.23158489050E+04  0.14993803870E+04 0.  0.
        3    1    3    3  502    0  0.19664092916E+03 -0.21317494574E+03 -0.18530023123E+03  0.34416187820E+03  0.10100000352E+00 0.  1.
       -3    1    3    3    0  502 -0.19664092916E+03  0.21317494574E+03  0.19502406284E+04  0.19716870268E+04  0.10100000352E+00 0. -1.
</event>
<event>
 5   0  0.1580078E-05  0.1500157E+04  0.7818609E-02  0.8884348E-01
        1   -1    0    0  501    0  0.00000000000E+00  0.00000000000E+00  0.49108951176E+03  0.49108951178E+03  0.50400001928E-02 0.  1.
       -1   -1    0    0    0  501  0.00000000000E+00  0.00000000000E+00 -0.11456525239E+04  0.11456525239E+04  0.50400001928E-02 0. -1.
    10030    2    1    2    0    0  0.00000000000E+00  0.00000000000E+00 -0.65456301212E+03  0.16367420357E+04  0.15001572433E+04 0.  0.
        2    1    3    3  502    0 -0.61142108889E+03 -0.42708618796E+03 -0.24013711219E+03  0.78352038426E+03  0.25500000920E-02 0. -1.
       -2    1    3    3    0  502  0.61142108889E+03  0.42708618796E+03 -0.41442589992E+03  0.85322165140E+03  0.25500000920E-02 0.  1.
</event>
<event>
 5   0  0.3030702E-05  0.1496140E+04  0.7818609E-02  0.8887024E-01
       -2   -1    0    0    0  501  0.00000000000E+00  0.00000000000E+00  0.38343266934E+03  0.38343266935E+03  0.25500000920E-02 0. -1.
        2   -1    0    0  501    0  0.00000000000E+00  0.00000000000E+00 -0.14594711315E+04  0.14594711315E+04  0.25500000920E-02 0.  1.
    10030    2    1    2    0    0  0.00000000000E+00  0.00000000000E+00 -0.10760384622E+04  0.18429038009E+04  0.14961402499E+04 0.  0.
        5    1    3    3  502    0  0.43304224560E+03 -0.19595158388E+03 -0.12495360543E+04  0.13368938068E+04  0.46999998093E+01 0.  1.
       -5    1    3    3    0  502 -0.43304224560E+03  0.19595158388E+03  0.17349759206E+03  0.50600999412E+03  0.46999998093E+01 0. -1.
</event>
<event>
 5   0  0.1588657E-05  0.1500058E+04  0.7818609E-02  0.8884414E-01
       -1   -1    0    0    0  501  0.00000000000E+00  0.00000000000E+00  0.49783533853E+03  0.49783533856E+03  0.50400001928E-02 0.  1.
        1   -1    0    0  501    0  0.00000000000E+00  0.00000000000E+00 -0.11299795648E+04  0.11299795648E+04  0.50400001928E-02 0. -1.
    10030    2    1    2    0    0  0.00000000000E+00  0.00000000000E+00 -0.63214422630E+03  0.16278149034E+04  0.15000583445E+04 0.  0.
        3    1    3    3  502    0 -0.68022909900E+03  0.20774868036E+03 -0.57736983627E+02  0.71358581179E+03  0.10100000352E+00 0.  1.
       -3    1    3    3    0  502  0.68022909900E+03 -0.20774868036E+03 -0.57440724267E+03  0.91422909161E+03  0.10100000352E+00 0. -1.
</event>
<event>
 5   0  0.3030702E-05  0.1499429E+04  0.7818609E-02  0.8884833E-01
       -2   -1    0    0    0  501  0.00000000000E+00  0.00000000000E+00  0.24736764826E+03  0.24736764828E+03  0.25500000920E-02 0.  1.
        2   -1    0    0  501    0  0.00000000000E+00  0.00000000000E+00 -0.22722126348E+04  0.22722126348E+04  0.25500000920E-02 0. -1.
    10030    2    1    2    0    0  0.00000000000E+00  0.00000000000E+00 -0.20248449865E+04  0.25195802831E+04  0.14994290858E+04 0.  0.
        5    1    3    3  502    0 -0.71567129019E+01 -0.38456940057E+03 -0.20937505911E+04  0.21287927260E+04  0.46999998093E+01 0. -1.
       -5    1    3    3    0  502  0.71567129019E+01  0.38456940057E+03  0.68905604624E+02  0.39078755705E+03  0.46999998093E+01 0.  1.
</event>
<event>
 5   0  0.1588657E-05  0.1500148E+04  0.7818609E-02  0.8884355E-01
       -1   -1    0    0    0  501  0.00000000000E+00  0.00000000000E+00  0.22515077800E+03  0.22515077806E+03  0.50400001928E-02 0. -1.
        1   -1    0    0  501    0  0.00000000000E+00  0.00000000000E+00 -0.24988184505E+04  0.24988184505E+04  0.50400001928E-02 0.  1.
    10030    2    1    2    0    0  0.00000000000E+00  0.00000000000E+00 -0.22736676725E+04  0.27239692285E+04  0.15001478838E+04 0.  0.
        3    1    3    3  502    0  0.16657272713E+03 -0.70210213065E+03 -0.76507321104E+03  0.10516800387E+04  0.10100000352E+00 0.  1.
       -3    1    3    3    0  502 -0.16657272713E+03  0.70210213065E+03 -0.15085944614E+04  0.16722891899E+04  0.10100000352E+00 0. -1.
</event>
<event>
 5   0  0.3070497E-05  0.1499984E+04  0.7818609E-02  0.8884464E-01
        2   -1    0    0  501    0  0.00000000000E+00  0.00000000000E+00  0.12789661257E+04  0.12789661257E+04  0.25500000920E-02 0. -1.
       -2   -1    0    0    0  501  0.00000000000E+00  0.00000000000E+00 -0.43979871164E+03  0.43979871165E+03  0.25500000920E-02 0.  1.
    10030    2    1    2    0    0  0.00000000000E+00  0.00000000000E+00  0.83916741402E+03  0.17187648373E+04  0.14999835390E+04 0.  0.
        4    1    3    3  502    0  0.78713622980E+01  0.71801204915E+03  0.66768935268E+03  0.98051718274E+03  0.12699999809E+01 0.  1.
       -4    1    3    3    0  502 -0.78713622980E+01 -0.71801204915E+03  0.17147806133E+03  0.73824765457E+03  0.12699999809E+01 0. -1.
</event>
<event>
 5   0  0.1643498E-05  0.1499589E+04  0.7818609E-02  0.8884726E-01
       -1   -1    0    0    0  501  0.00000000000E+00  0.00000000000E+00  0.64348463589E+03  0.64348463591E+03  0.50400001928E-02 0. -1.
        1   -1    0    0  501    0  0.00000000000E+00  0.00000000000E+00 -0.87366825708E+03  0.87366825710E+03  0.50400001928E-02 0.  1.
    10030    2    1    2    0    0  0.00000000000E+00  0.00000000000E+00 -0.23018362119E+03  0.15171528930E+04  0.14995894109E+04 0.  0.
        4    1    3    3  502    0  0.16024408292E+03 -0.30249248944E+03 -0.78999607122E+03  0.86097344775E+03  0.12699999809E+01 0.  1.
       -4    1    3    3    0  502 -0.16024408292E+03  0.30249248944E+03  0.55981245003E+03  0.65617944526E+03  0.12699999809E+01 0. -1.
</event>
<event>
 5   0  0.3070497E-05  0.1500216E+04  0.7818609E-02  0.8884309E-01
       -2   -1    0    0    0  501  0.00000000000E+00  0.00000000000E+00  0.41744165121E+03  0.41744165121E+03  0.25500000920E-02 0. -1.
        2   -1    0    0  501    0  0.00000000000E+00  0.00000000000E+00 -0.13478820453E+04  0.13478820453E+04  0.25500000920E-02 0.  1.
    10030    2    1    2    0    0  0.00000000000E+00  0.00000000000E+00 -0.93044039414E+03  0.17653236966E+04  0.15002161266E+04 0.  0.
        4    1    3    3  502    0  0.33188400127E+03  0.59515071874E+03 -0.96270262529E+02  0.68820123849E+03  0.12699999809E+01 0. -1.
       -4    1    3    3    0  502 -0.33188400127E+03 -0.59515071874E+03 -0.83417013161E+03  0.10771224581E+04  0.12699999809E+01 0.  1.
</event>
<event>
 5   0  0.3018308E-05  0.1494607E+04  0.7818609E-02  0.8888047E-01
       -2   -1    0    0    0  501  0.00000000000E+00  0.00000000000E+00  0.32944407310E+03  0.32944407311E+03  0.25500000920E-02 0. -1.
        2   -1    0    0  501    0  0.00000000000E+00  0.00000000000E+00 -0.16951663308E+04  0.16951663308E+04  0.25500000920E-02 0.  1.
    10030    2    1    2    0    0  0.00000000000E+00  0.00000000000E+00 -0.13657222577E+04  0.20246104039E+04  0.14946069726E+04 0.  0.
        2    1    3    3  502    0  0.37120933631E+03 -0.58445867661E+03 -0.30194284302E+03  0.75535276295E+03  0.25500000920E-02 0.  1.
       -2    1    3    3    0  502 -0.37120933631E+03  0.58445867661E+03 -0.10637794147E+04  0.12692576410E+04  0.25500000920E-02 0. -1.
</event>
<event>
 5   0  0.1576214E-05  0.1500094E+04  0.7818609E-02  0.8884391E-01
       -1   -1    0    0    0  501  0.00000000000E+00  0.00000000000E+00  0.65571669278E+03  0.65571669280E+03  0.50400001928E-02 0. -1.
        1   -1    0    0  501    0  0.00000000000E+00  0.00000000000E+00 -0.85794720325E+03  0.85794720327E+03  0.50400001928E-02 0.  1.
    10030    2    1    2    0    0  0.00000000000E+00  0.00000000000E+00 -0.20223051047E+03  0.15136638961E+04  0.15000937340E+04 0.  0.
        1    1    3    3  502    0 -0.23753419946E+03 -0.49845568143E+03  0.41110838625E+03  0.68839717281E+03  0.50400001928E-02 0. -1.
       -1    1    3    3    0  502  0.23753419946E+03  0.49845568143E+03 -0.61333889672E+03  0.82526672326E+03  0.50400001928E-02 0.  1.
</event>
<event>
 5   0  0.1116613E-05  0.1499194E+04  0.7818609E-02  0.8884989E-01
       -3   -1    0    0    0  501  0.00000000000E+00  0.00000000000E+00  0.76508086206E+03  0.76508086872E+03  0.10100000352E+00 0.  1.
        3   -1    0    0  501    0  0.00000000000E+00  0.00000000000E+00 -0.73442617596E+03  0.73442618290E+03  0.10100000352E+00 0. -1.
    10030    2    1    2    0    0  0.00000000000E+00  0.00000000000E+00  0.30654686100E+02  0.14995070516E+04  0.14991936793E+04 0.  0.
        4    1    3    3  502    0  0.24715173206E+03  0.64783471340E+03  0.30020263280E+03  0.75557728141E+03  0.12699999809E+01 0.  1.
       -4    1    3    3    0  502 -0.24715173206E+03 -0.64783471340E+03 -0.26954794670E+03  0.74392977021E+03  0.12699999809E+01 0. -1.
</event>
<event>
 5   0  0.1576214E-05  0.1499925E+04  0.7818609E-02  0.8884503E-01
        1   -1    0    0  501    0  0.00000000000E+00  0.00000000000E+00  0.38433134998E+03  0.38433135001E+03  0.50400001928E-02 0.  1.
       -1   -1    0    0    0  501  0.00000000000E+00  0.00000000000E+00 -0.14634337672E+04  0.14634337672E+04  0.50400001928E-02 0. -1.
    10030    2    1    2    0    0  0.00000000000E+00  0.00000000000E+00 -0.10791024172E+04  0.18477651172E+04  0.14999246319E+04 0.  0.
        1    1    3    3  502    0 -0.54817629052E+03  0.39892217149E+03 -0.14455823605E+03  0.69320504040E+03  0.50400001928E-02 0.  1.
       -1    1    3    3    0  502  0.54817629052E+03 -0.39892217149E+03 -0.93454418113E+03  0.11545600768E+04  0.50400001928E-02 0. -1.
</event>
<event>
 5   0  0.3030702E-05  0.1504602E+04  0.7818609E-02  0.8881398E-01
       -2   -1    0    0    0  501  0.00000000000E+00  0.00000000000E+00  0.29730878796E+03  0.29730878797E+03  0.25500000920E-02 0.  1.
        2   -1    0    0  501    0  0.00000000000E+00  0.00000000000E+00 -0.19036000311E+04  0.19036000311E+04  0.25500000920E-02 0. -1.
    10030    2    1    2    0    0  0.00000000000E+00  0.00000000000E+00 -0.16062912431E+04  0.22009088190E+04  0.15046022970E+04 0.  0.
        5    1    3    3  502    0  0.28696988524E+03  0.88564715851E+02 -0.18120846869E+04  0.18368093059E+04  0.46999998093E+01 0. -1.
       -5    1    3    3    0  502 -0.28696988524E+03 -0.88564715851E+02  0.20579344379E+03  0.36409951309E+03  0.46999998093E+01 0.  1.
</event>
<event>
 5   0  0.2969498E-05  0.1499634E+04  0.7818609E-02  0.8884697E-01
       -2   -1    0    0    0  501  0.00000000000E+00  0.00000000000E+00  0.41499258166E+03  0.41499258167E+03  0.25500000920E-02 0.  1.
        2   -1    0    0  501    0  0.00000000000E+00  0.00000000000E+00 -0.13547837397E+04  0.13547837397E+04  0.25500000920E-02 0. -1.
    10030    2    1    2    0    0  0.00000000000E+00  0.00000000000E+00 -0.93979115804E+03  0.17697763214E+04  0.14996335575E+04 0.  0.
        3    1    3    3  502    0 -0.67366214774E+03 -0.20649677701E+03 -0.16725583249E+03  0.72417962683E+03  0.10100000352E+00 0. -1.
       -3    1    3    3    0  502  0.67366214774E+03  0.20649677701E+03 -0.77253532555E+03  0.10455966945E+04  0.10100000352E+00 0.  1.
</event>
<event>
 5   0  0.3030702E-05  0.1499858E+04  0.7818609E-02  0.8884547E-01
       -2   -1    0    0    0  501  0.00000000000E+00  0.00000000000E+00  0.29630208064E+03  0.29630208065E+03  0.25500000920E-02 0. -1.
        2   -1    0    0  501    0  0.00000000000E+00  0.00000000000E+00 -0.18980420287E+04  0.18980420287E+04  0.25500000920E-02 0.  1.
    10030    2    1    2    0    0  0.00000000000E+00  0.00000000000E+00 -0.16017399480E+04  0.21943441093E+04  0.14998583963E+04 0.  0.
        5    1    3    3  502    0 -0.27190587301E+03 -0.38282400854E+02 -0.18218260994E+04  0.18424089591E+04  0.46999998093E+01 0.  1.
       -5    1    3    3    0  502  0.27190587301E+03  0.38282400854E+02  0.22008615135E+03  0.35193515029E+03  0.46999998093E+01 0. -1.
</event>
<event>
 5   0  0.1580078E-05  0.1500496E+04  0.7818609E-02  0.8884123E-01
        1   -1    0    0  501    0  0.00000000000E+00  0.00000000000E+00  0.17899591233E+04  0.17899591233E+04  0.50400001928E-02 0.  1.
       -1   -1    0    0    0  501  0.00000000000E+00  0.00000000000E+00 -0.31446089459E+03  0.31446089463E+03  0.50400001928E-02 0. -1.
    10030    2    1    2    0    0  0.00000000000E+00  0.00000000000E+00  0.14754982287E+04  0.21044200179E+04  0.15004961143E+04 0.  0.
        2    1    3    3  502    0  0.22834995535E+03  0.66014335366E+03  0.35381909665E+03  0.78302037180E+03  0.25500000920E-02 0. -1.
       -2    1    3    3    0  502 -0.22834995535E+03 -0.66014335366E+03  0.11216791320E+04  0.13213996461E+04  0.25500000920E-02 0.  1.
</event>
<event>
 5   0  0.3070497E-05  0.1499101E+04  0.7818609E-02  0.8885051E-01
        2   -1    0    0  501    0  0.00000000000E+00  0.00000000000E+00  0.12779713810E+04  0.12779713810E+04  0.25500000920E-02 0. -1.
       -2   -1    0    0    0  501  0.00000000000E+00  0.00000000000E+00 -0.43962304675E+03  0.43962304676E+03  0.25500000920E-02 0.  1.
    10030    2    1    2    0    0  0.00000000000E+00  0.00000000000E+00  0.83834833428E+03  0.17175944278E+04  0.14991006266E+04 0.  0.
        4    1    3    3  502    0  0.37813342265E+03 -0.57604427239E+03  0.81202855509E+02  0.69383528717E+03  0.12699999809E+01 0.  1.
       -4    1    3    3    0  502 -0.37813342265E+03  0.57604427239E+03  0.75714547877E+03  0.10237591406E+04  0.12699999809E+01 0. -1.
</event>
<event>
 5   0  0.1576214E-05  0.1499870E+04  0.7818609E-02  0.8884539E-01
       -1   -1    0    0    0  501  0.00000000000E+00  0.00000000000E+00  0.44243387042E+03  0.44243387045E+03  0.50400001928E-02 0.  1.
        1   -1    0    0  501    0  0.00000000000E+00  0.00000000000E+00 -0.12711567423E+04  0.12711567423E+04  0.50400001928E-02 0. -1.
    10030    2    1    2    0    0  0.00000000000E+00  0.00000000000E+00 -0.82872287187E+03  0.17135906127E+04  0.14998703910E+04 0.  0.
        1    1    3    3  502    0  0.36573837152E+03  0.22659913305E+03 -0.11161262802E+04  0.11961812558E+04  0.50400001928E-02 0. -1.
       -1    1    3    3    0  502 -0.36573837152E+03 -0.22659913305E+03  0.28740340829E+03  0.51740935692E+03  0.50400001928E-02 0.  1.
</event>
<event>
 5   0  0.2969498E-05  0.1500238E+04  0.7818609E-02  0.8884295E-01
        2   -1    0    0  501    0  0.00000000000E+00  0.00000000000E+00  0.24730769402E+03  0.24730769403E+03  0.25500000920E-02 0. -1.
       -2   -1    0    0    0  501  0.00000000000E+00  0.00000000000E+00 -0.22752157661E+04  0.22752157661E+04  0.25500000920E-02 0.  1.
    10030    2    1    2    0    0  0.00000000000E+00  0.00000000000E+00 -0.20279080721E+04  0.25225234601E+04  0.15002378005E+04 0.  0.
        3    1    3    3  502    0 -0.45977631430E+03  0.39860899301E+03 -0.27643716039E+03  0.66835686751E+03  0.10100000352E+00 0. -1.
       -3    1    3    3    0  502  0.45977631430E+03 -0.39860899301E+03 -0.17514709117E+04  0.18541665926E+04  0.10100000352E+00 0.  1.
</event>
<event>
 5   0  0.1576214E-05  0.1499450E+04  0.7818609E-02  0.8884819E-01
       -1   -1    0    0    0  501  0.00000000000E+00  0.00000000000E+00  0.33951072452E+03  0.33951072456E+03  0.50400001928E-02 0.  1.
        1   -1    0    0  501    0  0.00000000000E+00  0.00000000000E+00 -0.16555802609E+04  0.16555802609E+04  0.50400001928E-02 0. -1.
    10030    2    1    2    0    0  0.00000000000E+00  0.00000000000E+00 -0.13160695364E+04  0.19950909855E+04  0.14994495709E+04 0.  0.
        1    1    3    3  502    0  0.35572750512E+03  0.11785368382E+03 -0.15220269896E+04  0.15674813255E+04  0.50400001928E-02 0. -1.
       -1    1    3    3    0  502 -0.35572750512E+03 -0.11785368382E+03  0.20595745326E+03  0.42760965993E+03  0.50400001928E-02 0.  1.
</event>
<event>
 5   0  0.3030702E-05  0.1499547E+04  0.7818609E-02  0.8884754E-01
       -2   -1    0    0    0  501  0.00000000000E+00  0.00000000000E+00  0.60448968271E+03  0.60448968271E+03  0.25500000920E-02 0.  1.
        2   -1    0    0  501    0  0.00000000000E+00  0.00000000000E+00 -0.92997480771E+03  0.92997480772E+03  0.25500000920E-02 0. -1.
    10030    2    1    2    0    0  0.00000000000E+00  0.00000000000E+00 -0.32548512501E+03  0.15344644904E+04  0.14995468335E+04 0.  0.
        5    1    3    3  502    0  0.12792118738E+03  0.41245265957E+03  0.46443799411E+03  0.63419694649E+03  0.46999998093E+01 0.  1.
       -5    1    3    3    0  502 -0.12792118738E+03 -0.41245265957E+03 -0.78992311912E+03  0.90026754394E+03  0.46999998093E+01 0. -1.
</event>
<event>
 5   0  0.1116613E-05  0.1500153E+04  0.7818609E-02  0.8884351E-01
        3   -1    0    0  501    0  0.00000000000E+00  0.00000000000E+00  0.45108281082E+03  0.45108282212E+03  0.10100000352E+00 0.  1.
       -3   -1    0    0    0  501  0.00000000000E+00  0.00000000000E+00 -0.12472540302E+04  0.12472540343E+04  0.10100000352E+00 0. -1.
    10030    2    1    2    0    0  0.00000000000E+00  0.00000000000E+00 -0.79617121936E+03  0.16983368564E+04  0.15001531479E+04 0.  0.
        1    1    3    3  502    0 -0.41853941417E+02  0.61597909513E+02  0.44688705443E+03  0.45304977024E+03  0.50400001928E-02 0.  1.
       -1    1    3    3    0  502  0.41853941417E+02 -0.61597909513E+02 -0.12430582738E+04  0.12452870861E+04  0.50400001928E-02 0. -1.
</event>
<event>
 5   0  0.1643498E-05  0.1498180E+04  0.7818609E-02  0.8885664E-01
        1   -1    0    0  501    0  0.00000000000E+00  0.00000000000E+00  0.67001463613E+03  0.67001463615E+03  0.50400001928E-02 0. -1.
       -1   -1    0    0    0  501  0.00000000000E+00  0.00000000000E+00 -0.83749792675E+03  0.83749792677E+03  0.50400001928E-02 0.  1.
    10030    2    1    2    0    0  0.00000000000E+00  0.00000000000E+00 -0.16748329063E+03  0.15075125629E+04  0.14981800542E+04 0.  0.
        4    1    3    3  502    0 -0.26334143601E+03  0.22537111981E+03 -0.75195165215E+03  0.82799381256E+03  0.12699999809E+01 0.  1.
       -4    1    3    3    0  502  0.26334143601E+03 -0.22537111981E+03  0.58446836153E+03  0.67951875036E+03  0.12699999809E+01 0. -1.
</event>
<event>
 5   0  0.3018308E-05  0.1498262E+04  0.7818609E-02  0.8885609E-01
        2   -1    0    0  501    0  0.00000000000E+00  0.00000000000E+00  0.66825343832E+03  0.66825343832E+03  0.25500000920E-02 0.  1.
       -2   -1    0    0    0  501  0.00000000000E+00  0.00000000000E+00 -0.83979718449E+03  0.83979718449E+03  0.25500000920E-02 0. -1.
    10030    2    1    2    0    0  0.00000000000E+00  0.00000000000E+00 -0.17154374617E+03  0.15080506228E+04  0.14982621346E+04 0.  0.
        2    1    3    3  502    0  0.18084449715E+03  0.54470236453E+03 -0.57036505399E+03  0.80914874584E+03  0.25500000920E-02 0. -1.
       -2    1    3    3    0  502 -0.18084449715E+03 -0.54470236453E+03  0.39882130781E+03  0.69890187698E+03  0.25500000920E-02 0.  1.
</event>
<event>
 5   0  0.2969498E-05  0.1499764E+04  0.7818609E-02  0.8884610E-01
       -2   -1    0    0    0  501  0.00000000000E+00  0.00000000000E+00  0.60933047474E+03  0.60933047474E+03  0.25500000920E-02 0.  1.
        2   -1    0    0  501    0  0.00000000000E+00  0.00000000000E+00 -0.92285382706E+03  0.92285382707E+03  0.25500000920E-02 0. -1.
    10030    2    1    2    0    0  0.00000000000E+00  0.00000000000E+00 -0.31352335233E+03  0.15321843018E+04  0.14997639288E+04 0.  0.
        3    1    3    3  502    0  0.62016162882E+02 -0.53249107675E+03 -0.69243414679E+03  0.87570417900E+03  0.10100000352E+00 0. -1.
       -3    1    3    3    0  502 -0.62016162882E+02  0.53249107675E+03  0.37891079447E+03  0.65648012281E+03  0.10100000352E+00 0.  1.
</event>
<event>
 5   0  0.1533777E-05  0.1499984E+04  0.7818609E-02  0.8884463E-01
       -1   -1    0    0    0  501  0.00000000000E+00  0.00000000000E+00  0.31890066811E+03  0.31890066815E+03  0.50400001928E-02 0.  1.
        1   -1    0    0  501    0  0.00000000000E+00  0.00000000000E+00 -0.17638354000E+04  0.17638354000E+04  0.50400001928E-02 0. -1.
    10030    2    1    2    0    0  0.00000000000E+00  0.00000000000E+00 -0.14449347319E+04  0.20827360681E+04  0.14999843833E+04 0.  0.
        5    1    3    3  502    0 -0.57277841054E+03 -0.47127428471E+03 -0.56852704389E+03  0.93456923159E+03  0.46999998093E+01 0.  1.
       -5    1    3    3    0  502  0.57277841054E+03  0.47127428471E+03 -0.87640768799E+03  0.11481668366E+04  0.46999998093E+01 0. -1.
</event>
<event>
 5   0  0.1116613E-05  0.1499965E+04  0.7818609E-02  0.8884476E-01
       -4   -1    0    0    0  501  0.00000000000E+00  0.00000000000E+00  0.62067800000E+03  0.62067929930E+03  0.12699999809E+01 0.  1.
        4   -1    0    0  501    0  0.00000000000E+00  0.00000000000E+00 -0.90622187510E+03  0.90622276501E+03  0.12699999809E+01 0. -1.
    10030    2    1    2    0    0  0.00000000000E+00  0.00000000000E+00 -0.28554387510E+03  0.15269020643E+04  0.14999648694E+04 0.  0.
        3    1    3    3  502    0 -0.12602055515E+03  0.68186378940E+03  0.14811180589E+03  0.70905325954E+03  0.10100000352E+00 0.  1.
       -3    1    3    3    0  502  0.12602055515E+03 -0.68186378940E+03 -0.43365568099E+03  0.81784880477E+03  0.10100000352E+00 0. -1.
</event>
<event>
 5   0  0.3093600E-05  0.1498916E+04  0.7818609E-02  0.8885174E-01
       -2   -1    0    0    0  501  0.00000000000E+00  0.00000000000E+00  0.51510234176E+03  0.51510234176E+03  0.25500000920E-02 0.  1.
        2   -1    0    0  501    0  0.00000000000E+00  0.00000000000E+00 -0.10904387756E+04  0.10904387756E+04  0.25500000920E-02 0. -1.
    10030    2    1    2    0    0  0.00000000000E+00  0.00000000000E+00 -0.57533643387E+03  0.16055411174E+04  0.14989163644E+04 0.  0.
        1    1    3    3  502    0  0.28497693741E+03 -0.47391833886E+03 -0.82949411335E+03  0.99693075531E+03  0.50400001928E-02 0. -1.
       -1    1    3    3    0  502 -0.28497693741E+03  0.47391833886E+03  0.25415767949E+03  0.60861036208E+03  0.50400001928E-02 0.  1.
</event>
<event>
 5   0  0.3018308E-05  0.1499909E+04  0.7818609E-02  0.8884513E-01
       -2   -1    0    0    0  501  0.00000000000E+00  0.00000000000E+00  0.50178404943E+03  0.50178404944E+03  0.25500000920E-02 0.  1.
        2   -1    0    0  501    0  0.00000000000E+00  0.00000000000E+00 -0.11208646561E+04  0.11208646561E+04  0.25500000920E-02 0. -1.
    10030    2    1    2    0    0  0.00000000000E+00  0.00000000000E+00 -0.61908060663E+03  0.16226487055E+04  0.14999093386E+04 0.  0.
        2    1    3    3  502    0  0.35586543083E+03  0.54547892288E+03 -0.71177867836E+03  0.96478823954E+03  0.25500000920E-02 0. -1.
       -2    1    3    3    0  502 -0.35586543083E+03 -0.54547892288E+03  0.92698071736E+02  0.65786046596E+03  0.25500000920E-02 0.  1.
</event>
<event>
 5   0  0.1580078E-05  0.1498044E+04  0.7818609E-02  0.8885755E-01
        1   -1    0    0  501    0  0.00000000000E+00  0.00000000000E+00  0.21647290962E+04  0.21647290962E+04  0.50400001928E-02 0.  1.
       -1   -1    0    0    0  501  0.00000000000E+00  0.00000000000E+00 -0.25917044271E+03  0.25917044276E+03  0.50400001928E-02 0. -1.
    10030    2    1    2    0    0  0.00000000000E+00  0.00000000000E+00  0.19055586534E+04  0.24238995389E+04  0.14980437888E+04 0.  0.
        2    1    3    3  502    0 -0.59922980252E+03  0.44727140944E+03  0.10234144331E+04  0.12674798507E+04  0.25500000920E-02 0. -1.
       -2    1    3    3    0  502  0.59922980252E+03 -0.44727140944E+03  0.88214422030E+03  0.11564196882E+04  0.25500000920E-02 0.  1.
</event>
<event>
 5   0  0.3018308E-05  0.1500783E+04  0.7818609E-02  0.8883932E-01
        2   -1    0    0  501    0  0.00000000000E+00  0.00000000000E+00  0.13793873618E+04  0.13793873618E+04  0.25500000920E-02 0.  1.
       -2   -1    0    0    0  501  0.00000000000E+00  0.00000000000E+00 -0.40821574343E+03  0.40821574343E+03  0.25500000920E-02 0. -1.
    10030    2    1    2    0    0  0.00000000000E+00  0.00000000000E+00  0.97117161835E+03  0.17876031052E+04  0.15007833120E+04 0.  0.
        2    1    3    3  502    0  0.26233148733E+03  0.55137432041E+03  0.10051300113E+04  0.11760602834E+04  0.25500000920E-02 0.  1.
       -2    1    3    3    0  502 -0.26233148733E+03 -0.55137432041E+03 -0.33958393000E+02  0.61154282182E+03  0.25500000920E-02 0. -1.
</event>
<event>
 5   0  0.3030702E-05  0.1500472E+04  0.7818609E-02  0.8884139E-01
        2   -1    0    0  501    0  0.00000000000E+00  0.00000000000E+00  0.13497445767E+04  0.13497445767E+04  0.25500000920E-02 0. -1.
       -2   -1    0    0    0  501  0.00000000000E+00  0.00000000000E+00 -0.41700805711E+03  0.41700805712E+03  0.25500000920E-02 0.  1.
    10030    2    1    2    0    0  0.00000000000E+00  0.00000000000E+00  0.93273651956E+03  0.17667526338E+04  0.15004724103E+04 0.  0.
        5    1    3    3  502    0  0.55750910782E+03  0.49554985408E+03  0.56090485773E+03  0.93328581506E+03  0.46999998093E+01 0.  1.
       -5    1    3    3    0  502 -0.55750910782E+03 -0.49554985408E+03  0.37183166184E+03  0.83346681873E+03  0.46999998093E+01 0. -1.
</event>
<event>
 5   0  0.3070497E-05  0.1499718E+04  0.7818609E-02  0.8884640E-01
        2   -1    0    0  501    0  0.00000000000E+00  0.00000000000E+00  0.86508093607E+03  0.86508093608E+03  0.25500000920E-02 0.  1.
       -2   -1    0    0    0  501  0.00000000000E+00  0.00000000000E+00 -0.64998371893E+03  0.64998371894E+03  0.25500000920E-02 0. -1.
    10030    2    1    2    0    0  0.00000000000E+00  0.00000000000E+00  0.21509721714E+03  0.15150646550E+04  0.14997180055E+04 0.  0.
        4    1    3    3  502    0 -0.42892721367E+03 -0.28332996975E+03  0.65905857215E+03  0.83583146675E+03  0.12699999809E+01 0.  1.
       -4    1    3    3    0  502  0.42892721367E+03  0.28332996975E+03 -0.44396135501E+03  0.67923318826E+03  0.12699999809E+01 0. -1.
</event>
<event>
 5   0  0.3018308E-05  0.1499796E+04  0.7818609E-02  0.8884588E-01
        2   -1    0    0  501    0  0.00000000000E+00  0.00000000000E+00  0.14299377933E+04  0.14299377933E+04  0.25500000920E-02 0.  1.
       -2   -1    0    0    0  501  0.00000000000E+00  0.00000000000E+00 -0.39326694069E+03  0.39326694070E+03  0.25500000920E-02 0. -1.
    10030    2    1    2    0    0  0.00000000000E+00  0.00000000000E+00  0.10366708526E+04  0.18232047340E+04  0.14997963346E+04 0.  0.
        2    1    3    3  502    0  0.55735525266E+03 -0.31346333232E+03  0.42149159290E+02  0.64084373292E+03  0.25500000920E-02 0. -1.
       -2    1    3    3    0  502 -0.55735525266E+03  0.31346333232E+03  0.99452169329E+03  0.11823610011E+04  0.25500000920E-02 0.  1.
</event>
<event>
 5   0  0.1116613E-05  0.1500210E+04  0.7818609E-02  0.8884313E-01
       -4   -1    0    0    0  501  0.00000000000E+00  0.00000000000E+00  0.11016588310E+04  0.11016595630E+04  0.12699999809E+01 0.  1.
        4   -1    0    0  501    0  0.00000000000E+00  0.00000000000E+00 -0.51073511200E+03  0.51073669100E+03  0.12699999809E+01 0. -1.
    10030    2    1    2    0    0  0.00000000000E+00  0.00000000000E+00  0.59092371896E+03  0.16123962540E+04  0.15002102647E+04 0.  0.
        4    1    3    3  502    0  0.60259029718E+03 -0.26940103870E+00  0.77556624621E+03  0.98215057603E+03  0.12699999809E+01 0.  1.
       -4    1    3    3    0  502 -0.60259029718E+03  0.26940103870E+00 -0.18464252725E+03  0.63024567797E+03  0.12699999809E+01 0. -1.
</event>
<event>
 5   0  0.1576214E-05  0.1500409E+04  0.7818609E-02  0.8884181E-01
        1   -1    0    0  501    0  0.00000000000E+00  0.00000000000E+00  0.12686332402E+04  0.12686332402E+04  0.50400001928E-02 0. -1.
       -1   -1    0    0    0  501  0.00000000000E+00  0.00000000000E+00 -0.44363247172E+03  0.44363247175E+03  0.50400001928E-02 0.  1.
    10030    2    1    2    0    0  0.00000000000E+00  0.00000000000E+00  0.82500076845E+03  0.17122657119E+04  0.15004091443E+04 0.  0.
        1    1    3    3  502    0 -0.16101756466E+03  0.44907786773E+03 -0.24822272297E+03  0.53778444347E+03  0.50400001928E-02 0.  1.
       -1    1    3    3    0  502  0.16101756466E+03 -0.44907786773E+03  0.10732234914E+04  0.11744812685E+04  0.50400001928E-02 0. -1.
</event>
<event>
 5   0  0.2969498E-05  0.1502125E+04  0.7818609E-02  0.8883041E-01
       -2   -1    0    0    0  501  0.00000000000E+00  0.00000000000E+00  0.11461157697E+04  0.11461157697E+04  0.25500000920E-02 0. -1.
        2   -1    0    0  501    0  0.00000000000E+00  0.00000000000E+00 -0.49217968169E+03  0.49217968169E+03  0.25500000920E-02 0.  1.
    10030    2    1    2    0    0  0.00000000000E+00  0.00000000000E+00  0.65393608800E+03  0.16382954514E+04  0.15021250210E+04 0.  0.
        3    1    3    3  502    0  0.64349804688E+03  0.33880138822E+03  0.53164701363E+03  0.90084664305E+03  0.10100000352E+00 0.  1.
       -3    1    3    3    0  502 -0.64349804688E+03 -0.33880138822E+03  0.12228907437E+03  0.73744880833E+03  0.10100000352E+00 0. -1.
</event>
<event>
 5   0  0.1576214E-05  0.1500069E+04  0.7818609E-02  0.8884407E-01
        1   -1    0    0  501    0  0.00000000000E+00  0.00000000000E+00  0.22463508743E+04  0.22463508743E+04  0.50400001928E-02 0.  1.
       -1   -1    0    0    0  501  0.00000000000E+00  0.00000000000E+00 -0.25042918620E+03  0.25042918625E+03  0.50400001928E-02 0. -1.
    10030    2    1    2    0    0  0.00000000000E+00  0.00000000000E+00  0.19959216881E+04  0.24967800606E+04  0.15000690937E+04 0.  0.
        1    1    3    3  502    0  0.25433206806E+03 -0.29067547160E+03 -0.72180192406E+02  0.39292112546E+03  0.50400001928E-02 0. -1.
       -1    1    3    3    0  502 -0.25433206806E+03  0.29067547160E+03  0.20681018805E+04  0.21038589351E+04  0.50400001928E-02 0.  1.
</event>
<event>
 5   0  0.3018308E-05  0.1500079E+04  0.7818609E-02  0.8884400E-01
        2   -1    0    0  501    0  0.00000000000E+00  0.00000000000E+00  0.31248073551E+04  0.31248073551E+04  0.25500000920E-02 0.  1.
       -2   -1    0    0    0  501  0.00000000000E+00  0.00000000000E+00 -0.18003002945E+03  0.18003002947E+03  0.25500000920E-02 0. -1.
    10030    2    1    2    0    0  0.00000000000E+00  0.00000000000E+00  0.29447773256E+04  0.33048373846E+04  0.15000788782E+04 0.  0.
        2    1    3    3  502    0  0.34844636366E+03  0.66418267439E+03  0.14671441159E+04  0.16477455357E+04  0.25500000920E-02 0. -1.
       -2    1    3    3    0  502 -0.34844636366E+03 -0.66418267439E+03  0.14776332097E+04  0.16570918489E+04  0.25500000920E-02 0.  1.
</event>
<event>
 5   0  0.3030702E-05  0.1499397E+04  0.7818609E-02  0.8884854E-01
        2   -1    0    0  501    0  0.00000000000E+00  0.00000000000E+00  0.74365681627E+03  0.74365681628E+03  0.25500000920E-02 0.  1.
       -2   -1    0    0    0  501  0.00000000000E+00  0.00000000000E+00 -0.75578945418E+03  0.75578945418E+03  0.25500000920E-02 0. -1.
    10030    2    1    2    0    0  0.00000000000E+00  0.00000000000E+00 -0.12132637907E+02  0.14994462705E+04  0.14993971846E+04 0.  0.
        5    1    3    3  502    0 -0.27669282799E+03  0.69651108427E+03  0.12353776497E+02  0.74957409065E+03  0.46999998093E+01 0. -1.
       -5    1    3    3    0  502  0.27669282799E+03 -0.69651108427E+03 -0.24486414404E+02  0.74987217982E+03  0.46999998093E+01 0.  1.
</event>
<event>
 5   0  0.1588657E-05  0.1499086E+04  0.7818609E-02  0.8885061E-01
       -1   -1    0    0    0  501  0.00000000000E+00  0.00000000000E+00  0.11954653889E+04  0.11954653889E+04  0.50400001928E-02 0.  1.
        1   -1    0    0  501    0  0.00000000000E+00  0.00000000000E+00 -0.46995490664E+03  0.46995490667E+03  0.50400001928E-02 0. -1.
    10030    2    1    2    0    0  0.00000000000E+00  0.00000000000E+00  0.72551048223E+03  0.16654202955E+04  0.14990861553E+04 0.  0.
        3    1    3    3  502    0 -0.13401310287E+03  0.64317924893E+03 -0.38076694205E+02  0.65809490412E+03  0.10100000352E+00 0. -1.
       -3    1    3    3    0  502  0.13401310287E+03 -0.64317924893E+03  0.76358717643E+03  0.10073253914E+04  0.10100000352E+00 0.  1.
</event>
<event>
 5   0  0.1576214E-05  0.1503500E+04  0.7818609E-02  0.8882129E-01
       -1   -1    0    0    0  501  0.00000000000E+00  0.00000000000E+00  0.57946102584E+03  0.57946102586E+03  0.50400001928E-02 0.  1.
        1   -1    0    0  501    0  0.00000000000E+00  0.00000000000E+00 -0.97526531385E+03  0.97526531386E+03  0.50400001928E-02 0. -1.
    10030    2    1    2    0    0  0.00000000000E+00  0.00000000000E+00 -0.39580428801E+03  0.15547263397E+04  0.15035002351E+04 0.  0.
        1    1    3    3  502    0  0.59037057697E+03 -0.17784759358E+03  0.24682189198E+03  0.66414473654E+03  0.50400001928E-02 0. -1.
       -1    1    3    3    0  502 -0.59037057697E+03  0.17784759358E+03 -0.64262617999E+03  0.89058160318E+03  0.50400001928E-02 0.  1.
</event>
<event>
 5   0  0.1533777E-05  0.1496870E+04  0.7818609E-02  0.8886537E-01
        1   -1    0    0  501    0  0.00000000000E+00  0.00000000000E+00  0.84816899629E+03  0.84816899631E+03  0.50400001928E-02 0.  1.
       -1   -1    0    0    0  501  0.00000000000E+00  0.00000000000E+00 -0.66042838939E+03  0.66042838941E+03  0.50400001928E-02 0. -1.
    10030    2    1    2    0    0  0.00000000000E+00  0.00000000000E+00  0.18774060690E+03  0.15085973857E+04  0.14968699131E+04 0.  0.
        5    1    3    3  502    0  0.59284647401E+03  0.37504275174E+03  0.35669840940E+03  0.78700689492E+03  0.46999998093E+01 0.  1.
       -5    1    3    3    0  502 -0.59284647401E+03 -0.37504275174E+03 -0.16895780250E+03  0.72159049080E+03  0.46999998093E+01 0. -1.
</event>
<event>
 5   0  0.1116613E-05  0.1497308E+04  0.7818609E-02  0.8886245E-01
        3   -1    0    0  501    0  0.00000000000E+00  0.00000000000E+00  0.94152066087E+03  0.94152066628E+03  0.10100000352E+00 0. -1.
       -3   -1    0    0    0  501  0.00000000000E+00  0.00000000000E+00 -0.59529519124E+03  0.59529519981E+03  0.10100000352E+00 0.  1.
    10030    2    1    2    0    0  0.00000000000E+00  0.00000000000E+00  0.34622546962E+03  0.15368158661E+04  0.14973078943E+04 0.  0.
        1    1    3    3  502    0 -0.50386572647E+03  0.20206058178E+03  0.70224790311E+03  0.88761549472E+03  0.50400001928E-02 0. -1.
       -1    1    3    3    0  502  0.50386572647E+03 -0.20206058178E+03 -0.35602243349E+03  0.64920037137E+03  0.50400001928E-02 0.  1.
</event>
<event>
 5   0  0.1116613E-05  0.1500137E+04  0.7818609E-02  0.8884362E-01
       -3   -1    0    0    0  501  0.00000000000E+00  0.00000000000E+00  0.89388199969E+03  0.89388200539E+03  0.10100000352E+00 0. -1.
        3   -1    0    0  501    0  0.00000000000E+00  0.00000000000E+00 -0.62939271286E+03  0.62939272097E+03  0.10100000352E+00 0.  1.
    10030    2    1    2    0    0  0.00000000000E+00  0.00000000000E+00  0.26448928683E+03  0.15232747264E+04  0.15001370968E+04 0.  0.
        2    1    3    3  502    0 -0.62247558876E+02  0.81431759729E+02 -0.62224790443E+03  0.63063328857E+03  0.25500000920E-02 0.  1.
       -2    1    3    3    0  502  0.62247558876E+02 -0.81431759729E+02  0.88673719126E+03  0.89264143778E+03  0.25500000920E-02 0. -1.
</event>
<event>
 5   0  0.1588657E-05  0.1501361E+04  0.7818609E-02  0.8883548E-01
       -1   -1    0    0    0  501  0.00000000000E+00  0.00000000000E+00  0.42643672379E+03  0.42643672382E+03  0.50400001928E-02 0. -1.
        1   -1    0    0  501    0  0.00000000000E+00  0.00000000000E+00 -0.13214649739E+04  0.13214649739E+04  0.50400001928E-02 0.  1.
    10030    2    1    2    0    0  0.00000000000E+00  0.00000000000E+00 -0.89502825011E+03  0.17479016977E+04  0.15013609747E+04 0.  0.
        3    1    3    3  502    0  0.62729284662E+03 -0.41055000712E+03 -0.40282356332E+03  0.85106665846E+03  0.10100000352E+00 0. -1.
       -3    1    3    3    0  502 -0.62729284662E+03  0.41055000712E+03 -0.49220468679E+03  0.89683503927E+03  0.10100000352E+00 0.  1.
</event>
<event>
 5   0  0.3030702E-05  0.1499766E+04  0.7818609E-02  0.8884608E-01
       -2   -1    0    0    0  501  0.00000000000E+00  0.00000000000E+00  0.22708321848E+03  0.22708321850E+03  0.25500000920E-02 0. -1.
        2   -1    0    0  501    0  0.00000000000E+00  0.00000000000E+00 -0.24762931501E+04  0.24762931501E+04  0.25500000920E-02 0.  1.
    10030    2    1    2    0    0  0.00000000000E+00  0.00000000000E+00 -0.22492099316E+04  0.27033763686E+04  0.14997661397E+04 0.  0.
        5    1    3    3  502    0  0.34080647925E+03 -0.66371669467E+03 -0.12598984236E+04  0.14642523809E+04  0.46999998093E+01 0.  1.
       -5    1    3    3    0  502 -0.34080647925E+03  0.66371669467E+03 -0.98931150800E+03  0.12391239877E+04  0.46999998093E+01 0. -1.
</event>
<event>
 5   0  0.1116613E-05  0.1500204E+04  0.7818609E-02  0.8884317E-01
        3   -1    0    0  501    0  0.00000000000E+00  0.00000000000E+00  0.13916710978E+04  0.13916711015E+04  0.10100000352E+00 0.  1.
       -3   -1    0    0    0  501  0.00000000000E+00  0.00000000000E+00 -0.40430039613E+03  0.40430040874E+03  0.10100000352E+00 0. -1.
    10030    2    1    2    0    0  0.00000000000E+00  0.00000000000E+00  0.98737070167E+03  0.17959715102E+04  0.15002042404E+04 0.  0.
        2    1    3    3  502    0 -0.21787194409E+03 -0.53204217532E+03  0.10704540923E+04  0.12150757277E+04  0.25500000920E-02 0.  1.
       -2    1    3    3    0  502  0.21787194409E+03  0.53204217532E+03 -0.83083390610E+02  0.58089578251E+03  0.25500000920E-02 0. -1.
</event>
<event>
 5   0  0.3030702E-05  0.1499556E+04  0.7818609E-02  0.8884748E-01
        2   -1    0    0  501    0  0.00000000000E+00  0.00000000000E+00  0.41105380311E+03  0.41105380311E+03  0.25500000920E-02 0. -1.
       -2   -1    0    0    0  501  0.00000000000E+00  0.00000000000E+00 -0.13676236195E+04  0.13676236195E+04  0.25500000920E-02 0.  1.
    10030    2    1    2    0    0  0.00000000000E+00  0.00000000000E+00 -0.95656981643E+03  0.17786774226E+04  0.14995557876E+04 0.  0.
        5    1    3    3  502    0  0.10434301092E+03 -0.34388594882E+03  0.30222497758E+03  0.46958176795E+03  0.46999998093E+01 0. -1.
       -5    1    3    3    0  502 -0.10434301092E+03  0.34388594882E+03 -0.12587947940E+04  0.13090956547E+04  0.46999998093E+01 0.  1.
</event>
<event>
 5   0  0.1576214E-05  0.1498996E+04  0.7818609E-02  0.8885121E-01
       -1   -1    0    0    0  501  0.00000000000E+00  0.00000000000E+00  0.38728057903E+03  0.38728057906E+03  0.50400001928E-02 0.  1.
        1   -1    0    0  501    0  0.00000000000E+00  0.00000000000E+00 -0.14504925685E+04  0.14504925686E+04  0.50400001928E-02 0. -1.
    10030    2    1    2    0    0  0.00000000000E+00  0.00000000000E+00 -0.10632119895E+04  0.18377731476E+04  0.14989964668E+04 0.  0.
        1    1    3    3  502    0 -0.18297310029E+03  0.22420710161E+03  0.31602156514E+03  0.42850625374E+03  0.50400001928E-02 0.  1.
       -1    1    3    3    0  502  0.18297310029E+03 -0.22420710161E+03 -0.13792335547E+04  0.14092668939E+04  0.50400001928E-02 0. -1.
</event>
<event>
 5   0  0.1533777E-05  0.1500110E+04  0.7818609E-02  0.8884380E-01
       -1   -1    0    0    0  501  0.00000000000E+00  0.00000000000E+00  0.49508765012E+03  0.49508765015E+03  0.50400001928E-02 0. -1.
        1   -1    0    0  501    0  0.00000000000E+00  0.00000000000E+00 -0.11363293515E+04  0.11363293515E+04  0.50400001928E-02 0.  1.
    10030    2    1    2    0    0  0.00000000000E+00  0.00000000000E+00 -0.64124170133E+03  0.16314170016E+04  0.15001101672E+04 0.  0.
        5    1    3    3  502    0  0.74794942494E+03  0.55686446553E+02 -0.31454469148E+03  0.81332021710E+03  0.46999998093E+01 0. -1.
       -5    1    3    3    0  502 -0.74794942494E+03 -0.55686446553E+02 -0.32669700985E+03  0.81809678452E+03  0.46999998093E+01 0.  1.
</event>
<event>
 5   0  0.2969498E-05  0.1499606E+04  0.7818609E-02  0.8884715E-01
        2   -1    0    0  501    0  0.00000000000E+00  0.00000000000E+00  0.81120937255E+03  0.81120937255E+03  0.25500000920E-02 0.  1.
       -2   -1    0    0    0  501  0.00000000000E+00  0.00000000000E+00 -0.69304538514E+03  0.69304538514E+03  0.25500000920E-02 0. -1.
    10030    2    1    2    0    0  0.00000000000E+00  0.00000000000E+00  0.11816398741E+03  0.15042547577E+04  0.14996064978E+04 0.  0.
        3    1    3    3  502    0  0.66533780128E+03 -0.21256816409E+03 -0.21442649086E+03  0.73064241896E+03  0.10100000352E+00 0.  1.
       -3    1    3    3    0  502 -0.66533780128E+03  0.21256816409E+03  0.33259047827E+03  0.77361233873E+03  0.10100000352E+00 0. -1.
</event>
<event>
 5   0  0.3030702E-05  0.1500621E+04  0.7818609E-02  0.8884040E-01
        2   -1    0    0  501    0  0.00000000000E+00  0.00000000000E+00  0.59457751632E+03  0.59457751632E+03  0.25500000920E-02 0. -1.
       -2   -1    0    0    0  501  0.00000000000E+00  0.00000000000E+00 -0.94683375719E+03  0.94683375719E+03  0.25500000920E-02 0.  1.
    10030    2    1    2    0    0  0.00000000000E+00  0.00000000000E+00 -0.35225624087E+03  0.15414112735E+04  0.15006212896E+04 0.  0.
        5    1    3    3  502    0  0.60744985039E+03  0.18183630302E+03  0.23587844919E+03  0.67655043761E+03  0.46999998093E+01 0. -1.
       -5    1    3    3    0  502 -0.60744985039E+03 -0.18183630302E+03 -0.58813469006E+03  0.86486083590E+03  0.46999998093E+01 0.  1.
</event>
<event>
 5   0  0.1116613E-05  0.1496562E+04  0.7818609E-02  0.8886742E-01
       -3   -1    0    0    0  501  0.00000000000E+00  0.00000000000E+00  0.51077747305E+03  0.51077748303E+03  0.10100000352E+00 0.  1.
        3   -1    0    0  501    0  0.00000000000E+00  0.00000000000E+00 -0.10962201729E+04  0.10962201776E+04  0.10100000352E+00 0. -1.
    10030    2    1    2    0    0  0.00000000000E+00  0.00000000000E+00 -0.58544269985E+03  0.16069976606E+04  0.14965621692E+04 0.  0.
        4    1    3    3  502    0 -0.10183683312E+03 -0.66286992574E+03  0.63667369171E+02  0.67366343661E+03  0.12699999809E+01 0.  1.
       -4    1    3    3    0  502  0.10183683312E+03  0.66286992574E+03 -0.64911006902E+03  0.93333422397E+03  0.12699999809E+01 0. -1.
</event>
<event>
 5   0  0.3070497E-05  0.1500604E+04  0.7818609E-02  0.8884051E-01
       -2   -1    0    0    0  501  0.00000000000E+00  0.00000000000E+00  0.35525536483E+03  0.35525536484E+03  0.25500000920E-02 0.  1.
        2   -1    0    0  501    0  0.00000000000E+00  0.00000000000E+00 -0.15846443782E+04  0.15846443782E+04  0.25500000920E-02 0. -1.
    10030    2    1    2    0    0  0.00000000000E+00  0.00000000000E+00 -0.12293890134E+04  0.19398997431E+04  0.15006044338E+04 0.  0.
        4    1    3    3  502    0 -0.19928898260E+03  0.72301781896E+03 -0.58634418952E+03  0.95198318609E+03  0.12699999809E+01 0. -1.
       -4    1    3    3    0  502  0.19928898260E+03 -0.72301781896E+03 -0.64304482387E+03  0.98791655696E+03  0.12699999809E+01 0.  1.
</event>
<event>
 5   0  0.1576214E-05  0.1499245E+04  0.7818609E-02  0.8884955E-01
       -1   -1    0    0    0  501  0.00000000000E+00  0.00000000000E+00  0.56022580873E+03  0.56022580875E+03  0.50400001928E-02 0.  1.
        1   -1    0    0  501    0  0.00000000000E+00  0.00000000000E+00 -0.10030487455E+04  0.10030487455E+04  0.50400001928E-02 0. -1.
    10030    2    1    2    0    0  0.00000000000E+00  0.00000000000E+00 -0.44282293673E+03  0.15632745542E+04  0.14992448694E+04 0.  0.
        1    1    3    3  502    0  0.29971590217E+03  0.36951527196E+03 -0.82542891962E+03  0.95273504165E+03  0.50400001928E-02 0. -1.
       -1    1    3    3    0  502 -0.29971590217E+03 -0.36951527196E+03  0.38260598289E+03  0.61053951256E+03  0.50400001928E-02 0.  1.
</event>
<event>
 5   0  0.1643498E-05  0.1499882E+04  0.7818609E-02  0.8884532E-01
        1   -1    0    0  501    0  0.00000000000E+00  0.00000000000E+00  0.80989148426E+03  0.80989148428E+03  0.50400001928E-02 0. -1.
       -1   -1    0    0    0  501  0.00000000000E+00  0.00000000000E+00 -0.69442787597E+03  0.69442787598E+03  0.50400001928E-02 0.  1.
    10030    2    1    2    0    0  0.00000000000E+00  0.00000000000E+00  0.11546360830E+03  0.15043193603E+04  0.14998816263E+04 0.  0.
        4    1    3    3  502    0 -0.30757596717E+03 -0.26212102201E+03  0.69134394586E+03  0.80079240140E+03  0.12699999809E+01 0. -1.
       -4    1    3    3    0  502  0.30757596717E+03  0.26212102201E+03 -0.57588033756E+03  0.70352695887E+03  0.12699999809E+01 0.  1.
</event>
<event>
 5   0  0.1643498E-05  0.1500431E+04  0.7818609E-02  0.8884166E-01
        1   -1    0    0  501    0  0.00000000000E+00  0.00000000000E+00  0.12690765040E+04  0.12690765040E+04  0.50400001928E-02 0. -1.
       -1   -1    0    0    0  501  0.00000000000E+00  0.00000000000E+00 -0.44349057602E+03  0.44349057605E+03  0.50400001928E-02 0.  1.
    10030    2    1    2    0    0  0.00000000000E+00  0.00000000000E+00  0.82558592802E+03  0.17125670801E+04  0.15004312311E+04 0.  0.
        4    1    3    3  502    0  0.30228857278E+03 -0.22959087570E+03  0.11513759780E+04  0.12123360125E+04  0.12699999809E+01 0. -1.
       -4    1    3    3    0  502 -0.30228857278E+03  0.22959087570E+03 -0.32579005000E+03  0.50023106763E+03  0.12699999809E+01 0.  1.
</event>
<event>
 5   0  0.1643498E-05  0.1500446E+04  0.7818609E-02  0.8884156E-01
       -1   -1    0    0    0  501  0.00000000000E+00  0.00000000000E+00  0.29278282108E+03  0.29278282112E+03  0.50400001928E-02 0. -1.
        1   -1    0    0  501    0  0.00000000000E+00  0.00000000000E+00 -0.19223627830E+04  0.19223627831E+04  0.50400001928E-02 0.  1.
    10030    2    1    2    0    0  0.00000000000E+00  0.00000000000E+00 -0.16295799620E+04  0.22151456042E+04  0.15004463320E+04 0.  0.
        4    1    3    3  502    0 -0.17175469466E+03  0.70490610709E+03 -0.10966128977E+04  0.13148968611E+04  0.12699999809E+01 0.  1.
       -4    1    3    3    0  502  0.17175469466E+03 -0.70490610709E+03 -0.53296706423E+03  0.90024874307E+03  0.12699999809E+01 0. -1.
</event>
<event>
 5   0  0.1576214E-05  0.1500185E+04  0.7818609E-02  0.8884330E-01
       -1   -1    0    0    0  501  0.00000000000E+00  0.00000000000E+00  0.16080685263E+04  0.16080685263E+04  0.50400001928E-02 0.  1.
        1   -1    0    0  501    0  0.00000000000E+00  0.00000000000E+00 -0.34988474939E+03  0.34988474943E+03  0.50400001928E-02 0. -1.
    10030    2    1    2    0    0  0.00000000000E+00  0.00000000000E+00  0.12581837769E+04  0.19579532757E+04  0.15001848598E+04 0.  0.
        1    1    3    3  502    0  0.28588044828E+03  0.65816525599E+03  0.91422724437E+03  0.11622050547E+04  0.50400001928E-02 0. -1.
       -1    1    3    3    0  502 -0.28588044828E+03 -0.65816525599E+03  0.34395653254E+03  0.79574822099E+03  0.50400001928E-02 0.  1.
</event>
<event>
 5   0  0.1533777E-05  0.1500348E+04  0.7818609E-02  0.8884221E-01
       -1   -1    0    0    0  501  0.00000000000E+00  0.00000000000E+00  0.57213200713E+03  0.57213200715E+03  0.50400001928E-02 0.  1.
        1   -1    0    0  501    0  0.00000000000E+00  0.00000000000E+00 -0.98362109441E+03  0.98362109442E+03  0.50400001928E-02 0. -1.
    10030    2    1    2    0    0  0.00000000000E+00  0.00000000000E+00 -0.41148908728E+03  0.15557531016E+04  0.15003481076E+04 0.  0.
        5    1    3    3  502    0  0.28893626318E+03 -0.56175557363E+02  0.50973521183E+03  0.58863565437E+03  0.46999998093E+01 0.  1.
       -5    1    3    3    0  502 -0.28893626318E+03  0.56175557363E+02 -0.92122429910E+03  0.96711744720E+03  0.46999998093E+01 0. -1.
</event>
<event>
 5   0  0.3070497E-05  0.1499937E+04  0.7818609E-02  0.8884495E-01
        2   -1    0    0  501    0  0.00000000000E+00  0.00000000000E+00  0.12465436527E+04  0.12465436527E+04  0.25500000920E-02 0.  1.
       -2   -1    0    0    0  501  0.00000000000E+00  0.00000000000E+00 -0.45120975257E+03  0.45120975258E+03  0.25500000920E-02 0. -1.
    10030    2    1    2    0    0  0.00000000000E+00  0.00000000000E+00  0.79533390015E+03  0.16977534053E+04  0.14999368695E+04 0.  0.
        4    1    3    3  502    0  0.40752077808E+03  0.19953479910E+03 -0.27821399941E+03  0.53225178533E+03  0.12699999809E+01 0. -1.
       -4    1    3    3    0  502 -0.40752077808E+03 -0.19953479910E+03  0.10735478996E+04  0.11655016200E+04  0.12699999809E+01 0.  1.
</event>
<event>
 5   0  0.1533777E-05  0.1499838E+04  0.7818609E-02  0.8884561E-01
        1   -1    0    0  501    0  0.00000000000E+00  0.00000000000E+00  0.11126898736E+04  0.11126898736E+04  0.50400001928E-02 0.  1.
       -1   -1    0    0    0  501  0.00000000000E+00  0.00000000000E+00 -0.50542248755E+03  0.50542248758E+03  0.50400001928E-02 0. -1.
    10030    2    1    2    0    0  0.00000000000E+00  0.00000000000E+00  0.60726738605E+03  0.16181123612E+04  0.14998379697E+04 0.  0.
        5    1    3    3  502    0 -0.34259772165E+03  0.60535947443E+02  0.10203387101E+04  0.10780310631E+04  0.46999998093E+01 0.  1.
       -5    1    3    3    0  502  0.34259772165E+03 -0.60535947443E+02 -0.41307132401E+03  0.54008129807E+03  0.46999998093E+01 0. -1.
</event>
<event>
 5   0  0.3070497E-05  0.1500362E+04  0.7818609E-02  0.8884213E-01
        2   -1    0    0  501    0  0.00000000000E+00  0.00000000000E+00  0.10235364176E+04  0.10235364176E+04  0.25500000920E-02 0. -1.
       -2   -1    0    0    0  501  0.00000000000E+00  0.00000000000E+00 -0.54983018899E+03  0.54983018900E+03  0.25500000920E-02 0.  1.
    10030    2    1    2    0    0  0.00000000000E+00  0.00000000000E+00  0.47370622860E+03  0.15733666066E+04  0.15003615857E+04 0.  0.
        4    1    3    3  502    0  0.60178564481E+03 -0.13309925192E+03 -0.21163467440E+03  0.65165345197E+03  0.12699999809E+01 0. -1.
       -4    1    3    3    0  502 -0.60178564481E+03  0.13309925192E+03  0.68534090300E+03  0.92171315461E+03  0.12699999809E+01 0.  1.
</event>
<event>
 5   0  0.1576214E-05  0.1500263E+04  0.7818609E-02  0.8884278E-01
       -1   -1    0    0    0  501  0.00000000000E+00  0.00000000000E+00  0.70702677701E+03  0.70702677703E+03  0.50400001928E-02 0. -1.
        1   -1    0    0  501    0  0.00000000000E+00  0.00000000000E+00 -0.79586467776E+03  0.79586467778E+03  0.50400001928E-02 0.  1.
    10030    2    1    2    0    0  0.00000000000E+00  0.00000000000E+00 -0.88837900754E+02  0.15028914548E+04  0.15002634943E+04 0.  0.
        1    1    3    3  502    0  0.30489822098E+03  0.22791997344E+02 -0.73061170332E+03  0.79200748819E+03  0.50400001928E-02 0.  1.
       -1    1    3    3    0  502 -0.30489822098E+03 -0.22791997344E+02  0.64177380257E+03  0.71088396661E+03  0.50400001928E-02 0. -1.
</event>
<event>
 5   0  0.3093600E-05  0.1500052E+04  0.7818609E-02  0.8884418E-01
       -2   -1    0    0    0  501  0.00000000000E+00  0.00000000000E+00  0.90784541678E+03  0.90784541679E+03  0.25500000920E-02 0.  1.
        2   -1    0    0  501    0  0.00000000000E+00  0.00000000000E+00 -0.61964186557E+03  0.61964186557E+03  0.25500000920E-02 0. -1.
    10030    2    1    2    0    0  0.00000000000E+00  0.00000000000E+00  0.28820355122E+03  0.15274872824E+04  0.15000520360E+04 0.  0.
        1    1    3    3  502    0 -0.42643532256E+03 -0.55958264014E+03 -0.12057361743E+03  0.71380516439E+03  0.50400001928E-02 0. -1.
       -1    1    3    3    0  502  0.42643532256E+03  0.55958264014E+03  0.40877716865E+03  0.81368211797E+03  0.50400001928E-02 0.  1.
</event>
<event>
 5   0  0.1588657E-05  0.1500261E+04  0.7818609E-02  0.8884280E-01
        1   -1    0    0  501    0  0.00000000000E+00  0.00000000000E+00  0.17721485987E+04  0.17721485987E+04  0.50400001928E-02 0.  1.
       -1   -1    0    0    0  501  0.00000000000E+00  0.00000000000E+00 -0.31752158753E+03  0.31752158757E+03  0.50400001928E-02 0. -1.
    10030    2    1    2    0    0  0.00000000000E+00  0.00000000000E+00  0.14546270111E+04  0.20896701862E+04  0.15002605593E+04 0.  0.
        3    1    3    3  502    0  0.28177795648E+03  0.40320340513E+03 -0.61503980854E+02  0.49573637402E+03  0.10100000352E+00 0. -1.
       -3    1    3    3    0  502 -0.28177795648E+03 -0.40320340513E+03  0.15161309920E+04  0.15939338122E+04  0.10100000352E+00 0.  1.
</event>
<event>
 5   0  0.3018308E-05  0.1500401E+04  0.7818609E-02  0.8884186E-01
        2   -1    0    0  501    0  0.00000000000E+00  0.00000000000E+00  0.11987567353E+04  0.11987567353E+04  0.25500000920E-02 0.  1.
       -2   -1    0    0    0  501  0.00000000000E+00  0.00000000000E+00 -0.46948714596E+03  0.46948714596E+03  0.25500000920E-02 0. -1.
    10030    2    1    2    0    0  0.00000000000E+00  0.00000000000E+00  0.72926958937E+03  0.16682438813E+04  0.15004011175E+04 0.  0.
        2    1    3    3  502    0 -0.68785767461E+02  0.24804964730E+03  0.11481178675E+04  0.11766200521E+04  0.25500000920E-02 0.  1.
       -2    1    3    3    0  502  0.68785767461E+02 -0.24804964730E+03 -0.41884827813E+03  0.49162382919E+03  0.25500000920E-02 0. -1.
</event>
<event>
 5   0  0.1576214E-05  0.1498670E+04  0.7818609E-02  0.8885338E-01
       -1   -1    0    0    0  501  0.00000000000E+00  0.00000000000E+00  0.53141403937E+03  0.53141403940E+03  0.50400001928E-02 0. -1.
        1   -1    0    0  501    0  0.00000000000E+00  0.00000000000E+00 -0.10566205111E+04  0.10566205111E+04  0.50400001928E-02 0.  1.
    10030    2    1    2    0    0  0.00000000000E+00  0.00000000000E+00 -0.52520647170E+03  0.15880345505E+04  0.14986700423E+04 0.  0.
        1    1    3    3  502    0 -0.34316664645E+03  0.13300333339E+03  0.42904308846E+03  0.56527091355E+03  0.50400001928E-02 0. -1.
       -1    1    3    3    0  502  0.34316664645E+03 -0.13300333339E+03 -0.95424956016E+03  0.10227636369E+04  0.50400001928E-02 0.  1.
</event>
<event>
 5   0  0.1588657E-05  0.1499417E+04  0.7818609E-02  0.8884841E-01
       -1   -1    0    0    0  501  0.00000000000E+00  0.00000000000E+00  0.53569963190E+03  0.53569963193E+03  0.50400001928E-02 0. -1.
        1   -1    0    0  501    0  0.00000000000E+00  0.00000000000E+00 -0.10492125881E+04  0.10492125881E+04  0.50400001928E-02 0.  1.
    10030    2    1    2    0    0  0.00000000000E+00  0.00000000000E+00 -0.51351295617E+03  0.15849122200E+04  0.14994169497E+04 0.  0.
        3    1    3    3  502    0  0.18299321622E+03 -0.28524298882E+02  0.51113901286E+03  0.54365729414E+03  0.10100000352E+00 0. -1.
       -3    1    3    3    0  502 -0.18299321622E+03  0.28524298882E+02 -0.10246519690E+04  0.10412549259E+04  0.10100000352E+00 0.  1.
</event>
<event>
 5   0  0.1576214E-05  0.1499959E+04  0.7818609E-02  0.8884480E-01
        1   -1    0    0  501    0  0.00000000000E+00  0.00000000000E+00  0.24996493984E+04  0.24996493984E+04  0.50400001928E-02 0. -1.
       -1   -1    0    0    0  501  0.00000000000E+00  0.00000000000E+00 -0.22501939695E+03  0.22501939700E+03  0.50400001928E-02 0.  1.
    10030    2    1    2    0    0  0.00000000000E+00  0.00000000000E+00  0.22746300015E+04  0.27246687954E+04  0.14999594665E+04 0.  0.
        1    1    3    3  502    0  0.19907388679E+03 -0.99674487424E+02  0.24382401690E+04  0.24483832497E+04  0.50400001928E-02 0. -1.
       -1    1    3    3    0  502 -0.19907388679E+03  0.99674487424E+02 -0.16361016749E+03  0.27628554573E+03  0.50400001928E-02 0.  1.
</event>
<event>
 5   0  0.3030702E-05  0.1499173E+04  0.7818609E-02  0.8885003E-01
        2   -1    0    0  501    0  0.00000000000E+00  0.00000000000E+00  0.34492416204E+03  0.34492416205E+03  0.25500000920E-02 0.  1.
       -2   -1    0    0    0  501  0.00000000000E+00  0.00000000000E+00 -0.16289964084E+04  0.16289964084E+04  0.25500000920E-02 0. -1.
    10030    2    1    2    0    0  0.00000000000E+00  0.00000000000E+00 -0.12840722463E+04  0.19739205704E+04  0.14991734004E+04 0.  0.
        5    1    3    3  502    0  0.30840678182E+03  0.68254407389E+03 -0.60304448530E+03  0.96159549558E+03  0.46999998093E+01 0.  1.
       -5    1    3    3    0  502 -0.30840678182E+03 -0.68254407389E+03 -0.68102776105E+03  0.10123250749E+04  0.46999998093E+01 0. -1.
</event>
<event>
 5   0  0.2969498E-05  0.1499717E+04  0.7818609E-02  0.8884641E-01
        2   -1    0    0  501    0  0.00000000000E+00  0.00000000000E+00  0.17089313885E+04  0.17089313885E+04  0.25500000920E-02 0. -1.
       -2   -1    0    0    0  501  0.00000000000E+00  0.00000000000E+00 -0.32902902472E+03  0.32902902473E+03  0.25500000920E-02 0.  1.
    10030    2    1    2    0    0  0.00000000000E+00  0.00000000000E+00  0.13799023638E+04  0.20379604133E+04  0.14997173442E+04 0.  0.
        3    1    3    3  502    0  0.20083097052E+03 -0.23442462882E+03  0.16185856195E+04  0.16477582963E+04  0.10100000352E+00 0. -1.
       -3    1    3    3    0  502 -0.20083097052E+03  0.23442462882E+03 -0.23868325568E+03  0.39020211693E+03  0.10100000352E+00 0.  1.
</event>
<event>
 5   0  0.3093600E-05  0.1499644E+04  0.7818609E-02  0.8884690E-01
       -2   -1    0    0    0  501  0.00000000000E+00  0.00000000000E+00  0.28596963234E+03  0.28596963235E+03  0.25500000920E-02 0.  1.
        2   -1    0    0  501    0  0.00000000000E+00  0.00000000000E+00 -0.19660578939E+04  0.19660578939E+04  0.25500000920E-02 0. -1.
    10030    2    1    2    0    0  0.00000000000E+00  0.00000000000E+00 -0.16800882615E+04  0.22520275262E+04  0.14996437618E+04 0.  0.
        1    1    3    3  502    0 -0.16325222560E+03  0.43433685936E+03  0.44477443886E+02  0.46613092538E+03  0.50400001928E-02 0.  1.
       -1    1    3    3    0  502  0.16325222560E+03 -0.43433685936E+03 -0.17245657054E+04  0.17858966008E+04  0.50400001928E-02 0. -1.
</event>
<event>
 5   0  0.1580078E-05  0.1499500E+04  0.7818609E-02  0.8884785E-01
        1   -1    0    0  501    0  0.00000000000E+00  0.00000000000E+00  0.92026463815E+03  0.92026463817E+03  0.50400001928E-02 0.  1.
       -1   -1    0    0    0  501  0.00000000000E+00  0.00000000000E+00 -0.61082983635E+03  0.61082983637E+03  0.50400001928E-02 0. -1.
    10030    2    1    2    0    0  0.00000000000E+00  0.00000000000E+00  0.30943480181E+03  0.15310944745E+04  0.14995000478E+04 0.  0.
        2    1    3    3  502    0 -0.27298565502E+03  0.52968333804E+03 -0.30988569760E+03  0.67165076641E+03  0.25500000920E-02 0. -1.
       -2    1    3    3    0  502  0.27298565502E+03 -0.52968333804E+03  0.61932049940E+03  0.85944370812E+03  0.25500000920E-02 0.  1.
</event>
<event>
 5   0  0.1576214E-05  0.1499798E+04  0.7818609E-02  0.8884587E-01
       -1   -1    0    0    0  501  0.00000000000E+00  0.00000000000E+00  0.30865141743E+03  0.30865141747E+03  0.50400001928E-02 0.  1.
        1   -1    0    0  501    0  0.00000000000E+00  0.00000000000E+00 -0.18219535206E+04  0.18219535207E+04  0.50400001928E-02 0. -1.
    10030    2    1    2    0    0  0.00000000000E+00  0.00000000000E+00 -0.15133021032E+04  0.21306049381E+04  0.14997980353E+04 0.  0.
        1    1    3    3  502    0 -0.51511299693E+03 -0.37132533630E+03 -0.13233323165E+04  0.14677984619E+04  0.50400001928E-02 0. -1.
       -1    1    3    3    0  502  0.51511299693E+03  0.37132533630E+03 -0.18996978675E+03  0.66280647620E+03  0.50400001928E-02 0.  1.
</event>
<event>
 5   0  0.3030702E-05  0.1500234E+04  0.7818609E-02  0.8884297E-01
       -2   -1    0    0    0  501  0.00000000000E+00  0.00000000000E+00  0.41947330557E+03  0.41947330558E+03  0.25500000920E-02 0. -1.
        2   -1    0    0  501    0  0.00000000000E+00  0.00000000000E+00 -0.13413858943E+04  0.13413858943E+04  0.25500000920E-02 0.  1.
    10030    2    1    2    0    0  0.00000000000E+00  0.00000000000E+00 -0.92191258873E+03  0.17608591999E+04  0.15002340819E+04 0.  0.
        5    1    3    3  502    0 -0.22940507681E+03  0.69769420416E+03 -0.28198916009E+03  0.78672985719E+03  0.46999998093E+01 0.  1.
       -5    1    3    3    0  502  0.22940507681E+03 -0.69769420416E+03 -0.63992342864E+03  0.97412934270E+03  0.46999998093E+01 0. -1.
</event>
<event>
 5   0  0.1533777E-05  0.1497047E+04  0.7818609E-02  0.8886419E-01
        1   -1    0    0  501    0  0.00000000000E+00  0.00000000000E+00  0.78238791526E+03  0.78238791528E+03  0.50400001928E-02 0. -1.
       -1   -1    0    0    0  501  0.00000000000E+00  0.00000000000E+00 -0.71612528416E+03  0.71612528418E+03  0.50400001928E-02 0.  1.
    10030    2    1    2    0    0  0.00000000000E+00  0.00000000000E+00  0.66262631105E+02  0.14985131995E+04  0.14970474517E+04 0.  0.
        5    1    3    3  502    0 -0.23647833487E+03  0.78117268399E+02 -0.67342193365E+03  0.71801358010E+03  0.46999998093E+01 0.  1.
       -5    1    3    3    0  502  0.23647833487E+03 -0.78117268399E+02  0.73968456476E+03  0.78049961936E+03  0.46999998093E+01 0. -1.
</event>
<event>
 5   0  0.1643498E-05  0.1504414E+04  0.7818609E-02  0.8881523E-01
        1   -1    0    0  501    0  0.00000000000E+00  0.00000000000E+00  0.12386054237E+04  0.12386054237E+04  0.50400001928E-02 0.  1.
       -1   -1    0    0    0  501  0.00000000000E+00  0.00000000000E+00 -0.45681673011E+03  0.45681673013E+03  0.50400001928E-02 0. -1.
    10030    2    1    2    0    0  0.00000000000E+00  0.00000000000E+00  0.78178869359E+03  0.16954221538E+04  0.15044144104E+04 0.  0.
        4    1    3    3  502    0  0.17886808611E+03 -0.37797790746E+03 -0.31375431356E+03  0.52278530291E+03  0.12699999809E+01 0. -1.
       -4    1    3    3    0  502 -0.17886808611E+03  0.37797790746E+03  0.10955430071E+04  0.11726368509E+04  0.12699999809E+01 0.  1.
</event>
<event>
 5   0  0.3030702E-05  0.1498815E+04  0.7818609E-02  0.8885241E-01
       -2   -1    0    0    0  501  0.00000000000E+00  0.00000000000E+00  0.53675937261E+03  0.53675937262E+03  0.25500000920E-02 0.  1.
        2   -1    0    0  501    0  0.00000000000E+00  0.00000000000E+00 -0.10463007361E+04  0.10463007361E+04  0.25500000920E-02 0. -1.
    10030    2    1    2    0    0  0.00000000000E+00  0.00000000000E+00 -0.50954136353E+03  0.15830601088E+04  0.14988151677E+04 0.  0.
        5    1    3    3  502    0  0.59032531411E+03  0.14904260385E+03  0.20669897221E+03  0.64299629031E+03  0.46999998093E+01 0.  1.
       -5    1    3    3    0  502 -0.59032531411E+03 -0.14904260385E+03 -0.71624033574E+03  0.94006381846E+03  0.46999998093E+01 0. -1.
</event>
<event>
 5   0  0.1533777E-05  0.1498784E+04  0.7818609E-02  0.8885262E-01
       -1   -1    0    0    0  501  0.00000000000E+00  0.00000000000E+00  0.10267449647E+04  0.10267449647E+04  0.50400001928E-02 0. -1.
        1   -1    0    0  501    0  0.00000000000E+00  0.00000000000E+00 -0.54695965800E+03  0.54695965803E+03  0.50400001928E-02 0.  1.
    10030    2    1    2    0    0  0.00000000000E+00  0.00000000000E+00  0.47978530665E+03  0.15737046227E+04  0.14987836065E+04 0.  0.
        5    1    3    3  502    0 -0.29558107369E+03 -0.64771443340E+03  0.48538293295E+03  0.86169648947E+03  0.46999998093E+01 0.  1.
       -5    1    3    3    0  502  0.29558107369E+03  0.64771443340E+03 -0.55976263015E+01  0.71200813323E+03  0.46999998093E+01 0. -1.
</event>
<event>
 5   0  0.3030702E-05  0.1499422E+04  0.7818609E-02  0.8884837E-01
       -2   -1    0    0    0  501  0.00000000000E+00  0.00000000000E+00  0.10154556267E+04  0.10154556267E+04  0.25500000920E-02 0.  1.
        2   -1    0    0  501    0  0.00000000000E+00  0.00000000000E+00 -0.55351201275E+03  0.55351201276E+03  0.25500000920E-02 0. -1.
    10030    2    1    2    0    0  0.00000000000E+00  0.00000000000E+00  0.46194361391E+03  0.15689676394E+04  0.14994224058E+04 0.  0.
        5    1    3    3  502    0 -0.32794580530E+03  0.15222038287E+03  0.91818653310E+03  0.98681715416E+03  0.46999998093E+01 0.  1.
       -5    1    3    3    0  502  0.32794580530E+03 -0.15222038287E+03 -0.45624291919E+03  0.58215048526E+03  0.46999998093E+01 0. -1.
</event>
<event>
 5   0  0.3070497E-05  0.1501401E+04  0.7818609E-02  0.8883522E-01
        2   -1    0    0  501    0  0.00000000000E+00  0.00000000000E+00  0.11905763868E+04  0.11905763868E+04  0.25500000920E-02 0.  1.
       -2   -1    0    0    0  501  0.00000000000E+00  0.00000000000E+00 -0.47334344081E+03  0.47334344082E+03  0.25500000920E-02 0. -1.
    10030    2    1    2    0    0  0.00000000000E+00  0.00000000000E+00  0.71723294600E+03  0.16639198276E+04  0.15014013767E+04 0.  0.
        4    1    3    3  502    0 -0.60854501421E+03  0.29432746174E+03  0.72044467850E+03  0.98792602797E+03  0.12699999809E+01 0. -1.
       -4    1    3    3    0  502  0.60854501421E+03 -0.29432746174E+03 -0.32117325070E+01  0.67599379966E+03  0.12699999809E+01 0.  1.
</event>
<event>
 5   0  0.3093600E-05  0.1499031E+04  0.7818609E-02  0.8885098E-01
       -2   -1    0    0    0  501  0.00000000000E+00  0.00000000000E+00  0.76772085363E+03  0.76772085364E+03  0.25500000920E-02 0. -1.
        2   -1    0    0  501    0  0.00000000000E+00  0.00000000000E+00 -0.73174161360E+03  0.73174161361E+03  0.25500000920E-02 0.  1.
    10030    2    1    2    0    0  0.00000000000E+00  0.00000000000E+00  0.35979240029E+02  0.14994624672E+04  0.14990307485E+04 0.  0.
        1    1    3    3  502    0  0.24593833515E+03  0.64993646997E+03 -0.26292967816E+03  0.74299064286E+03  0.50400001928E-02 0.  1.
       -1    1    3    3    0  502 -0.24593833515E+03 -0.64993646997E+03  0.29890891818E+03  0.75647182439E+03  0.50400001928E-02 0. -1.
</event>
<event>
 5   0  0.3093600E-05  0.1500061E+04  0.7818609E-02  0.8884412E-01
        2   -1    0    0  501    0  0.00000000000E+00  0.00000000000E+00  0.67381473884E+03  0.67381473885E+03  0.25500000920E-02 0.  1.
       -2   -1    0    0    0  501  0.00000000000E+00  0.00000000000E+00 -0.83486752640E+03  0.83486752641E+03  0.25500000920E-02 0. -1.
    10030    2    1    2    0    0  0.00000000000E+00  0.00000000000E+00 -0.16105278756E+03  0.15086822653E+04  0.15000613911E+04 0.  0.
        1    1    3    3  502    0  0.51422029112E+03  0.25140424765E+03  0.40694398523E+03  0.70230336086E+03  0.50400001928E-02 0.  1.
       -1    1    3    3    0  502 -0.51422029112E+03 -0.25140424765E+03 -0.56799677279E+03  0.80637890440E+03  0.50400001928E-02 0. -1.
</event>
<event>
 5   0  0.1580078E-05  0.1499420E+04  0.7818609E-02  0.8884839E-01
        1   -1    0    0  501    0  0.00000000000E+00  0.00000000000E+00  0.14111272141E+04  0.14111272141E+04  0.50400001928E-02 0.  1.
       -1   -1    0    0    0  501  0.00000000000E+00  0.00000000000E+00 -0.39830907042E+03  0.39830907046E+03  0.50400001928E-02 0. -1.
    10030    2    1    2    0    0  0.00000000000E+00  0.00000000000E+00  0.10128181437E+04  0.18094362845E+04  0.14994195796E+04 0.  0.
        2    1    3    3  502    0  0.37468659079E+03  0.51861494717E+03  0.34825684758E+02  0.64075294231E+03  0.25500000920E-02 0. -1.
       -2    1    3    3    0  502 -0.37468659079E+03 -0.51861494717E+03  0.97799245890E+03  0.11686833422E+04  0.25500000920E-02 0.  1.
</event>
<event>
 5   0  0.3093600E-05  0.1499048E+04  0.7818609E-02  0.8885086E-01
        2   -1    0    0  501    0  0.00000000000E+00  0.00000000000E+00  0.16556597696E+04  0.16556597696E+04  0.25500000920E-02 0.  1.
       -2   -1    0    0    0  501  0.00000000000E+00  0.00000000000E+00 -0.33931272007E+03  0.33931272008E+03  0.25500000920E-02 0. -1.
    10030    2    1    2    0    0  0.00000000000E+00  0.00000000000E+00  0.13163470495E+04  0.19949724897E+04  0.14990482580E+04 0.  0.
        1    1    3    3  502    0 -0.45581950424E+03 -0.26387879697E+03 -0.51523684643E+02  0.52920518708E+03  0.50400001928E-02 0. -1.
       -1    1    3    3    0  502  0.45581950424E+03  0.26387879697E+03  0.13678707341E+04  0.14657673026E+04  0.50400001928E-02 0.  1.
</event>
<event>
 5   0  0.1533777E-05  0.1500164E+04  0.7818609E-02  0.8884344E-01
       -1   -1    0    0    0  501  0.00000000000E+00  0.00000000000E+00  0.51464400460E+03  0.51464400463E+03  0.50400001928E-02 0. -1.
        1   -1    0    0  501    0  0.00000000000E+00  0.00000000000E+00 -0.10932282321E+04  0.10932282321E+04  0.50400001928E-02 0.  1.
    10030    2    1    2    0    0  0.00000000000E+00  0.00000000000E+00 -0.57858422749E+03  0.16078722367E+04  0.15001644648E+04 0.  0.
        5    1    3    3  502    0 -0.37823105973E+03  0.41421676444E+03 -0.82300735957E+03  0.99599069593E+03  0.46999998093E+01 0.  1.
       -5    1    3    3    0  502  0.37823105973E+03 -0.41421676444E+03  0.24442313207E+03  0.61188154080E+03  0.46999998093E+01 0. -1.
</event>
<event>
 5   0  0.1588657E-05  0.1501006E+04  0.7818609E-02  0.8883784E-01
        1   -1    0    0  501    0  0.00000000000E+00  0.00000000000E+00  0.12968937648E+04  0.12968937648E+04  0.50400001928E-02 0. -1.
       -1   -1    0    0    0  501  0.00000000000E+00  0.00000000000E+00 -0.43431074594E+03  0.43431074597E+03  0.50400001928E-02 0.  1.
    10030    2    1    2    0    0  0.00000000000E+00  0.00000000000E+00  0.86258301887E+03  0.17312045108E+04  0.15010061938E+04 0.  0.
        3    1    3    3  502    0 -0.52980135887E+03 -0.51317638251E+03  0.27141277386E+03  0.78594171759E+03  0.10100000352E+00 0.  1.
       -3    1    3    3    0  502  0.52980135887E+03  0.51317638251E+03  0.59117024501E+03  0.94526279320E+03  0.10100000352E+00 0. -1.
</event>
<event>
 5   0  0.3070497E-05  0.1499565E+04  0.7818609E-02  0.8884743E-01
       -2   -1    0    0    0  501  0.00000000000E+00  0.00000000000E+00  0.25342802788E+03  0.25342802789E+03  0.25500000920E-02 0.  1.
        2   -1    0    0  501    0  0.00000000000E+00  0.00000000000E+00 -0.22182765386E+04  0.22182765386E+04  0.25500000920E-02 0. -1.
    10030    2    1    2    0    0  0.00000000000E+00  0.00000000000E+00 -0.19648485107E+04  0.24717045665E+04  0.14995645348E+04 0.  0.
        4    1    3    3  502    0  0.30781681415E+03  0.52763115452E+03 -0.26579888027E+03  0.66618051904E+03  0.12699999809E+01 0.  1.
       -4    1    3    3    0  502 -0.30781681415E+03 -0.52763115452E+03 -0.16990496304E+04  0.18055240474E+04  0.12699999809E+01 0. -1.
</event>
<event>
 5   0  0.1643498E-05  0.1500293E+04  0.7818609E-02  0.8884258E-01
        1   -1    0    0  501    0  0.00000000000E+00  0.00000000000E+00  0.93522483484E+03  0.93522483486E+03  0.50400001928E-02 0.  1.
       -1   -1    0    0    0  501  0.00000000000E+00  0.00000000000E+00 -0.60169451561E+03  0.60169451563E+03  0.50400001928E-02 0. -1.
    10030    2    1    2    0    0  0.00000000000E+00  0.00000000000E+00  0.33353031923E+03  0.15369193505E+04  0.15002928434E+04 0.  0.
        4    1    3    3  502    0 -0.69538941129E+03 -0.10281403719E+02 -0.12124958176E+03  0.70595694951E+03  0.12699999809E+01 0. -1.
       -4    1    3    3    0  502  0.69538941129E+03  0.10281403719E+02  0.45477990099E+03  0.83096240097E+03  0.12699999809E+01 0.  1.
</event>
<event>
 5   0  0.2969498E-05  0.1500017E+04  0.7818609E-02  0.8884442E-01
        2   -1    0    0  501    0  0.00000000000E+00  0.00000000000E+00  0.66707664764E+03  0.66707664765E+03  0.25500000920E-02 0.  1.
       -2   -1    0    0    0  501  0.00000000000E+00  0.00000000000E+00 -0.84325025270E+03  0.84325025270E+03  0.25500000920E-02 0. -1.
    10030    2    1    2    0    0  0.00000000000E+00  0.00000000000E+00 -0.17617360505E+03  0.15103269003E+04  0.15000167355E+04 0.  0.
        3    1    3    3  502    0 -0.27944444039E+03  0.12117524292E+03 -0.77817338250E+03  0.83565929552E+03  0.10100000352E+00 0. -1.
       -3    1    3    3    0  502  0.27944444039E+03 -0.12117524292E+03  0.60199977744E+03  0.67466760483E+03  0.10100000352E+00 0.  1.
</event>
<event>
 5   0  0.2969498E-05  0.1500065E+04  0.7818609E-02  0.8884410E-01
       -2   -1    0    0    0  501  0.00000000000E+00  0.00000000000E+00  0.36505549557E+03  0.36505549558E+03  0.25500000920E-02 0.  1.
        2   -1    0    0  501    0  0.00000000000E+00  0.00000000000E+00 -0.15409956106E+04  0.15409956106E+04  0.25500000920E-02 0. -1.
    10030    2    1    2    0    0  0.00000000000E+00  0.00000000000E+00 -0.11759401150E+04  0.19060511062E+04  0.15000652203E+04 0.  0.
        3    1    3    3  502    0  0.67156883620E+03  0.28005774337E+03 -0.35675494392E+03  0.81037716009E+03  0.10100000352E+00 0.  1.
       -3    1    3    3    0  502 -0.67156883620E+03 -0.28005774337E+03 -0.81918517113E+03  0.10956739461E+04  0.10100000352E+00 0. -1.
</event>
<event>
 5   0  0.2969498E-05  0.1500149E+04  0.7818609E-02  0.8884354E-01
       -2   -1    0    0    0  501  0.00000000000E+00  0.00000000000E+00  0.40893133186E+03  0.40893133187E+03  0.25500000920E-02 0.  1.
        2   -1    0    0  501    0  0.00000000000E+00  0.00000000000E+00 -0.13758090422E+04  0.13758090422E+04  0.25500000920E-02 0. -1.
    10030    2    1    2    0    0  0.00000000000E+00  0.00000000000E+00 -0.96687771031E+03  0.17847403740E+04  0.15001485580E+04 0.  0.
        3    1    3    3  502    0  0.54720142774E+03 -0.34846846364E+03 -0.93136352312E+03  0.11350320238E+04  0.10100000352E+00 0. -1.
       -3    1    3    3    0  502 -0.54720142774E+03  0.34846846364E+03 -0.35514187194E+02  0.64970835024E+03  0.10100000352E+00 0.  1.
</event>
<event>
 5   0  0.1580078E-05  0.1500331E+04  0.7818609E-02  0.8884233E-01
        1   -1    0    0  501    0  0.00000000000E+00  0.00000000000E+00  0.18458530259E+03  0.18458530266E+03  0.50400001928E-02 0. -1.
       -1   -1    0    0    0  501  0.00000000000E+00  0.00000000000E+00 -0.30487179176E+04  0.30487179176E+04  0.50400001928E-02 0.  1.
    10030    2    1    2    0    0  0.00000000000E+00  0.00000000000E+00 -0.28641326150E+04  0.32333032202E+04  0.15003313227E+04 0.  0.
        2    1    3    3  502    0  0.36766317683E+03  0.62443869307E+03 -0.10139146460E+04  0.12462434764E+04  0.25500000920E-02 0.  1.
       -2    1    3    3    0  502 -0.36766317683E+03 -0.62443869307E+03 -0.18502179689E+04  0.19870597438E+04  0.25500000920E-02 0. -1.
</event>
<event>
 5   0  0.3030702E-05  0.1501006E+04  0.7818609E-02  0.8883784E-01
       -2   -1    0    0    0  501  0.00000000000E+00  0.00000000000E+00  0.83317836256E+03  0.83317836256E+03  0.25500000920E-02 0. -1.
        2   -1    0    0  501    0  0.00000000000E+00  0.00000000000E+00 -0.67603151487E+03  0.67603151488E+03  0.25500000920E-02 0.  1.
    10030    2    1    2    0    0  0.00000000000E+00  0.00000000000E+00  0.15714684769E+03  0.15092098774E+04  0.15010061034E+04 0.  0.
        5    1    3    3  502    0  0.94618108051E+02  0.54360689489E+03  0.59004978710E+03  0.80786254017E+03  0.46999998093E+01 0. -1.
       -5    1    3    3    0  502 -0.94618108051E+02 -0.54360689489E+03 -0.43290293942E+03  0.70134733727E+03  0.46999998093E+01 0.  1.
</event>
<event>
 5   0  0.3030702E-05  0.1499322E+04  0.7818609E-02  0.8884904E-01
        2   -1    0    0  501    0  0.00000000000E+00  0.00000000000E+00  0.12225109200E+04  0.12225109200E+04  0.25500000920E-02 0.  1.
       -2   -1    0    0    0  501  0.00000000000E+00  0.00000000000E+00 -0.45970264081E+03  0.45970264081E+03  0.25500000920E-02 0. -1.
    10030    2    1    2    0    0  0.00000000000E+00  0.00000000000E+00  0.76280827915E+03  0.16822135608E+04  0.14993218445E+04 0.  0.
        5    1    3    3  502    0  0.14314365845E+03  0.19965249859E+03 -0.41324038572E+03  0.48077118626E+03  0.46999998093E+01 0. -1.
       -5    1    3    3    0  502 -0.14314365845E+03 -0.19965249859E+03  0.11760486649E+04  0.12014423745E+04  0.46999998093E+01 0.  1.
</event>
<event>
 5   0  0.3070497E-05  0.1499919E+04  0.7818609E-02  0.8884507E-01
       -2   -1    0    0    0  501  0.00000000000E+00  0.00000000000E+00  0.74740411990E+03  0.74740411991E+03  0.25500000920E-02 0. -1.
        2   -1    0    0  501    0  0.00000000000E+00  0.00000000000E+00 -0.75252376326E+03  0.75252376327E+03  0.25500000920E-02 0.  1.
    10030    2    1    2    0    0  0.00000000000E+00  0.00000000000E+00 -0.51196433579E+01  0.14999278832E+04  0.14999191458E+04 0.  0.
        4    1    3    3  502    0 -0.47592176814E+03 -0.54622858409E+03 -0.19639219859E+03  0.75062554182E+03  0.12699999809E+01 0.  1.
       -4    1    3    3    0  502  0.47592176814E+03  0.54622858409E+03  0.19127255524E+03  0.74930234135E+03  0.12699999809E+01 0. -1.
</event>
<event>
 5   0  0.3070497E-05  0.1500184E+04  0.7818609E-02  0.8884330E-01
       -2   -1    0    0    0  501  0.00000000000E+00  0.00000000000E+00  0.25482951562E+03  0.25482951563E+03  0.25500000920E-02 0. -1.
        2   -1    0    0  501    0  0.00000000000E+00  0.00000000000E+00 -0.22079000496E+04  0.22079000496E+04  0.25500000920E-02 0.  1.
    10030    2    1    2    0    0  0.00000000000E+00  0.00000000000E+00 -0.19530705340E+04  0.24627295653E+04  0.15001841223E+04 0.  0.
        4    1    3    3  502    0 -0.53326373558E+03  0.43603131884E+03 -0.48915719428E+03  0.84484903759E+03  0.12699999809E+01 0. -1.
       -4    1    3    3    0  502  0.53326373558E+03 -0.43603131884E+03 -0.14639133397E+04  0.16178805277E+04  0.12699999809E+01 0.  1.
</event>
<event>
 5   0  0.1580078E-05  0.1500250E+04  0.7818609E-02  0.8884287E-01
       -1   -1    0    0    0  501  0.00000000000E+00  0.00000000000E+00  0.79524561947E+03  0.79524561948E+03  0.50400001928E-02 0.  1.
        1   -1    0    0  501    0  0.00000000000E+00  0.00000000000E+00 -0.70756398956E+03  0.70756398958E+03  0.50400001928E-02 0. -1.
    10030    2    1    2    0    0  0.00000000000E+00  0.00000000000E+00  0.87681629909E+02  0.15028096091E+04  0.15002495302E+04 0.  0.
        2    1    3    3  502    0 -0.21744945339E+03 -0.41312412777E+03  0.63198100306E+03  0.78571992336E+03  0.25500000920E-02 0.  1.
       -2    1    3    3    0  502  0.21744945339E+03  0.41312412777E+03 -0.54429937315E+03  0.71708968570E+03  0.25500000920E-02 0. -1.
</event>
<event>
 5   0  0.2969498E-05  0.1500276E+04  0.7818609E-02  0.8884270E-01
       -2   -1    0    0    0  501  0.00000000000E+00  0.00000000000E+00  0.75406111384E+03  0.75406111385E+03  0.25500000920E-02 0.  1.
        2   -1    0    0  501    0  0.00000000000E+00  0.00000000000E+00 -0.74623502823E+03  0.74623502823E+03  0.25500000920E-02 0. -1.
    10030    2    1    2    0    0  0.00000000000E+00  0.00000000000E+00  0.78260856141E+01  0.15002961421E+04  0.15002757301E+04 0.  0.
        3    1    3    3  502    0  0.61564758871E+03  0.36798728113E+02  0.43092085062E+03  0.75237549773E+03  0.10100000352E+00 0.  1.
       -3    1    3    3    0  502 -0.61564758871E+03 -0.36798728113E+02 -0.42309476501E+03  0.74792064436E+03  0.10100000352E+00 0. -1.
</event>
<event>
 5   0  0.1643498E-05  0.1499800E+04  0.7818609E-02  0.8884586E-01
        1   -1    0    0  501    0  0.00000000000E+00  0.00000000000E+00  0.92322332852E+03  0.92322332853E+03  0.50400001928E-02 0.  1.
       -1   -1    0    0    0  501  0.00000000000E+00  0.00000000000E+00 -0.60911591883E+03  0.60911591885E+03  0.50400001928E-02 0. -1.
    10030    2    1    2    0    0  0.00000000000E+00  0.00000000000E+00  0.31410740969E+03  0.15323392474E+04  0.14998000214E+04 0.  0.
        4    1    3    3  502    0  0.31289141087E+03 -0.67437959550E+03  0.56638430871E+02  0.74558594312E+03  0.12699999809E+01 0. -1.
       -4    1    3    3    0  502 -0.31289141087E+03  0.67437959550E+03  0.25746897882E+03  0.78675330427E+03  0.12699999809E+01 0.  1.
</event>
<event>
 5   0  0.3093600E-05  0.1500592E+04  0.7818609E-02  0.8884059E-01
       -2   -1    0    0    0  501  0.00000000000E+00  0.00000000000E+00  0.57352231768E+03  0.57352231768E+03  0.25500000920E-02 0.  1.
        2   -1    0    0  501    0  0.00000000000E+00  0.00000000000E+00 -0.98155628355E+03  0.98155628355E+03  0.25500000920E-02 0. -1.
    10030    2    1    2    0    0  0.00000000000E+00  0.00000000000E+00 -0.40803396587E+03  0.15550786012E+04  0.15005924626E+04 0.  0.
        1    1    3    3  502    0  0.24661625249E+03 -0.70853513324E+03 -0.21452536994E+03  0.78029657528E+03  0.50400001928E-02 0. -1.
       -1    1    3    3    0  502 -0.24661625249E+03  0.70853513324E+03 -0.19350859592E+03  0.77478202595E+03  0.50400001928E-02 0.  1.
</event>
<event>
 5   0  0.3018308E-05  0.1499659E+04  0.7818609E-02  0.8884680E-01
       -2   -1    0    0    0  501  0.00000000000E+00  0.00000000000E+00  0.22227345442E+03  0.22227345444E+03  0.25500000920E-02 0. -1.
        2   -1    0    0  501    0  0.00000000000E+00  0.00000000000E+00 -0.25295161293E+04  0.25295161293E+04  0.25500000920E-02 0.  1.
    10030    2    1    2    0    0  0.00000000000E+00  0.00000000000E+00 -0.23072426749E+04  0.27517895837E+04  0.14996590120E+04 0.  0.
        2    1    3    3  502    0  0.63860826395E+03  0.15333529737E+03 -0.18175364109E+04  0.19325555188E+04  0.25500000920E-02 0.  1.
       -2    1    3    3    0  502 -0.63860826395E+03 -0.15333529737E+03 -0.48970626398E+03  0.81923406496E+03  0.25500000920E-02 0. -1.
</event>
<event>
 5   0  0.1643498E-05  0.1497236E+04  0.7818609E-02  0.8886293E-01
        1   -1    0    0  501    0  0.00000000000E+00  0.00000000000E+00  0.15709568543E+04  0.15709568543E+04  0.50400001928E-02 0. -1.
       -1   -1    0    0    0  501  0.00000000000E+00  0.00000000000E+00 -0.35674385855E+03  0.35674385858E+03  0.50400001928E-02 0.  1.
    10030    2    1    2    0    0  0.00000000000E+00  0.00000000000E+00  0.12142129958E+04  0.19277007129E+04  0.14972364007E+04 0.  0.
        4    1    3    3  502    0  0.28998865854E+03 -0.46472921615E+03 -0.49850795477E+02  0.55004852616E+03  0.12699999809E+01 0.  1.
       -4    1    3    3    0  502 -0.28998865854E+03  0.46472921615E+03  0.12640637913E+04  0.13776521868E+04  0.12699999809E+01 0. -1.
</event>
<event>
 5   0  0.1580078E-05  0.1499697E+04  0.7818609E-02  0.8884655E-01
       -1   -1    0    0    0  501  0.00000000000E+00  0.00000000000E+00  0.49370178304E+03  0.49370178306E+03  0.50400001928E-02 0. -1.
        1   -1    0    0  501    0  0.00000000000E+00  0.00000000000E+00 -0.11388911416E+04  0.11388911416E+04  0.50400001928E-02 0.  1.
    10030    2    1    2    0    0  0.00000000000E+00  0.00000000000E+00 -0.64518935860E+03  0.16325929247E+04  0.14996967525E+04 0.  0.
        2    1    3    3  502    0  0.33592713365E+03  0.34222274568E+03 -0.95014073262E+03  0.10642982940E+04  0.25500000920E-02 0.  1.
       -2    1    3    3    0  502 -0.33592713365E+03 -0.34222274568E+03  0.30495137402E+03  0.56829463072E+03  0.25500000920E-02 0. -1.
</event>
<event>
 5   0  0.3070497E-05  0.1500460E+04  0.7818609E-02  0.8884147E-01
       -2   -1    0    0    0  501  0.00000000000E+00  0.00000000000E+00  0.50651757155E+03  0.50651757156E+03  0.25500000920E-02 0. -1.
        2   -1    0    0  501    0  0.00000000000E+00  0.00000000000E+00 -0.11112054639E+04  0.11112054639E+04  0.25500000920E-02 0.  1.
    10030    2    1    2    0    0  0.00000000000E+00  0.00000000000E+00 -0.60468789231E+03  0.16177230354E+04  0.15004600535E+04 0.  0.
        4    1    3    3  502    0 -0.27608626619E+03  0.20768442849E+02 -0.10541089150E+04  0.10898633731E+04  0.12699999809E+01 0.  1.
       -4    1    3    3    0  502  0.27608626619E+03 -0.20768442849E+02  0.44942102264E+03  0.52785966231E+03  0.12699999809E+01 0. -1.
</event>
<event>
 5   0  0.3070497E-05  0.1499670E+04  0.7818609E-02  0.8884672E-01
        2   -1    0    0  501    0  0.00000000000E+00  0.00000000000E+00  0.13326438675E+04  0.13326438675E+04  0.25500000920E-02 0.  1.
       -2   -1    0    0    0  501  0.00000000000E+00  0.00000000000E+00 -0.42190784479E+03  0.42190784480E+03  0.25500000920E-02 0. -1.
    10030    2    1    2    0    0  0.00000000000E+00  0.00000000000E+00  0.91073602267E+03  0.17545517123E+04  0.14996704998E+04 0.  0.
        4    1    3    3  502    0  0.41271007417E+03  0.62569263947E+03  0.43109582920E+03  0.86467688258E+03  0.12699999809E+01 0. -1.
       -4    1    3    3    0  502 -0.41271007417E+03 -0.62569263947E+03  0.47964019347E+03  0.88987482968E+03  0.12699999809E+01 0.  1.
</event>
<event>
 5   0  0.1643498E-05  0.1499513E+04  0.7818609E-02  0.8884777E-01
        1   -1    0    0  501    0  0.00000000000E+00  0.00000000000E+00  0.12681639514E+04  0.12681639514E+04  0.50400001928E-02 0.  1.
       -1   -1    0    0    0  501  0.00000000000E+00  0.00000000000E+00 -0.44326674190E+03  0.44326674192E+03  0.50400001928E-02 0. -1.
    10030    2    1    2    0    0  0.00000000000E+00  0.00000000000E+00  0.82489720949E+03  0.17114306933E+04  0.14995131249E+04 0.  0.
        4    1    3    3  502    0  0.52951947140E+03 -0.15947580249E+03 -0.16537027163E+03  0.57721082961E+03  0.12699999809E+01 0. -1.
       -4    1    3    3    0  502 -0.52951947140E+03  0.15947580249E+03  0.99026748112E+03  0.11342198637E+04  0.12699999809E+01 0.  1.
</event>
<event>
 5   0  0.1580078E-05  0.1500300E+04  0.7818609E-02  0.8884253E-01
        1   -1    0    0  501    0  0.00000000000E+00  0.00000000000E+00  0.23167457627E+04  0.23167457627E+04  0.50400001928E-02 0.  1.
       -1   -1    0    0    0  501  0.00000000000E+00  0.00000000000E+00 -0.24289470604E+03  0.24289470609E+03  0.50400001928E-02 0. -1.
    10030    2    1    2    0    0  0.00000000000E+00  0.00000000000E+00  0.20738510567E+04  0.25596404688E+04  0.15003003447E+04 0.  0.
        2    1    3    3  502    0 -0.26989220221E+03  0.45213759364E+03  0.12539830344E+03  0.54129006911E+03  0.25500000920E-02 0. -1.
       -2    1    3    3    0  502  0.26989220221E+03 -0.45213759364E+03  0.19484527532E+04  0.20183503997E+04  0.25500000920E-02 0.  1.
</event>
<event>
 5   0  0.3030702E-05  0.1499833E+04  0.7818609E-02  0.8884564E-01
        2   -1    0    0  501    0  0.00000000000E+00  0.00000000000E+00  0.15541405517E+04  0.15541405517E+04  0.25500000920E-02 0. -1.
       -2   -1    0    0    0  501  0.00000000000E+00  0.00000000000E+00 -0.36185564978E+03  0.36185564979E+03  0.25500000920E-02 0.  1.
    10030    2    1    2    0    0  0.00000000000E+00  0.00000000000E+00  0.11922849019E+04  0.19159962015E+04  0.14998327096E+04 0.  0.
        5    1    3    3  502    0 -0.52883014038E+03  0.48614138938E+03  0.32109180072E+03  0.78683975645E+03  0.46999998093E+01 0.  1.
       -5    1    3    3    0  502  0.52883014038E+03 -0.48614138938E+03  0.87119310121E+03  0.11291564451E+04  0.46999998093E+01 0. -1.
</event>
<event>
 5   0  0.1116613E-05  0.1502462E+04  0.7818609E-02  0.8882817E-01
        4   -1    0    0  501    0  0.00000000000E+00  0.00000000000E+00  0.49245588682E+03  0.49245752443E+03  0.12699999809E+01 0. -1.
       -4   -1    0    0    0  501  0.00000000000E+00  0.00000000000E+00 -0.11459831957E+04  0.11459838995E+04  0.12699999809E+01 0.  1.
    10030    2    1    2    0    0  0.00000000000E+00  0.00000000000E+00 -0.65352730893E+03  0.16384414239E+04  0.15024620980E+04 0.  0.
        4    1    3    3  502    0  0.40127688549E+03  0.61564576587E+03 -0.15675816255E+03  0.75141039538E+03  0.12699999809E+01 0. -1.
       -4    1    3    3    0  502 -0.40127688549E+03 -0.61564576587E+03 -0.49676914638E+03  0.88703102852E+03  0.12699999809E+01 0.  1.
</event>
<event>
 5   0  0.1533777E-05  0.1499800E+04  0.7818609E-02  0.8884586E-01
        1   -1    0    0  501    0  0.00000000000E+00  0.00000000000E+00  0.16932054395E+04  0.16932054395E+04  0.50400001928E-02 0.  1.
       -1   -1    0    0    0  501  0.00000000000E+00  0.00000000000E+00 -0.33212176539E+03  0.33212176542E+03  0.50400001928E-02 0. -1.
    10030    2    1    2    0    0  0.00000000000E+00  0.00000000000E+00  0.13610836741E+04  0.20253272049E+04  0.14998004931E+04 0.  0.
        5    1    3    3  502    0  0.55087346960E+03 -0.12391826204E+03  0.13469203327E+04  0.14604909406E+04  0.46999998093E+01 0.  1.
       -5    1    3    3    0  502 -0.55087346960E+03  0.12391826204E+03  0.14163341427E+02  0.56483626426E+03  0.46999998093E+01 0. -1.
</event>
<event>
 5   0  0.3018308E-05  0.1499927E+04  0.7818609E-02  0.8884501E-01
       -2   -1    0    0    0  501  0.00000000000E+00  0.00000000000E+00  0.14747257970E+04  0.14747257970E+04  0.25500000920E-02 0. -1.
        2   -1    0    0  501    0  0.00000000000E+00  0.00000000000E+00 -0.38138991311E+03  0.38138991312E+03  0.25500000920E-02 0.  1.
    10030    2    1    2    0    0  0.00000000000E+00  0.00000000000E+00  0.10933358839E+04  0.18561157101E+04  0.14999273897E+04 0.  0.
        2    1    3    3  502    0 -0.59602592909E+03  0.34656144645E+03  0.18146990960E+03  0.71293973968E+03  0.25500000920E-02 0.  1.
       -2    1    3    3    0  502  0.59602592909E+03 -0.34656144645E+03  0.91186597429E+03  0.11431759704E+04  0.25500000920E-02 0. -1.
</event>
<event>
 5   0  0.1643498E-05  0.1500357E+04  0.7818609E-02  0.8884216E-01
        1   -1    0    0  501    0  0.00000000000E+00  0.00000000000E+00  0.47418993295E+03  0.47418993297E+03  0.50400001928E-02 0. -1.
       -1   -1    0    0    0  501  0.00000000000E+00  0.00000000000E+00 -0.11867983270E+04  0.11867983271E+04  0.50400001928E-02 0.  1.
    10030    2    1    2    0    0  0.00000000000E+00  0.00000000000E+00 -0.71260839410E+03  0.16609882600E+04  0.15003570497E+04 0.  0.
        4    1    3    3  502    0  0.36505696783E+03 -0.27728588255E+03  0.30108199772E+03  0.54845786773E+03  0.12699999809E+01 0. -1.
       -4    1    3    3    0  502 -0.36505696783E+03  0.27728588255E+03 -0.10136903918E+04  0.11125303923E+04  0.12699999809E+01 0.  1.
</event>
<event>
 5   0  0.2969498E-05  0.1500463E+04  0.7818609E-02  0.8884145E-01
        2   -1    0    0  501    0  0.00000000000E+00  0.00000000000E+00  0.11284440956E+04  0.11284440956E+04  0.25500000920E-02 0. -1.
       -2   -1    0    0    0  501  0.00000000000E+00  0.00000000000E+00 -0.49878155382E+03  0.49878155382E+03  0.25500000920E-02 0.  1.
    10030    2    1    2    0    0  0.00000000000E+00  0.00000000000E+00  0.62966254177E+03  0.16272256494E+04  0.15004627278E+04 0.  0.
        3    1    3    3  502    0  0.48443769456E+03  0.51149942250E+03  0.35094572181E+02  0.70536740663E+03  0.10100000352E+00 0.  1.
       -3    1    3    3    0  502 -0.48443769456E+03 -0.51149942250E+03  0.59456796959E+03  0.92185824279E+03  0.10100000352E+00 0. -1.
</event>
<event>
 5   0  0.1116613E-05  0.1499834E+04  0.7818609E-02  0.8884563E-01
        4   -1    0    0  501    0  0.00000000000E+00  0.00000000000E+00  0.80097949414E+03  0.80098050096E+03  0.12699999809E+01 0.  1.
       -4   -1    0    0    0  501  0.00000000000E+00  0.00000000000E+00 -0.70210811938E+03  0.70210926799E+03  0.12699999809E+01 0. -1.
    10030    2    1    2    0    0  0.00000000000E+00  0.00000000000E+00  0.98871374757E+02  0.15030897690E+04  0.14998344258E+04 0.  0.
        3    1    3    3  502    0  0.13282289310E+03 -0.23817260360E+03 -0.65065603197E+03  0.70549372228E+03  0.10100000352E+00 0. -1.
       -3    1    3    3    0  502 -0.13282289310E+03  0.23817260360E+03  0.74952740673E+03  0.79759604668E+03  0.10100000352E+00 0.  1.
</event>
<event>
 5   0  0.3018308E-05  0.1500301E+04  0.7818609E-02  0.8884253E-01
        2   -1    0    0  501    0  0.00000000000E+00  0.00000000000E+00  0.12329167552E+04  0.12329167552E+04  0.25500000920E-02 0.  1.
       -2   -1    0    0    0  501  0.00000000000E+00  0.00000000000E+00 -0.45641805640E+03  0.45641805640E+03  0.25500000920E-02 0. -1.
    10030    2    1    2    0    0  0.00000000000E+00  0.00000000000E+00  0.77649869885E+03  0.16893348117E+04  0.15003005954E+04 0.  0.
        2    1    3    3  502    0  0.11605107087E+03 -0.16039752624E+03 -0.42647058170E+03  0.47018334140E+03  0.25500000920E-02 0. -1.
       -2    1    3    3    0  502 -0.11605107087E+03  0.16039752624E+03  0.12029692805E+04  0.12191514702E+04  0.25500000920E-02 0.  1.
</event>
<event>
 5   0  0.1588657E-05  0.1500222E+04  0.7818609E-02  0.8884305E-01
       -1   -1    0    0    0  501  0.00000000000E+00  0.00000000000E+00  0.52546898303E+03  0.52546898306E+03  0.50400001928E-02 0. -1.
        1   -1    0    0  501    0  0.00000000000E+00  0.00000000000E+00 -0.10707889033E+04  0.10707889033E+04  0.50400001928E-02 0.  1.
    10030    2    1    2    0    0  0.00000000000E+00  0.00000000000E+00 -0.54531992028E+03  0.15962578864E+04  0.15002217917E+04 0.  0.
        3    1    3    3  502    0 -0.24087988310E+03 -0.43115490351E+03  0.32805961168E+03  0.59290875176E+03  0.10100000352E+00 0. -1.
       -3    1    3    3    0  502  0.24087988310E+03  0.43115490351E+03 -0.87337953196E+03  0.10033491346E+04  0.10100000352E+00 0.  1.
</event>
<event>
 5   0  0.3018308E-05  0.1500163E+04  0.7818609E-02  0.8884344E-01
       -2   -1    0    0    0  501  0.00000000000E+00  0.00000000000E+00  0.45494590956E+03  0.45494590957E+03  0.25500000920E-02 0.  1.
        2   -1    0    0  501    0  0.00000000000E+00  0.00000000000E+00 -0.12366801411E+04  0.12366801411E+04  0.25500000920E-02 0. -1.
    10030    2    1    2    0    0  0.00000000000E+00  0.00000000000E+00 -0.78173423150E+03  0.16916260506E+04  0.15001634199E+04 0.  0.
        2    1    3    3  502    0  0.18973429028E+02 -0.12219551662E+03  0.44337238875E+03  0.46029426501E+03  0.25500000920E-02 0.  1.
       -2    1    3    3    0  502 -0.18973429028E+02  0.12219551662E+03 -0.12251066203E+04  0.12313317856E+04  0.25500000920E-02 0. -1.
</event>
<event>
 5   0  0.1533777E-05  0.1500077E+04  0.7818609E-02  0.8884402E-01
       -1   -1    0    0    0  501  0.00000000000E+00  0.00000000000E+00  0.39466268267E+03  0.39466268270E+03  0.50400001928E-02 0.  1.
        1   -1    0    0  501    0  0.00000000000E+00  0.00000000000E+00 -0.14254146254E+04  0.14254146254E+04  0.50400001928E-02 0. -1.
    10030    2    1    2    0    0  0.00000000000E+00  0.00000000000E+00 -0.10307519427E+04  0.18200773081E+04  0.15000772780E+04 0.  0.
        5    1    3    3  502    0 -0.84300835381E+02  0.27129138984E+03  0.32683951022E+03  0.43307251643E+03  0.46999998093E+01 0.  1.
       -5    1    3    3    0  502  0.84300835381E+02 -0.27129138984E+03 -0.13575914530E+04  0.13870047917E+04  0.46999998093E+01 0. -1.
</event>
<event>
 5   0  0.1643498E-05  0.1500008E+04  0.7818609E-02  0.8884447E-01
       -1   -1    0    0    0  501  0.00000000000E+00  0.00000000000E+00  0.42369529562E+03  0.42369529565E+03  0.50400001928E-02 0.  1.
        1   -1    0    0  501    0  0.00000000000E+00  0.00000000000E+00 -0.13276199144E+04  0.13276199144E+04  0.50400001928E-02 0. -1.
    10030    2    1    2    0    0  0.00000000000E+00  0.00000000000E+00 -0.90392461880E+03  0.17513152101E+04  0.15000084162E+04 0.  0.
        4    1    3    3  502    0  0.49282217227E+03  0.10777773366E+03 -0.10999347471E+04  0.12101023900E+04  0.12699999809E+01 0. -1.
       -4    1    3    3    0  502 -0.49282217227E+03 -0.10777773366E+03  0.19601012833E+03  0.54121282012E+03  0.12699999809E+01 0.  1.
</event>
<event>
 5   0  0.2969498E-05  0.1499419E+04  0.7818609E-02  0.8884839E-01
       -2   -1    0    0    0  501  0.00000000000E+00  0.00000000000E+00  0.47671587534E+03  0.47671587535E+03  0.25500000920E-02 0. -1.
        2   -1    0    0  501    0  0.00000000000E+00  0.00000000000E+00 -0.11790347425E+04  0.11790347425E+04  0.25500000920E-02 0.  1.
    10030    2    1    2    0    0  0.00000000000E+00  0.00000000000E+00 -0.70231886718E+03  0.16557506179E+04  0.14994193267E+04 0.  0.
        3    1    3    3  502    0  0.57208865523E+03 -0.15862876240E+03  0.15441382366E+03  0.61342656679E+03  0.10100000352E+00 0. -1.
       -3    1    3    3    0  502 -0.57208865523E+03  0.15862876240E+03 -0.85673269084E+03  0.10423240511E+04  0.10100000352E+00 0.  1.
</event>
<event>
 5   0  0.1588657E-05  0.1496627E+04  0.7818609E-02  0.8886699E-01
       -1   -1    0    0    0  501  0.00000000000E+00  0.00000000000E+00  0.56565288309E+03  0.56565288311E+03  0.50400001928E-02 0.  1.
        1   -1    0    0  501    0  0.00000000000E+00  0.00000000000E+00 -0.98995895539E+03  0.98995895540E+03  0.50400001928E-02 0. -1.
    10030    2    1    2    0    0  0.00000000000E+00  0.00000000000E+00 -0.42430607229E+03  0.15556118385E+04  0.14966270575E+04 0.  0.
        3    1    3    3  502    0  0.38558975887E+03 -0.32059143319E+03  0.36517898635E+03  0.62033380648E+03  0.10100000352E+00 0.  1.
       -3    1    3    3    0  502 -0.38558975887E+03  0.32059143319E+03 -0.78948505865E+03  0.93527803204E+03  0.10100000352E+00 0. -1.
</event>
<event>
 5   0  0.1580078E-05  0.1499805E+04  0.7818609E-02  0.8884582E-01
       -1   -1    0    0    0  501  0.00000000000E+00  0.00000000000E+00  0.12688175363E+04  0.12688175364E+04  0.50400001928E-02 0.  1.
        1   -1    0    0  501    0  0.00000000000E+00  0.00000000000E+00 -0.44321117015E+03  0.44321117018E+03  0.50400001928E-02 0. -1.
    10030    2    1    2    0    0  0.00000000000E+00  0.00000000000E+00  0.82560636620E+03  0.17120287065E+04  0.14998054607E+04 0.  0.
        2    1    3    3  502    0  0.22599035306E+03  0.38034675466E+03 -0.27836459694E+03  0.52270655467E+03  0.25500000920E-02 0. -1.
       -2    1    3    3    0  502 -0.22599035306E+03 -0.38034675466E+03  0.11039709631E+04  0.11893221519E+04  0.25500000920E-02 0.  1.
</event>
<event>
 5   0  0.1580078E-05  0.1498228E+04  0.7818609E-02  0.8885632E-01
       -1   -1    0    0    0  501  0.00000000000E+00  0.00000000000E+00  0.47965305052E+03  0.47965305055E+03  0.50400001928E-02 0. -1.
        1   -1    0    0  501    0  0.00000000000E+00  0.00000000000E+00 -0.11699527669E+04  0.11699527670E+04  0.50400001928E-02 0.  1.
    10030    2    1    2    0    0  0.00000000000E+00  0.00000000000E+00 -0.69029971642E+03  0.16496058175E+04  0.14982275043E+04 0.  0.
        2    1    3    3  502    0  0.33912932551E+03  0.90203735708E+02  0.38355616461E+03  0.51986608350E+03  0.25500000920E-02 0. -1.
       -2    1    3    3    0  502 -0.33912932551E+03 -0.90203735708E+02 -0.10738558810E+04  0.11297397340E+04  0.25500000920E-02 0.  1.
</event>
<event>
 5   0  0.3070497E-05  0.1499615E+04  0.7818609E-02  0.8884709E-01
        2   -1    0    0  501    0  0.00000000000E+00  0.00000000000E+00  0.21391426287E+04  0.21391426287E+04  0.25500000920E-02 0. -1.
       -2   -1    0    0    0  501  0.00000000000E+00  0.00000000000E+00 -0.26282078798E+03  0.26282078799E+03  0.25500000920E-02 0.  1.
    10030    2    1    2    0    0  0.00000000000E+00  0.00000000000E+00  0.18763218407E+04  0.24019634167E+04  0.14996148189E+04 0.  0.
        4    1    3    3  502    0  0.35060204906E+03  0.12458411871E+03  0.19808384056E+04  0.20154814317E+04  0.12699999809E+01 0. -1.
       -4    1    3    3    0  502 -0.35060204906E+03 -0.12458411871E+03 -0.10451656495E+03  0.38648198495E+03  0.12699999809E+01 0.  1.
</event>
<event>
 5   0  0.1576214E-05  0.1500448E+04  0.7818609E-02  0.8884155E-01
        1   -1    0    0  501    0  0.00000000000E+00  0.00000000000E+00  0.22870553175E+04  0.22870553175E+04  0.50400001928E-02 0. -1.
       -1   -1    0    0    0  501  0.00000000000E+00  0.00000000000E+00 -0.24609627942E+03  0.24609627947E+03  0.50400001928E-02 0.  1.
    10030    2    1    2    0    0  0.00000000000E+00  0.00000000000E+00  0.20409590381E+04  0.25331515970E+04  0.15004476726E+04 0.  0.
        1    1    3    3  502    0  0.29774222665E+03  0.24708362267E+03 -0.64661923633E+02  0.39227785372E+03  0.50400001928E-02 0.  1.
       -1    1    3    3    0  502 -0.29774222665E+03 -0.24708362267E+03  0.21056209617E+04  0.21408737433E+04  0.50400001928E-02 0. -1.
</event>
<event>
 5   0  0.1576214E-05  0.1500544E+04  0.7818609E-02  0.8884091E-01
        1   -1    0    0  501    0  0.00000000000E+00  0.00000000000E+00  0.11641654665E+04  0.11641654666E+04  0.50400001928E-02 0. -1.
       -1   -1    0    0    0  501  0.00000000000E+00  0.00000000000E+00 -0.48352936093E+03  0.48352936096E+03  0.50400001928E-02 0.  1.
    10030    2    1    2    0    0  0.00000000000E+00  0.00000000000E+00  0.68063610561E+03  0.16476948275E+04  0.15005441468E+04 0.  0.
        1    1    3    3  502    0  0.12132431545E+03 -0.66133694261E+03  0.70586324570E+03  0.97484822554E+03  0.50400001928E-02 0. -1.
       -1    1    3    3    0  502 -0.12132431545E+03  0.66133694261E+03 -0.25227140089E+02  0.67284660198E+03  0.50400001928E-02 0.  1.
</event>
<event>
 5   0  0.3030702E-05  0.1499608E+04  0.7818609E-02  0.8884713E-01
        2   -1    0    0  501    0  0.00000000000E+00  0.00000000000E+00  0.12595772682E+04  0.12595772682E+04  0.25500000920E-02 0. -1.
       -2   -1    0    0    0  501  0.00000000000E+00  0.00000000000E+00 -0.44634530109E+03  0.44634530109E+03  0.25500000920E-02 0.  1.
    10030    2    1    2    0    0  0.00000000000E+00  0.00000000000E+00  0.81323196710E+03  0.17059225693E+04  0.14996084756E+04 0.  0.
        5    1    3    3  502    0 -0.58714586566E+03 -0.36971309287E+03  0.72988906628E+03  0.10070691027E+04  0.46999998093E+01 0. -1.
       -5    1    3    3    0  502  0.58714586566E+03  0.36971309287E+03  0.83342900819E+02  0.69885346655E+03  0.46999998093E+01 0.  1.
</event>
<event>
 5   0  0.3093600E-05  0.1499950E+04  0.7818609E-02  0.8884486E-01
       -2   -1    0    0    0  501  0.00000000000E+00  0.00000000000E+00  0.11297398105E+04  0.11297398105E+04  0.25500000920E-02 0. -1.
        2   -1    0    0  501    0  0.00000000000E+00  0.00000000000E+00 -0.49786889496E+03  0.49786889496E+03  0.25500000920E-02 0.  1.
    10030    2    1    2    0    0  0.00000000000E+00  0.00000000000E+00  0.63187091553E+03  0.16276087055E+04  0.14999497472E+04 0.  0.
        1    1    3    3  502    0 -0.60831447715E+02  0.74127763705E+03  0.21146415339E+03  0.77324646033E+03  0.50400001928E-02 0. -1.
       -1    1    3    3    0  502  0.60831447715E+02 -0.74127763705E+03  0.42040676214E+03  0.85436224513E+03  0.50400001928E-02 0.  1.
</event>
<event>
 5   0  0.3093600E-05  0.1500192E+04  0.7818609E-02  0.8884325E-01
        2   -1    0    0  501    0  0.00000000000E+00  0.00000000000E+00  0.68250900902E+03  0.68250900903E+03  0.25500000920E-02 0. -1.
       -2   -1    0    0    0  501  0.00000000000E+00  0.00000000000E+00 -0.82437627772E+03  0.82437627772E+03  0.25500000920E-02 0.  1.
    10030    2    1    2    0    0  0.00000000000E+00  0.00000000000E+00 -0.14186726869E+03  0.15068852867E+04  0.15001923028E+04 0.  0.
        1    1    3    3  502    0  0.54755785633E+03 -0.73712381585E+02  0.43866708842E+03  0.70546575801E+03  0.50400001928E-02 0. -1.
       -1    1    3    3    0  502 -0.54755785633E+03  0.73712381585E+02 -0.58053435711E+03  0.80141952874E+03  0.50400001928E-02 0.  1.
</event>
<event>
 5   0  0.1588657E-05  0.1498191E+04  0.7818609E-02  0.8885657E-01
       -1   -1    0    0    0  501  0.00000000000E+00  0.00000000000E+00  0.42260253950E+03  0.42260253953E+03  0.50400001928E-02 0. -1.
        1   -1    0    0  501    0  0.00000000000E+00  0.00000000000E+00 -0.13278287057E+04  0.13278287057E+04  0.50400001928E-02 0.  1.
    10030    2    1    2    0    0  0.00000000000E+00  0.00000000000E+00 -0.90522616622E+03  0.17504312453E+04  0.14981906195E+04 0.  0.
        3    1    3    3  502    0 -0.54508963139E+03  0.48888573169E+03 -0.63739119557E+03  0.97077263625E+03  0.10100000352E+00 0.  1.
       -3    1    3    3    0  502  0.54508963139E+03 -0.48888573169E+03 -0.26783497066E+03  0.77965860902E+03  0.10100000352E+00 0. -1.
</event>
<event>
 5   0  0.3030702E-05  0.1500151E+04  0.7818609E-02  0.8884353E-01
        2   -1    0    0  501    0  0.00000000000E+00  0.00000000000E+00  0.13889545250E+04  0.13889545250E+04  0.25500000920E-02 0. -1.
       -2   -1    0    0    0  501  0.00000000000E+00  0.00000000000E+00 -0.40506223008E+03  0.40506223009E+03  0.25500000920E-02 0.  1.
    10030    2    1    2    0    0  0.00000000000E+00  0.00000000000E+00  0.98389229495E+03  0.17940167551E+04  0.15001506823E+04 0.  0.
        5    1    3    3  502    0 -0.52454283987E+03 -0.12674645397E+03 -0.13104430146E+03  0.55534183472E+03  0.46999998093E+01 0.  1.
       -5    1    3    3    0  502  0.52454283987E+03  0.12674645397E+03  0.11149365964E+04  0.12386749204E+04  0.46999998093E+01 0. -1.
</event>
<event>
 5   0  0.3018308E-05  0.1500073E+04  0.7818609E-02  0.8884404E-01
       -2   -1    0    0    0  501  0.00000000000E+00  0.00000000000E+00  0.46688250245E+03  0.46688250246E+03  0.25500000920E-02 0.  1.
        2   -1    0    0  501    0  0.00000000000E+00  0.00000000000E+00 -0.12049174612E+04  0.12049174612E+04  0.25500000920E-02 0. -1.
    10030    2    1    2    0    0  0.00000000000E+00  0.00000000000E+00 -0.73803495871E+03  0.16717999636E+04  0.15000731709E+04 0.  0.
        2    1    3    3  502    0  0.70100530446E+03  0.99560462938E+02 -0.93233687289E+02  0.71415211483E+03  0.25500000920E-02 0.  1.
       -2    1    3    3    0  502 -0.70100530446E+03 -0.99560462938E+02 -0.64480127143E+03  0.95764784879E+03  0.25500000920E-02 0. -1.
</event>
<event>
 5   0  0.1533777E-05  0.1500857E+04  0.7818609E-02  0.8883884E-01
       -1   -1    0    0    0  501  0.00000000000E+00  0.00000000000E+00  0.28404171969E+03  0.28404171973E+03  0.50400001928E-02 0.  1.
        1   -1    0    0  501    0  0.00000000000E+00  0.00000000000E+00 -0.19826051059E+04  0.19826051059E+04  0.50400001928E-02 0. -1.
    10030    2    1    2    0    0  0.00000000000E+00  0.00000000000E+00 -0.16985633862E+04  0.22666468256E+04  0.15008565072E+04 0.  0.
        5    1    3    3  502    0  0.69667996203E+03  0.42033530344E+02 -0.43296400010E+03  0.82134627444E+03  0.46999998093E+01 0.  1.
       -5    1    3    3    0  502 -0.69667996203E+03 -0.42033530344E+02 -0.12655993861E+04  0.14453005512E+04  0.46999998093E+01 0. -1.
</event>
<event>
 5   0  0.3093600E-05  0.1499619E+04  0.7818609E-02  0.8884706E-01
       -2   -1    0    0    0  501  0.00000000000E+00  0.00000000000E+00  0.67970553154E+03  0.67970553155E+03  0.25500000920E-02 0.  1.
        2   -1    0    0  501    0  0.00000000000E+00  0.00000000000E+00 -0.82714430167E+03  0.82714430168E+03  0.25500000920E-02 0. -1.
    10030    2    1    2    0    0  0.00000000000E+00  0.00000000000E+00 -0.14743877013E+03  0.15068498332E+04  0.14996193614E+04 0.  0.
        1    1    3    3  502    0 -0.11987098862E+03  0.13106720205E+03  0.65826182347E+03  0.68180370608E+03  0.50400001928E-02 0.  1.
       -1    1    3    3    0  502  0.11987098862E+03 -0.13106720205E+03 -0.80570059360E+03  0.82504612714E+03  0.50400001928E-02 0. -1.
</event>
<event>
 5   0  0.3070497E-05  0.1500816E+04  0.7818609E-02  0.8883910E-01
        2   -1    0    0  501    0  0.00000000000E+00  0.00000000000E+00  0.96244477593E+03  0.96244477593E+03  0.25500000920E-02 0. -1.
       -2   -1    0    0    0  501  0.00000000000E+00  0.00000000000E+00 -0.58508537220E+03  0.58508537220E+03  0.25500000920E-02 0.  1.
    10030    2    1    2    0    0  0.00000000000E+00  0.00000000000E+00  0.37735940373E+03  0.15475301481E+04  0.15008162578E+04 0.  0.
        4    1    3    3  502    0  0.11433121902E+03  0.19216747068E+03 -0.54993366580E+03  0.59365698354E+03  0.12699999809E+01 0.  1.
       -4    1    3    3    0  502 -0.11433121902E+03 -0.19216747068E+03  0.92729306953E+03  0.95387316459E+03  0.12699999809E+01 0. -1.
</event>
<event>
 5   0  0.3093600E-05  0.1498941E+04  0.7818609E-02  0.8885157E-01
        2   -1    0    0  501    0  0.00000000000E+00  0.00000000000E+00  0.17203229097E+04  0.17203229097E+04  0.25500000920E-02 0.  1.
       -2   -1    0    0    0  501  0.00000000000E+00  0.00000000000E+00 -0.32651209701E+03  0.32651209702E+03  0.25500000920E-02 0. -1.
    10030    2    1    2    0    0  0.00000000000E+00  0.00000000000E+00  0.13938108127E+04  0.20468350067E+04  0.14989412807E+04 0.  0.
        1    1    3    3  502    0 -0.59706844765E+03  0.38368022823E+03  0.36803037564E+03  0.79946707632E+03  0.50400001928E-02 0. -1.
       -1    1    3    3    0  502  0.59706844765E+03 -0.38368022823E+03  0.10257804370E+04  0.12473679304E+04  0.50400001928E-02 0.  1.
</event>
<event>
 5   0  0.3018308E-05  0.1500277E+04  0.7818609E-02  0.8884269E-01
       -2   -1    0    0    0  501  0.00000000000E+00  0.00000000000E+00  0.47424171709E+03  0.47424171710E+03  0.25500000920E-02 0.  1.
        2   -1    0    0  501    0  0.00000000000E+00  0.00000000000E+00 -0.11865423127E+04  0.11865423127E+04  0.25500000920E-02 0. -1.
    10030    2    1    2    0    0  0.00000000000E+00  0.00000000000E+00 -0.71230059564E+03  0.16607840298E+04  0.15002771261E+04 0.  0.
        2    1    3    3  502    0  0.59930716586E+03 -0.42735559546E+03 -0.51620813167E+03  0.89903988745E+03  0.25500000920E-02 0. -1.
       -2    1    3    3    0  502 -0.59930716586E+03  0.42735559546E+03 -0.19609246397E+03  0.76174414238E+03  0.25500000920E-02 0.  1.
</event>
<event>
 5   0  0.1580078E-05  0.1500722E+04  0.7818609E-02  0.8883973E-01
       -1   -1    0    0    0  501  0.00000000000E+00  0.00000000000E+00  0.46494030791E+03  0.46494030793E+03  0.50400001928E-02 0.  1.
        1   -1    0    0  501    0  0.00000000000E+00  0.00000000000E+00 -0.12109971327E+04  0.12109971328E+04  0.50400001928E-02 0. -1.
    10030    2    1    2    0    0  0.00000000000E+00  0.00000000000E+00 -0.74605682484E+03  0.16759374407E+04  0.15007216661E+04 0.  0.
        2    1    3    3  502    0  0.51574234124E+03 -0.14738362274E+03 -0.95900984368E+03  0.10988229953E+04  0.25500000920E-02 0. -1.
       -2    1    3    3    0  502 -0.51574234124E+03  0.14738362274E+03  0.21295301884E+03  0.57711444535E+03  0.25500000920E-02 0.  1.
</event>
<event>
 5   0  0.1580078E-05  0.1499387E+04  0.7818609E-02  0.8884861E-01
       -1   -1    0    0    0  501  0.00000000000E+00  0.00000000000E+00  0.49334640813E+03  0.49334640816E+03  0.50400001928E-02 0. -1.
        1   -1    0    0  501    0  0.00000000000E+00  0.00000000000E+00 -0.11392410879E+04  0.11392410879E+04  0.50400001928E-02 0.  1.
    10030    2    1    2    0    0  0.00000000000E+00  0.00000000000E+00 -0.64589467976E+03  0.16325874961E+04  0.14993872065E+04 0.  0.
        2    1    3    3  502    0  0.38187399867E+03 -0.43506056649E+03 -0.84164400423E+03  0.10215038312E+04  0.25500000920E-02 0.  1.
       -2    1    3    3    0  502 -0.38187399867E+03  0.43506056649E+03  0.19574932447E+03  0.61108366482E+03  0.25500000920E-02 0. -1.
</event>
<event>
 5   0  0.3093600E-05  0.1498406E+04  0.7818609E-02  0.8885514E-01
        2   -1    0    0  501    0  0.00000000000E+00  0.00000000000E+00  0.10519845727E+04  0.10519845727E+04  0.25500000920E-02 0.  1.
       -2   -1    0    0    0  501  0.00000000000E+00  0.00000000000E+00 -0.53356767536E+03  0.53356767537E+03  0.25500000920E-02 0. -1.
    10030    2    1    2    0    0  0.00000000000E+00  0.00000000000E+00  0.51841689737E+03  0.15855522481E+04  0.14984057701E+04 0.  0.
        1    1    3    3  502    0 -0.12788306795E+03 -0.17332752978E+03  0.10185132237E+04  0.10410406805E+04  0.50400001928E-02 0.  1.
       -1    1    3    3    0  502  0.12788306795E+03  0.17332752978E+03 -0.50009632630E+03  0.54451156760E+03  0.50400001928E-02 0. -1.
</event>
<event>
 5   0  0.1576214E-05  0.1497043E+04  0.7818609E-02  0.8886422E-01
        1   -1    0    0  501    0  0.00000000000E+00  0.00000000000E+00  0.19593145037E+04  0.19593145037E+04  0.50400001928E-02 0.  1.
       -1   -1    0    0    0  501  0.00000000000E+00  0.00000000000E+00 -0.28595936483E+03  0.28595936488E+03  0.50400001928E-02 0. -1.
    10030    2    1    2    0    0  0.00000000000E+00  0.00000000000E+00  0.16733551388E+04  0.22452738685E+04  0.14970428598E+04 0.  0.
        1    1    3    3  502    0 -0.30696075443E+03  0.24394425860E+03 -0.11961857360E+03  0.40992963938E+03  0.50400001928E-02 0. -1.
       -1    1    3    3    0  502  0.30696075443E+03 -0.24394425860E+03  0.17929737124E+04  0.18353442292E+04  0.50400001928E-02 0.  1.
</event>
<event>
 5   0  0.1533777E-05  0.1498486E+04  0.7818609E-02  0.8885460E-01
        1   -1    0    0  501    0  0.00000000000E+00  0.00000000000E+00  0.12732777451E+04  0.12732777451E+04  0.50400001928E-02 0. -1.
       -1   -1    0    0    0  501  0.00000000000E+00  0.00000000000E+00 -0.44088188010E+03  0.44088188013E+03  0.50400001928E-02 0.  1.
    10030    2    1    2    0    0  0.00000000000E+00  0.00000000000E+00  0.83239586497E+03  0.17141596252E+04  0.14984860175E+04 0.  0.
        5    1    3    3  502    0  0.44598142920E+03  0.43393772016E+03 -0.61166274142E+02  0.62527176752E+03  0.46999998093E+01 0.  1.
       -5    1    3    3    0  502 -0.44598142920E+03 -0.43393772016E+03  0.89356213911E+03  0.10888878577E+04  0.46999998093E+01 0. -1.
</event>
<event>
 5   0  0.2969498E-05  0.1499951E+04  0.7818609E-02  0.8884485E-01
       -2   -1    0    0    0  501  0.00000000000E+00  0.00000000000E+00  0.35341111155E+03  0.35341111156E+03  0.25500000920E-02 0. -1.
        2   -1    0    0  501    0  0.00000000000E+00  0.00000000000E+00 -0.15915274042E+04  0.15915274042E+04  0.25500000920E-02 0.  1.
    10030    2    1    2    0    0  0.00000000000E+00  0.00000000000E+00 -0.12381162926E+04  0.19449385158E+04  0.14999512912E+04 0.  0.
        3    1    3    3  502    0 -0.55795446357E+03  0.24976833241E+03 -0.11824241955E+04  0.13310989413E+04  0.10100000352E+00 0.  1.
       -3    1    3    3    0  502  0.55795446357E+03 -0.24976833241E+03 -0.55692097180E+02  0.61383957447E+03  0.10100000352E+00 0. -1.
</event>
<event>
 5   0  0.1643498E-05  0.1499923E+04  0.7818609E-02  0.8884504E-01
        1   -1    0    0  501    0  0.00000000000E+00  0.00000000000E+00  0.71251239469E+03  0.71251239471E+03  0.50400001928E-02 0.  1.
       -1   -1    0    0    0  501  0.00000000000E+00  0.00000000000E+00 -0.78937895202E+03  0.78937895203E+03  0.50400001928E-02 0. -1.
    10030    2    1    2    0    0  0.00000000000E+00  0.00000000000E+00 -0.76866557322E+02  0.15018913467E+04  0.14999230480E+04 0.  0.
        4    1    3    3  502    0  0.29348311796E+03  0.59162004917E+03  0.31741181662E+03  0.73273357869E+03  0.12699999809E+01 0. -1.
       -4    1    3    3    0  502 -0.29348311796E+03 -0.59162004917E+03 -0.39427837394E+03  0.76915776806E+03  0.12699999809E+01 0.  1.
</event>
<event>
 5   0  0.3018308E-05  0.1500228E+04  0.7818609E-02  0.8884301E-01
        2   -1    0    0  501    0  0.00000000000E+00  0.00000000000E+00  0.31726645827E+04  0.31726645827E+04  0.25500000920E-02 0.  1.
       -2   -1    0    0    0  501  0.00000000000E+00  0.00000000000E+00 -0.17734966682E+03  0.17734966684E+03  0.25500000920E-02 0. -1.
    10030    2    1    2    0    0  0.00000000000E+00  0.00000000000E+00  0.29953149159E+04  0.33500142495E+04  0.15002279916E+04 0.  0.
        2    1    3    3  502    0 -0.21181563848E+03 -0.16932466966E+03  0.30593784514E+04  0.30713731810E+04  0.25500000920E-02 0.  1.
       -2    1    3    3    0  502  0.21181563848E+03  0.16932466966E+03 -0.64063535506E+02  0.27864106849E+03  0.25500000920E-02 0. -1.
</event>
<event>
 5   0  0.1643498E-05  0.1500270E+04  0.7818609E-02  0.8884274E-01
       -1   -1    0    0    0  501  0.00000000000E+00  0.00000000000E+00  0.99446884845E+03  0.99446884846E+03  0.50400001928E-02 0. -1.
        1   -1    0    0  501    0  0.00000000000E+00  0.00000000000E+00 -0.56583185853E+03  0.56583185855E+03  0.50400001928E-02 0.  1.
    10030    2    1    2    0    0  0.00000000000E+00  0.00000000000E+00  0.42863698992E+03  0.15603007070E+04  0.15002695182E+04 0.  0.
        4    1    3    3  502    0  0.99472646012E+02 -0.21643606927E+03  0.95409002142E+03  0.98337620536E+03  0.12699999809E+01 0. -1.
       -4    1    3    3    0  502 -0.99472646012E+02  0.21643606927E+03 -0.52545303151E+03  0.57692450165E+03  0.12699999809E+01 0.  1.
</event>
<event>
 5   0  0.1576214E-05  0.1503932E+04  0.7818609E-02  0.8881842E-01
       -1   -1    0    0    0  501  0.00000000000E+00  0.00000000000E+00  0.82299319278E+03  0.82299319279E+03  0.50400001928E-02 0.  1.
        1   -1    0    0  501    0  0.00000000000E+00  0.00000000000E+00 -0.68706907494E+03  0.68706907496E+03  0.50400001928E-02 0. -1.
    10030    2    1    2    0    0  0.00000000000E+00  0.00000000000E+00  0.13592411784E+03  0.15100622678E+04  0.15039324076E+04 0.  0.
        1    1    3    3  502    0 -0.46966545731E+03  0.58635600552E+03  0.10056229634E+03  0.75796555493E+03  0.50400001928E-02 0.  1.
       -1    1    3    3    0  502  0.46966545731E+03 -0.58635600552E+03  0.35361821492E+02  0.75209671282E+03  0.50400001928E-02 0. -1.
</event>
<event>
 5   0  0.3030702E-05  0.1499781E+04  0.7818609E-02  0.8884599E-01
       -2   -1    0    0    0  501  0.00000000000E+00  0.00000000000E+00  0.48181729078E+03  0.48181729079E+03  0.25500000920E-02 0.  1.
        2   -1    0    0  501    0  0.00000000000E+00  0.00000000000E+00 -0.11671137856E+04  0.11671137856E+04  0.25500000920E-02 0. -1.
    10030    2    1    2    0    0  0.00000000000E+00  0.00000000000E+00 -0.68529649486E+03  0.16489310764E+04  0.14997807870E+04 0.  0.
        5    1    3    3  502    0 -0.37182023684E+03 -0.62519667039E+03 -0.14234236728E+03  0.74121832459E+03  0.46999998093E+01 0.  1.
       -5    1    3    3    0  502  0.37182023684E+03  0.62519667039E+03 -0.54295412757E+03  0.90771275183E+03  0.46999998093E+01 0. -1.
</event>
<event>
 5   0  0.1588657E-05  0.1500451E+04  0.7818609E-02  0.8884153E-01
        1   -1    0    0  501    0  0.00000000000E+00  0.00000000000E+00  0.10599520542E+04  0.10599520542E+04  0.50400001928E-02 0.  1.
       -1   -1    0    0    0  501  0.00000000000E+00  0.00000000000E+00 -0.53100327415E+03  0.53100327418E+03  0.50400001928E-02 0. -1.
    10030    2    1    2    0    0  0.00000000000E+00  0.00000000000E+00  0.52894878006E+03  0.15909553284E+04  0.15004506140E+04 0.  0.
        3    1    3    3  502    0 -0.18126305907E+02 -0.67729047517E+03 -0.77117746436E+02  0.68190769738E+03  0.10100000352E+00 0. -1.
       -3    1    3    3    0  502  0.18126305907E+02  0.67729047517E+03  0.60606652650E+03  0.90904763102E+03  0.10100000352E+00 0.  1.
</event>
<event>
 5   0  0.1588657E-05  0.1499924E+04  0.7818609E-02  0.8884504E-01
       -1   -1    0    0    0  501  0.00000000000E+00  0.00000000000E+00  0.54096701795E+03  0.54096701798E+03  0.50400001928E-02 0. -1.
        1   -1    0    0  501    0  0.00000000000E+00  0.00000000000E+00 -0.10396989156E+04  0.10396989156E+04  0.50400001928E-02 0.  1.
    10030    2    1    2    0    0  0.00000000000E+00  0.00000000000E+00 -0.49873189760E+03  0.15806659335E+04  0.14999237607E+04 0.  0.
        3    1    3    3  502    0 -0.52240104732E+03  0.13277317570E+03  0.30015529935E+03  0.61694795920E+03  0.10100000352E+00 0. -1.
       -3    1    3    3    0  502  0.52240104732E+03 -0.13277317570E+03 -0.79888719695E+03  0.96371797434E+03  0.10100000352E+00 0.  1.
</event>
<event>
 5   0  0.3018308E-05  0.1498602E+04  0.7818609E-02  0.8885383E-01
       -2   -1    0    0    0  501  0.00000000000E+00  0.00000000000E+00  0.42964358125E+03  0.42964358126E+03  0.25500000920E-02 0. -1.
        2   -1    0    0  501    0  0.00000000000E+00  0.00000000000E+00 -0.13067854860E+04  0.13067854860E+04  0.25500000920E-02 0.  1.
    10030    2    1    2    0    0  0.00000000000E+00  0.00000000000E+00 -0.87714190471E+03  0.17364290672E+04  0.14986020100E+04 0.  0.
        2    1    3    3  502    0 -0.26123226576E+03  0.60030991613E+03 -0.86088100233E+03  0.10815407492E+04  0.25500000920E-02 0.  1.
       -2    1    3    3    0  502  0.26123226576E+03 -0.60030991613E+03 -0.16260902373E+02  0.65488831798E+03  0.25500000920E-02 0. -1.
</event>
<event>
 5   0  0.3070497E-05  0.1499888E+04  0.7818609E-02  0.8884527E-01
        2   -1    0    0  501    0  0.00000000000E+00  0.00000000000E+00  0.90471514449E+03  0.90471514450E+03  0.25500000920E-02 0. -1.
       -2   -1    0    0    0  501  0.00000000000E+00  0.00000000000E+00 -0.62164992450E+03  0.62164992450E+03  0.25500000920E-02 0.  1.
    10030    2    1    2    0    0  0.00000000000E+00  0.00000000000E+00  0.28306522000E+03  0.15263650690E+04  0.14998881309E+04 0.  0.
        4    1    3    3  502    0  0.15128607166E+02 -0.20408634461E+03  0.87574931026E+03  0.89934341501E+03  0.12699999809E+01 0. -1.
       -4    1    3    3    0  502 -0.15128607166E+02  0.20408634461E+03 -0.59268409026E+03  0.62702165398E+03  0.12699999809E+01 0.  1.
</event>
<event>
 5   0  0.1588657E-05  0.1506279E+04  0.7818609E-02  0.8880288E-01
       -1   -1    0    0    0  501  0.00000000000E+00  0.00000000000E+00  0.39634215054E+03  0.39634215057E+03  0.50400001928E-02 0. -1.
        1   -1    0    0  501    0  0.00000000000E+00  0.00000000000E+00 -0.14311344185E+04  0.14311344185E+04  0.50400001928E-02 0.  1.
    10030    2    1    2    0    0  0.00000000000E+00  0.00000000000E+00 -0.10347922679E+04  0.18274765691E+04  0.15062787168E+04 0.  0.
        3    1    3    3  502    0 -0.61192721115E+03 -0.43865388447E+03 -0.49480443029E+03  0.90094593431E+03  0.10100000352E+00 0. -1.
       -3    1    3    3    0  502  0.61192721115E+03  0.43865388447E+03 -0.53998783765E+03  0.92653063475E+03  0.10100000352E+00 0.  1.
</event>
<event>
 5   0  0.3018308E-05  0.1499760E+04  0.7818609E-02  0.8884613E-01
        2   -1    0    0  501    0  0.00000000000E+00  0.00000000000E+00  0.79319786818E+03  0.79319786819E+03  0.25500000920E-02 0.  1.
       -2   -1    0    0    0  501  0.00000000000E+00  0.00000000000E+00 -0.70892754808E+03  0.70892754808E+03  0.25500000920E-02 0. -1.
    10030    2    1    2    0    0  0.00000000000E+00  0.00000000000E+00  0.84270320108E+02  0.15021254163E+04  0.14997597405E+04 0.  0.
        2    1    3    3  502    0  0.47419311766E+03 -0.15140855091E+02  0.62376749926E+03  0.78369270219E+03  0.25500000920E-02 0.  1.
       -2    1    3    3    0  502 -0.47419311766E+03  0.15140855091E+02 -0.53949717915E+03  0.71843271407E+03  0.25500000920E-02 0. -1.
</event>
<event>
 5   0  0.3070497E-05  0.1500766E+04  0.7818609E-02  0.8883944E-01
       -2   -1    0    0    0  501  0.00000000000E+00  0.00000000000E+00  0.21227738670E+03  0.21227738672E+03  0.25500000920E-02 0. -1.
        2   -1    0    0  501    0  0.00000000000E+00  0.00000000000E+00 -0.26525421380E+04  0.26525421380E+04  0.25500000920E-02 0.  1.
    10030    2    1    2    0    0  0.00000000000E+00  0.00000000000E+00 -0.24402647513E+04  0.28648195247E+04  0.15007660886E+04 0.  0.
        4    1    3    3  502    0  0.47048749516E+02 -0.26402891084E+03 -0.25579304313E+04  0.25719515071E+04  0.12699999809E+01 0.  1.
       -4    1    3    3    0  502 -0.47048749516E+02  0.26402891084E+03  0.11766568001E+03  0.29286801761E+03  0.12699999809E+01 0. -1.
</event>
<event>
 5   0  0.2969498E-05  0.1499800E+04  0.7818609E-02  0.8884586E-01
       -2   -1    0    0    0  501  0.00000000000E+00  0.00000000000E+00  0.37933501698E+03  0.37933501699E+03  0.25500000920E-02 0.  1.
        2   -1    0    0  501    0  0.00000000000E+00  0.00000000000E+00 -0.14824618461E+04  0.14824618461E+04  0.25500000920E-02 0. -1.
    10030    2    1    2    0    0  0.00000000000E+00  0.00000000000E+00 -0.11031268291E+04  0.18617968631E+04  0.14997995727E+04 0.  0.
        3    1    3    3  502    0  0.19868722429E+03  0.51411504221E+03  0.79653636201E+02  0.55689819688E+03  0.10100000352E+00 0.  1.
       -3    1    3    3    0  502 -0.19868722429E+03 -0.51411504221E+03 -0.11827804653E+04  0.13048986662E+04  0.10100000352E+00 0. -1.
</event>
<event>
 5   0  0.1588657E-05  0.1500236E+04  0.7818609E-02  0.8884296E-01
       -1   -1    0    0    0  501  0.00000000000E+00  0.00000000000E+00  0.51444235812E+03  0.51444235814E+03  0.50400001928E-02 0. -1.
        1   -1    0    0  501    0  0.00000000000E+00  0.00000000000E+00 -0.10937617036E+04  0.10937617036E+04  0.50400001928E-02 0.  1.
    10030    2    1    2    0    0  0.00000000000E+00  0.00000000000E+00 -0.57931934546E+03  0.16082040617E+04  0.15002364481E+04 0.  0.
        3    1    3    3  502    0  0.66539872117E+03  0.34596435982E+03 -0.27338329293E+03  0.79823883109E+03  0.10100000352E+00 0. -1.
       -3    1    3    3    0  502 -0.66539872117E+03 -0.34596435982E+03 -0.30593605254E+03  0.80996523064E+03  0.10100000352E+00 0.  1.
</event>
<event>
 5   0  0.3018308E-05  0.1499826E+04  0.7818609E-02  0.8884569E-01
       -2   -1    0    0    0  501  0.00000000000E+00  0.00000000000E+00  0.83906492070E+03  0.83906492070E+03  0.25500000920E-02 0. -1.
        2   -1    0    0  501    0  0.00000000000E+00  0.00000000000E+00 -0.67023316511E+03  0.67023316512E+03  0.25500000920E-02 0.  1.
    10030    2    1    2    0    0  0.00000000000E+00  0.00000000000E+00  0.16883175559E+03  0.15092980858E+04  0.14998255066E+04 0.  0.
        2    1    3    3  502    0 -0.36603623512E+03  0.97245472349E+01  0.74298943681E+03  0.82831781066E+03  0.25500000920E-02 0. -1.
       -2    1    3    3    0  502  0.36603623512E+03 -0.97245472349E+01 -0.57415768122E+03  0.68098027516E+03  0.25500000920E-02 0.  1.
</event>
<event>
 5   0  0.1116613E-05  0.1499795E+04  0.7818609E-02  0.8884589E-01
       -3   -1    0    0    0  501  0.00000000000E+00  0.00000000000E+00  0.54948769483E+03  0.54948770411E+03  0.10100000352E+00 0. -1.
        3   -1    0    0  501    0  0.00000000000E+00  0.00000000000E+00 -0.10234008920E+04  0.10234008970E+04  0.10100000352E+00 0.  1.
    10030    2    1    2    0    0  0.00000000000E+00  0.00000000000E+00 -0.47391319720E+03  0.15728886011E+04  0.14997949303E+04 0.  0.
        2    1    3    3  502    0 -0.30063633020E+03 -0.33929132139E+01 -0.95742547801E+03  0.10035224267E+04  0.25500000920E-02 0.  1.
       -2    1    3    3    0  502  0.30063633020E+03  0.33929132139E+01  0.48351228081E+03  0.56936617444E+03  0.25500000920E-02 0. -1.
</event>
<event>
 5   0  0.1643498E-05  0.1499985E+04  0.7818609E-02  0.8884463E-01
       -1   -1    0    0    0  501  0.00000000000E+00  0.00000000000E+00  0.68710484504E+03  0.68710484506E+03  0.50400001928E-02 0.  1.
        1   -1    0    0  501    0  0.00000000000E+00  0.00000000000E+00 -0.81863611288E+03  0.81863611290E+03  0.50400001928E-02 0. -1.
    10030    2    1    2    0    0  0.00000000000E+00  0.00000000000E+00 -0.13153126784E+03  0.15057409580E+04  0.14999851193E+04 0.  0.
        4    1    3    3  502    0 -0.32377277098E+03  0.67283431647E+03 -0.13640897921E+03  0.75904140016E+03  0.12699999809E+01 0.  1.
       -4    1    3    3    0  502  0.32377277098E+03 -0.67283431647E+03  0.48777113687E+01  0.74669955780E+03  0.12699999809E+01 0. -1.
</event>
<event>
 5   0  0.3018308E-05  0.1501475E+04  0.7818609E-02  0.8883473E-01
        2   -1    0    0  501    0  0.00000000000E+00  0.00000000000E+00  0.13624494583E+04  0.13624494583E+04  0.25500000920E-02 0.  1.
       -2   -1    0    0    0  501  0.00000000000E+00  0.00000000000E+00 -0.41367180958E+03  0.41367180958E+03  0.25500000920E-02 0. -1.
    10030    2    1    2    0    0  0.00000000000E+00  0.00000000000E+00  0.94877764877E+03  0.17761212679E+04  0.15014751851E+04 0.  0.
        2    1    3    3  502    0 -0.49970103444E+03 -0.54110617887E+03  0.64625787178E+03  0.97987053097E+03  0.25500000920E-02 0.  1.
       -2    1    3    3    0  502  0.49970103444E+03  0.54110617887E+03  0.30251977699E+03  0.79625073696E+03  0.25500000920E-02 0. -1.
</event>
<event>
 5   0  0.1533777E-05  0.1499745E+04  0.7818609E-02  0.8884622E-01
        1   -1    0    0  501    0  0.00000000000E+00  0.00000000000E+00  0.15613955131E+04  0.15613955131E+04  0.50400001928E-02 0. -1.
       -1   -1    0    0    0  501  0.00000000000E+00  0.00000000000E+00 -0.36013241422E+03  0.36013241426E+03  0.50400001928E-02 0.  1.
    10030    2    1    2    0    0  0.00000000000E+00  0.00000000000E+00  0.12012630988E+04  0.19215279273E+04  0.14997454927E+04 0.  0.
        5    1    3    3  502    0 -0.73024937848E+03  0.16463810922E+03  0.65673131246E+03  0.99583531196E+03  0.46999998093E+01 0. -1.
       -5    1    3    3    0  502  0.73024937848E+03 -0.16463810922E+03  0.54453178636E+03  0.92569261536E+03  0.46999998093E+01 0.  1.
</event>
<event>
 5   0  0.1533777E-05  0.1499317E+04  0.7818609E-02  0.8884907E-01
       -1   -1    0    0    0  501  0.00000000000E+00  0.00000000000E+00  0.76530263782E+03  0.76530263784E+03  0.50400001928E-02 0. -1.
        1   -1    0    0  501    0  0.00000000000E+00  0.00000000000E+00 -0.73433427455E+03  0.73433427457E+03  0.50400001928E-02 0.  1.
    10030    2    1    2    0    0  0.00000000000E+00  0.00000000000E+00  0.30968363273E+02  0.14996369124E+04  0.14993171211E+04 0.  0.
        5    1    3    3  502    0 -0.19586546891E+03 -0.58795487009E+03  0.43736989878E+03  0.75853063849E+03  0.46999998093E+01 0. -1.
       -5    1    3    3    0  502  0.19586546891E+03  0.58795487009E+03 -0.40640153550E+03  0.74110627392E+03  0.46999998093E+01 0.  1.
</event>
<event>
 5   0  0.1588657E-05  0.1499247E+04  0.7818609E-02  0.8884954E-01
       -1   -1    0    0    0  501  0.00000000000E+00  0.00000000000E+00  0.43162923039E+03  0.43162923042E+03  0.50400001928E-02 0.  1.
        1   -1    0    0  501    0  0.00000000000E+00  0.00000000000E+00 -0.13018937043E+04  0.13018937043E+04  0.50400001928E-02 0. -1.
    10030    2    1    2    0    0  0.00000000000E+00  0.00000000000E+00 -0.87026447393E+03  0.17335229347E+04  0.14992469812E+04 0.  0.
        3    1    3    3  502    0 -0.13330162600E+03 -0.61704079457E+03 -0.90256367332E+03  0.11014217450E+04  0.10100000352E+00 0. -1.
       -3    1    3    3    0  502  0.13330162600E+03  0.61704079457E+03  0.32299199394E+02  0.63210118979E+03  0.10100000352E+00 0.  1.
</event>
<event>
 5   0  0.1580078E-05  0.1499589E+04  0.7818609E-02  0.8884726E-01
        1   -1    0    0  501    0  0.00000000000E+00  0.00000000000E+00  0.17212663726E+04  0.17212663726E+04  0.50400001928E-02 0. -1.
       -1   -1    0    0    0  501  0.00000000000E+00  0.00000000000E+00 -0.32661511414E+03  0.32661511418E+03  0.50400001928E-02 0.  1.
    10030    2    1    2    0    0  0.00000000000E+00  0.00000000000E+00  0.13946512584E+04  0.20478814867E+04  0.14995887607E+04 0.  0.
        2    1    3    3  502    0 -0.98196933800E+02  0.73433558731E+03  0.85481892035E+03  0.11311970559E+04  0.25500000920E-02 0. -1.
       -2    1    3    3    0  502  0.98196933800E+02 -0.73433558731E+03  0.53983233807E+03  0.91668443089E+03  0.25500000920E-02 0.  1.
</event>
<event>
 5   0  0.3030702E-05  0.1500099E+04  0.7818609E-02  0.8884387E-01
       -2   -1    0    0    0  501  0.00000000000E+00  0.00000000000E+00  0.11391639332E+04  0.11391639332E+04  0.25500000920E-02 0. -1.
        2   -1    0    0  501    0  0.00000000000E+00  0.00000000000E+00 -0.49384842930E+03  0.49384842930E+03  0.25500000920E-02 0.  1.
    10030    2    1    2    0    0  0.00000000000E+00  0.00000000000E+00  0.64531550390E+03  0.16330123625E+04  0.15000990889E+04 0.  0.
        5    1    3    3  502    0  0.19666753495E+03  0.50548080297E+03  0.88659536385E+03  0.10393567196E+04  0.46999998093E+01 0. -1.
       -5    1    3    3    0  502 -0.19666753495E+03 -0.50548080297E+03 -0.24127985996E+03  0.59365564285E+03  0.46999998093E+01 0.  1.
</event>
<event>
 5   0  0.1643498E-05  0.1499744E+04  0.7818609E-02  0.8884623E-01
        1   -1    0    0  501    0  0.00000000000E+00  0.00000000000E+00  0.62851458854E+03  0.62851458856E+03  0.50400001928E-02 0. -1.
       -1   -1    0    0    0  501  0.00000000000E+00  0.00000000000E+00 -0.89466227055E+03  0.89466227056E+03  0.50400001928E-02 0.  1.
    10030    2    1    2    0    0  0.00000000000E+00  0.00000000000E+00 -0.26614768201E+03  0.15231768591E+04  0.14997443634E+04 0.  0.
        4    1    3    3  502    0 -0.63042209975E+03 -0.39488350188E+03 -0.22911169877E+03  0.77836931294E+03  0.12699999809E+01 0. -1.
       -4    1    3    3    0  502  0.63042209975E+03  0.39488350188E+03 -0.37035983234E+02  0.74480754619E+03  0.12699999809E+01 0.  1.
</event>
<event>
 5   0  0.1533777E-05  0.1499244E+04  0.7818609E-02  0.8884956E-01
        1   -1    0    0  501    0  0.00000000000E+00  0.00000000000E+00  0.10302145623E+04  0.10302145623E+04  0.50400001928E-02 0.  1.
       -1   -1    0    0    0  501  0.00000000000E+00  0.00000000000E+00 -0.54545228591E+03  0.54545228594E+03  0.50400001928E-02 0. -1.
    10030    2    1    2    0    0  0.00000000000E+00  0.00000000000E+00  0.48476227641E+03  0.15756668483E+04  0.14992436600E+04 0.  0.
        5    1    3    3  502    0 -0.44868686415E+03 -0.53556486643E+03  0.52781538198E+03  0.87564878557E+03  0.46999998093E+01 0.  1.
       -5    1    3    3    0  502  0.44868686415E+03  0.53556486643E+03 -0.43053105566E+02  0.70001806270E+03  0.46999998093E+01 0. -1.
</event>
<event>
 5   0  0.3018308E-05  0.1499577E+04  0.7818609E-02  0.8884734E-01
       -2   -1    0    0    0  501  0.00000000000E+00  0.00000000000E+00  0.81979158225E+03  0.81979158225E+03  0.25500000920E-02 0. -1.
        2   -1    0    0  501    0  0.00000000000E+00  0.00000000000E+00 -0.68576317525E+03  0.68576317526E+03  0.25500000920E-02 0.  1.
    10030    2    1    2    0    0  0.00000000000E+00  0.00000000000E+00  0.13402840699E+03  0.15055547575E+04  0.14995771117E+04 0.  0.
        2    1    3    3  502    0  0.62620967679E+03  0.31432540473E+02  0.47981777973E+03  0.78952622861E+03  0.25500000920E-02 0. -1.
       -2    1    3    3    0  502 -0.62620967679E+03 -0.31432540473E+02 -0.34578937273E+03  0.71602852891E+03  0.25500000920E-02 0.  1.
</event>
<event>
 5   0  0.1580078E-05  0.1499476E+04  0.7818609E-02  0.8884801E-01
       -1   -1    0    0    0  501  0.00000000000E+00  0.00000000000E+00  0.61746506380E+03  0.61746506382E+03  0.50400001928E-02 0.  1.
        1   -1    0    0  501    0  0.00000000000E+00  0.00000000000E+00 -0.91034634833E+03  0.91034634835E+03  0.50400001928E-02 0. -1.
    10030    2    1    2    0    0  0.00000000000E+00  0.00000000000E+00 -0.29288128453E+03  0.15278114122E+04  0.14994759966E+04 0.  0.
        2    1    3    3  502    0  0.45570872221E+03  0.94781724917E+02 -0.74529987308E+03  0.87870695667E+03  0.25500000920E-02 0. -1.
       -2    1    3    3    0  502 -0.45570872221E+03 -0.94781724917E+02  0.45241858855E+03  0.64910445550E+03  0.25500000920E-02 0.  1.
</event>
<event>
 5   0  0.3030702E-05  0.1500031E+04  0.7818609E-02  0.8884432E-01
        2   -1    0    0  501    0  0.00000000000E+00  0.00000000000E+00  0.17823194586E+04  0.17823194586E+04  0.25500000920E-02 0. -1.
       -2   -1    0    0    0  501  0.00000000000E+00  0.00000000000E+00 -0.31561301365E+03  0.31561301366E+03  0.25500000920E-02 0.  1.
    10030    2    1    2    0    0  0.00000000000E+00  0.00000000000E+00  0.14667064450E+04  0.20979324723E+04  0.15000309539E+04 0.  0.
        5    1    3    3  502    0 -0.38145545993E+03  0.14370272294E+03  0.16138475115E+04  0.16645373594E+04  0.46999998093E+01 0. -1.
       -5    1    3    3    0  502  0.38145545993E+03 -0.14370272294E+03 -0.14714106646E+03  0.43339511295E+03  0.46999998093E+01 0.  1.
</event>
<event>
 5   0  0.1576214E-05  0.1500810E+04  0.7818609E-02  0.8883915E-01
        1   -1    0    0  501    0  0.00000000000E+00  0.00000000000E+00  0.59463078518E+03  0.59463078520E+03  0.50400001928E-02 0.  1.
       -1   -1    0    0    0  501  0.00000000000E+00  0.00000000000E+00 -0.94698685687E+03  0.94698685688E+03  0.50400001928E-02 0. -1.
    10030    2    1    2    0    0  0.00000000000E+00  0.00000000000E+00 -0.35235607169E+03  0.15416176421E+04  0.15008098324E+04 0.  0.
        1    1    3    3  502    0 -0.30387870893E+03  0.42067464966E+03  0.38059154879E+03  0.64355214057E+03  0.50400001928E-02 0.  1.
       -1    1    3    3    0  502  0.30387870893E+03 -0.42067464966E+03 -0.73294762048E+03  0.89806550151E+03  0.50400001928E-02 0. -1.
</event>
<event>
 5   0  0.2969498E-05  0.1499272E+04  0.7818609E-02  0.8884937E-01
        2   -1    0    0  501    0  0.00000000000E+00  0.00000000000E+00  0.14094463967E+04  0.14094463967E+04  0.25500000920E-02 0.  1.
       -2   -1    0    0    0  501  0.00000000000E+00  0.00000000000E+00 -0.39870572183E+03  0.39870572184E+03  0.25500000920E-02 0. -1.
    10030    2    1    2    0    0  0.00000000000E+00  0.00000000000E+00  0.10107406749E+04  0.18081521186E+04  0.14992722808E+04 0.  0.
        3    1    3    3  502    0 -0.71491571089E+03  0.10812208280E+03  0.74402662442E+03  0.10374827644E+04  0.10100000352E+00 0.  1.
       -3    1    3    3    0  502  0.71491571089E+03 -0.10812208280E+03  0.26671405048E+03  0.77066935413E+03  0.10100000352E+00 0. -1.
</event>
<event>
 5   0  0.3030702E-05  0.1499067E+04  0.7818609E-02  0.8885074E-01
       -2   -1    0    0    0  501  0.00000000000E+00  0.00000000000E+00  0.35293788960E+03  0.35293788961E+03  0.25500000920E-02 0.  1.
        2   -1    0    0  501    0  0.00000000000E+00  0.00000000000E+00 -0.15917820040E+04  0.15917820040E+04  0.25500000920E-02 0. -1.
    10030    2    1    2    0    0  0.00000000000E+00  0.00000000000E+00 -0.12388441144E+04  0.19447198936E+04  0.14990666179E+04 0.  0.
        5    1    3    3  502    0 -0.69083790182E+03  0.11778479292E+03 -0.27460755081E+03  0.75270290354E+03  0.46999998093E+01 0.  1.
       -5    1    3    3    0  502  0.69083790182E+03 -0.11778479292E+03 -0.96423656359E+03  0.11920169901E+04  0.46999998093E+01 0. -1.
</event>
<event>
 5   0  0.1576214E-05  0.1500185E+04  0.7818609E-02  0.8884330E-01
       -1   -1    0    0    0  501  0.00000000000E+00  0.00000000000E+00  0.72096114306E+03  0.72096114308E+03  0.50400001928E-02 0.  1.
        1   -1    0    0  501    0  0.00000000000E+00  0.00000000000E+00 -0.78040067253E+03  0.78040067255E+03  0.50400001928E-02 0. -1.
    10030    2    1    2    0    0  0.00000000000E+00  0.00000000000E+00 -0.59439529473E+02  0.15013618156E+04  0.15001847365E+04 0.  0.
        1    1    3    3  502    0 -0.45879485757E+03  0.24430074801E+03 -0.57094255656E+03  0.77210813991E+03  0.50400001928E-02 0. -1.
       -1    1    3    3    0  502  0.45879485757E+03 -0.24430074801E+03  0.51150302708E+03  0.72925367572E+03  0.50400001928E-02 0.  1.
</event>
<event>
 5   0  0.3018308E-05  0.1499892E+04  0.7818609E-02  0.8884525E-01
       -2   -1    0    0    0  501  0.00000000000E+00  0.00000000000E+00  0.77277526865E+03  0.77277526865E+03  0.25500000920E-02 0. -1.
        2   -1    0    0  501    0  0.00000000000E+00  0.00000000000E+00 -0.72779076578E+03  0.72779076578E+03  0.25500000920E-02 0.  1.
    10030    2    1    2    0    0  0.00000000000E+00  0.00000000000E+00  0.44984502867E+02  0.15005660344E+04  0.14998916021E+04 0.  0.
        2    1    3    3  502    0  0.29847937726E+03 -0.51171157355E+03 -0.43758411163E+03  0.73649068419E+03  0.25500000920E-02 0.  1.
       -2    1    3    3    0  502 -0.29847937726E+03  0.51171157355E+03  0.48256861449E+03  0.76407535024E+03  0.25500000920E-02 0. -1.
</event>
<event>
 5   0  0.3030702E-05  0.1500056E+04  0.7818609E-02  0.8884415E-01
        2   -1    0    0  501    0  0.00000000000E+00  0.00000000000E+00  0.30814637877E+04  0.30814637877E+04  0.25500000920E-02 0.  1.
       -2   -1    0    0    0  501  0.00000000000E+00  0.00000000000E+00 -0.18255686670E+03  0.18255686672E+03  0.25500000920E-02 0. -1.
    10030    2    1    2    0    0  0.00000000000E+00  0.00000000000E+00  0.28989069210E+04  0.32640206544E+04  0.15000564976E+04 0.  0.
        5    1    3    3  502    0  0.60822266806E+03 -0.45671629089E+02  0.23991662451E+04  0.24754881283E+04  0.46999998093E+01 0.  1.
       -5    1    3    3    0  502 -0.60822266806E+03  0.45671629089E+02  0.49974067590E+03  0.78853252614E+03  0.46999998093E+01 0. -1.
</event>
<event>
 5   0  0.1580078E-05  0.1500258E+04  0.7818609E-02  0.8884281E-01
       -1   -1    0    0    0  501  0.00000000000E+00  0.00000000000E+00  0.49053788954E+03  0.49053788956E+03  0.50400001928E-02 0. -1.
        1   -1    0    0  501    0  0.00000000000E+00  0.00000000000E+00 -0.11470948321E+04  0.11470948321E+04  0.50400001928E-02 0.  1.
    10030    2    1    2    0    0  0.00000000000E+00  0.00000000000E+00 -0.65655694258E+03  0.16376327217E+04  0.15002579486E+04 0.  0.
        2    1    3    3  502    0  0.63762892278E+03 -0.40419303955E+02 -0.75732017977E+03  0.99082703737E+03  0.25500000920E-02 0.  1.
       -2    1    3    3    0  502 -0.63762892278E+03  0.40419303955E+02  0.10076323719E+03  0.64680568432E+03  0.25500000920E-02 0. -1.
</event>
<event>
 5   0  0.3030702E-05  0.1499678E+04  0.7818609E-02  0.8884667E-01
        2   -1    0    0  501    0  0.00000000000E+00  0.00000000000E+00  0.62688456020E+03  0.62688456021E+03  0.25500000920E-02 0.  1.
       -2   -1    0    0    0  501  0.00000000000E+00  0.00000000000E+00 -0.89690957608E+03  0.89690957608E+03  0.25500000920E-02 0. -1.
    10030    2    1    2    0    0  0.00000000000E+00  0.00000000000E+00 -0.27002501588E+03  0.15237941363E+04  0.14996783190E+04 0.  0.
        5    1    3    3  502    0 -0.47100224494E+03  0.23744083456E+03 -0.67651335180E+03  0.85785410754E+03  0.46999998093E+01 0. -1.
       -5    1    3    3    0  502  0.47100224494E+03 -0.23744083456E+03  0.40648833593E+03  0.66594002876E+03  0.46999998093E+01 0.  1.
</event>
<event>
 5   0  0.1643498E-05  0.1498706E+04  0.7818609E-02  0.8885314E-01
       -1   -1    0    0    0  501  0.00000000000E+00  0.00000000000E+00  0.54578567379E+03  0.54578567381E+03  0.50400001928E-02 0. -1.
        1   -1    0    0  501    0  0.00000000000E+00  0.00000000000E+00 -0.10288466904E+04  0.10288466904E+04  0.50400001928E-02 0.  1.
    10030    2    1    2    0    0  0.00000000000E+00  0.00000000000E+00 -0.48306101663E+03  0.15746323642E+04  0.14987058206E+04 0.  0.
        4    1    3    3  502    0 -0.39813498228E+03  0.54963785503E+02 -0.90602354622E+03  0.99116737286E+03  0.12699999809E+01 0.  1.
       -4    1    3    3    0  502  0.39813498228E+03 -0.54963785503E+02  0.42296252959E+03  0.58346499138E+03  0.12699999809E+01 0. -1.
</event>
<event>
 5   0  0.1533777E-05  0.1500057E+04  0.7818609E-02  0.8884415E-01
        1   -1    0    0  501    0  0.00000000000E+00  0.00000000000E+00  0.73798626625E+03  0.73798626627E+03  0.50400001928E-02 0.  1.
       -1   -1    0    0    0  501  0.00000000000E+00  0.00000000000E+00 -0.76226757217E+03  0.76226757219E+03  0.50400001928E-02 0. -1.
    10030    2    1    2    0    0  0.00000000000E+00  0.00000000000E+00 -0.24281305920E+02  0.15002538385E+04  0.15000573316E+04 0.  0.
        5    1    3    3  502    0  0.91198690340E+02 -0.44070118868E+03 -0.61220772666E+03  0.75983888384E+03  0.46999998093E+01 0. -1.
       -5    1    3    3    0  502 -0.91198690340E+02  0.44070118868E+03  0.58792642074E+03  0.74041495462E+03  0.46999998093E+01 0.  1.
</event>
<event>
 5   0  0.1533777E-05  0.1500111E+04  0.7818609E-02  0.8884379E-01
        1   -1    0    0  501    0  0.00000000000E+00  0.00000000000E+00  0.84212230076E+03  0.84212230077E+03  0.50400001928E-02 0.  1.
       -1   -1    0    0    0  501  0.00000000000E+00  0.00000000000E+00 -0.66805377873E+03  0.66805377875E+03  0.50400001928E-02 0. -1.
    10030    2    1    2    0    0  0.00000000000E+00  0.00000000000E+00  0.17406852202E+03  0.15101760795E+04  0.15001106429E+04 0.  0.
        5    1    3    3  502    0  0.36698815901E+03 -0.64889886362E+03  0.17011588728E+03  0.76466433758E+03  0.46999998093E+01 0. -1.
       -5    1    3    3    0  502 -0.36698815901E+03  0.64889886362E+03  0.39526347374E+01  0.74551174195E+03  0.46999998093E+01 0.  1.
</event>
<event>
 5   0  0.1116613E-05  0.1500523E+04  0.7818609E-02  0.8884105E-01
       -3   -1    0    0    0  501  0.00000000000E+00  0.00000000000E+00  0.88322462391E+03  0.88322462969E+03  0.10100000352E+00 0. -1.
        3   -1    0    0  501    0  0.00000000000E+00  0.00000000000E+00 -0.63731478559E+03  0.63731479360E+03  0.10100000352E+00 0.  1.
    10030    2    1    2    0    0  0.00000000000E+00  0.00000000000E+00  0.24590983832E+03  0.15205394233E+04  0.15005227386E+04 0.  0.
        2    1    3    3  502    0  0.36251242018E+02  0.29114353267E+03  0.82268305257E+03  0.87343352017E+03  0.25500000920E-02 0. -1.
       -2    1    3    3    0  502 -0.36251242018E+02 -0.29114353267E+03 -0.57677321425E+03  0.64710590311E+03  0.25500000920E-02 0.  1.
</event>
<event>
 5   0  0.2969498E-05  0.1499381E+04  0.7818609E-02  0.8884865E-01
        2   -1    0    0  501    0  0.00000000000E+00  0.00000000000E+00  0.12517256788E+04  0.12517256788E+04  0.25500000920E-02 0.  1.
       -2   -1    0    0    0  501  0.00000000000E+00  0.00000000000E+00 -0.44900884383E+03  0.44900884384E+03  0.25500000920E-02 0. -1.
    10030    2    1    2    0    0  0.00000000000E+00  0.00000000000E+00  0.80271683492E+03  0.17007345226E+04  0.14993810721E+04 0.  0.
        3    1    3    3  502    0  0.12070377196E+03 -0.16452885495E+03 -0.41690246328E+03  0.46416249177E+03  0.10100000352E+00 0. -1.
       -3    1    3    3    0  502 -0.12070377196E+03  0.16452885495E+03  0.12196192982E+04  0.12365720308E+04  0.10100000352E+00 0.  1.
</event>
<event>
 5   0  0.1533777E-05  0.1499578E+04  0.7818609E-02  0.8884734E-01
       -1   -1    0    0    0  501  0.00000000000E+00  0.00000000000E+00  0.55573093330E+03  0.55573093332E+03  0.50400001928E-02 0. -1.
        1   -1    0    0  501    0  0.00000000000E+00  0.00000000000E+00 -0.10116107539E+04  0.10116107539E+04  0.50400001928E-02 0.  1.
    10030    2    1    2    0    0  0.00000000000E+00  0.00000000000E+00 -0.45587982060E+03  0.15673416872E+04  0.14995777918E+04 0.  0.
        5    1    3    3  502    0 -0.20015059727E+03 -0.22317193412E+03 -0.94623270174E+03  0.99259477614E+03  0.46999998093E+01 0.  1.
       -5    1    3    3    0  502  0.20015059727E+03  0.22317193412E+03  0.49035288115E+03  0.57474691110E+03  0.46999998093E+01 0. -1.
</event>
<event>
 5   0  0.1533777E-05  0.1499939E+04  0.7818609E-02  0.8884493E-01
        1   -1    0    0  501    0  0.00000000000E+00  0.00000000000E+00  0.87600662184E+03  0.87600662185E+03  0.50400001928E-02 0.  1.
       -1   -1    0    0    0  501  0.00000000000E+00  0.00000000000E+00 -0.64206640049E+03  0.64206640051E+03  0.50400001928E-02 0. -1.
    10030    2    1    2    0    0  0.00000000000E+00  0.00000000000E+00  0.23394022135E+03  0.15180730224E+04  0.14999392235E+04 0.  0.
        5    1    3    3  502    0  0.54198888965E+03 -0.43506882940E+03 -0.16820847139E+03  0.71508952073E+03  0.46999998093E+01 0.  1.
       -5    1    3    3    0  502 -0.54198888965E+03  0.43506882940E+03  0.40214869274E+03  0.80298350163E+03  0.46999998093E+01 0. -1.
</event>
<event>
 5   0  0.2969498E-05  0.1498664E+04  0.7818609E-02  0.8885342E-01
       -2   -1    0    0    0  501  0.00000000000E+00  0.00000000000E+00  0.80573556759E+03  0.80573556759E+03  0.25500000920E-02 0. -1.
        2   -1    0    0  501    0  0.00000000000E+00  0.00000000000E+00 -0.69687654572E+03  0.69687654573E+03  0.25500000920E-02 0.  1.
    10030    2    1    2    0    0  0.00000000000E+00  0.00000000000E+00  0.10885902187E+03  0.15026121133E+04  0.14986636969E+04 0.  0.
        3    1    3    3  502    0  0.35833848927E+03 -0.30000802794E+03 -0.53284990399E+03  0.70875970547E+03  0.10100000352E+00 0.  1.
       -3    1    3    3    0  502 -0.35833848927E+03  0.30000802794E+03  0.64170892586E+03  0.79385240785E+03  0.10100000352E+00 0. -1.
</event>
<event>
 5   0  0.3093600E-05  0.1501562E+04  0.7818609E-02  0.8883415E-01
       -2   -1    0    0    0  501  0.00000000000E+00  0.00000000000E+00  0.92810431612E+03  0.92810431613E+03  0.25500000920E-02 0. -1.
        2   -1    0    0  501    0  0.00000000000E+00  0.00000000000E+00 -0.60733666616E+03  0.60733666616E+03  0.25500000920E-02 0.  1.
    10030    2    1    2    0    0  0.00000000000E+00  0.00000000000E+00  0.32076764996E+03  0.15354409823E+04  0.15015615621E+04 0.  0.
        1    1    3    3  502    0  0.28287674844E+03  0.68679093847E+03  0.27226328501E+03  0.79109313255E+03  0.50400001928E-02 0. -1.
       -1    1    3    3    0  502 -0.28287674844E+03 -0.68679093847E+03  0.48504364952E+02  0.74434784974E+03  0.50400001928E-02 0.  1.
</event>
<event>
 5   0  0.3070497E-05  0.1500037E+04  0.7818609E-02  0.8884428E-01
       -2   -1    0    0    0  501  0.00000000000E+00  0.00000000000E+00  0.76140570063E+03  0.76140570063E+03  0.25500000920E-02 0.  1.
        2   -1    0    0  501    0  0.00000000000E+00  0.00000000000E+00 -0.73880136426E+03  0.73880136426E+03  0.25500000920E-02 0. -1.
    10030    2    1    2    0    0  0.00000000000E+00  0.00000000000E+00  0.22604336370E+02  0.15002070649E+04  0.15000367601E+04 0.  0.
        4    1    3    3  502    0 -0.51915411467E+03  0.54082874307E+03  0.33870929942E+02  0.75044358676E+03  0.12699999809E+01 0. -1.
       -4    1    3    3    0  502  0.51915411467E+03 -0.54082874307E+03 -0.11266593572E+02  0.74976347813E+03  0.12699999809E+01 0.  1.
</event>
<event>
 5   0  0.1580078E-05  0.1499975E+04  0.7818609E-02  0.8884469E-01
        1   -1    0    0  501    0  0.00000000000E+00  0.00000000000E+00  0.40526338818E+03  0.40526338821E+03  0.50400001928E-02 0. -1.
       -1   -1    0    0    0  501  0.00000000000E+00  0.00000000000E+00 -0.13879407381E+04  0.13879407381E+04  0.50400001928E-02 0.  1.
    10030    2    1    2    0    0  0.00000000000E+00  0.00000000000E+00 -0.98267734990E+03  0.17932041263E+04  0.14999754213E+04 0.  0.
        2    1    3    3  502    0  0.30432082314E+03  0.27352918736E+01 -0.13108051177E+04  0.13456703541E+04  0.25500000920E-02 0.  1.
       -2    1    3    3    0  502 -0.30432082314E+03 -0.27352918736E+01  0.32812776784E+03  0.44753377219E+03  0.25500000920E-02 0. -1.
</event>
<event>
 5   0  0.3030702E-05  0.1500110E+04  0.7818609E-02  0.8884380E-01
        2   -1    0    0  501    0  0.00000000000E+00  0.00000000000E+00  0.18458506083E+04  0.18458506083E+04  0.25500000920E-02 0. -1.
       -2   -1    0    0    0  501  0.00000000000E+00  0.00000000000E+00 -0.30478230646E+03  0.30478230647E+03  0.25500000920E-02 0.  1.
    10030    2    1    2    0    0  0.00000000000E+00  0.00000000000E+00  0.15410683019E+04  0.21506329148E+04  0.15001101370E+04 0.  0.
        5    1    3    3  502    0 -0.38418789253E+03  0.74295381120E+02 -0.14682305302E+03  0.41797038091E+03  0.46999998093E+01 0.  1.
       -5    1    3    3    0  502  0.38418789253E+03 -0.74295381120E+02  0.16878913549E+04  0.17326625339E+04  0.46999998093E+01 0. -1.
</event>
<event>
 5   0  0.1643498E-05  0.1500142E+04  0.7818609E-02  0.8884358E-01
       -1   -1    0    0    0  501  0.00000000000E+00  0.00000000000E+00  0.54062858741E+03  0.54062858743E+03  0.50400001928E-02 0. -1.
        1   -1    0    0  501    0  0.00000000000E+00  0.00000000000E+00 -0.10406527762E+04  0.10406527762E+04  0.50400001928E-02 0.  1.
    10030    2    1    2    0    0  0.00000000000E+00  0.00000000000E+00 -0.50002418880E+03  0.15812813636E+04  0.15001421805E+04 0.  0.
        4    1    3    3  502    0 -0.48488413154E+03  0.31025978001E+03  0.25686190856E+03  0.63035974259E+03  0.12699999809E+01 0. -1.
       -4    1    3    3    0  502  0.48488413154E+03 -0.31025978001E+03 -0.75688609736E+03  0.95092162105E+03  0.12699999809E+01 0.  1.
</event>
<event>
 5   0  0.3093600E-05  0.1499316E+04  0.7818609E-02  0.8884908E-01
        2   -1    0    0  501    0  0.00000000000E+00  0.00000000000E+00  0.70592836001E+03  0.70592836001E+03  0.25500000920E-02 0.  1.
       -2   -1    0    0    0  501  0.00000000000E+00  0.00000000000E+00 -0.79609620706E+03  0.79609620707E+03  0.25500000920E-02 0. -1.
    10030    2    1    2    0    0  0.00000000000E+00  0.00000000000E+00 -0.90167847056E+02  0.15020245671E+04  0.14993156971E+04 0.  0.
        1    1    3    3  502    0 -0.80860351240E+02  0.60419229251E+03  0.39205312010E+03  0.72477056489E+03  0.50400001928E-02 0.  1.
       -1    1    3    3    0  502  0.80860351240E+02 -0.60419229251E+03 -0.48222096715E+03  0.77725400219E+03  0.50400001928E-02 0. -1.
</event>
<event>
 5   0  0.1116613E-05  0.1500834E+04  0.7818609E-02  0.8883899E-01
        4   -1    0    0  501    0  0.00000000000E+00  0.00000000000E+00  0.66895682138E+03  0.66895802691E+03  0.12699999809E+01 0. -1.
       -4   -1    0    0    0  501  0.00000000000E+00  0.00000000000E+00 -0.84179411618E+03  0.84179507419E+03  0.12699999809E+01 0.  1.
    10030    2    1    2    0    0  0.00000000000E+00  0.00000000000E+00 -0.17283729480E+03  0.15107531011E+04  0.15008338356E+04 0.  0.
        2    1    3    3  502    0 -0.52922185700E+01  0.67984689190E+03  0.23333744806E+03  0.71879494202E+03  0.25500000920E-02 0. -1.
       -2    1    3    3    0  502  0.52922185700E+01 -0.67984689190E+03 -0.40617474286E+03  0.79195815909E+03  0.25500000920E-02 0.  1.
</event>
<event>
 5   0  0.3018308E-05  0.1499668E+04  0.7818609E-02  0.8884674E-01
       -2   -1    0    0    0  501  0.00000000000E+00  0.00000000000E+00  0.66419239169E+03  0.66419239169E+03  0.25500000920E-02 0.  1.
        2   -1    0    0  501    0  0.00000000000E+00  0.00000000000E+00 -0.84651835635E+03  0.84651835636E+03  0.25500000920E-02 0. -1.
    10030    2    1    2    0    0  0.00000000000E+00  0.00000000000E+00 -0.18232596467E+03  0.15107107481E+04  0.14996680322E+04 0.  0.
        2    1    3    3  502    0 -0.44297415445E+03 -0.55736659781E+03  0.14587249463E+03  0.72674783148E+03  0.25500000920E-02 0.  1.
       -2    1    3    3    0  502  0.44297415445E+03  0.55736659781E+03 -0.32819845929E+03  0.78396291657E+03  0.25500000920E-02 0. -1.
</event>
<event>
 5   0  0.1576214E-05  0.1502822E+04  0.7818609E-02  0.8882579E-01
        1   -1    0    0  501    0  0.00000000000E+00  0.00000000000E+00  0.15500174315E+04  0.15500174315E+04  0.50400001928E-02 0.  1.
       -1   -1    0    0    0  501  0.00000000000E+00  0.00000000000E+00 -0.36426582925E+03  0.36426582928E+03  0.50400001928E-02 0. -1.
    10030    2    1    2    0    0  0.00000000000E+00  0.00000000000E+00  0.11857516022E+04  0.19142832608E+04  0.15028218591E+04 0.  0.
        1    1    3    3  502    0 -0.26654324574E+02  0.49904572101E+03  0.13076326749E+04  0.13998786723E+04  0.50400001928E-02 0.  1.
       -1    1    3    3    0  502  0.26654324574E+02 -0.49904572101E+03 -0.12188107272E+03  0.51440458842E+03  0.50400001928E-02 0. -1.
</event>
<event>
 5   0  0.1643498E-05  0.1500310E+04  0.7818609E-02  0.8884247E-01
       -1   -1    0    0    0  501  0.00000000000E+00  0.00000000000E+00  0.56412465624E+03  0.56412465627E+03  0.50400001928E-02 0. -1.
        1   -1    0    0  501    0  0.00000000000E+00  0.00000000000E+00 -0.99753179572E+03  0.99753179573E+03  0.50400001928E-02 0.  1.
    10030    2    1    2    0    0  0.00000000000E+00  0.00000000000E+00 -0.43340713947E+03  0.15616564520E+04  0.15003096765E+04 0.  0.
        4    1    3    3  502    0  0.59956194535E+03  0.19114212935E+02  0.25214841093E+03  0.65070754835E+03  0.12699999809E+01 0. -1.
       -4    1    3    3    0  502 -0.59956194535E+03 -0.19114212935E+02 -0.68555555041E+03  0.91094890364E+03  0.12699999809E+01 0.  1.
</event>
<event>
 5   0  0.3018308E-05  0.1500148E+04  0.7818609E-02  0.8884354E-01
       -2   -1    0    0    0  501  0.00000000000E+00  0.00000000000E+00  0.56686636131E+03  0.56686636131E+03  0.25500000920E-02 0. -1.
        2   -1    0    0  501    0  0.00000000000E+00  0.00000000000E+00 -0.99249361821E+03  0.99249361822E+03  0.25500000920E-02 0.  1.
    10030    2    1    2    0    0  0.00000000000E+00  0.00000000000E+00 -0.42562725691E+03  0.15593599795E+04  0.15001483206E+04 0.  0.
        2    1    3    3  502    0 -0.18624634625E+03  0.28538877020E+03 -0.90737660474E+03  0.96926093209E+03  0.25500000920E-02 0.  1.
       -2    1    3    3    0  502  0.18624634625E+03 -0.28538877020E+03  0.48174934783E+03  0.59009904744E+03  0.25500000920E-02 0. -1.
</event>
<event>
 5   0  0.3030702E-05  0.1499873E+04  0.7818609E-02  0.8884537E-01
        2   -1    0    0  501    0  0.00000000000E+00  0.00000000000E+00  0.22176037122E+04  0.22176037122E+04  0.25500000920E-02 0. -1.
       -2   -1    0    0    0  501  0.00000000000E+00  0.00000000000E+00 -0.25360920484E+03  0.25360920485E+03  0.25500000920E-02 0.  1.
    10030    2    1    2    0    0  0.00000000000E+00  0.00000000000E+00  0.19639945074E+04  0.24712129171E+04  0.14998729468E+04 0.  0.
        5    1    3    3  502    0 -0.30106650921E+03 -0.29397745257E+03  0.20047386031E+04  0.20484293354E+04  0.46999998093E+01 0. -1.
       -5    1    3    3    0  502  0.30106650921E+03  0.29397745257E+03 -0.40744095674E+02  0.42278358166E+03  0.46999998093E+01 0.  1.
</event>
<event>
 5   0  0.1643498E-05  0.1500158E+04  0.7818609E-02  0.8884348E-01
        1   -1    0    0  501    0  0.00000000000E+00  0.00000000000E+00  0.13828248847E+04  0.13828248847E+04  0.50400001928E-02 0.  1.
       -1   -1    0    0    0  501  0.00000000000E+00  0.00000000000E+00 -0.40686196354E+03  0.40686196357E+03  0.50400001928E-02 0. -1.
    10030    2    1    2    0    0  0.00000000000E+00  0.00000000000E+00  0.97596292119E+03  0.17896868483E+04  0.15001584555E+04 0.  0.
        4    1    3    3  502    0  0.40380807238E+03  0.62642990011E+03  0.38716174823E+03  0.83986380519E+03  0.12699999809E+01 0.  1.
       -4    1    3    3    0  502 -0.40380807238E+03 -0.62642990011E+03  0.58880117296E+03  0.94982304312E+03  0.12699999809E+01 0. -1.
</event>
<event>
 5   0  0.1580078E-05  0.1496368E+04  0.7818609E-02  0.8886872E-01
        1   -1    0    0  501    0  0.00000000000E+00  0.00000000000E+00  0.47342619081E+03  0.47342619084E+03  0.50400001928E-02 0.  1.
       -1   -1    0    0    0  501  0.00000000000E+00  0.00000000000E+00 -0.11824009434E+04  0.11824009434E+04  0.50400001928E-02 0. -1.
    10030    2    1    2    0    0  0.00000000000E+00  0.00000000000E+00 -0.70897475262E+03  0.16558271343E+04  0.14963683700E+04 0.  0.
        2    1    3    3  502    0 -0.49666040648E+03 -0.11146382558E+03 -0.96126773309E+03  0.10877184371E+04  0.25500000920E-02 0. -1.
       -2    1    3    3    0  502  0.49666040648E+03  0.11146382558E+03  0.25229298047E+03  0.56810869716E+03  0.25500000920E-02 0.  1.
</event>
<event>
 5   0  0.3070497E-05  0.1499940E+04  0.7818609E-02  0.8884493E-01
       -2   -1    0    0    0  501  0.00000000000E+00  0.00000000000E+00  0.43565258248E+03  0.43565258248E+03  0.25500000920E-02 0.  1.
        2   -1    0    0  501    0  0.00000000000E+00  0.00000000000E+00 -0.12910629189E+04  0.12910629189E+04  0.25500000920E-02 0. -1.
    10030    2    1    2    0    0  0.00000000000E+00  0.00000000000E+00 -0.85541033643E+03  0.17267155014E+04  0.14999398585E+04 0.  0.
        4    1    3    3  502    0  0.14483779769E+03 -0.49338700324E+03 -0.10561794944E+04  0.11747022857E+04  0.12699999809E+01 0. -1.
       -4    1    3    3    0  502 -0.14483779769E+03  0.49338700324E+03  0.20076915802E+03  0.55201321571E+03  0.12699999809E+01 0.  1.
</event>
<event>
 5   0  0.1533777E-05  0.1500738E+04  0.7818609E-02  0.8883962E-01
        1   -1    0    0  501    0  0.00000000000E+00  0.00000000000E+00  0.55017985175E+03  0.55017985177E+03  0.50400001928E-02 0. -1.
       -1   -1    0    0    0  501  0.00000000000E+00  0.00000000000E+00 -0.10233997110E+04  0.10233997110E+04  0.50400001928E-02 0.  1.
    10030    2    1    2    0    0  0.00000000000E+00  0.00000000000E+00 -0.47321985925E+03  0.15735795628E+04  0.15007383533E+04 0.  0.
        5    1    3    3  502    0 -0.44174420717E+03 -0.29466991850E+03  0.31927634931E+03  0.61961906254E+03  0.46999998093E+01 0. -1.
       -5    1    3    3    0  502  0.44174420717E+03  0.29466991850E+03 -0.79249620856E+03  0.95396050024E+03  0.46999998093E+01 0.  1.
</event>
<event>
 5   0  0.3070497E-05  0.1499005E+04  0.7818609E-02  0.8885115E-01
       -2   -1    0    0    0  501  0.00000000000E+00  0.00000000000E+00  0.54545164028E+03  0.54545164029E+03  0.25500000920E-02 0.  1.
        2   -1    0    0  501    0  0.00000000000E+00  0.00000000000E+00 -0.10298876121E+04  0.10298876121E+04  0.25500000920E-02 0. -1.
    10030    2    1    2    0    0  0.00000000000E+00  0.00000000000E+00 -0.48443597183E+03  0.15753392524E+04  0.14990048530E+04 0.  0.
        4    1    3    3  502    0 -0.21423294959E+03  0.73443322536E+02 -0.99306769691E+03  0.10185650406E+04  0.12699999809E+01 0. -1.
       -4    1    3    3    0  502  0.21423294959E+03 -0.73443322536E+02  0.50863172508E+03  0.55677421184E+03  0.12699999809E+01 0.  1.
</event>
<event>
 5   0  0.3070497E-05  0.1499974E+04  0.7818609E-02  0.8884470E-01
       -2   -1    0    0    0  501  0.00000000000E+00  0.00000000000E+00  0.26676065329E+03  0.26676065330E+03  0.25500000920E-02 0.  1.
        2   -1    0    0  501    0  0.00000000000E+00  0.00000000000E+00 -0.21085583484E+04  0.21085583484E+04  0.25500000920E-02 0. -1.
    10030    2    1    2    0    0  0.00000000000E+00  0.00000000000E+00 -0.18417976951E+04  0.23753190017E+04  0.14999738698E+04 0.  0.
        4    1    3    3  502    0  0.28768145812E+03 -0.50838955167E+03 -0.16657816856E+04  0.17652339207E+04  0.12699999809E+01 0. -1.
       -4    1    3    3    0  502 -0.28768145812E+03  0.50838955167E+03 -0.17601600948E+03  0.61008508102E+03  0.12699999809E+01 0.  1.
</event>
<event>
 5   0  0.3030702E-05  0.1500424E+04  0.7818609E-02  0.8884171E-01
        2   -1    0    0  501    0  0.00000000000E+00  0.00000000000E+00  0.19056850672E+04  0.19056850672E+04  0.25500000920E-02 0.  1.
       -2   -1    0    0    0  501  0.00000000000E+00  0.00000000000E+00 -0.29533650554E+03  0.29533650555E+03  0.25500000920E-02 0. -1.
    10030    2    1    2    0    0  0.00000000000E+00  0.00000000000E+00  0.16103485617E+04  0.22010215727E+04  0.15004244312E+04 0.  0.
        5    1    3    3  502    0 -0.18491853771E+03 -0.65564386305E+03  0.34423860643E+03  0.76327324655E+03  0.46999998093E+01 0. -1.
       -5    1    3    3    0  502  0.18491853771E+03  0.65564386305E+03  0.12661099552E+04  0.14377483262E+04  0.46999998093E+01 0.  1.
</event>
<event>
 5   0  0.1580078E-05  0.1500292E+04  0.7818609E-02  0.8884259E-01
       -1   -1    0    0    0  501  0.00000000000E+00  0.00000000000E+00  0.84967148837E+03  0.84967148838E+03  0.50400001928E-02 0. -1.
        1   -1    0    0  501    0  0.00000000000E+00  0.00000000000E+00 -0.66227823139E+03  0.66227823141E+03  0.50400001928E-02 0.  1.
    10030    2    1    2    0    0  0.00000000000E+00  0.00000000000E+00  0.18739325697E+03  0.15119497198E+04  0.15002918791E+04 0.  0.
        2    1    3    3  502    0  0.60323813516E+03 -0.25668816011E+03  0.46113069279E+03  0.80151517458E+03  0.25500000920E-02 0.  1.
       -2    1    3    3    0  502 -0.60323813516E+03  0.25668816011E+03 -0.27373743581E+03  0.71043454521E+03  0.25500000920E-02 0. -1.
</event>
<event>
 5   0  0.1576214E-05  0.1500346E+04  0.7818609E-02  0.8884223E-01
       -1   -1    0    0    0  501  0.00000000000E+00  0.00000000000E+00  0.53550318654E+03  0.53550318656E+03  0.50400001928E-02 0. -1.
        1   -1    0    0  501    0  0.00000000000E+00  0.00000000000E+00 -0.10508984341E+04  0.10508984341E+04  0.50400001928E-02 0.  1.
    10030    2    1    2    0    0  0.00000000000E+00  0.00000000000E+00 -0.51539524757E+03  0.15864016207E+04  0.15003459071E+04 0.  0.
        1    1    3    3  502    0 -0.43270900969E+03  0.34705591179E+03  0.27631967573E+03  0.61970755699E+03  0.50400001928E-02 0. -1.
       -1    1    3    3    0  502  0.43270900969E+03 -0.34705591179E+03 -0.79171492330E+03  0.96669406369E+03  0.50400001928E-02 0.  1.
</event>
<event>
 5   0  0.1533777E-05  0.1499570E+04  0.7818609E-02  0.8884739E-01
        1   -1    0    0  501    0  0.00000000000E+00  0.00000000000E+00  0.13930878280E+04  0.13930878280E+04  0.50400001928E-02 0.  1.
       -1   -1    0    0    0  501  0.00000000000E+00  0.00000000000E+00 -0.40354805687E+03  0.40354805690E+03  0.50400001928E-02 0. -1.
    10030    2    1    2    0    0  0.00000000000E+00  0.00000000000E+00  0.98953977116E+03  0.17966358849E+04  0.14995704533E+04 0.  0.
        5    1    3    3  502    0 -0.13429404954E+03  0.61503238831E+03  0.68383650192E+01  0.62957809972E+03  0.46999998093E+01 0. -1.
       -5    1    3    3    0  502  0.13429404954E+03 -0.61503238831E+03  0.98270140615E+03  0.11670577852E+04  0.46999998093E+01 0.  1.
</event>
<event>
 5   0  0.3093600E-05  0.1500707E+04  0.7818609E-02  0.8883983E-01
       -2   -1    0    0    0  501  0.00000000000E+00  0.00000000000E+00  0.30354783453E+03  0.30354783454E+03  0.25500000920E-02 0. -1.
        2   -1    0    0  501    0  0.00000000000E+00  0.00000000000E+00 -0.18548321739E+04  0.18548321739E+04  0.25500000920E-02 0.  1.
    10030    2    1    2    0    0  0.00000000000E+00  0.00000000000E+00 -0.15512843394E+04  0.21583800084E+04  0.15007068865E+04 0.  0.
        1    1    3    3  502    0 -0.24214557219E+03 -0.55449788022E+03 -0.13739973899E+03  0.62046842433E+03  0.50400001928E-02 0. -1.
       -1    1    3    3    0  502  0.24214557219E+03  0.55449788022E+03 -0.14138846004E+04  0.15379115841E+04  0.50400001928E-02 0.  1.
</event>
<event>
 5   0  0.1116613E-05  0.1500809E+04  0.7818609E-02  0.8883915E-01
        4   -1    0    0  501    0  0.00000000000E+00  0.00000000000E+00  0.25613367538E+03  0.25613682391E+03  0.12699999809E+01 0. -1.
       -4   -1    0    0    0  501  0.00000000000E+00  0.00000000000E+00 -0.21984721396E+04  0.21984725064E+04  0.12699999809E+01 0.  1.
    10030    2    1    2    0    0  0.00000000000E+00  0.00000000000E+00 -0.19423384642E+04  0.24546093303E+04  0.15008092001E+04 0.  0.
        2    1    3    3  502    0  0.33033491635E+03  0.50903456928E+03 -0.24918274155E+03  0.65599496063E+03  0.25500000920E-02 0. -1.
       -2    1    3    3    0  502 -0.33033491635E+03 -0.50903456928E+03 -0.16931557227E+04  0.17986143697E+04  0.25500000920E-02 0.  1.
</event>
<event>
 5   0  0.3070497E-05  0.1499831E+04  0.7818609E-02  0.8884565E-01
        2   -1    0    0  501    0  0.00000000000E+00  0.00000000000E+00  0.11728045063E+04  0.11728045063E+04  0.25500000920E-02 0. -1.
       -2   -1    0    0    0  501  0.00000000000E+00  0.00000000000E+00 -0.47951157708E+03  0.47951157709E+03  0.25500000920E-02 0.  1.
    10030    2    1    2    0    0  0.00000000000E+00  0.00000000000E+00  0.69329292919E+03  0.16523160834E+04  0.14998311084E+04 0.  0.
        4    1    3    3  502    0 -0.24206633550E+03  0.53448110342E+02 -0.43306602041E+03  0.49899960142E+03  0.12699999809E+01 0.  1.
       -4    1    3    3    0  502  0.24206633550E+03 -0.53448110342E+02  0.11263589496E+04  0.11533164819E+04  0.12699999809E+01 0. -1.
</event>
<event>
 5   0  0.1533777E-05  0.1500320E+04  0.7818609E-02  0.8884240E-01
       -1   -1    0    0    0  501  0.00000000000E+00  0.00000000000E+00  0.14409147496E+04  0.14409147496E+04  0.50400001928E-02 0. -1.
        1   -1    0    0  501    0  0.00000000000E+00  0.00000000000E+00 -0.39054345861E+03  0.39054345864E+03  0.50400001928E-02 0.  1.
    10030    2    1    2    0    0  0.00000000000E+00  0.00000000000E+00  0.10503712910E+04  0.18314582082E+04  0.15003197391E+04 0.  0.
        5    1    3    3  502    0  0.56631085983E+03  0.48699515317E+03  0.44021260134E+03  0.86699567101E+03  0.46999998093E+01 0. -1.
       -5    1    3    3    0  502 -0.56631085983E+03 -0.48699515317E+03  0.61015868963E+03  0.96446253722E+03  0.46999998093E+01 0.  1.
</event>
<event>
 5   0  0.1576214E-05  0.1500066E+04  0.7818609E-02  0.8884409E-01
        1   -1    0    0  501    0  0.00000000000E+00  0.00000000000E+00  0.12723019322E+04  0.12723019322E+04  0.50400001928E-02 0.  1.
       -1   -1    0    0    0  501  0.00000000000E+00  0.00000000000E+00 -0.44215096189E+03  0.44215096192E+03  0.50400001928E-02 0. -1.
    10030    2    1    2    0    0  0.00000000000E+00  0.00000000000E+00  0.83015097031E+03  0.17144528941E+04  0.15000660295E+04 0.  0.
        1    1    3    3  502    0  0.48335092165E+03  0.48312189950E+03  0.76829944289E+03  0.10282601408E+04  0.50400001928E-02 0.  1.
       -1    1    3    3    0  502 -0.48335092165E+03 -0.48312189950E+03  0.61851527428E+02  0.68619275332E+03  0.50400001928E-02 0. -1.
</event>
<event>
 5   0  0.1580078E-05  0.1499974E+04  0.7818609E-02  0.8884470E-01
       -1   -1    0    0    0  501  0.00000000000E+00  0.00000000000E+00  0.31070787374E+03  0.31070787378E+03  0.50400001928E-02 0.  1.
        1   -1    0    0  501    0  0.00000000000E+00  0.00000000000E+00 -0.18103200504E+04  0.18103200504E+04  0.50400001928E-02 0. -1.
    10030    2    1    2    0    0  0.00000000000E+00  0.00000000000E+00 -0.14996121767E+04  0.21210279242E+04  0.14999742581E+04 0.  0.
        2    1    3    3  502    0  0.28627084929E+02  0.44519956687E+03 -0.16022975007E+04  0.16632436518E+04  0.25500000920E-02 0. -1.
       -2    1    3    3    0  502 -0.28627084929E+02 -0.44519956687E+03  0.10268532402E+03  0.45778427246E+03  0.25500000920E-02 0.  1.
</event>
<event>
 5   0  0.1580078E-05  0.1505913E+04  0.7818609E-02  0.8880530E-01
       -1   -1    0    0    0  501  0.00000000000E+00  0.00000000000E+00  0.56181839606E+03  0.56181839608E+03  0.50400001928E-02 0.  1.
        1   -1    0    0  501    0  0.00000000000E+00  0.00000000000E+00 -0.10091222770E+04  0.10091222770E+04  0.50400001928E-02 0. -1.
    10030    2    1    2    0    0  0.00000000000E+00  0.00000000000E+00 -0.44730388091E+03  0.15709406731E+04  0.15059129578E+04 0.  0.
        2    1    3    3  502    0  0.73268008374E+03 -0.15330368810E+03 -0.30853726927E+03  0.80964027348E+03  0.25500000920E-02 0. -1.
       -2    1    3    3    0  502 -0.73268008374E+03  0.15330368810E+03 -0.13876661164E+03  0.76130039959E+03  0.25500000920E-02 0.  1.
</event>
<event>
 5   0  0.1533777E-05  0.1499523E+04  0.7818609E-02  0.8884770E-01
        1   -1    0    0  501    0  0.00000000000E+00  0.00000000000E+00  0.17660349265E+04  0.17660349265E+04  0.50400001928E-02 0.  1.
       -1   -1    0    0    0  501  0.00000000000E+00  0.00000000000E+00 -0.31830742586E+03  0.31830742590E+03  0.50400001928E-02 0. -1.
    10030    2    1    2    0    0  0.00000000000E+00  0.00000000000E+00  0.14477275007E+04  0.20843423524E+04  0.14995226327E+04 0.  0.
        5    1    3    3  502    0  0.73018585824E+03 -0.14945784515E+03  0.61084603253E+03  0.96367214368E+03  0.46999998093E+01 0.  1.
       -5    1    3    3    0  502 -0.73018585824E+03  0.14945784515E+03  0.83688146813E+03  0.11206702087E+04  0.46999998093E+01 0. -1.
</event>
<event>
 5   0  0.3093600E-05  0.1500411E+04  0.7818609E-02  0.8884179E-01
       -2   -1    0    0    0  501  0.00000000000E+00  0.00000000000E+00  0.26560968973E+03  0.26560968974E+03  0.25500000920E-02 0. -1.
        2   -1    0    0  501    0  0.00000000000E+00  0.00000000000E+00 -0.21189307192E+04  0.21189307192E+04  0.25500000920E-02 0.  1.
    10030    2    1    2    0    0  0.00000000000E+00  0.00000000000E+00 -0.18533210294E+04  0.23845404089E+04  0.15004113181E+04 0.  0.
        1    1    3    3  502    0  0.40050527730E+03 -0.38699705831E+03 -0.17254698229E+04  0.18131236334E+04  0.50400001928E-02 0.  1.
       -1    1    3    3    0  502 -0.40050527730E+03  0.38699705831E+03 -0.12785120654E+03  0.57141677550E+03  0.50400001928E-02 0. -1.
</event>
<event>
 5   0  0.1580078E-05  0.1500118E+04  0.7818609E-02  0.8884374E-01
        1   -1    0    0  501    0  0.00000000000E+00  0.00000000000E+00  0.16822593684E+04  0.16822593684E+04  0.50400001928E-02 0.  1.
       -1   -1    0    0    0  501  0.00000000000E+00  0.00000000000E+00 -0.33442434451E+03  0.33442434455E+03  0.50400001928E-02 0. -1.
    10030    2    1    2    0    0  0.00000000000E+00  0.00000000000E+00  0.13478350239E+04  0.20166837130E+04  0.15001179775E+04 0.  0.
        2    1    3    3  502    0 -0.57051885934E+03 -0.35436907339E+03  0.11228565265E+04  0.13083867884E+04  0.25500000920E-02 0.  1.
       -2    1    3    3    0  502  0.57051885934E+03  0.35436907339E+03  0.22497849744E+03  0.70829692457E+03  0.25500000920E-02 0. -1.
</event>
<event>
 5   0  0.1576214E-05  0.1501342E+04  0.7818609E-02  0.8883561E-01
        1   -1    0    0  501    0  0.00000000000E+00  0.00000000000E+00  0.18245385861E+04  0.18245385861E+04  0.50400001928E-02 0. -1.
       -1   -1    0    0    0  501  0.00000000000E+00  0.00000000000E+00 -0.30884903273E+03  0.30884903277E+03  0.50400001928E-02 0.  1.
    10030    2    1    2    0    0  0.00000000000E+00  0.00000000000E+00  0.15156895533E+04  0.21333876188E+04  0.15013420364E+04 0.  0.
        1    1    3    3  502    0 -0.92565375835E+02 -0.25063255523E+03 -0.23899760513E+03  0.35847577579E+03  0.50400001928E-02 0.  1.
       -1    1    3    3    0  502  0.92565375835E+02  0.25063255523E+03  0.17546871585E+04  0.17749118430E+04  0.50400001928E-02 0. -1.
</event>
<event>
 5   0  0.3070497E-05  0.1494917E+04  0.7818609E-02  0.8887840E-01
        2   -1    0    0  501    0  0.00000000000E+00  0.00000000000E+00  0.15022223247E+04  0.15022223247E+04  0.25500000920E-02 0.  1.
       -2   -1    0    0    0  501  0.00000000000E+00  0.00000000000E+00 -0.37191193917E+03  0.37191193918E+03  0.25500000920E-02 0. -1.
    10030    2    1    2    0    0  0.00000000000E+00  0.00000000000E+00  0.11303103855E+04  0.18741342639E+04  0.14949172791E+04 0.  0.
        4    1    3    3  502    0  0.56890507038E+03  0.18920474464E+03  0.11247495427E+04  0.12745644594E+04  0.12699999809E+01 0.  1.
       -4    1    3    3    0  502 -0.56890507038E+03 -0.18920474464E+03  0.55608427837E+01  0.59956980442E+03  0.12699999809E+01 0. -1.
</event>
<event>
 5   0  0.1533777E-05  0.1499316E+04  0.7818609E-02  0.8884908E-01
       -1   -1    0    0    0  501  0.00000000000E+00  0.00000000000E+00  0.18924406978E+03  0.18924406984E+03  0.50400001928E-02 0.  1.
        1   -1    0    0  501    0  0.00000000000E+00  0.00000000000E+00 -0.29696432524E+04  0.29696432524E+04  0.50400001928E-02 0. -1.
    10030    2    1    2    0    0  0.00000000000E+00  0.00000000000E+00 -0.27803991826E+04  0.31588873222E+04  0.14993163442E+04 0.  0.
        5    1    3    3  502    0  0.16402312190E+03 -0.64198882828E+03 -0.21288485357E+04  0.22295899663E+04  0.46999998093E+01 0. -1.
       -5    1    3    3    0  502 -0.16402312190E+03  0.64198882828E+03 -0.65155064693E+03  0.92929735589E+03  0.46999998093E+01 0.  1.
</event>
<event>
 5   0  0.1533777E-05  0.1500236E+04  0.7818609E-02  0.8884296E-01
       -1   -1    0    0    0  501  0.00000000000E+00  0.00000000000E+00  0.48001970691E+03  0.48001970694E+03  0.50400001928E-02 0.  1.
        1   -1    0    0  501    0  0.00000000000E+00  0.00000000000E+00 -0.11721954081E+04  0.11721954081E+04  0.50400001928E-02 0. -1.
    10030    2    1    2    0    0  0.00000000000E+00  0.00000000000E+00 -0.69217570122E+03  0.16522151151E+04  0.15002358432E+04 0.  0.
        5    1    3    3  502    0  0.25811169483E+03 -0.70404626490E+03 -0.36675061190E+03  0.83476397350E+03  0.46999998093E+01 0.  1.
       -5    1    3    3    0  502 -0.25811169483E+03  0.70404626490E+03 -0.32542508932E+03  0.81745114159E+03  0.46999998093E+01 0. -1.
</event>
<event>
 5   0  0.1580078E-05  0.1498704E+04  0.7818609E-02  0.8885315E-01
       -1   -1    0    0    0  501  0.00000000000E+00  0.00000000000E+00  0.41228862785E+03  0.41228862788E+03  0.50400001928E-02 0.  1.
        1   -1    0    0  501    0  0.00000000000E+00  0.00000000000E+00 -0.13619781222E+04  0.13619781223E+04  0.50400001928E-02 0. -1.
    10030    2    1    2    0    0  0.00000000000E+00  0.00000000000E+00 -0.94968949440E+03  0.17742667501E+04  0.14987035614E+04 0.  0.
        2    1    3    3  502    0 -0.15809394737E+03  0.14819725802E+03  0.37438702959E+03  0.43257574067E+03  0.25500000920E-02 0.  1.
       -2    1    3    3    0  502  0.15809394737E+03 -0.14819725802E+03 -0.13240765240E+04  0.13416910095E+04  0.25500000920E-02 0. -1.
</event>
<event>
 5   0  0.3093600E-05  0.1498511E+04  0.7818609E-02  0.8885444E-01
       -2   -1    0    0    0  501  0.00000000000E+00  0.00000000000E+00  0.29370965522E+03  0.29370965523E+03  0.25500000920E-02 0.  1.
        2   -1    0    0  501    0  0.00000000000E+00  0.00000000000E+00 -0.19113553423E+04  0.19113553423E+04  0.25500000920E-02 0. -1.
    10030    2    1    2    0    0  0.00000000000E+00  0.00000000000E+00 -0.16176456871E+04  0.22050649976E+04  0.14985106187E+04 0.  0.
        1    1    3    3  502    0  0.42399604116E+03 -0.20977744174E+03  0.46176056125E+02  0.47530142664E+03  0.50400001928E-02 0.  1.
       -1    1    3    3    0  502 -0.42399604116E+03  0.20977744174E+03 -0.16638217432E+04  0.17297635709E+04  0.50400001928E-02 0. -1.
</event>
<event>
 5   0  0.1643498E-05  0.1499822E+04  0.7818609E-02  0.8884572E-01
       -1   -1    0    0    0  501  0.00000000000E+00  0.00000000000E+00  0.10595401155E+04  0.10595401155E+04  0.50400001928E-02 0. -1.
        1   -1    0    0  501    0  0.00000000000E+00  0.00000000000E+00 -0.53076449394E+03  0.53076449396E+03  0.50400001928E-02 0.  1.
    10030    2    1    2    0    0  0.00000000000E+00  0.00000000000E+00  0.52877562156E+03  0.15903046095E+04  0.14998216870E+04 0.  0.
        4    1    3    3  502    0 -0.57505203777E+03  0.39778866723E+03  0.55174285246E+03  0.89069773664E+03  0.12699999809E+01 0. -1.
       -4    1    3    3    0  502  0.57505203777E+03 -0.39778866723E+03 -0.22967230901E+02  0.69960687283E+03  0.12699999809E+01 0.  1.
</event>
<event>
 5   0  0.3093600E-05  0.1500393E+04  0.7818609E-02  0.8884192E-01
        2   -1    0    0  501    0  0.00000000000E+00  0.00000000000E+00  0.90467120878E+03  0.90467120878E+03  0.25500000920E-02 0.  1.
       -2   -1    0    0    0  501  0.00000000000E+00  0.00000000000E+00 -0.62209873750E+03  0.62209873751E+03  0.25500000920E-02 0. -1.
    10030    2    1    2    0    0  0.00000000000E+00  0.00000000000E+00  0.28257247127E+03  0.15267699463E+04  0.15003930376E+04 0.  0.
        1    1    3    3  502    0  0.30538404123E+03  0.22523394256E+03 -0.51724219624E+03  0.64150544123E+03  0.50400001928E-02 0. -1.
       -1    1    3    3    0  502 -0.30538404123E+03 -0.22523394256E+03  0.79981466752E+03  0.88526450506E+03  0.50400001928E-02 0.  1.
</event>
<event>
 5   0  0.2969498E-05  0.1499845E+04  0.7818609E-02  0.8884556E-01
       -2   -1    0    0    0  501  0.00000000000E+00  0.00000000000E+00  0.26281291259E+03  0.26281291261E+03  0.25500000920E-02 0.  1.
        2   -1    0    0  501    0  0.00000000000E+00  0.00000000000E+00 -0.21398632507E+04  0.21398632507E+04  0.25500000920E-02 0. -1.
    10030    2    1    2    0    0  0.00000000000E+00  0.00000000000E+00 -0.18770503381E+04  0.24026761633E+04  0.14998449166E+04 0.  0.
        3    1    3    3  502    0  0.31603930719E+02 -0.63157075295E+03 -0.15842982265E+04  0.17058374205E+04  0.10100000352E+00 0. -1.
       -3    1    3    3    0  502 -0.31603930719E+02  0.63157075295E+03 -0.29275211157E+03  0.69683874279E+03  0.10100000352E+00 0.  1.
</event>
<event>
 5   0  0.2969498E-05  0.1500034E+04  0.7818609E-02  0.8884430E-01
       -2   -1    0    0    0  501  0.00000000000E+00  0.00000000000E+00  0.77935047340E+03  0.77935047340E+03  0.25500000920E-02 0.  1.
        2   -1    0    0  501    0  0.00000000000E+00  0.00000000000E+00 -0.72178762399E+03  0.72178762400E+03  0.25500000920E-02 0. -1.
    10030    2    1    2    0    0  0.00000000000E+00  0.00000000000E+00  0.57562849404E+02  0.15011380974E+04  0.15000340349E+04 0.  0.
        3    1    3    3  502    0  0.41139813190E+03  0.56994097894E+03 -0.23302988994E+03  0.74052959577E+03  0.10100000352E+00 0. -1.
       -3    1    3    3    0  502 -0.41139813190E+03 -0.56994097894E+03  0.29059273935E+03  0.76060850164E+03  0.10100000352E+00 0.  1.
</event>
<event>
 5   0  0.1576214E-05  0.1500142E+04  0.7818609E-02  0.8884359E-01
        1   -1    0    0  501    0  0.00000000000E+00  0.00000000000E+00  0.14431313204E+04  0.14431313205E+04  0.50400001928E-02 0. -1.
       -1   -1    0    0    0  501  0.00000000000E+00  0.00000000000E+00 -0.38985102185E+03  0.38985102189E+03  0.50400001928E-02 0.  1.
    10030    2    1    2    0    0  0.00000000000E+00  0.00000000000E+00  0.10532802986E+04  0.18329823423E+04  0.15001416200E+04 0.  0.
        1    1    3    3  502    0  0.22967992290E+03 -0.69670066443E+03  0.33553697835E+03  0.80667821755E+03  0.50400001928E-02 0. -1.
       -1    1    3    3    0  502 -0.22967992290E+03  0.69670066443E+03  0.71774332024E+03  0.10263041248E+04  0.50400001928E-02 0.  1.
</event>
<event>
 5   0  0.1533777E-05  0.1499559E+04  0.7818609E-02  0.8884746E-01
        1   -1    0    0  501    0  0.00000000000E+00  0.00000000000E+00  0.91125514928E+03  0.91125514929E+03  0.50400001928E-02 0. -1.
       -1   -1    0    0    0  501  0.00000000000E+00  0.00000000000E+00 -0.61691767926E+03  0.61691767928E+03  0.50400001928E-02 0.  1.
    10030    2    1    2    0    0  0.00000000000E+00  0.00000000000E+00  0.29433747002E+03  0.15281728286E+04  0.14995591511E+04 0.  0.
        5    1    3    3  502    0 -0.13985743433E+03  0.33668282147E+03 -0.52049050884E+03  0.63549027058E+03  0.46999998093E+01 0.  1.
       -5    1    3    3    0  502  0.13985743433E+03 -0.33668282147E+03  0.81482797886E+03  0.89268255799E+03  0.46999998093E+01 0. -1.
</event>
<event>
 5   0  0.2969498E-05  0.1499575E+04  0.7818609E-02  0.8884735E-01
       -2   -1    0    0    0  501  0.00000000000E+00  0.00000000000E+00  0.32598531593E+03  0.32598531594E+03  0.25500000920E-02 0. -1.
        2   -1    0    0  501    0  0.00000000000E+00  0.00000000000E+00 -0.17245606590E+04  0.17245606590E+04  0.25500000920E-02 0.  1.
    10030    2    1    2    0    0  0.00000000000E+00  0.00000000000E+00 -0.13985753431E+04  0.20505459750E+04  0.14995752082E+04 0.  0.
        3    1    3    3  502    0 -0.66351220757E+02  0.19365849492E+03 -0.16856077671E+04  0.16979928304E+04  0.10100000352E+00 0.  1.
       -3    1    3    3    0  502  0.66351220757E+02 -0.19365849492E+03  0.28703242401E+03  0.35255314462E+03  0.10100000352E+00 0. -1.
</event>
<event>
 5   0  0.1533777E-05  0.1499536E+04  0.7818609E-02  0.8884762E-01
        1   -1    0    0  501    0  0.00000000000E+00  0.00000000000E+00  0.22546318223E+04  0.22546318223E+04  0.50400001928E-02 0. -1.
       -1   -1    0    0    0  501  0.00000000000E+00  0.00000000000E+00 -0.24933200383E+03  0.24933200388E+03  0.50400001928E-02 0.  1.
    10030    2    1    2    0    0  0.00000000000E+00  0.00000000000E+00  0.20052998185E+04  0.25039638262E+04  0.14995357551E+04 0.  0.
        5    1    3    3  502    0 -0.62850835611E+03  0.31350260499E+03  0.56458498922E+03  0.90115755398E+03  0.46999998093E+01 0.  1.
       -5    1    3    3    0  502  0.62850835611E+03 -0.31350260499E+03  0.14407148293E+04  0.16028062722E+04  0.46999998093E+01 0. -1.
</event>
<event>
 5   0  0.3018308E-05  0.1500484E+04  0.7818609E-02  0.8884131E-01
       -2   -1    0    0    0  501  0.00000000000E+00  0.00000000000E+00  0.53167721554E+03  0.53167721555E+03  0.25500000920E-02 0. -1.
        2   -1    0    0  501    0  0.00000000000E+00  0.00000000000E+00 -0.10586555838E+04  0.10586555838E+04  0.25500000920E-02 0.  1.
    10030    2    1    2    0    0  0.00000000000E+00  0.00000000000E+00 -0.52697836824E+03  0.15903327993E+04  0.15004839926E+04 0.  0.
        2    1    3    3  502    0 -0.14343172226E+03  0.52925240195E+03 -0.80618731374E+03  0.97499679423E+03  0.25500000920E-02 0.  1.
       -2    1    3    3    0  502  0.14343172226E+03 -0.52925240195E+03  0.27920894550E+03  0.61533600510E+03  0.25500000920E-02 0. -1.
</event>
<event>
 5   0  0.1588657E-05  0.1499721E+04  0.7818609E-02  0.8884639E-01
       -1   -1    0    0    0  501  0.00000000000E+00  0.00000000000E+00  0.69421611935E+03  0.69421611937E+03  0.50400001928E-02 0.  1.
        1   -1    0    0  501    0  0.00000000000E+00  0.00000000000E+00 -0.80996493117E+03  0.80996493118E+03  0.50400001928E-02 0. -1.
    10030    2    1    2    0    0  0.00000000000E+00  0.00000000000E+00 -0.11574881182E+03  0.15041810506E+04  0.14997209225E+04 0.  0.
        3    1    3    3  502    0  0.52335026312E+03  0.32962768981E+03 -0.48309372253E+03  0.78481173968E+03  0.10100000352E+00 0. -1.
       -3    1    3    3    0  502 -0.52335026312E+03 -0.32962768981E+03  0.36734491071E+03  0.71936931087E+03  0.10100000352E+00 0.  1.
</event>
<event>
 5   0  0.1576214E-05  0.1499442E+04  0.7818609E-02  0.8884824E-01
        1   -1    0    0  501    0  0.00000000000E+00  0.00000000000E+00  0.63267098184E+03  0.63267098186E+03  0.50400001928E-02 0. -1.
       -1   -1    0    0    0  501  0.00000000000E+00  0.00000000000E+00 -0.88842640935E+03  0.88842640936E+03  0.50400001928E-02 0.  1.
    10030    2    1    2    0    0  0.00000000000E+00  0.00000000000E+00 -0.25575542751E+03  0.15210973912E+04  0.14994420412E+04 0.  0.
        1    1    3    3  502    0  0.23183621501E+03 -0.67931009390E+03  0.91746986845E+02  0.72362127103E+03  0.50400001928E-02 0.  1.
       -1    1    3    3    0  502 -0.23183621501E+03  0.67931009390E+03 -0.34750241435E+03  0.79747612019E+03  0.50400001928E-02 0. -1.
</event>
<event>
 5   0  0.1643498E-05  0.1499079E+04  0.7818609E-02  0.8885066E-01
        1   -1    0    0  501    0  0.00000000000E+00  0.00000000000E+00  0.18919564243E+04  0.18919564243E+04  0.50400001928E-02 0. -1.
       -1   -1    0    0    0  501  0.00000000000E+00  0.00000000000E+00 -0.29694623327E+03  0.29694623331E+03  0.50400001928E-02 0.  1.
    10030    2    1    2    0    0  0.00000000000E+00  0.00000000000E+00  0.15950101910E+04  0.21889026576E+04  0.14990788288E+04 0.  0.
        4    1    3    3  502    0  0.20292254947E+03  0.30786996048E+03 -0.15535335513E+03  0.40012217072E+03  0.12699999809E+01 0.  1.
       -4    1    3    3    0  502 -0.20292254947E+03 -0.30786996048E+03  0.17503635461E+04  0.17887804869E+04  0.12699999809E+01 0. -1.
</event>
<event>
 5   0  0.3070497E-05  0.1500494E+04  0.7818609E-02  0.8884125E-01
       -2   -1    0    0    0  501  0.00000000000E+00  0.00000000000E+00  0.77383614058E+03  0.77383614058E+03  0.25500000920E-02 0.  1.
        2   -1    0    0  501    0  0.00000000000E+00  0.00000000000E+00 -0.72737654564E+03  0.72737654564E+03  0.25500000920E-02 0. -1.
    10030    2    1    2    0    0  0.00000000000E+00  0.00000000000E+00  0.46459594940E+02  0.15012126862E+04  0.15004935972E+04 0.  0.
        4    1    3    3  502    0 -0.35759781781E+03 -0.40446023217E+03 -0.49798470969E+03  0.73447577407E+03  0.12699999809E+01 0. -1.
       -4    1    3    3    0  502  0.35759781781E+03  0.40446023217E+03  0.54444430463E+03  0.76673691215E+03  0.12699999809E+01 0.  1.
</event>
<event>
 5   0  0.1588657E-05  0.1500100E+04  0.7818609E-02  0.8884386E-01
        1   -1    0    0  501    0  0.00000000000E+00  0.00000000000E+00  0.11502809674E+04  0.11502809674E+04  0.50400001928E-02 0. -1.
       -1   -1    0    0    0  501  0.00000000000E+00  0.00000000000E+00 -0.48907640250E+03  0.48907640253E+03  0.50400001928E-02 0.  1.
    10030    2    1    2    0    0  0.00000000000E+00  0.00000000000E+00  0.66120456489E+03  0.16393573699E+04  0.15001003666E+04 0.  0.
        3    1    3    3  502    0  0.73510220131E+03  0.10904177612E+03  0.44156594882E+03  0.86443383360E+03  0.10100000352E+00 0. -1.
       -3    1    3    3    0  502 -0.73510220131E+03 -0.10904177612E+03  0.21963861607E+03  0.77492353634E+03  0.10100000352E+00 0.  1.
</event>
<event>
 5   0  0.1533777E-05  0.1500655E+04  0.7818609E-02  0.8884018E-01
        1   -1    0    0  501    0  0.00000000000E+00  0.00000000000E+00  0.57861023981E+03  0.57861023983E+03  0.50400001928E-02 0.  1.
       -1   -1    0    0    0  501  0.00000000000E+00  0.00000000000E+00 -0.97300578131E+03  0.97300578132E+03  0.50400001928E-02 0. -1.
    10030    2    1    2    0    0  0.00000000000E+00  0.00000000000E+00 -0.39439554150E+03  0.15516160211E+04  0.15006546684E+04 0.  0.
        5    1    3    3  502    0  0.64566504908E+03 -0.38199514272E+03 -0.18390128520E+03  0.77242826033E+03  0.46999998093E+01 0.  1.
       -5    1    3    3    0  502 -0.64566504908E+03  0.38199514272E+03 -0.21049425630E+03  0.77918776082E+03  0.46999998093E+01 0. -1.
</event>
<event>
 5   0  0.1643498E-05  0.1500422E+04  0.7818609E-02  0.8884173E-01
       -1   -1    0    0    0  501  0.00000000000E+00  0.00000000000E+00  0.20327597406E+03  0.20327597412E+03  0.50400001928E-02 0.  1.
        1   -1    0    0  501    0  0.00000000000E+00  0.00000000000E+00 -0.27687298336E+04  0.27687298336E+04  0.50400001928E-02 0. -1.
    10030    2    1    2    0    0  0.00000000000E+00  0.00000000000E+00 -0.25654538595E+04  0.29720058077E+04  0.15004216126E+04 0.  0.
        4    1    3    3  502    0 -0.27436605701E+03  0.24415299860E+03  0.13023314019E+02  0.36750325110E+03  0.12699999809E+01 0.  1.
       -4    1    3    3    0  502  0.27436605701E+03 -0.24415299860E+03 -0.25784771735E+04  0.26045025566E+04  0.12699999809E+01 0. -1.
</event>
<event>
 5   0  0.3018308E-05  0.1500418E+04  0.7818609E-02  0.8884175E-01
       -2   -1    0    0    0  501  0.00000000000E+00  0.00000000000E+00  0.12102034121E+04  0.12102034121E+04  0.25500000920E-02 0. -1.
        2   -1    0    0  501    0  0.00000000000E+00  0.00000000000E+00 -0.46505692322E+03  0.46505692322E+03  0.25500000920E-02 0.  1.
    10030    2    1    2    0    0  0.00000000000E+00  0.00000000000E+00  0.74514648891E+03  0.16752603354E+04  0.15004179089E+04 0.  0.
        2    1    3    3  502    0  0.59484313148E+03 -0.23516399289E+03 -0.65119029682E+02  0.64294707609E+03  0.25500000920E-02 0.  1.
       -2    1    3    3    0  502 -0.59484313148E+03  0.23516399289E+03  0.81026551860E+03  0.10323132593E+04  0.25500000920E-02 0. -1.
</event>
<event>
 5   0  0.3070497E-05  0.1500718E+04  0.7818609E-02  0.8883976E-01
       -2   -1    0    0    0  501  0.00000000000E+00  0.00000000000E+00  0.25020543436E+03  0.25020543437E+03  0.25500000920E-02 0. -1.
        2   -1    0    0  501    0  0.00000000000E+00  0.00000000000E+00 -0.22503056828E+04  0.22503056828E+04  0.25500000920E-02 0.  1.
    10030    2    1    2    0    0  0.00000000000E+00  0.00000000000E+00 -0.20001002485E+04  0.25005111172E+04  0.15007181092E+04 0.  0.
        4    1    3    3  502    0  0.70365955968E+03 -0.22534620912E+03 -0.78204131735E+03  0.10758754225E+04  0.12699999809E+01 0.  1.
       -4    1    3    3    0  502 -0.70365955968E+03  0.22534620912E+03 -0.12180589311E+04  0.14246356947E+04  0.12699999809E+01 0. -1.
</event>
<event>
 5   0  0.3070497E-05  0.1498803E+04  0.7818609E-02  0.8885249E-01
       -2   -1    0    0    0  501  0.00000000000E+00  0.00000000000E+00  0.11617132164E+04  0.11617132164E+04  0.25500000920E-02 0. -1.
        2   -1    0    0  501    0  0.00000000000E+00  0.00000000000E+00 -0.48342610996E+03  0.48342610996E+03  0.25500000920E-02 0.  1.
    10030    2    1    2    0    0  0.00000000000E+00  0.00000000000E+00  0.67828710641E+03  0.16451393263E+04  0.14988028571E+04 0.  0.
        4    1    3    3  502    0 -0.74225488148E+03 -0.81833495057E+02  0.40823235086E+03  0.85105481327E+03  0.12699999809E+01 0.  1.
       -4    1    3    3    0  502  0.74225488148E+03  0.81833495057E+02  0.27005475555E+03  0.79408451306E+03  0.12699999809E+01 0. -1.
</event>
<event>
 5   0  0.1643498E-05  0.1498406E+04  0.7818609E-02  0.8885514E-01
       -1   -1    0    0    0  501  0.00000000000E+00  0.00000000000E+00  0.54192753377E+03  0.54192753379E+03  0.50400001928E-02 0. -1.
        1   -1    0    0  501    0  0.00000000000E+00  0.00000000000E+00 -0.10357566927E+04  0.10357566927E+04  0.50400001928E-02 0.  1.
    10030    2    1    2    0    0  0.00000000000E+00  0.00000000000E+00 -0.49382915891E+03  0.15776842265E+04  0.14984059131E+04 0.  0.
        4    1    3    3  502    0 -0.18225612772E+03  0.43438183662E+03 -0.86031718515E+03  0.98084257046E+03  0.12699999809E+01 0.  1.
       -4    1    3    3    0  502  0.18225612772E+03 -0.43438183662E+03  0.36648802623E+03  0.59684165601E+03  0.12699999809E+01 0. -1.
</event>
<event>
 5   0  0.3018308E-05  0.1499622E+04  0.7818609E-02  0.8884704E-01
        2   -1    0    0  501    0  0.00000000000E+00  0.00000000000E+00  0.79622696044E+03  0.79622696044E+03  0.25500000920E-02 0. -1.
       -2   -1    0    0    0  501  0.00000000000E+00  0.00000000000E+00 -0.70610112678E+03  0.70610112679E+03  0.25500000920E-02 0.  1.
    10030    2    1    2    0    0  0.00000000000E+00  0.00000000000E+00  0.90125833658E+02  0.15023280872E+04  0.14996222910E+04 0.  0.
        2    1    3    3  502    0  0.43348211061E+03 -0.59825810782E+03  0.17334571089E+03  0.75885982848E+03  0.25500000920E-02 0.  1.
       -2    1    3    3    0  502 -0.43348211061E+03  0.59825810782E+03 -0.83219877230E+02  0.74346825875E+03  0.25500000920E-02 0. -1.
</event>
<event>
 5   0  0.3070497E-05  0.1495350E+04  0.7818609E-02  0.8887551E-01
        2   -1    0    0  501    0  0.00000000000E+00  0.00000000000E+00  0.14857106858E+04  0.14857106858E+04  0.25500000920E-02 0. -1.
       -2   -1    0    0    0  501  0.00000000000E+00  0.00000000000E+00 -0.37626301225E+03  0.37626301226E+03  0.25500000920E-02 0.  1.
    10030    2    1    2    0    0  0.00000000000E+00  0.00000000000E+00  0.11094476736E+04  0.18619736981E+04  0.14953500968E+04 0.  0.
        4    1    3    3  502    0  0.41904775931E+03 -0.30029866844E+03  0.12290023792E+04  0.13327523310E+04  0.12699999809E+01 0. -1.
       -4    1    3    3    0  502 -0.41904775931E+03  0.30029866844E+03 -0.11955470560E+03  0.52922136709E+03  0.12699999809E+01 0.  1.
</event>
<event>
 5   0  0.3030702E-05  0.1501612E+04  0.7818609E-02  0.8883381E-01
        2   -1    0    0  501    0  0.00000000000E+00  0.00000000000E+00  0.19577586274E+04  0.19577586274E+04  0.25500000920E-02 0.  1.
       -2   -1    0    0    0  501  0.00000000000E+00  0.00000000000E+00 -0.28793637680E+03  0.28793637681E+03  0.25500000920E-02 0. -1.
    10030    2    1    2    0    0  0.00000000000E+00  0.00000000000E+00  0.16698222506E+04  0.22456950043E+04  0.15016123679E+04 0.  0.
        5    1    3    3  502    0  0.58523815738E+03 -0.23659750053E+02  0.13245426373E+03  0.60052452623E+03  0.46999998093E+01 0. -1.
       -5    1    3    3    0  502 -0.58523815738E+03  0.23659750053E+02  0.15373679869E+04  0.16451704780E+04  0.46999998093E+01 0.  1.
</event>
<event>
 5   0  0.1116613E-05  0.1499212E+04  0.7818609E-02  0.8884977E-01
        4   -1    0    0  501    0  0.00000000000E+00  0.00000000000E+00  0.14651581731E+04  0.14651587235E+04  0.12699999809E+01 0.  1.
       -4   -1    0    0    0  501  0.00000000000E+00  0.00000000000E+00 -0.38351256569E+03  0.38351466848E+03  0.12699999809E+01 0. -1.
    10030    2    1    2    0    0  0.00000000000E+00  0.00000000000E+00  0.10816456074E+04  0.18486733920E+04  0.14992118230E+04 0.  0.
        5    1    3    3  502    0 -0.27657371495E+03 -0.32574470195E+03  0.13002385993E+04  0.13686654579E+04  0.46999998093E+01 0.  1.
       -5    1    3    3    0  502  0.27657371495E+03  0.32574470195E+03 -0.21859299190E+03  0.48000793405E+03  0.46999998093E+01 0. -1.
</event>
<event>
 5   0  0.3030702E-05  0.1500055E+04  0.7818609E-02  0.8884416E-01
       -2   -1    0    0    0  501  0.00000000000E+00  0.00000000000E+00  0.28963447298E+03  0.28963447299E+03  0.25500000920E-02 0.  1.
        2   -1    0    0  501    0  0.00000000000E+00  0.00000000000E+00 -0.19422453328E+04  0.19422453328E+04  0.25500000920E-02 0. -1.
    10030    2    1    2    0    0  0.00000000000E+00  0.00000000000E+00 -0.16526108599E+04  0.22318798058E+04  0.15000549368E+04 0.  0.
        5    1    3    3  502    0  0.72251131540E+03  0.17994785829E+03 -0.96033956439E+03  0.12151864061E+04  0.46999998093E+01 0.  1.
       -5    1    3    3    0  502 -0.72251131540E+03 -0.17994785829E+03 -0.69227129547E+03  0.10166933998E+04  0.46999998093E+01 0. -1.
</event>
<event>
 5   0  0.1533777E-05  0.1500488E+04  0.7818609E-02  0.8884128E-01
       -1   -1    0    0    0  501  0.00000000000E+00  0.00000000000E+00  0.75352169650E+03  0.75352169651E+03  0.50400001928E-02 0. -1.
        1   -1    0    0  501    0  0.00000000000E+00  0.00000000000E+00 -0.74698062337E+03  0.74698062339E+03  0.50400001928E-02 0.  1.
    10030    2    1    2    0    0  0.00000000000E+00  0.00000000000E+00  0.65410731289E+01  0.15005023199E+04  0.15004880627E+04 0.  0.
        5    1    3    3  502    0 -0.18307072940E+03  0.63228491022E+03 -0.35665637095E+03  0.74868214657E+03  0.46999998093E+01 0.  1.
       -5    1    3    3    0  502  0.18307072940E+03 -0.63228491022E+03  0.36319744408E+03  0.75182017333E+03  0.46999998093E+01 0. -1.
</event>
<event>
 5   0  0.1580078E-05  0.1499637E+04  0.7818609E-02  0.8884695E-01
       -1   -1    0    0    0  501  0.00000000000E+00  0.00000000000E+00  0.43575742368E+03  0.43575742371E+03  0.50400001928E-02 0. -1.
        1   -1    0    0  501    0  0.00000000000E+00  0.00000000000E+00 -0.12902304573E+04  0.12902304574E+04  0.50400001928E-02 0.  1.
    10030    2    1    2    0    0  0.00000000000E+00  0.00000000000E+00 -0.85447303366E+03  0.17259878811E+04  0.14996366228E+04 0.  0.
        2    1    3    3  502    0  0.37367472038E+03 -0.45991716187E+03  0.10153237004E+03  0.60121993863E+03  0.25500000920E-02 0. -1.
       -2    1    3    3    0  502 -0.37367472038E+03  0.45991716187E+03 -0.95600540370E+03  0.11247679424E+04  0.25500000920E-02 0.  1.
</event>
<event>
 5   0  0.3093600E-05  0.1500151E+04  0.7818609E-02  0.8884353E-01
       -2   -1    0    0    0  501  0.00000000000E+00  0.00000000000E+00  0.63719659972E+03  0.63719659973E+03  0.25500000920E-02 0. -1.
        2   -1    0    0  501    0  0.00000000000E+00  0.00000000000E+00 -0.88295079947E+03  0.88295079947E+03  0.25500000920E-02 0.  1.
    10030    2    1    2    0    0  0.00000000000E+00  0.00000000000E+00 -0.24575419975E+03  0.15201473992E+04  0.15001509886E+04 0.  0.
        1    1    3    3  502    0  0.12257399889E+03 -0.14786795531E+03 -0.85761019248E+03  0.87885411740E+03  0.50400001928E-02 0.  1.
       -1    1    3    3    0  502 -0.12257399889E+03  0.14786795531E+03  0.61185599273E+03  0.64129328180E+03  0.50400001928E-02 0. -1.
</event>
<event>
 5   0  0.1643498E-05  0.1499221E+04  0.7818609E-02  0.8884971E-01
        1   -1    0    0  501    0  0.00000000000E+00  0.00000000000E+00  0.21026902431E+04  0.21026902431E+04  0.50400001928E-02 0.  1.
       -1   -1    0    0    0  501  0.00000000000E+00  0.00000000000E+00 -0.26723671316E+03  0.26723671320E+03  0.50400001928E-02 0. -1.
    10030    2    1    2    0    0  0.00000000000E+00  0.00000000000E+00  0.18354535300E+04  0.23699269563E+04  0.14992211704E+04 0.  0.
        4    1    3    3  502    0 -0.36489635222E+03  0.63902853670E+03  0.11435482190E+04  0.13598569633E+04  0.12699999809E+01 0.  1.
       -4    1    3    3    0  502  0.36489635222E+03 -0.63902853670E+03  0.69190531099E+03  0.10100699930E+04  0.12699999809E+01 0. -1.
</event>
<event>
 5   0  0.2969498E-05  0.1499879E+04  0.7818609E-02  0.8884533E-01
       -2   -1    0    0    0  501  0.00000000000E+00  0.00000000000E+00  0.71297873163E+03  0.71297873164E+03  0.25500000920E-02 0.  1.
        2   -1    0    0  501    0  0.00000000000E+00  0.00000000000E+00 -0.78881666125E+03  0.78881666125E+03  0.25500000920E-02 0. -1.
    10030    2    1    2    0    0  0.00000000000E+00  0.00000000000E+00 -0.75837929616E+02  0.15017953929E+04  0.14998793320E+04 0.  0.
        3    1    3    3  502    0  0.68424723657E+02 -0.32889946623E+03 -0.70926240192E+03  0.78479931618E+03  0.10100000352E+00 0. -1.
       -3    1    3    3    0  502 -0.68424723657E+02  0.32889946623E+03  0.63342447231E+03  0.71699607671E+03  0.10100000352E+00 0.  1.
</event>
<event>
 5   0  0.1533777E-05  0.1500255E+04  0.7818609E-02  0.8884283E-01
       -1   -1    0    0    0  501  0.00000000000E+00  0.00000000000E+00  0.55150750249E+03  0.55150750251E+03  0.50400001928E-02 0. -1.
        1   -1    0    0  501    0  0.00000000000E+00  0.00000000000E+00 -0.10202787994E+04  0.10202787994E+04  0.50400001928E-02 0.  1.
    10030    2    1    2    0    0  0.00000000000E+00  0.00000000000E+00 -0.46877129692E+03  0.15717863019E+04  0.15002551950E+04 0.  0.
        5    1    3    3  502    0  0.44941398109E+03 -0.94428781102E+02 -0.85577482813E+03  0.97121695185E+03  0.46999998093E+01 0.  1.
       -5    1    3    3    0  502 -0.44941398109E+03  0.94428781102E+02  0.38700353121E+03  0.60056935009E+03  0.46999998093E+01 0. -1.
</event>
<event>
 5   0  0.1588657E-05  0.1498303E+04  0.7818609E-02  0.8885582E-01
        1   -1    0    0  501    0  0.00000000000E+00  0.00000000000E+00  0.18101851560E+04  0.18101851560E+04  0.50400001928E-02 0.  1.
       -1   -1    0    0    0  501  0.00000000000E+00  0.00000000000E+00 -0.31003898839E+03  0.31003898843E+03  0.50400001928E-02 0. -1.
    10030    2    1    2    0    0  0.00000000000E+00  0.00000000000E+00  0.15001461676E+04  0.21202241444E+04  0.14983030062E+04 0.  0.
        3    1    3    3  502    0 -0.50923862188E+03 -0.49969283600E+03  0.42673014567E+03  0.83133358635E+03  0.10100000352E+00 0. -1.
       -3    1    3    3    0  502  0.50923862188E+03  0.49969283600E+03  0.10734160219E+04  0.12888905581E+04  0.10100000352E+00 0.  1.
</event>
<event>
 5   0  0.1116613E-05  0.1500154E+04  0.7818609E-02  0.8884351E-01
       -3   -1    0    0    0  501  0.00000000000E+00  0.00000000000E+00  0.46743617907E+03  0.46743618999E+03  0.10100000352E+00 0.  1.
        3   -1    0    0  501    0  0.00000000000E+00  0.00000000000E+00 -0.12036194020E+04  0.12036194063E+04  0.10100000352E+00 0. -1.
    10030    2    1    2    0    0  0.00000000000E+00  0.00000000000E+00 -0.73618322297E+03  0.16710555963E+04  0.15001536815E+04 0.  0.
        4    1    3    3  502    0 -0.16496939843E+03 -0.72355968963E+03 -0.24678071252E+03  0.78208430482E+03  0.12699999809E+01 0.  1.
       -4    1    3    3    0  502  0.16496939843E+03  0.72355968963E+03 -0.48940251046E+03  0.88897129145E+03  0.12699999809E+01 0. -1.
</event>
<event>
 5   0  0.3018308E-05  0.1499887E+04  0.7818609E-02  0.8884528E-01
       -2   -1    0    0    0  501  0.00000000000E+00  0.00000000000E+00  0.88841658887E+03  0.88841658887E+03  0.25500000920E-02 0. -1.
        2   -1    0    0  501    0  0.00000000000E+00  0.00000000000E+00 -0.63305332454E+03  0.63305332454E+03  0.25500000920E-02 0.  1.
    10030    2    1    2    0    0  0.00000000000E+00  0.00000000000E+00  0.25536326433E+03  0.15214699134E+04  0.14998867626E+04 0.  0.
        2    1    3    3  502    0 -0.68947932014E+03  0.22017853541E+03  0.32686077967E+03  0.79416515263E+03  0.25500000920E-02 0. -1.
       -2    1    3    3    0  502  0.68947932014E+03 -0.22017853541E+03 -0.71497515338E+02  0.72730476078E+03  0.25500000920E-02 0.  1.
</event>
<event>
 5   0  0.3030702E-05  0.1500457E+04  0.7818609E-02  0.8884149E-01
       -2   -1    0    0    0  501  0.00000000000E+00  0.00000000000E+00  0.40294264355E+03  0.40294264356E+03  0.25500000920E-02 0.  1.
        2   -1    0    0  501    0  0.00000000000E+00  0.00000000000E+00 -0.13968318151E+04  0.13968318151E+04  0.25500000920E-02 0. -1.
    10030    2    1    2    0    0  0.00000000000E+00  0.00000000000E+00 -0.99388917155E+03  0.17997744587E+04  0.15004574025E+04 0.  0.
        5    1    3    3  502    0  0.12441778975E+03 -0.10620638348E+03  0.38127212140E+03  0.41490975266E+03  0.46999998093E+01 0.  1.
       -5    1    3    3    0  502 -0.12441778975E+03  0.10620638348E+03 -0.13751612929E+04  0.13848647060E+04  0.46999998093E+01 0. -1.
</event>
<event>
 5   0  0.1643498E-05  0.1500034E+04  0.7818609E-02  0.8884430E-01
       -1   -1    0    0    0  501  0.00000000000E+00  0.00000000000E+00  0.75705263693E+03  0.75705263695E+03  0.50400001928E-02 0. -1.
        1   -1    0    0  501    0  0.00000000000E+00  0.00000000000E+00 -0.74304658444E+03  0.74304658446E+03  0.50400001928E-02 0.  1.
    10030    2    1    2    0    0  0.00000000000E+00  0.00000000000E+00  0.14006052492E+02  0.15000992214E+04  0.15000338345E+04 0.  0.
        4    1    3    3  502    0 -0.35375403059E+03  0.16743533586E+03  0.64683342979E+03  0.75602354769E+03  0.12699999809E+01 0. -1.
       -4    1    3    3    0  502  0.35375403059E+03 -0.16743533586E+03 -0.63282737730E+03  0.74407567372E+03  0.12699999809E+01 0.  1.
</event>
<event>
 5   0  0.3070497E-05  0.1498802E+04  0.7818609E-02  0.8885250E-01
        2   -1    0    0  501    0  0.00000000000E+00  0.00000000000E+00  0.21784016892E+04  0.21784016892E+04  0.25500000920E-02 0.  1.
       -2   -1    0    0    0  501  0.00000000000E+00  0.00000000000E+00 -0.25780439592E+03  0.25780439593E+03  0.25500000920E-02 0. -1.
    10030    2    1    2    0    0  0.00000000000E+00  0.00000000000E+00  0.19205972933E+04  0.24362060852E+04  0.14988015634E+04 0.  0.
        4    1    3    3  502    0 -0.74499505848E+03 -0.72571994180E+02  0.90134241697E+03  0.11716245546E+04  0.12699999809E+01 0.  1.
       -4    1    3    3    0  502  0.74499505848E+03  0.72571994180E+02  0.10192548764E+04  0.12645815305E+04  0.12699999809E+01 0. -1.
</event>
<event>
 5   0  0.1533777E-05  0.1497516E+04  0.7818609E-02  0.8886107E-01
        1   -1    0    0  501    0  0.00000000000E+00  0.00000000000E+00  0.10586954353E+04  0.10586954353E+04  0.50400001928E-02 0. -1.
       -1   -1    0    0    0  501  0.00000000000E+00  0.00000000000E+00 -0.52955571296E+03  0.52955571299E+03  0.50400001928E-02 0.  1.
    10030    2    1    2    0    0  0.00000000000E+00  0.00000000000E+00  0.52913972235E+03  0.15882511483E+04  0.14975155640E+04 0.  0.
        5    1    3    3  502    0  0.69845898338E+03  0.24335135902E+03  0.38803324162E+03  0.83525847616E+03  0.46999998093E+01 0.  1.
       -5    1    3    3    0  502 -0.69845898338E+03 -0.24335135902E+03  0.14110648073E+03  0.75299267215E+03  0.46999998093E+01 0. -1.
</event>
<event>
 5   0  0.3018308E-05  0.1499814E+04  0.7818609E-02  0.8884576E-01
        2   -1    0    0  501    0  0.00000000000E+00  0.00000000000E+00  0.11876679087E+04  0.11876679087E+04  0.25500000920E-02 0. -1.
       -2   -1    0    0    0  501  0.00000000000E+00  0.00000000000E+00 -0.47349994262E+03  0.47349994263E+03  0.25500000920E-02 0.  1.
    10030    2    1    2    0    0  0.00000000000E+00  0.00000000000E+00  0.71416796607E+03  0.16611678513E+04  0.14998142373E+04 0.  0.
        2    1    3    3  502    0 -0.35759494686E+03  0.39748523108E+03 -0.22531063844E+03  0.58020129158E+03  0.25500000920E-02 0.  1.
       -2    1    3    3    0  502  0.35759494686E+03 -0.39748523108E+03  0.93947860451E+03  0.10809665597E+04  0.25500000920E-02 0. -1.
</event>
<event>
 5   0  0.2969498E-05  0.1499511E+04  0.7818609E-02  0.8884778E-01
       -2   -1    0    0    0  501  0.00000000000E+00  0.00000000000E+00  0.81146718686E+03  0.81146718687E+03  0.25500000920E-02 0.  1.
        2   -1    0    0  501    0  0.00000000000E+00  0.00000000000E+00 -0.69273709218E+03  0.69273709218E+03  0.25500000920E-02 0. -1.
    10030    2    1    2    0    0  0.00000000000E+00  0.00000000000E+00  0.11873009469E+03  0.15042042790E+04  0.14995111462E+04 0.  0.
        3    1    3    3  502    0 -0.65781932823E+03 -0.30720477255E+03 -0.12839010810E+03  0.73728221932E+03  0.10100000352E+00 0. -1.
       -3    1    3    3    0  502  0.65781932823E+03  0.30720477255E+03  0.24712020279E+03  0.76692205973E+03  0.10100000352E+00 0.  1.
</event>
<event>
 5   0  0.1580078E-05  0.1499367E+04  0.7818609E-02  0.8884874E-01
        1   -1    0    0  501    0  0.00000000000E+00  0.00000000000E+00  0.12119760865E+04  0.12119760865E+04  0.50400001928E-02 0. -1.
       -1   -1    0    0    0  501  0.00000000000E+00  0.00000000000E+00 -0.46372658759E+03  0.46372658762E+03  0.50400001928E-02 0.  1.
    10030    2    1    2    0    0  0.00000000000E+00  0.00000000000E+00  0.74824949889E+03  0.16757026741E+04  0.14993672463E+04 0.  0.
        2    1    3    3  502    0 -0.17072327532E+03 -0.62315388873E+03  0.79904800785E+03  0.10275918084E+04  0.25500000920E-02 0. -1.
       -2    1    3    3    0  502  0.17072327532E+03  0.62315388873E+03 -0.50798508959E+02  0.64811086574E+03  0.25500000920E-02 0.  1.
</event>
<event>
 5   0  0.1533777E-05  0.1500024E+04  0.7818609E-02  0.8884437E-01
       -1   -1    0    0    0  501  0.00000000000E+00  0.00000000000E+00  0.45271799860E+03  0.45271799863E+03  0.50400001928E-02 0. -1.
        1   -1    0    0  501    0  0.00000000000E+00  0.00000000000E+00 -0.12425354184E+04  0.12425354184E+04  0.50400001928E-02 0.  1.
    10030    2    1    2    0    0  0.00000000000E+00  0.00000000000E+00 -0.78981741982E+03  0.16952534171E+04  0.15000241969E+04 0.  0.
        5    1    3    3  502    0  0.54693533370E+03 -0.33593735221E+03 -0.83334877344E+03  0.10518956374E+04  0.46999998093E+01 0.  1.
       -5    1    3    3    0  502 -0.54693533370E+03  0.33593735221E+03  0.43531353617E+02  0.64335777963E+03  0.46999998093E+01 0. -1.
</event>
<event>
 5   0  0.2969498E-05  0.1500208E+04  0.7818609E-02  0.8884315E-01
        2   -1    0    0  501    0  0.00000000000E+00  0.00000000000E+00  0.48536761783E+03  0.48536761783E+03  0.25500000920E-02 0.  1.
       -2   -1    0    0    0  501  0.00000000000E+00  0.00000000000E+00 -0.11592370066E+04  0.11592370066E+04  0.25500000920E-02 0. -1.
    10030    2    1    2    0    0  0.00000000000E+00  0.00000000000E+00 -0.67386938879E+03  0.16446046244E+04  0.15002081248E+04 0.  0.
        3    1    3    3  502    0 -0.50098382055E+03 -0.19452451938E+02 -0.94857290223E+03  0.10729183321E+04  0.10100000352E+00 0. -1.
       -3    1    3    3    0  502  0.50098382055E+03  0.19452451938E+02  0.27470351344E+03  0.57168629233E+03  0.10100000352E+00 0.  1.
</event>
<event>
 5   0  0.2969498E-05  0.1500141E+04  0.7818609E-02  0.8884359E-01
       -2   -1    0    0    0  501  0.00000000000E+00  0.00000000000E+00  0.13102188112E+04  0.13102188112E+04  0.25500000920E-02 0.  1.
        2   -1    0    0  501    0  0.00000000000E+00  0.00000000000E+00 -0.42939818935E+03  0.42939818936E+03  0.25500000920E-02 0. -1.
    10030    2    1    2    0    0  0.00000000000E+00  0.00000000000E+00  0.88082062181E+03  0.17396170005E+04  0.15001407736E+04 0.  0.
        3    1    3    3  502    0 -0.25076982734E+03 -0.24563341222E+03 -0.32826670065E+03  0.48060411615E+03  0.10100000352E+00 0. -1.
       -3    1    3    3    0  502  0.25076982734E+03  0.24563341222E+03  0.12090873225E+04  0.12590128844E+04  0.10100000352E+00 0.  1.
</event>
<event>
 5   0  0.3018308E-05  0.1500252E+04  0.7818609E-02  0.8884286E-01
        2   -1    0    0  501    0  0.00000000000E+00  0.00000000000E+00  0.96401919573E+03  0.96401919574E+03  0.25500000920E-02 0.  1.
       -2   -1    0    0    0  501  0.00000000000E+00  0.00000000000E+00 -0.58369033541E+03  0.58369033542E+03  0.25500000920E-02 0. -1.
    10030    2    1    2    0    0  0.00000000000E+00  0.00000000000E+00  0.38032886032E+03  0.15477095312E+04  0.15002515625E+04 0.  0.
        2    1    3    3  502    0 -0.30675003149E+03 -0.32585500690E+03  0.81121423058E+03  0.92646942488E+03  0.25500000920E-02 0.  1.
       -2    1    3    3    0  502  0.30675003149E+03  0.32585500690E+03 -0.43088537026E+03  0.62124010628E+03  0.25500000920E-02 0. -1.
</event>
<event>
 5   0  0.1576214E-05  0.1501072E+04  0.7818609E-02  0.8883740E-01
       -1   -1    0    0    0  501  0.00000000000E+00  0.00000000000E+00  0.43650954623E+03  0.43650954626E+03  0.50400001928E-02 0. -1.
        1   -1    0    0  501    0  0.00000000000E+00  0.00000000000E+00 -0.12904743685E+04  0.12904743686E+04  0.50400001928E-02 0.  1.
    10030    2    1    2    0    0  0.00000000000E+00  0.00000000000E+00 -0.85396482232E+03  0.17269839148E+04  0.15010721249E+04 0.  0.
        1    1    3    3  502    0  0.20643275141E+03  0.30149907851E+03 -0.11812300845E+04  0.12364548871E+04  0.50400001928E-02 0.  1.
       -1    1    3    3    0  502 -0.20643275141E+03 -0.30149907851E+03  0.32726526218E+03  0.49052902774E+03  0.50400001928E-02 0. -1.
</event>
<event>
 5   0  0.3070497E-05  0.1500055E+04  0.7818609E-02  0.8884417E-01
       -2   -1    0    0    0  501  0.00000000000E+00  0.00000000000E+00  0.55045579197E+03  0.55045579198E+03  0.25500000920E-02 0. -1.
        2   -1    0    0  501    0  0.00000000000E+00  0.00000000000E+00 -0.10219550493E+04  0.10219550493E+04  0.25500000920E-02 0.  1.
    10030    2    1    2    0    0  0.00000000000E+00  0.00000000000E+00 -0.47149925733E+03  0.15724108413E+04  0.15000547670E+04 0.  0.
        4    1    3    3  502    0  0.64123763936E+03  0.37408616511E+03 -0.34773580534E+03  0.81978532085E+03  0.12699999809E+01 0.  1.
       -4    1    3    3    0  502 -0.64123763936E+03 -0.37408616511E+03 -0.12376345199E+03  0.75262552043E+03  0.12699999809E+01 0. -1.
</event>
<event>
 5   0  0.2969498E-05  0.1500286E+04  0.7818609E-02  0.8884262E-01
       -2   -1    0    0    0  501  0.00000000000E+00  0.00000000000E+00  0.81620764753E+03  0.81620764753E+03  0.25500000920E-02 0. -1.
        2   -1    0    0  501    0  0.00000000000E+00  0.00000000000E+00 -0.68942613274E+03  0.68942613275E+03  0.25500000920E-02 0.  1.
    10030    2    1    2    0    0  0.00000000000E+00  0.00000000000E+00  0.12678151479E+03  0.15056337803E+04  0.15002864819E+04 0.  0.
        3    1    3    3  502    0  0.50718948310E+03 -0.37167703467E+03  0.47390847541E+03  0.78738443161E+03  0.10100000352E+00 0. -1.
       -3    1    3    3    0  502 -0.50718948310E+03  0.37167703467E+03 -0.34712696063E+03  0.71824934867E+03  0.10100000352E+00 0.  1.
</event>
<event>
 5   0  0.1580078E-05  0.1500373E+04  0.7818609E-02  0.8884205E-01
       -1   -1    0    0    0  501  0.00000000000E+00  0.00000000000E+00  0.48869547780E+03  0.48869547782E+03  0.50400001928E-02 0.  1.
        1   -1    0    0  501    0  0.00000000000E+00  0.00000000000E+00 -0.11515955703E+04  0.11515955703E+04  0.50400001928E-02 0. -1.
    10030    2    1    2    0    0  0.00000000000E+00  0.00000000000E+00 -0.66290009249E+03  0.16402910481E+04  0.15003726837E+04 0.  0.
        2    1    3    3  502    0  0.37059425145E+03  0.60156093102E+03 -0.55819709747E+02  0.70875347826E+03  0.25500000920E-02 0.  1.
       -2    1    3    3    0  502 -0.37059425145E+03 -0.60156093102E+03 -0.60708038274E+03  0.93153756986E+03  0.25500000920E-02 0. -1.
</event>
<event>
 5   0  0.1576214E-05  0.1499703E+04  0.7818609E-02  0.8884651E-01
        1   -1    0    0  501    0  0.00000000000E+00  0.00000000000E+00  0.10289969791E+04  0.10289969791E+04  0.50400001928E-02 0. -1.
       -1   -1    0    0    0  501  0.00000000000E+00  0.00000000000E+00 -0.54643218566E+03  0.54643218568E+03  0.50400001928E-02 0.  1.
    10030    2    1    2    0    0  0.00000000000E+00  0.00000000000E+00  0.48256479343E+03  0.15754291648E+04  0.14997027283E+04 0.  0.
        1    1    3    3  502    0  0.40304102217E+03 -0.58588797783E+03  0.49113729291E+03  0.86424685631E+03  0.50400001928E-02 0. -1.
       -1    1    3    3    0  502 -0.40304102217E+03  0.58588797783E+03 -0.85724994853E+01  0.71118230848E+03  0.50400001928E-02 0.  1.
</event>
<event>
 5   0  0.3093600E-05  0.1499614E+04  0.7818609E-02  0.8884709E-01
        2   -1    0    0  501    0  0.00000000000E+00  0.00000000000E+00  0.15261738310E+04  0.15261738310E+04  0.25500000920E-02 0.  1.
       -2   -1    0    0    0  501  0.00000000000E+00  0.00000000000E+00 -0.36837921754E+03  0.36837921755E+03  0.25500000920E-02 0. -1.
    10030    2    1    2    0    0  0.00000000000E+00  0.00000000000E+00  0.11577946134E+04  0.18945530485E+04  0.14996142460E+04 0.  0.
        1    1    3    3  502    0 -0.36606239746E+03 -0.42289288302E+02 -0.24608822336E+03  0.44311339005E+03  0.50400001928E-02 0. -1.
       -1    1    3    3    0  502  0.36606239746E+03  0.42289288302E+02  0.14038828368E+04  0.14514396585E+04  0.50400001928E-02 0.  1.
</event>
<event>
 5   0  0.1533777E-05  0.1499733E+04  0.7818609E-02  0.8884631E-01
       -1   -1    0    0    0  501  0.00000000000E+00  0.00000000000E+00  0.76728908885E+03  0.76728908887E+03  0.50400001928E-02 0. -1.
        1   -1    0    0  501    0  0.00000000000E+00  0.00000000000E+00 -0.73283943733E+03  0.73283943734E+03  0.50400001928E-02 0.  1.
    10030    2    1    2    0    0  0.00000000000E+00  0.00000000000E+00  0.34449651528E+02  0.15001285262E+04  0.14997329151E+04 0.  0.
        5    1    3    3  502    0  0.19774313330E+03  0.39013739438E+03  0.62645698214E+03  0.76405495465E+03  0.46999998093E+01 0. -1.
       -5    1    3    3    0  502 -0.19774313330E+03 -0.39013739438E+03 -0.59200733061E+03  0.73607357156E+03  0.46999998093E+01 0.  1.
</event>
<event>
 5   0  0.1576214E-05  0.1500076E+04  0.7818609E-02  0.8884403E-01
        1   -1    0    0  501    0  0.00000000000E+00  0.00000000000E+00  0.88011236362E+03  0.88011236363E+03  0.50400001928E-02 0. -1.
       -1   -1    0    0    0  501  0.00000000000E+00  0.00000000000E+00 -0.63918745099E+03  0.63918745101E+03  0.50400001928E-02 0.  1.
    10030    2    1    2    0    0  0.00000000000E+00  0.00000000000E+00  0.24092491263E+03  0.15192998146E+04  0.15000757025E+04 0.  0.
        1    1    3    3  502    0 -0.55794478455E+03 -0.15228083832E+03 -0.36321915169E+03  0.68294947727E+03  0.50400001928E-02 0.  1.
       -1    1    3    3    0  502  0.55794478455E+03  0.15228083832E+03  0.60414406432E+03  0.83635033737E+03  0.50400001928E-02 0. -1.
</event>
<event>
 5   0  0.2969498E-05  0.1499862E+04  0.7818609E-02  0.8884545E-01
        2   -1    0    0  501    0  0.00000000000E+00  0.00000000000E+00  0.88904857308E+03  0.88904857309E+03  0.25500000920E-02 0.  1.
       -2   -1    0    0    0  501  0.00000000000E+00  0.00000000000E+00 -0.63258251151E+03  0.63258251151E+03  0.25500000920E-02 0. -1.
    10030    2    1    2    0    0  0.00000000000E+00  0.00000000000E+00  0.25646606157E+03  0.15216310846E+04  0.14998620993E+04 0.  0.
        3    1    3    3  502    0 -0.49895051344E+02 -0.45990293486E+02 -0.62946151370E+03  0.63310854573E+03  0.10100000352E+00 0. -1.
       -3    1    3    3    0  502  0.49895051344E+02  0.45990293486E+02  0.88592757528E+03  0.88852253887E+03  0.10100000352E+00 0.  1.
</event>
<event>
 5   0  0.1576214E-05  0.1499838E+04  0.7818609E-02  0.8884561E-01
        1   -1    0    0  501    0  0.00000000000E+00  0.00000000000E+00  0.93281228179E+03  0.93281228180E+03  0.50400001928E-02 0.  1.
       -1   -1    0    0    0  501  0.00000000000E+00  0.00000000000E+00 -0.60288472999E+03  0.60288473001E+03  0.50400001928E-02 0. -1.
    10030    2    1    2    0    0  0.00000000000E+00  0.00000000000E+00  0.32992755180E+03  0.15356970118E+04  0.14998376988E+04 0.  0.
        1    1    3    3  502    0 -0.56957976117E+03  0.18991398322E+03 -0.29510051121E+03  0.66900877206E+03  0.50400001928E-02 0. -1.
       -1    1    3    3    0  502  0.56957976117E+03 -0.18991398322E+03  0.62502806300E+03  0.86668823975E+03  0.50400001928E-02 0.  1.
</event>
<event>
 5   0  0.1576214E-05  0.1499690E+04  0.7818609E-02  0.8884659E-01
        1   -1    0    0  501    0  0.00000000000E+00  0.00000000000E+00  0.62975228188E+03  0.62975228190E+03  0.50400001928E-02 0.  1.
       -1   -1    0    0    0  501  0.00000000000E+00  0.00000000000E+00 -0.89283940568E+03  0.89283940569E+03  0.50400001928E-02 0. -1.
    10030    2    1    2    0    0  0.00000000000E+00  0.00000000000E+00 -0.26308712380E+03  0.15225916876E+04  0.14996901721E+04 0.  0.
        1    1    3    3  502    0  0.13526874407E+03  0.73748462814E+03 -0.12210409749E+03  0.75966480800E+03  0.50400001928E-02 0. -1.
       -1    1    3    3    0  502 -0.13526874407E+03 -0.73748462814E+03 -0.14098302631E+03  0.76292687959E+03  0.50400001928E-02 0.  1.
</event>
<event>
 5   0  0.1580078E-05  0.1500067E+04  0.7818609E-02  0.8884409E-01
       -1   -1    0    0    0  501  0.00000000000E+00  0.00000000000E+00  0.60433257967E+03  0.60433257969E+03  0.50400001928E-02 0.  1.
        1   -1    0    0  501    0  0.00000000000E+00  0.00000000000E+00 -0.93086166480E+03  0.93086166481E+03  0.50400001928E-02 0. -1.
    10030    2    1    2    0    0  0.00000000000E+00  0.00000000000E+00 -0.32652908513E+03  0.15351942445E+04  0.15000667068E+04 0.  0.
        2    1    3    3  502    0 -0.14472889953E+03  0.66691466392E+03 -0.48172400441E+03  0.83533205358E+03  0.25500000920E-02 0. -1.
       -2    1    3    3    0  502  0.14472889953E+03 -0.66691466392E+03  0.15519491928E+03  0.69986219092E+03  0.25500000920E-02 0.  1.
</event>
<event>
 5   0  0.3093600E-05  0.1499759E+04  0.7818609E-02  0.8884613E-01
        2   -1    0    0  501    0  0.00000000000E+00  0.00000000000E+00  0.17445985384E+04  0.17445985384E+04  0.25500000920E-02 0. -1.
       -2   -1    0    0    0  501  0.00000000000E+00  0.00000000000E+00 -0.32232018625E+03  0.32232018626E+03  0.25500000920E-02 0.  1.
    10030    2    1    2    0    0  0.00000000000E+00  0.00000000000E+00  0.14222783521E+04  0.20669187246E+04  0.14997590818E+04 0.  0.
        1    1    3    3  502    0 -0.59543735519E+03 -0.27639597893E+03  0.21160548601E+03  0.68972259848E+03  0.50400001928E-02 0.  1.
       -1    1    3    3    0  502  0.59543735519E+03  0.27639597893E+03  0.12106728661E+04  0.13771961262E+04  0.50400001928E-02 0. -1.
</event>
<event>
 5   0  0.1116613E-05  0.1500328E+04  0.7818609E-02  0.8884235E-01
        3   -1    0    0  501    0  0.00000000000E+00  0.00000000000E+00  0.95183766258E+03  0.95183766793E+03  0.10100000352E+00 0. -1.
       -3   -1    0    0    0  501  0.00000000000E+00  0.00000000000E+00 -0.59122076932E+03  0.59122077794E+03  0.10100000352E+00 0.  1.
    10030    2    1    2    0    0  0.00000000000E+00  0.00000000000E+00  0.36061689326E+03  0.15430584459E+04  0.15003282386E+04 0.  0.
        2    1    3    3  502    0 -0.14364173323E+03  0.30783050044E+03 -0.50758564757E+03  0.61076652999E+03  0.25500000920E-02 0.  1.
       -2    1    3    3    0  502  0.14364173323E+03 -0.30783050044E+03  0.86820254083E+03  0.93229191589E+03  0.25500000920E-02 0. -1.
</event>
<event>
 5   0  0.2969498E-05  0.1500079E+04  0.7818609E-02  0.8884400E-01
        2   -1    0    0  501    0  0.00000000000E+00  0.00000000000E+00  0.10396216345E+04  0.10396216345E+04  0.25500000920E-02 0. -1.
       -2   -1    0    0    0  501  0.00000000000E+00  0.00000000000E+00 -0.54111932351E+03  0.54111932352E+03  0.25500000920E-02 0.  1.
    10030    2    1    2    0    0  0.00000000000E+00  0.00000000000E+00  0.49850231101E+03  0.15807409581E+04  0.15000791387E+04 0.  0.
        3    1    3    3  502    0  0.74330042391E+03 -0.97943418025E+02  0.22638377350E+03  0.78315902371E+03  0.10100000352E+00 0.  1.
       -3    1    3    3    0  502 -0.74330042391E+03  0.97943418025E+02  0.27211853752E+03  0.79758193434E+03  0.10100000352E+00 0. -1.
</event>
<event>
 5   0  0.3018308E-05  0.1500067E+04  0.7818609E-02  0.8884408E-01
        2   -1    0    0  501    0  0.00000000000E+00  0.00000000000E+00  0.64971284177E+03  0.64971284178E+03  0.25500000920E-02 0. -1.
       -2   -1    0    0    0  501  0.00000000000E+00  0.00000000000E+00 -0.86584458971E+03  0.86584458971E+03  0.25500000920E-02 0.  1.
    10030    2    1    2    0    0  0.00000000000E+00  0.00000000000E+00 -0.21613174793E+03  0.15155574315E+04  0.15000671304E+04 0.  0.
        2    1    3    3  502    0  0.15779668993E+02 -0.97557100723E+02 -0.85923792578E+03  0.86490242164E+03  0.25500000920E-02 0.  1.
       -2    1    3    3    0  502 -0.15779668993E+02  0.97557100723E+02  0.64310617784E+03  0.65065500985E+03  0.25500000920E-02 0. -1.
</event>
<event>
 5   0  0.3093600E-05  0.1500526E+04  0.7818609E-02  0.8884103E-01
       -2   -1    0    0    0  501  0.00000000000E+00  0.00000000000E+00  0.35604195758E+03  0.35604195758E+03  0.25500000920E-02 0. -1.
        2   -1    0    0  501    0  0.00000000000E+00  0.00000000000E+00 -0.15809790729E+04  0.15809790729E+04  0.25500000920E-02 0.  1.
    10030    2    1    2    0    0  0.00000000000E+00  0.00000000000E+00 -0.12249371153E+04  0.19370210305E+04  0.15005264197E+04 0.  0.
        1    1    3    3  502    0  0.37047253848E+03  0.41133257530E+03  0.41252478072E+02  0.55510913904E+03  0.50400001928E-02 0. -1.
       -1    1    3    3    0  502 -0.37047253848E+03 -0.41133257530E+03 -0.12661895934E+04  0.13819118915E+04  0.50400001928E-02 0.  1.
</event>
<event>
 5   0  0.2969498E-05  0.1499107E+04  0.7818609E-02  0.8885047E-01
       -2   -1    0    0    0  501  0.00000000000E+00  0.00000000000E+00  0.66103825133E+03  0.66103825134E+03  0.25500000920E-02 0. -1.
        2   -1    0    0  501    0  0.00000000000E+00  0.00000000000E+00 -0.84992111197E+03  0.84992111198E+03  0.25500000920E-02 0.  1.
    10030    2    1    2    0    0  0.00000000000E+00  0.00000000000E+00 -0.18888286064E+03  0.15109593633E+04  0.14991068883E+04 0.  0.
        3    1    3    3  502    0 -0.61655766279E+03 -0.21083179820E+03  0.27894258701E+03  0.70880348174E+03  0.10100000352E+00 0. -1.
       -3    1    3    3    0  502  0.61655766279E+03  0.21083179820E+03 -0.46782544765E+03  0.80215588157E+03  0.10100000352E+00 0.  1.
</event>
<event>
 5   0  0.1576214E-05  0.1499760E+04  0.7818609E-02  0.8884613E-01
       -1   -1    0    0    0  501  0.00000000000E+00  0.00000000000E+00  0.52379572740E+03  0.52379572742E+03  0.50400001928E-02 0. -1.
        1   -1    0    0  501    0  0.00000000000E+00  0.00000000000E+00 -0.10735481268E+04  0.10735481268E+04  0.50400001928E-02 0.  1.
    10030    2    1    2    0    0  0.00000000000E+00  0.00000000000E+00 -0.54975239937E+03  0.15973438542E+04  0.14997598768E+04 0.  0.
        1    1    3    3  502    0 -0.67865137232E+03 -0.18188569821E+03 -0.55397609224E+03  0.89472878749E+03  0.50400001928E-02 0.  1.
       -1    1    3    3    0  502  0.67865137232E+03  0.18188569821E+03  0.42236928687E+01  0.70261506671E+03  0.50400001928E-02 0. -1.
</event>
<event>
 5   0  0.1116613E-05  0.1500143E+04  0.7818609E-02  0.8884358E-01
       -3   -1    0    0    0  501  0.00000000000E+00  0.00000000000E+00  0.80285240486E+03  0.80285241121E+03  0.10100000352E+00 0. -1.
        3   -1    0    0  501    0  0.00000000000E+00  0.00000000000E+00 -0.70076053070E+03  0.70076053798E+03  0.10100000352E+00 0.  1.
    10030    2    1    2    0    0  0.00000000000E+00  0.00000000000E+00  0.10209187416E+03  0.15036129492E+04  0.15001430433E+04 0.  0.
        2    1    3    3  502    0  0.14273116808E+03  0.15338572274E+02 -0.68686332203E+03  0.70170412661E+03  0.25500000920E-02 0.  1.
       -2    1    3    3    0  502 -0.14273116808E+03 -0.15338572274E+02  0.78895519619E+03  0.80190882259E+03  0.25500000920E-02 0. -1.
</event>
<event>
 5   0  0.1116613E-05  0.1501831E+04  0.7818609E-02  0.8883236E-01
        3   -1    0    0  501    0  0.00000000000E+00  0.00000000000E+00  0.24019319394E+03  0.24019321517E+03  0.10100000352E+00 0.  1.
       -3   -1    0    0    0  501  0.00000000000E+00  0.00000000000E+00 -0.23475850971E+04  0.23475850993E+04  0.10100000352E+00 0. -1.
    10030    2    1    2    0    0  0.00000000000E+00  0.00000000000E+00 -0.21073919032E+04  0.25877783145E+04  0.15018308730E+04 0.  0.
        3    1    3    3  502    0 -0.20292323057E+03 -0.38573614447E+03 -0.21073207033E+04  0.21519225747E+04  0.10100000352E+00 0. -1.
       -3    1    3    3    0  502  0.20292323057E+03  0.38573614447E+03 -0.71199914005E-01  0.43585573981E+03  0.10100000352E+00 0.  1.
</event>
<event>
 5   0  0.3070497E-05  0.1501592E+04  0.7818609E-02  0.8883395E-01
       -2   -1    0    0    0  501  0.00000000000E+00  0.00000000000E+00  0.67712057173E+03  0.67712057174E+03  0.25500000920E-02 0.  1.
        2   -1    0    0  501    0  0.00000000000E+00  0.00000000000E+00 -0.83248820433E+03  0.83248820434E+03  0.25500000920E-02 0. -1.
    10030    2    1    2    0    0  0.00000000000E+00  0.00000000000E+00 -0.15536763260E+03  0.15096087761E+04  0.15015923400E+04 0.  0.
        4    1    3    3  502    0 -0.15263322163E+03  0.57794336150E+03 -0.53439737611E+03  0.80180895352E+03  0.12699999809E+01 0. -1.
       -4    1    3    3    0  502  0.15263322163E+03 -0.57794336150E+03  0.37902974351E+03  0.70779982256E+03  0.12699999809E+01 0.  1.
</event>
<event>
 5   0  0.3018308E-05  0.1499710E+04  0.7818609E-02  0.8884646E-01
        2   -1    0    0  501    0  0.00000000000E+00  0.00000000000E+00  0.49249938598E+03  0.49249938599E+03  0.25500000920E-02 0.  1.
       -2   -1    0    0    0  501  0.00000000000E+00  0.00000000000E+00 -0.11416916177E+04  0.11416916177E+04  0.25500000920E-02 0. -1.
    10030    2    1    2    0    0  0.00000000000E+00  0.00000000000E+00 -0.64919223170E+03  0.16341910037E+04  0.14997098662E+04 0.  0.
        2    1    3    3  502    0 -0.36128851262E+03 -0.10912464805E+03  0.38146123365E+03  0.53660996165E+03  0.25500000920E-02 0.  1.
       -2    1    3    3    0  502  0.36128851262E+03  0.10912464805E+03 -0.10306534653E+04  0.10975810420E+04  0.25500000920E-02 0. -1.
</event>
<event>
 5   0  0.1580078E-05  0.1499421E+04  0.7818609E-02  0.8884838E-01
        1   -1    0    0  501    0  0.00000000000E+00  0.00000000000E+00  0.59604626494E+03  0.59604626496E+03  0.50400001928E-02 0.  1.
       -1   -1    0    0    0  501  0.00000000000E+00  0.00000000000E+00 -0.94299065347E+03  0.94299065348E+03  0.50400001928E-02 0. -1.
    10030    2    1    2    0    0  0.00000000000E+00  0.00000000000E+00 -0.34694438853E+03  0.15390369184E+04  0.14994212976E+04 0.  0.
        2    1    3    3  502    0  0.67385810842E+03 -0.16263623682E+03 -0.46655214565E+03  0.83558733860E+03  0.25500000920E-02 0. -1.
       -2    1    3    3    0  502 -0.67385810842E+03  0.16263623682E+03  0.11960775713E+03  0.70344957984E+03  0.25500000920E-02 0.  1.
</event>
<event>
 5   0  0.1580078E-05  0.1499623E+04  0.7818609E-02  0.8884704E-01
        1   -1    0    0  501    0  0.00000000000E+00  0.00000000000E+00  0.37474063847E+03  0.37474063850E+03  0.50400001928E-02 0. -1.
       -1   -1    0    0    0  501  0.00000000000E+00  0.00000000000E+00 -0.15002828515E+04  0.15002828515E+04  0.50400001928E-02 0.  1.
    10030    2    1    2    0    0  0.00000000000E+00  0.00000000000E+00 -0.11255422130E+04  0.18750234900E+04  0.14996225574E+04 0.  0.
        2    1    3    3  502    0 -0.28635953332E+03 -0.50854991482E+03 -0.11513462801E+04  0.12908226272E+04  0.25500000920E-02 0. -1.
       -2    1    3    3    0  502  0.28635953332E+03  0.50854991482E+03  0.25804067101E+02  0.58420086278E+03  0.25500000920E-02 0.  1.
</event>
<event>
 5   0  0.3093600E-05  0.1500092E+04  0.7818609E-02  0.8884392E-01
       -2   -1    0    0    0  501  0.00000000000E+00  0.00000000000E+00  0.57298647426E+03  0.57298647427E+03  0.25500000920E-02 0.  1.
        2   -1    0    0  501    0  0.00000000000E+00  0.00000000000E+00 -0.98181853565E+03  0.98181853565E+03  0.25500000920E-02 0. -1.
    10030    2    1    2    0    0  0.00000000000E+00  0.00000000000E+00 -0.40883206139E+03  0.15548050099E+04  0.15000916520E+04 0.  0.
        1    1    3    3  502    0 -0.61092672111E+02 -0.54840254708E+02 -0.97714772855E+03  0.98059035869E+03  0.50400001928E-02 0. -1.
       -1    1    3    3    0  502  0.61092672111E+02  0.54840254708E+02  0.56831566716E+03  0.57421465123E+03  0.50400001928E-02 0.  1.
</event>
<event>
 5   0  0.1576214E-05  0.1499921E+04  0.7818609E-02  0.8884505E-01
        1   -1    0    0  501    0  0.00000000000E+00  0.00000000000E+00  0.55403489238E+03  0.55403489240E+03  0.50400001928E-02 0. -1.
       -1   -1    0    0    0  501  0.00000000000E+00  0.00000000000E+00 -0.10151725699E+04  0.10151725699E+04  0.50400001928E-02 0.  1.
    10030    2    1    2    0    0  0.00000000000E+00  0.00000000000E+00 -0.46113767750E+03  0.15692074623E+04  0.14999213653E+04 0.  0.
        1    1    3    3  502    0  0.49823446992E+03  0.40071326676E+03  0.17949659536E+03  0.66409919210E+03  0.50400001928E-02 0.  1.
       -1    1    3    3    0  502 -0.49823446992E+03 -0.40071326676E+03 -0.64063427286E+03  0.90510827019E+03  0.50400001928E-02 0. -1.
</event>
<event>
 5   0  0.1533777E-05  0.1499632E+04  0.7818609E-02  0.8884698E-01
       -1   -1    0    0    0  501  0.00000000000E+00  0.00000000000E+00  0.69684039604E+03  0.69684039606E+03  0.50400001928E-02 0. -1.
        1   -1    0    0  501    0  0.00000000000E+00  0.00000000000E+00 -0.80681882978E+03  0.80681882980E+03  0.50400001928E-02 0.  1.
    10030    2    1    2    0    0  0.00000000000E+00  0.00000000000E+00 -0.10997843375E+03  0.15036592259E+04  0.14996318920E+04 0.  0.
        5    1    3    3  502    0 -0.64054833990E+03 -0.30870724661E+03 -0.29353466905E+03  0.76927695389E+03  0.46999998093E+01 0.  1.
       -5    1    3    3    0  502  0.64054833990E+03  0.30870724661E+03  0.18355623530E+03  0.73438227196E+03  0.46999998093E+01 0. -1.
</event>
<event>
 5   0  0.1576214E-05  0.1500547E+04  0.7818609E-02  0.8884089E-01
        1   -1    0    0  501    0  0.00000000000E+00  0.00000000000E+00  0.89081786389E+03  0.89081786390E+03  0.50400001928E-02 0.  1.
       -1   -1    0    0    0  501  0.00000000000E+00  0.00000000000E+00 -0.63190301384E+03  0.63190301386E+03  0.50400001928E-02 0. -1.
    10030    2    1    2    0    0  0.00000000000E+00  0.00000000000E+00  0.25891485005E+03  0.15227208778E+04  0.15005472242E+04 0.  0.
        1    1    3    3  502    0  0.25922569096E+03 -0.39856671271E+03  0.71842785835E+03  0.86150564189E+03  0.50400001928E-02 0.  1.
       -1    1    3    3    0  502 -0.25922569096E+03  0.39856671271E+03 -0.45951300830E+03  0.66121523588E+03  0.50400001928E-02 0. -1.
</event>
<event>
 5   0  0.1588657E-05  0.1501059E+04  0.7818609E-02  0.8883749E-01
       -1   -1    0    0    0  501  0.00000000000E+00  0.00000000000E+00  0.69664279349E+03  0.69664279351E+03  0.50400001928E-02 0.  1.
        1   -1    0    0  501    0  0.00000000000E+00  0.00000000000E+00 -0.80858459139E+03  0.80858459141E+03  0.50400001928E-02 0. -1.
    10030    2    1    2    0    0  0.00000000000E+00  0.00000000000E+00 -0.11194179790E+03  0.15052273849E+04  0.15010591308E+04 0.  0.
        3    1    3    3  502    0  0.32077496377E+03 -0.33384324778E+03  0.53638657821E+03  0.70856083928E+03  0.10100000352E+00 0.  1.
       -3    1    3    3    0  502 -0.32077496377E+03  0.33384324778E+03 -0.64832837611E+03  0.79666654564E+03  0.10100000352E+00 0. -1.
</event>
<event>
 5   0  0.2969498E-05  0.1499560E+04  0.7818609E-02  0.8884746E-01
       -2   -1    0    0    0  501  0.00000000000E+00  0.00000000000E+00  0.59025848053E+03  0.59025848053E+03  0.25500000920E-02 0.  1.
        2   -1    0    0  501    0  0.00000000000E+00  0.00000000000E+00 -0.95241325615E+03  0.95241325615E+03  0.25500000920E-02 0. -1.
    10030    2    1    2    0    0  0.00000000000E+00  0.00000000000E+00 -0.36215477562E+03  0.15426717367E+04  0.14995599373E+04 0.  0.
        3    1    3    3  502    0 -0.22553922003E+03 -0.58697289103E+03  0.23903161358E+03  0.67271185293E+03  0.10100000352E+00 0.  1.
       -3    1    3    3    0  502  0.22553922003E+03  0.58697289103E+03 -0.60118638920E+03  0.86995988375E+03  0.10100000352E+00 0. -1.
</event>
<event>
 5   0  0.3093600E-05  0.1500401E+04  0.7818609E-02  0.8884187E-01
       -2   -1    0    0    0  501  0.00000000000E+00  0.00000000000E+00  0.40979926273E+03  0.40979926273E+03  0.25500000920E-02 0.  1.
        2   -1    0    0  501    0  0.00000000000E+00  0.00000000000E+00 -0.13733565166E+04  0.13733565166E+04  0.25500000920E-02 0. -1.
    10030    2    1    2    0    0  0.00000000000E+00  0.00000000000E+00 -0.96355725384E+03  0.17831557793E+04  0.15004005971E+04 0.  0.
        1    1    3    3  502    0  0.44885249172E+03  0.17121257887E+03  0.20302017273E+03  0.52153571023E+03  0.50400001928E-02 0.  1.
       -1    1    3    3    0  502 -0.44885249172E+03 -0.17121257887E+03 -0.11665774266E+04  0.12616200691E+04  0.50400001928E-02 0. -1.
</event>
<event>
 5   0  0.1116613E-05  0.1500413E+04  0.7818609E-02  0.8884178E-01
       -3   -1    0    0    0  501  0.00000000000E+00  0.00000000000E+00  0.74277426831E+03  0.74277427517E+03  0.10100000352E+00 0.  1.
        3   -1    0    0  501    0  0.00000000000E+00  0.00000000000E+00 -0.75771337610E+03  0.75771338284E+03  0.10100000352E+00 0. -1.
    10030    2    1    2    0    0  0.00000000000E+00  0.00000000000E+00 -0.14939107797E+02  0.15004876580E+04  0.15004132880E+04 0.  0.
        4    1    3    3  502    0  0.10108340911E+03  0.42397889683E+03  0.60316077295E+03  0.74416429064E+03  0.12699999809E+01 0.  1.
       -4    1    3    3    0  502 -0.10108340911E+03 -0.42397889683E+03 -0.61809988074E+03  0.75632336737E+03  0.12699999809E+01 0. -1.
</event>
<event>
 5   0  0.3070497E-05  0.1504382E+04  0.7818609E-02  0.8881544E-01
        2   -1    0    0  501    0  0.00000000000E+00  0.00000000000E+00  0.26301924616E+04  0.26301924616E+04  0.25500000920E-02 0.  1.
       -2   -1    0    0    0  501  0.00000000000E+00  0.00000000000E+00 -0.21511389259E+03  0.21511389261E+03  0.25500000920E-02 0. -1.
    10030    2    1    2    0    0  0.00000000000E+00  0.00000000000E+00  0.24150785690E+04  0.28453063542E+04  0.15043815191E+04 0.  0.
        4    1    3    3  502    0 -0.20005626370E+03  0.14399550117E+03  0.25516360659E+04  0.25635142751E+04  0.12699999809E+01 0.  1.
       -4    1    3    3    0  502  0.20005626370E+03 -0.14399550117E+03 -0.13655749687E+03  0.28179207912E+03  0.12699999809E+01 0. -1.
</event>
<event>
 5   0  0.1580078E-05  0.1499759E+04  0.7818609E-02  0.8884613E-01
        1   -1    0    0  501    0  0.00000000000E+00  0.00000000000E+00  0.12310862156E+04  0.12310862156E+04  0.50400001928E-02 0.  1.
       -1   -1    0    0    0  501  0.00000000000E+00  0.00000000000E+00 -0.45676666774E+03  0.45676666777E+03  0.50400001928E-02 0. -1.
    10030    2    1    2    0    0  0.00000000000E+00  0.00000000000E+00  0.77431954785E+03  0.16878528834E+04  0.14997588452E+04 0.  0.
        2    1    3    3  502    0 -0.40770271425E+03  0.13790389983E+03  0.10782424386E+04  0.11609675900E+04  0.25500000920E-02 0.  1.
       -2    1    3    3    0  502  0.40770271425E+03 -0.13790389983E+03 -0.30392289073E+03  0.52688529331E+03  0.25500000920E-02 0. -1.
</event>
<event>
 5   0  0.3030702E-05  0.1499860E+04  0.7818609E-02  0.8884546E-01
        2   -1    0    0  501    0  0.00000000000E+00  0.00000000000E+00  0.16372776282E+04  0.16372776282E+04  0.25500000920E-02 0. -1.
       -2   -1    0    0    0  501  0.00000000000E+00  0.00000000000E+00 -0.34349400462E+03  0.34349400463E+03  0.25500000920E-02 0.  1.
    10030    2    1    2    0    0  0.00000000000E+00  0.00000000000E+00  0.12937836236E+04  0.19807716328E+04  0.14998600591E+04 0.  0.
        5    1    3    3  502    0  0.12830385742E+03 -0.68666543768E+03  0.10071177397E+04  0.12256751343E+04  0.46999998093E+01 0. -1.
       -5    1    3    3    0  502 -0.12830385742E+03  0.68666543768E+03  0.28666588384E+03  0.75509649853E+03  0.46999998093E+01 0.  1.
</event>
<event>
 5   0  0.3030702E-05  0.1497531E+04  0.7818609E-02  0.8886096E-01
       -2   -1    0    0    0  501  0.00000000000E+00  0.00000000000E+00  0.27958565599E+03  0.27958565600E+03  0.25500000920E-02 0.  1.
        2   -1    0    0  501    0  0.00000000000E+00  0.00000000000E+00 -0.20052885738E+04  0.20052885738E+04  0.25500000920E-02 0. -1.
    10030    2    1    2    0    0  0.00000000000E+00  0.00000000000E+00 -0.17257029178E+04  0.22848742298E+04  0.14975311968E+04 0.  0.
        5    1    3    3  502    0  0.23319286083E+03 -0.65015223894E+03 -0.42182746903E+03  0.80934377600E+03  0.46999998093E+01 0.  1.
       -5    1    3    3    0  502 -0.23319286083E+03  0.65015223894E+03 -0.13038754487E+04  0.14755304538E+04  0.46999998093E+01 0. -1.
</event>
<event>
 5   0  0.2969498E-05  0.1500506E+04  0.7818609E-02  0.8884116E-01
       -2   -1    0    0    0  501  0.00000000000E+00  0.00000000000E+00  0.15239395911E+04  0.15239395911E+04  0.25500000920E-02 0. -1.
        2   -1    0    0  501    0  0.00000000000E+00  0.00000000000E+00 -0.36935825643E+03  0.36935825644E+03  0.25500000920E-02 0.  1.
    10030    2    1    2    0    0  0.00000000000E+00  0.00000000000E+00  0.11545813347E+04  0.18932978475E+04  0.15005061417E+04 0.  0.
        3    1    3    3  502    0 -0.37998931599E+03  0.54390791449E+03  0.10191849787E+04  0.12161273497E+04  0.10100000352E+00 0. -1.
       -3    1    3    3    0  502  0.37998931599E+03 -0.54390791449E+03  0.13539635596E+03  0.67717049782E+03  0.10100000352E+00 0.  1.
</event>
<event>
 5   0  0.3030702E-05  0.1500158E+04  0.7818609E-02  0.8884348E-01
       -2   -1    0    0    0  501  0.00000000000E+00  0.00000000000E+00  0.45467320776E+03  0.45467320777E+03  0.25500000920E-02 0.  1.
        2   -1    0    0  501    0  0.00000000000E+00  0.00000000000E+00 -0.12374127289E+04  0.12374127289E+04  0.25500000920E-02 0. -1.
    10030    2    1    2    0    0  0.00000000000E+00  0.00000000000E+00 -0.78273952112E+03  0.16920859367E+04  0.15001578781E+04 0.  0.
        5    1    3    3  502    0 -0.21150910050E+03 -0.35347664450E+03 -0.10983942711E+04  0.11731043869E+04  0.46999998093E+01 0. -1.
       -5    1    3    3    0  502  0.21150910050E+03  0.35347664450E+03  0.31565474998E+03  0.51898154975E+03  0.46999998093E+01 0.  1.
</event>
<event>
 5   0  0.3018308E-05  0.1499862E+04  0.7818609E-02  0.8884545E-01
        2   -1    0    0  501    0  0.00000000000E+00  0.00000000000E+00  0.11311313371E+04  0.11311313371E+04  0.25500000920E-02 0.  1.
       -2   -1    0    0    0  501  0.00000000000E+00  0.00000000000E+00 -0.49719794036E+03  0.49719794037E+03  0.25500000920E-02 0. -1.
    10030    2    1    2    0    0  0.00000000000E+00  0.00000000000E+00  0.63393339678E+03  0.16283292775E+04  0.14998615551E+04 0.  0.
        2    1    3    3  502    0 -0.44228936728E+03 -0.51723709780E+03  0.65897682742E+03  0.94731439282E+03  0.25500000920E-02 0.  1.
       -2    1    3    3    0  502  0.44228936728E+03  0.51723709780E+03 -0.25043430642E+02  0.68101488470E+03  0.25500000920E-02 0. -1.
</event>
<event>
 5   0  0.3030702E-05  0.1500076E+04  0.7818609E-02  0.8884402E-01
       -2   -1    0    0    0  501  0.00000000000E+00  0.00000000000E+00  0.64919434537E+03  0.64919434537E+03  0.25500000920E-02 0.  1.
        2   -1    0    0  501    0  0.00000000000E+00  0.00000000000E+00 -0.86654639691E+03  0.86654639691E+03  0.25500000920E-02 0. -1.
    10030    2    1    2    0    0  0.00000000000E+00  0.00000000000E+00 -0.21735205154E+03  0.15157407423E+04  0.15000760259E+04 0.  0.
        5    1    3    3  502    0 -0.53902691289E+03  0.29227322583E+03 -0.54511387807E+03  0.82045407027E+03  0.46999998093E+01 0. -1.
       -5    1    3    3    0  502  0.53902691289E+03 -0.29227322583E+03  0.32776182653E+03  0.69528667202E+03  0.46999998093E+01 0.  1.
</event>
<event>
 5   0  0.3018308E-05  0.1499886E+04  0.7818609E-02  0.8884529E-01
       -2   -1    0    0    0  501  0.00000000000E+00  0.00000000000E+00  0.54581855297E+03  0.54581855297E+03  0.25500000920E-02 0. -1.
        2   -1    0    0  501    0  0.00000000000E+00  0.00000000000E+00 -0.10304053775E+04  0.10304053775E+04  0.25500000920E-02 0.  1.
    10030    2    1    2    0    0  0.00000000000E+00  0.00000000000E+00 -0.48458682454E+03  0.15762239305E+04  0.14998858252E+04 0.  0.
        2    1    3    3  502    0 -0.48691044448E+03 -0.26590671712E+03 -0.77258076328E+03  0.95114099846E+03  0.25500000920E-02 0.  1.
       -2    1    3    3    0  502  0.48691044448E+03  0.26590671712E+03  0.28799393875E+03  0.62508293202E+03  0.25500000920E-02 0. -1.
</event>
<event>
 5   0  0.3070497E-05  0.1503388E+04  0.7818609E-02  0.8882203E-01
        2   -1    0    0  501    0  0.00000000000E+00  0.00000000000E+00  0.16585673877E+04  0.16585673877E+04  0.25500000920E-02 0.  1.
       -2   -1    0    0    0  501  0.00000000000E+00  0.00000000000E+00 -0.34068207574E+03  0.34068207575E+03  0.25500000920E-02 0. -1.
    10030    2    1    2    0    0  0.00000000000E+00  0.00000000000E+00  0.13178853119E+04  0.19992494634E+04  0.15033884134E+04 0.  0.
        4    1    3    3  502    0  0.66673330955E+03  0.34183285017E+03  0.73938976866E+03  0.10526546663E+04  0.12699999809E+01 0. -1.
       -4    1    3    3    0  502 -0.66673330955E+03 -0.34183285017E+03  0.57849554327E+03  0.94659479716E+03  0.12699999809E+01 0.  1.
</event>
<event>
 5   0  0.3093600E-05  0.1500162E+04  0.7818609E-02  0.8884345E-01
        2   -1    0    0  501    0  0.00000000000E+00  0.00000000000E+00  0.16534204929E+04  0.16534204929E+04  0.25500000920E-02 0.  1.
       -2   -1    0    0    0  501  0.00000000000E+00  0.00000000000E+00 -0.34027745813E+03  0.34027745814E+03  0.25500000920E-02 0. -1.
    10030    2    1    2    0    0  0.00000000000E+00  0.00000000000E+00  0.13131430348E+04  0.19936979511E+04  0.15001622880E+04 0.  0.
        1    1    3    3  502    0 -0.31697895547E+03 -0.25523281294E+03 -0.18079890539E+03  0.44531751731E+03  0.50400001928E-02 0. -1.
       -1    1    3    3    0  502  0.31697895547E+03  0.25523281294E+03  0.14939419402E+04  0.15483804338E+04  0.50400001928E-02 0.  1.
</event>
<event>
 5   0  0.1576214E-05  0.1498699E+04  0.7818609E-02  0.8885319E-01
       -1   -1    0    0    0  501  0.00000000000E+00  0.00000000000E+00  0.33452442704E+03  0.33452442708E+03  0.50400001928E-02 0.  1.
        1   -1    0    0  501    0  0.00000000000E+00  0.00000000000E+00 -0.16785756964E+04  0.16785756964E+04  0.50400001928E-02 0. -1.
    10030    2    1    2    0    0  0.00000000000E+00  0.00000000000E+00 -0.13440512693E+04  0.20131001235E+04  0.14986988665E+04 0.  0.
        1    1    3    3  502    0  0.44796112415E+02  0.54176315825E+03 -0.13648137627E+04  0.14690917665E+04  0.50400001928E-02 0. -1.
       -1    1    3    3    0  502 -0.44796112415E+02 -0.54176315825E+03  0.20762493402E+02  0.54400835700E+03  0.50400001928E-02 0.  1.
</event>
<event>
 5   0  0.1533777E-05  0.1499445E+04  0.7818609E-02  0.8884822E-01
        1   -1    0    0  501    0  0.00000000000E+00  0.00000000000E+00  0.11436285798E+04  0.11436285798E+04  0.50400001928E-02 0.  1.
       -1   -1    0    0    0  501  0.00000000000E+00  0.00000000000E+00 -0.49149184375E+03  0.49149184377E+03  0.50400001928E-02 0. -1.
    10030    2    1    2    0    0  0.00000000000E+00  0.00000000000E+00  0.65213673605E+03  0.16351204236E+04  0.14994453898E+04 0.  0.
        5    1    3    3  502    0  0.48565689365E+03 -0.12361671536E+01  0.94888422159E+03  0.10659584900E+04  0.46999998093E+01 0.  1.
       -5    1    3    3    0  502 -0.48565689365E+03  0.12361671536E+01 -0.29674748554E+03  0.56916193357E+03  0.46999998093E+01 0. -1.
</event>
<event>
 5   0  0.1580078E-05  0.1499961E+04  0.7818609E-02  0.8884479E-01
        1   -1    0    0  501    0  0.00000000000E+00  0.00000000000E+00  0.16514898532E+04  0.16514898532E+04  0.50400001928E-02 0.  1.
       -1   -1    0    0    0  501  0.00000000000E+00  0.00000000000E+00 -0.34058401785E+03  0.34058401788E+03  0.50400001928E-02 0. -1.
    10030    2    1    2    0    0  0.00000000000E+00  0.00000000000E+00  0.13109058354E+04  0.19920738711E+04  0.14999613991E+04 0.  0.
        2    1    3    3  502    0 -0.53979781345E+03  0.34377547106E+03  0.13612679311E+03  0.65428874185E+03  0.25500000920E-02 0. -1.
       -2    1    3    3    0  502  0.53979781345E+03 -0.34377547106E+03  0.11747790423E+04  0.13377851293E+04  0.25500000920E-02 0.  1.
</event>
<event>
 5   0  0.1533777E-05  0.1498902E+04  0.7818609E-02  0.8885183E-01
       -1   -1    0    0    0  501  0.00000000000E+00  0.00000000000E+00  0.52518183680E+03  0.52518183682E+03  0.50400001928E-02 0. -1.
        1   -1    0    0  501    0  0.00000000000E+00  0.00000000000E+00 -0.10694900436E+04  0.10694900436E+04  0.50400001928E-02 0.  1.
    10030    2    1    2    0    0  0.00000000000E+00  0.00000000000E+00 -0.54430820682E+03  0.15946718805E+04  0.14989019255E+04 0.  0.
        5    1    3    3  502    0 -0.29632782396E+03 -0.61738276149E+03  0.51736363136E+02  0.68678264007E+03  0.46999998093E+01 0. -1.
       -5    1    3    3    0  502  0.29632782396E+03  0.61738276149E+03 -0.59604456995E+03  0.90788924038E+03  0.46999998093E+01 0.  1.
</event>
<event>
 5   0  0.2969498E-05  0.1499957E+04  0.7818609E-02  0.8884481E-01
        2   -1    0    0  501    0  0.00000000000E+00  0.00000000000E+00  0.29156212240E+04  0.29156212240E+04  0.25500000920E-02 0. -1.
       -2   -1    0    0    0  501  0.00000000000E+00  0.00000000000E+00 -0.19291533078E+03  0.19291533080E+03  0.25500000920E-02 0.  1.
    10030    2    1    2    0    0  0.00000000000E+00  0.00000000000E+00  0.27227058933E+04  0.31085365548E+04  0.14999573766E+04 0.  0.
        3    1    3    3  502    0  0.26494160028E+02  0.50211173398E+03  0.20813199276E+03  0.54418477609E+03  0.10100000352E+00 0.  1.
       -3    1    3    3    0  502 -0.26494160028E+02 -0.50211173398E+03  0.25145739005E+04  0.25643517788E+04  0.10100000352E+00 0. -1.
</event>
<event>
 5   0  0.3070497E-05  0.1500063E+04  0.7818609E-02  0.8884411E-01
        2   -1    0    0  501    0  0.00000000000E+00  0.00000000000E+00  0.62492054021E+03  0.62492054022E+03  0.25500000920E-02 0. -1.
       -2   -1    0    0    0  501  0.00000000000E+00  0.00000000000E+00 -0.90019043355E+03  0.90019043356E+03  0.25500000920E-02 0.  1.
    10030    2    1    2    0    0  0.00000000000E+00  0.00000000000E+00 -0.27526989334E+03  0.15251109738E+04  0.15000633214E+04 0.  0.
        4    1    3    3  502    0  0.61342555630E+03  0.29871539117E+03  0.17905306480E+03  0.70539592497E+03  0.12699999809E+01 0.  1.
       -4    1    3    3    0  502 -0.61342555630E+03 -0.29871539117E+03 -0.45432295814E+03  0.81971504881E+03  0.12699999809E+01 0. -1.
</event>
<event>
 5   0  0.1643498E-05  0.1499905E+04  0.7818609E-02  0.8884516E-01
       -1   -1    0    0    0  501  0.00000000000E+00  0.00000000000E+00  0.84127288416E+03  0.84127288418E+03  0.50400001928E-02 0. -1.
        1   -1    0    0  501    0  0.00000000000E+00  0.00000000000E+00 -0.66854462555E+03  0.66854462557E+03  0.50400001928E-02 0.  1.
    10030    2    1    2    0    0  0.00000000000E+00  0.00000000000E+00  0.17272825862E+03  0.15098175097E+04  0.14999046174E+04 0.  0.
        4    1    3    3  502    0 -0.15553973897E+03 -0.72386381027E+03  0.20654930960E+03  0.76865834830E+03  0.12699999809E+01 0. -1.
       -4    1    3    3    0  502  0.15553973897E+03  0.72386381027E+03 -0.33821050982E+02  0.74115916145E+03  0.12699999809E+01 0.  1.
</event>
<event>
 5   0  0.1580078E-05  0.1501769E+04  0.7818609E-02  0.8883278E-01
       -1   -1    0    0    0  501  0.00000000000E+00  0.00000000000E+00  0.15274364936E+04  0.15274364936E+04  0.50400001928E-02 0.  1.
        1   -1    0    0  501    0  0.00000000000E+00  0.00000000000E+00 -0.36913308775E+03  0.36913308778E+03  0.50400001928E-02 0. -1.
    10030    2    1    2    0    0  0.00000000000E+00  0.00000000000E+00  0.11583034059E+04  0.18965695814E+04  0.15017687562E+04 0.  0.
        2    1    3    3  502    0 -0.18179036472E+03 -0.97163203507E+02  0.14910067197E+04  0.15051875176E+04  0.25500000920E-02 0.  1.
       -2    1    3    3    0  502  0.18179036472E+03  0.97163203507E+02 -0.33270331386E+03  0.39138206382E+03  0.25500000920E-02 0. -1.
</event>
<event>
 5   0  0.1580078E-05  0.1499963E+04  0.7818609E-02  0.8884478E-01
        1   -1    0    0  501    0  0.00000000000E+00  0.00000000000E+00  0.77971514430E+03  0.77971514432E+03  0.50400001928E-02 0.  1.
       -1   -1    0    0    0  501  0.00000000000E+00  0.00000000000E+00 -0.72138147397E+03  0.72138147399E+03  0.50400001928E-02 0. -1.
    10030    2    1    2    0    0  0.00000000000E+00  0.00000000000E+00  0.58333670331E+02  0.15010966183E+04  0.14999627463E+04 0.  0.
        2    1    3    3  502    0  0.76043015982E+02  0.10998992663E+03 -0.70935560677E+03  0.72184880765E+03  0.25500000920E-02 0. -1.
       -2    1    3    3    0  502 -0.76043015982E+02 -0.10998992663E+03  0.76768927710E+03  0.77924781066E+03  0.25500000920E-02 0.  1.
</event>
<event>
 5   0  0.3018308E-05  0.1498921E+04  0.7818609E-02  0.8885171E-01
       -2   -1    0    0    0  501  0.00000000000E+00  0.00000000000E+00  0.71358812962E+03  0.71358812963E+03  0.25500000920E-02 0. -1.
        2   -1    0    0  501    0  0.00000000000E+00  0.00000000000E+00 -0.78713591332E+03  0.78713591333E+03  0.25500000920E-02 0.  1.
    10030    2    1    2    0    0  0.00000000000E+00  0.00000000000E+00 -0.73547783703E+02  0.15007240430E+04  0.14989207373E+04 0.  0.
        2    1    3    3  502    0  0.48251312063E+03 -0.32208808089E+03  0.43827686700E+03  0.72708063898E+03  0.25500000920E-02 0. -1.
       -2    1    3    3    0  502 -0.48251312063E+03  0.32208808089E+03 -0.51182465071E+03  0.77364340397E+03  0.25500000920E-02 0.  1.
</event>
<event>
 5   0  0.1576214E-05  0.1498928E+04  0.7818609E-02  0.8885166E-01
        1   -1    0    0  501    0  0.00000000000E+00  0.00000000000E+00  0.70362223925E+03  0.70362223927E+03  0.50400001928E-02 0.  1.
       -1   -1    0    0    0  501  0.00000000000E+00  0.00000000000E+00 -0.79829202165E+03  0.79829202167E+03  0.50400001928E-02 0. -1.
    10030    2    1    2    0    0  0.00000000000E+00  0.00000000000E+00 -0.94669782394E+02  0.15019142609E+04  0.14989276432E+04 0.  0.
        1    1    3    3  502    0 -0.27325188224E+03 -0.59985230619E+03 -0.40470593604E+03  0.77348320931E+03  0.50400001928E-02 0. -1.
       -1    1    3    3    0  502  0.27325188224E+03  0.59985230619E+03  0.31003615364E+03  0.72843105163E+03  0.50400001928E-02 0.  1.
</event>
<event>
 5   0  0.1580078E-05  0.1500915E+04  0.7818609E-02  0.8883845E-01
        1   -1    0    0  501    0  0.00000000000E+00  0.00000000000E+00  0.16732774574E+04  0.16732774574E+04  0.50400001928E-02 0. -1.
       -1   -1    0    0    0  501  0.00000000000E+00  0.00000000000E+00 -0.33657687007E+03  0.33657687011E+03  0.50400001928E-02 0.  1.
    10030    2    1    2    0    0  0.00000000000E+00  0.00000000000E+00  0.13367005873E+04  0.20098543275E+04  0.15009150401E+04 0.  0.
        2    1    3    3  502    0 -0.32464462006E+02 -0.40679710457E+03  0.15117073239E+04  0.15658214645E+04  0.25500000920E-02 0. -1.
       -2    1    3    3    0  502  0.32464462006E+02  0.40679710457E+03 -0.17500673657E+03  0.44403286301E+03  0.25500000920E-02 0.  1.
</event>
<event>
 5   0  0.1588657E-05  0.1499660E+04  0.7818609E-02  0.8884679E-01
       -1   -1    0    0    0  501  0.00000000000E+00  0.00000000000E+00  0.69853425403E+03  0.69853425405E+03  0.50400001928E-02 0. -1.
        1   -1    0    0  501    0  0.00000000000E+00  0.00000000000E+00 -0.80489253965E+03  0.80489253966E+03  0.50400001928E-02 0.  1.
    10030    2    1    2    0    0  0.00000000000E+00  0.00000000000E+00 -0.10635828561E+03  0.15034267937E+04  0.14996599745E+04 0.  0.
        3    1    3    3  502    0  0.19297740057E+03 -0.34751703991E+03 -0.69057218364E+03  0.79680507100E+03  0.10100000352E+00 0.  1.
       -3    1    3    3    0  502 -0.19297740057E+03  0.34751703991E+03  0.58421389803E+03  0.70662172271E+03  0.10100000352E+00 0. -1.
</event>
<event>
 5   0  0.1643498E-05  0.1499633E+04  0.7818609E-02  0.8884697E-01
       -1   -1    0    0    0  501  0.00000000000E+00  0.00000000000E+00  0.87823004738E+03  0.87823004739E+03  0.50400001928E-02 0.  1.
        1   -1    0    0  501    0  0.00000000000E+00  0.00000000000E+00 -0.64017980662E+03  0.64017980664E+03  0.50400001928E-02 0. -1.
    10030    2    1    2    0    0  0.00000000000E+00  0.00000000000E+00  0.23805024076E+03  0.15184098540E+04  0.14996334778E+04 0.  0.
        4    1    3    3  502    0  0.57999810299E+03 -0.22805815004E+03 -0.30310639316E+03  0.69302483199E+03  0.12699999809E+01 0. -1.
       -4    1    3    3    0  502 -0.57999810299E+03  0.22805815004E+03  0.54115663393E+03  0.82538502204E+03  0.12699999809E+01 0.  1.
</event>
<event>
 5   0  0.3070497E-05  0.1500485E+04  0.7818609E-02  0.8884130E-01
        2   -1    0    0  501    0  0.00000000000E+00  0.00000000000E+00  0.10818046940E+04  0.10818046940E+04  0.25500000920E-02 0.  1.
       -2   -1    0    0    0  501  0.00000000000E+00  0.00000000000E+00 -0.52030076940E+03  0.52030076941E+03  0.25500000920E-02 0. -1.
    10030    2    1    2    0    0  0.00000000000E+00  0.00000000000E+00  0.56150392457E+03  0.16021054634E+04  0.15004850078E+04 0.  0.
        4    1    3    3  502    0  0.81802164950E+01  0.58629255794E+03  0.78048416583E+03  0.97619825110E+03  0.12699999809E+01 0.  1.
       -4    1    3    3    0  502 -0.81802164950E+01 -0.58629255794E+03 -0.21898024126E+03  0.62590721229E+03  0.12699999809E+01 0. -1.
</event>
<event>
 5   0  0.3018308E-05  0.1500637E+04  0.7818609E-02  0.8884029E-01
       -2   -1    0    0    0  501  0.00000000000E+00  0.00000000000E+00  0.60489878686E+03  0.60489878687E+03  0.25500000920E-02 0. -1.
        2   -1    0    0  501    0  0.00000000000E+00  0.00000000000E+00 -0.93069763400E+03  0.93069763400E+03  0.25500000920E-02 0.  1.
    10030    2    1    2    0    0  0.00000000000E+00  0.00000000000E+00 -0.32579884713E+03  0.15355964209E+04  0.15006370244E+04 0.  0.
        2    1    3    3  502    0 -0.62018315501E+03  0.56773872764E+02  0.26533201473E+03  0.67694275713E+03  0.25500000920E-02 0. -1.
       -2    1    3    3    0  502  0.62018315501E+03 -0.56773872764E+02 -0.59113086187E+03  0.85865366374E+03  0.25500000920E-02 0.  1.
</event>
<event>
 5   0  0.3030702E-05  0.1499332E+04  0.7818609E-02  0.8884897E-01
       -2   -1    0    0    0  501  0.00000000000E+00  0.00000000000E+00  0.29227032549E+03  0.29227032550E+03  0.25500000920E-02 0.  1.
        2   -1    0    0  501    0  0.00000000000E+00  0.00000000000E+00 -0.19228736379E+04  0.19228736379E+04  0.25500000920E-02 0. -1.
    10030    2    1    2    0    0  0.00000000000E+00  0.00000000000E+00 -0.16306033124E+04  0.22151439634E+04  0.14993317232E+04 0.  0.
        5    1    3    3  502    0 -0.69496944368E+03  0.99170513126E+02 -0.42676666652E+03  0.82156508931E+03  0.46999998093E+01 0. -1.
       -5    1    3    3    0  502  0.69496944368E+03 -0.99170513126E+02 -0.12038366459E+04  0.13935788741E+04  0.46999998093E+01 0.  1.
</event>
<event>
 5   0  0.2969498E-05  0.1498736E+04  0.7818609E-02  0.8885294E-01
        2   -1    0    0  501    0  0.00000000000E+00  0.00000000000E+00  0.19075911651E+04  0.19075911651E+04  0.25500000920E-02 0.  1.
       -2   -1    0    0    0  501  0.00000000000E+00  0.00000000000E+00 -0.29437782893E+03  0.29437782894E+03  0.25500000920E-02 0. -1.
    10030    2    1    2    0    0  0.00000000000E+00  0.00000000000E+00  0.16132133362E+04  0.22019689941E+04  0.14987361952E+04 0.  0.
        3    1    3    3  502    0 -0.43341230850E+03  0.54176718506E+02  0.17012274729E+04  0.17564043585E+04  0.10100000352E+00 0.  1.
       -3    1    3    3    0  502  0.43341230850E+03 -0.54176718506E+02 -0.88014136684E+02  0.44556463554E+03  0.10100000352E+00 0. -1.
</event>
<event>
 5   0  0.3093600E-05  0.1500379E+04  0.7818609E-02  0.8884201E-01
       -2   -1    0    0    0  501  0.00000000000E+00  0.00000000000E+00  0.73654202240E+03  0.73654202240E+03  0.25500000920E-02 0.  1.
        2   -1    0    0  501    0  0.00000000000E+00  0.00000000000E+00 -0.76409004618E+03  0.76409004618E+03  0.25500000920E-02 0. -1.
    10030    2    1    2    0    0  0.00000000000E+00  0.00000000000E+00 -0.27548023776E+02  0.15006320686E+04  0.15003791893E+04 0.  0.
        1    1    3    3  502    0  0.63312969362E+03 -0.15996415143E+03  0.35553433143E+03  0.74353641440E+03  0.50400001928E-02 0.  1.
       -1    1    3    3    0  502 -0.63312969362E+03  0.15996415143E+03 -0.38308235521E+03  0.75709565418E+03  0.50400001928E-02 0. -1.
</event>
<event>
 5   0  0.1588657E-05  0.1503178E+04  0.7818609E-02  0.8882342E-01
        1   -1    0    0  501    0  0.00000000000E+00  0.00000000000E+00  0.59584643419E+03  0.59584643421E+03  0.50400001928E-02 0.  1.
       -1   -1    0    0    0  501  0.00000000000E+00  0.00000000000E+00 -0.94803933256E+03  0.94803933257E+03  0.50400001928E-02 0. -1.
    10030    2    1    2    0    0  0.00000000000E+00  0.00000000000E+00 -0.35219289837E+03  0.15438857668E+04  0.15031777750E+04 0.  0.
        3    1    3    3  502    0  0.25055187900E+03  0.37742315486E+03 -0.79205531525E+03  0.91245608909E+03  0.10100000352E+00 0. -1.
       -3    1    3    3    0  502 -0.25055187900E+03 -0.37742315486E+03  0.43986241688E+03  0.63142967770E+03  0.10100000352E+00 0.  1.
</event>
<event>
 5   0  0.1588657E-05  0.1499569E+04  0.7818609E-02  0.8884739E-01
        1   -1    0    0  501    0  0.00000000000E+00  0.00000000000E+00  0.16505454417E+04  0.16505454417E+04  0.50400001928E-02 0. -1.
       -1   -1    0    0    0  501  0.00000000000E+00  0.00000000000E+00 -0.34060068496E+03  0.34060068500E+03  0.50400001928E-02 0.  1.
    10030    2    1    2    0    0  0.00000000000E+00  0.00000000000E+00  0.13099447567E+04  0.19911461267E+04  0.14995691488E+04 0.  0.
        3    1    3    3  502    0 -0.35291253698E+03  0.36343011187E+03  0.13889393143E+04  0.14784387488E+04  0.10100000352E+00 0. -1.
       -3    1    3    3    0  502  0.35291253698E+03 -0.36343011187E+03 -0.78994557607E+02  0.51270737785E+03  0.10100000352E+00 0.  1.
</event>
<event>
 5   0  0.3030702E-05  0.1500600E+04  0.7818609E-02  0.8884054E-01
        2   -1    0    0  501    0  0.00000000000E+00  0.00000000000E+00  0.21331192083E+04  0.21331192083E+04  0.25500000920E-02 0. -1.
       -2   -1    0    0    0  501  0.00000000000E+00  0.00000000000E+00 -0.26390931644E+03  0.26390931646E+03  0.25500000920E-02 0.  1.
    10030    2    1    2    0    0  0.00000000000E+00  0.00000000000E+00  0.18692098918E+04  0.23970285247E+04  0.15005999229E+04 0.  0.
        5    1    3    3  502    0 -0.71980133420E+03 -0.16492511329E+03  0.72260612888E+03  0.10331969615E+04  0.46999998093E+01 0.  1.
       -5    1    3    3    0  502  0.71980133420E+03  0.16492511329E+03  0.11466037629E+04  0.13638315632E+04  0.46999998093E+01 0. -1.
</event>
<event>
 5   0  0.1643498E-05  0.1501254E+04  0.7818609E-02  0.8883620E-01
       -1   -1    0    0    0  501  0.00000000000E+00  0.00000000000E+00  0.54225820425E+03  0.54225820427E+03  0.50400001928E-02 0.  1.
        1   -1    0    0  501    0  0.00000000000E+00  0.00000000000E+00 -0.10390636292E+04  0.10390636292E+04  0.50400001928E-02 0. -1.
    10030    2    1    2    0    0  0.00000000000E+00  0.00000000000E+00 -0.49680542492E+03  0.15813218335E+04  0.15012538462E+04 0.  0.
        4    1    3    3  502    0 -0.14685038423E+03  0.20268455912E+03 -0.99381286232E+03  0.10248471516E+04  0.12699999809E+01 0. -1.
       -4    1    3    3    0  502  0.14685038423E+03 -0.20268455912E+03  0.49700743740E+03  0.55647468189E+03  0.12699999809E+01 0.  1.
</event>
<event>
 5   0  0.3093600E-05  0.1499820E+04  0.7818609E-02  0.8884573E-01
       -2   -1    0    0    0  501  0.00000000000E+00  0.00000000000E+00  0.28251558905E+03  0.28251558906E+03  0.25500000920E-02 0.  1.
        2   -1    0    0  501    0  0.00000000000E+00  0.00000000000E+00 -0.19905625064E+04  0.19905625064E+04  0.25500000920E-02 0. -1.
    10030    2    1    2    0    0  0.00000000000E+00  0.00000000000E+00 -0.17080469173E+04  0.22730780954E+04  0.14998199079E+04 0.  0.
        1    1    3    3  502    0 -0.11684993615E+03 -0.34286780932E+03 -0.18491786122E+04  0.18843231629E+04  0.50400001928E-02 0. -1.
       -1    1    3    3    0  502  0.11684993615E+03  0.34286780932E+03  0.14113169490E+03  0.38875493255E+03  0.50400001928E-02 0.  1.
</event>
<event>
 5   0  0.2969498E-05  0.1499761E+04  0.7818609E-02  0.8884612E-01
        2   -1    0    0  501    0  0.00000000000E+00  0.00000000000E+00  0.14167736952E+04  0.14167736952E+04  0.25500000920E-02 0. -1.
       -2   -1    0    0    0  501  0.00000000000E+00  0.00000000000E+00 -0.39690210971E+03  0.39690210971E+03  0.25500000920E-02 0.  1.
    10030    2    1    2    0    0  0.00000000000E+00  0.00000000000E+00  0.10198715855E+04  0.18136758050E+04  0.14997606057E+04 0.  0.
        3    1    3    3  502    0 -0.61644869725E+03  0.32917267350E+03  0.83880772650E+03  0.10917701487E+04  0.10100000352E+00 0. -1.
       -3    1    3    3    0  502  0.61644869725E+03 -0.32917267350E+03  0.18106385904E+03  0.72190565628E+03  0.10100000352E+00 0.  1.
</event>
<event>
 5   0  0.1588657E-05  0.1499935E+04  0.7818609E-02  0.8884496E-01
       -1   -1    0    0    0  501  0.00000000000E+00  0.00000000000E+00  0.60349134528E+03  0.60349134530E+03  0.50400001928E-02 0.  1.
        1   -1    0    0  501    0  0.00000000000E+00  0.00000000000E+00 -0.93199578277E+03  0.93199578279E+03  0.50400001928E-02 0. -1.
    10030    2    1    2    0    0  0.00000000000E+00  0.00000000000E+00 -0.32850443750E+03  0.15354871281E+04  0.14999351836E+04 0.  0.
        3    1    3    3  502    0  0.66372686284E+03  0.34859596280E+03 -0.14380673245E+03  0.76336942579E+03  0.10100000352E+00 0. -1.
       -3    1    3    3    0  502 -0.66372686284E+03 -0.34859596280E+03 -0.18469770505E+03  0.77211770229E+03  0.10100000352E+00 0.  1.
</event>
<event>
 5   0  0.2969498E-05  0.1501186E+04  0.7818609E-02  0.8883665E-01
       -2   -1    0    0    0  501  0.00000000000E+00  0.00000000000E+00  0.14813613579E+04  0.14813613579E+04  0.25500000920E-02 0. -1.
        2   -1    0    0  501    0  0.00000000000E+00  0.00000000000E+00 -0.38031876615E+03  0.38031876616E+03  0.25500000920E-02 0.  1.
    10030    2    1    2    0    0  0.00000000000E+00  0.00000000000E+00  0.11010425918E+04  0.18616801241E+04  0.15011855633E+04 0.  0.
        3    1    3    3  502    0  0.33541392555E+03  0.16332538241E+03 -0.25720100086E+03  0.45313358630E+03  0.10100000352E+00 0.  1.
       -3    1    3    3    0  502 -0.33541392555E+03 -0.16332538241E+03  0.13582435926E+04  0.14085465378E+04  0.10100000352E+00 0. -1.
</event>
<event>
 5   0  0.3093600E-05  0.1500008E+04  0.7818609E-02  0.8884448E-01
        2   -1    0    0  501    0  0.00000000000E+00  0.00000000000E+00  0.34374850258E+03  0.34374850259E+03  0.25500000920E-02 0.  1.
       -2   -1    0    0    0  501  0.00000000000E+00  0.00000000000E+00 -0.16363877232E+04  0.16363877232E+04  0.25500000920E-02 0. -1.
    10030    2    1    2    0    0  0.00000000000E+00  0.00000000000E+00 -0.12926392206E+04  0.19801362258E+04  0.15000077726E+04 0.  0.
        1    1    3    3  502    0 -0.33634786729E+03  0.51581261413E+03 -0.12115149004E+04  0.13590293944E+04  0.50400001928E-02 0. -1.
       -1    1    3    3    0  502  0.33634786729E+03 -0.51581261413E+03 -0.81124320203E+02  0.62110683145E+03  0.50400001928E-02 0.  1.
</event>
<event>
 5   0  0.1580078E-05  0.1499908E+04  0.7818609E-02  0.8884514E-01
        1   -1    0    0  501    0  0.00000000000E+00  0.00000000000E+00  0.13034515641E+04  0.13034515641E+04  0.50400001928E-02 0.  1.
       -1   -1    0    0    0  501  0.00000000000E+00  0.00000000000E+00 -0.43149351141E+03  0.43149351144E+03  0.50400001928E-02 0. -1.
    10030    2    1    2    0    0  0.00000000000E+00  0.00000000000E+00  0.87195805269E+03  0.17349450756E+04  0.14999078537E+04 0.  0.
        2    1    3    3  502    0 -0.15611736712E+03 -0.53139824089E+03  0.10208560738E+04  0.11614231985E+04  0.25500000920E-02 0.  1.
       -2    1    3    3    0  502  0.15611736712E+03  0.53139824089E+03 -0.14889802107E+03  0.57352187702E+03  0.25500000920E-02 0. -1.
</event>
<event>
 5   0  0.3070497E-05  0.1500198E+04  0.7818609E-02  0.8884322E-01
       -2   -1    0    0    0  501  0.00000000000E+00  0.00000000000E+00  0.78851672100E+03  0.78851672100E+03  0.25500000920E-02 0. -1.
        2   -1    0    0  501    0  0.00000000000E+00  0.00000000000E+00 -0.71355266003E+03  0.71355266003E+03  0.25500000920E-02 0.  1.
    10030    2    1    2    0    0  0.00000000000E+00  0.00000000000E+00  0.74964060969E+02  0.15020693810E+04  0.15001975920E+04 0.  0.
        4    1    3    3  502    0  0.38422974165E+03  0.43361691112E+03  0.51451164591E+03  0.77484189785E+03  0.12699999809E+01 0. -1.
       -4    1    3    3    0  502 -0.38422974165E+03 -0.43361691112E+03 -0.43954758494E+03  0.72722748319E+03  0.12699999809E+01 0.  1.
</event>
<event>
 5   0  0.3018308E-05  0.1500209E+04  0.7818609E-02  0.8884314E-01
        2   -1    0    0  501    0  0.00000000000E+00  0.00000000000E+00  0.20131163751E+04  0.20131163751E+04  0.25500000920E-02 0.  1.
       -2   -1    0    0    0  501  0.00000000000E+00  0.00000000000E+00 -0.27949541086E+03  0.27949541087E+03  0.25500000920E-02 0. -1.
    10030    2    1    2    0    0  0.00000000000E+00  0.00000000000E+00  0.17336209643E+04  0.22926117860E+04  0.15002090366E+04 0.  0.
        2    1    3    3  502    0 -0.17514354300E+03 -0.61563024178E+03  0.26909102077E+03  0.69432401133E+03  0.25500000920E-02 0. -1.
       -2    1    3    3    0  502  0.17514354300E+03  0.61563024178E+03  0.14645299435E+04  0.15982877747E+04  0.25500000920E-02 0.  1.
</event>
<event>
 5   0  0.1588657E-05  0.1500277E+04  0.7818609E-02  0.8884269E-01
       -1   -1    0    0    0  501  0.00000000000E+00  0.00000000000E+00  0.49973524486E+03  0.49973524489E+03  0.50400001928E-02 0.  1.
        1   -1    0    0  501    0  0.00000000000E+00  0.00000000000E+00 -0.11260122142E+04  0.11260122142E+04  0.50400001928E-02 0. -1.
    10030    2    1    2    0    0  0.00000000000E+00  0.00000000000E+00 -0.62627696936E+03  0.16257474591E+04  0.15002772939E+04 0.  0.
        3    1    3    3  502    0  0.54292279581E+03  0.46843157980E+03 -0.74457347480E+02  0.72092802273E+03  0.10100000352E+00 0.  1.
       -3    1    3    3    0  502 -0.54292279581E+03 -0.46843157980E+03 -0.55181962188E+03  0.90481943639E+03  0.10100000352E+00 0. -1.
</event>
<event>
 5   0  0.1643498E-05  0.1502391E+04  0.7818609E-02  0.8882864E-01
       -1   -1    0    0    0  501  0.00000000000E+00  0.00000000000E+00  0.74051197412E+03  0.74051197414E+03  0.50400001928E-02 0. -1.
        1   -1    0    0  501    0  0.00000000000E+00  0.00000000000E+00 -0.76203320169E+03  0.76203320171E+03  0.50400001928E-02 0.  1.
    10030    2    1    2    0    0  0.00000000000E+00  0.00000000000E+00 -0.21521227568E+02  0.15025451759E+04  0.15023910417E+04 0.  0.
        4    1    3    3  502    0  0.15807715696E+03  0.19462890351E+03 -0.71894645811E+03  0.76141606245E+03  0.12699999809E+01 0.  1.
       -4    1    3    3    0  502 -0.15807715696E+03 -0.19462890351E+03  0.69742523054E+03  0.74112911340E+03  0.12699999809E+01 0. -1.
</event>
<event>
 5   0  0.1533777E-05  0.1499885E+04  0.7818609E-02  0.8884529E-01
        1   -1    0    0  501    0  0.00000000000E+00  0.00000000000E+00  0.39146862021E+03  0.39146862024E+03  0.50400001928E-02 0.  1.
       -1   -1    0    0    0  501  0.00000000000E+00  0.00000000000E+00 -0.14366764335E+04  0.14366764335E+04  0.50400001928E-02 0. -1.
    10030    2    1    2    0    0  0.00000000000E+00  0.00000000000E+00 -0.10452078133E+04  0.18281450537E+04  0.14998849838E+04 0.  0.
        5    1    3    3  502    0  0.55217902661E+03  0.58711381871E+01 -0.11410527541E+04  0.12676591124E+04  0.46999998093E+01 0. -1.
       -5    1    3    3    0  502 -0.55217902661E+03 -0.58711381871E+01  0.95844940842E+02  0.56048594128E+03  0.46999998093E+01 0.  1.
</event>
<event>
 5   0  0.1643498E-05  0.1500098E+04  0.7818609E-02  0.8884388E-01
        1   -1    0    0  501    0  0.00000000000E+00  0.00000000000E+00  0.29302138219E+04  0.29302138219E+04  0.50400001928E-02 0. -1.
       -1   -1    0    0    0  501  0.00000000000E+00  0.00000000000E+00 -0.19199051141E+03  0.19199051147E+03  0.50400001928E-02 0.  1.
    10030    2    1    2    0    0  0.00000000000E+00  0.00000000000E+00  0.27382233105E+04  0.31222043334E+04  0.15000976639E+04 0.  0.
        4    1    3    3  502    0 -0.40861803102E+03  0.43608304728E+02  0.63165748171E+02  0.41576664628E+03  0.12699999809E+01 0.  1.
       -4    1    3    3    0  502  0.40861803102E+03 -0.43608304728E+02  0.26750575623E+04  0.27064376871E+04  0.12699999809E+01 0. -1.
</event>
<event>
 5   0  0.1576214E-05  0.1500520E+04  0.7818609E-02  0.8884107E-01
        1   -1    0    0  501    0  0.00000000000E+00  0.00000000000E+00  0.11341412277E+04  0.11341412277E+04  0.50400001928E-02 0.  1.
       -1   -1    0    0    0  501  0.00000000000E+00  0.00000000000E+00 -0.49631393076E+03  0.49631393079E+03  0.50400001928E-02 0. -1.
    10030    2    1    2    0    0  0.00000000000E+00  0.00000000000E+00  0.63782729693E+03  0.16304551585E+04  0.15005200309E+04 0.  0.
        1    1    3    3  502    0  0.73630171888E+02  0.74125865902E+03  0.41612756529E+03  0.85325726039E+03  0.50400001928E-02 0.  1.
       -1    1    3    3    0  502 -0.73630171888E+02 -0.74125865902E+03  0.22169973164E+03  0.77719789811E+03  0.50400001928E-02 0. -1.
</event>
<event>
 5   0  0.3030702E-05  0.1500147E+04  0.7818609E-02  0.8884355E-01
        2   -1    0    0  501    0  0.00000000000E+00  0.00000000000E+00  0.13730435156E+04  0.13730435156E+04  0.25500000920E-02 0. -1.
       -2   -1    0    0    0  501  0.00000000000E+00  0.00000000000E+00 -0.40975391819E+03  0.40975391819E+03  0.25500000920E-02 0.  1.
    10030    2    1    2    0    0  0.00000000000E+00  0.00000000000E+00  0.96328959737E+03  0.17827974338E+04  0.15001466066E+04 0.  0.
        5    1    3    3  502    0 -0.25189500130E+03  0.60590212714E+03  0.49840303793E+02  0.65808405636E+03  0.46999998093E+01 0.  1.
       -5    1    3    3    0  502  0.25189500130E+03 -0.60590212714E+03  0.91344929358E+03  0.11247133774E+04  0.46999998093E+01 0. -1.
</event>
<event>
 5   0  0.1643498E-05  0.1500345E+04  0.7818609E-02  0.8884224E-01
        1   -1    0    0  501    0  0.00000000000E+00  0.00000000000E+00  0.47773859067E+03  0.47773859069E+03  0.50400001928E-02 0. -1.
       -1   -1    0    0    0  501  0.00000000000E+00  0.00000000000E+00 -0.11779633480E+04  0.11779633480E+04  0.50400001928E-02 0.  1.
    10030    2    1    2    0    0  0.00000000000E+00  0.00000000000E+00 -0.70022475729E+03  0.16557019387E+04  0.15003446934E+04 0.  0.
        4    1    3    3  502    0  0.30101867543E+03 -0.47701687812E+03 -0.89589408499E+03  0.10586714171E+04  0.12699999809E+01 0.  1.
       -4    1    3    3    0  502 -0.30101867543E+03  0.47701687812E+03  0.19566932770E+03  0.59703052156E+03  0.12699999809E+01 0. -1.
</event>
<event>
 5   0  0.1116613E-05  0.1499670E+04  0.7818609E-02  0.8884672E-01
        4   -1    0    0  501    0  0.00000000000E+00  0.00000000000E+00  0.46693079154E+03  0.46693251866E+03  0.12699999809E+01 0. -1.
       -4   -1    0    0    0  501  0.00000000000E+00  0.00000000000E+00 -0.12041409605E+04  0.12041416302E+04  0.12699999809E+01 0.  1.
    10030    2    1    2    0    0  0.00000000000E+00  0.00000000000E+00 -0.73721016893E+03  0.16710741489E+04  0.14996699563E+04 0.  0.
        3    1    3    3  502    0  0.72374336874E+03  0.17490427102E+03 -0.26983736150E+03  0.79196475911E+03  0.10100000352E+00 0. -1.
       -3    1    3    3    0  502 -0.72374336874E+03 -0.17490427102E+03 -0.46737280743E+03  0.87910938975E+03  0.10100000352E+00 0.  1.
</event>
<event>
 5   0  0.2969498E-05  0.1500637E+04  0.7818609E-02  0.8884029E-01
       -2   -1    0    0    0  501  0.00000000000E+00  0.00000000000E+00  0.47514141029E+03  0.47514141030E+03  0.25500000920E-02 0. -1.
        2   -1    0    0  501    0  0.00000000000E+00  0.00000000000E+00 -0.11848639368E+04  0.11848639368E+04  0.25500000920E-02 0.  1.
    10030    2    1    2    0    0  0.00000000000E+00  0.00000000000E+00 -0.70972252652E+03  0.16600053471E+04  0.15006370940E+04 0.  0.
        3    1    3    3  502    0 -0.13643701710E+03 -0.42643224802E+03 -0.10208989913E+04  0.11147619847E+04  0.10100000352E+00 0.  1.
       -3    1    3    3    0  502  0.13643701710E+03  0.42643224802E+03  0.31117646483E+03  0.54524336241E+03  0.10100000352E+00 0. -1.
</event>
<event>
 5   0  0.2969498E-05  0.1500228E+04  0.7818609E-02  0.8884301E-01
       -2   -1    0    0    0  501  0.00000000000E+00  0.00000000000E+00  0.11123579555E+04  0.11123579555E+04  0.25500000920E-02 0. -1.
        2   -1    0    0  501    0  0.00000000000E+00  0.00000000000E+00 -0.50583625938E+03  0.50583625939E+03  0.25500000920E-02 0.  1.
    10030    2    1    2    0    0  0.00000000000E+00  0.00000000000E+00  0.60652169611E+03  0.16181942149E+04  0.15002279658E+04 0.  0.
        3    1    3    3  502    0  0.10317664894E+03  0.36114381925E+03 -0.39710352852E+03  0.54659079907E+03  0.10100000352E+00 0.  1.
       -3    1    3    3    0  502 -0.10317664894E+03 -0.36114381925E+03  0.10036252246E+04  0.10716034158E+04  0.10100000352E+00 0. -1.
</event>
<event>
 5   0  0.1533777E-05  0.1498838E+04  0.7818609E-02  0.8885226E-01
        1   -1    0    0  501    0  0.00000000000E+00  0.00000000000E+00  0.46677975932E+03  0.46677975935E+03  0.50400001928E-02 0. -1.
       -1   -1    0    0    0  501  0.00000000000E+00  0.00000000000E+00 -0.12031989554E+04  0.12031989554E+04  0.50400001928E-02 0.  1.
    10030    2    1    2    0    0  0.00000000000E+00  0.00000000000E+00 -0.73641919603E+03  0.16699787147E+04  0.14988381084E+04 0.  0.
        5    1    3    3  502    0 -0.42686577686E+03 -0.14373379905E+03  0.29912231396E+03  0.54071253468E+03  0.46999998093E+01 0. -1.
       -5    1    3    3    0  502  0.42686577686E+03  0.14373379905E+03 -0.10355415100E+04  0.11292661800E+04  0.46999998093E+01 0.  1.
</event>
<event>
 5   0  0.3030702E-05  0.1500367E+04  0.7818609E-02  0.8884209E-01
       -2   -1    0    0    0  501  0.00000000000E+00  0.00000000000E+00  0.90519656134E+03  0.90519656135E+03  0.25500000920E-02 0. -1.
        2   -1    0    0  501    0  0.00000000000E+00  0.00000000000E+00 -0.62171572107E+03  0.62171572107E+03  0.25500000920E-02 0.  1.
    10030    2    1    2    0    0  0.00000000000E+00  0.00000000000E+00  0.28348084027E+03  0.15269122824E+04  0.15003665324E+04 0.  0.
        5    1    3    3  502    0 -0.75167071318E+02 -0.36587436872E+03  0.80381880061E+03  0.88637514434E+03  0.46999998093E+01 0. -1.
       -5    1    3    3    0  502  0.75167071318E+02  0.36587436872E+03 -0.52033796034E+03  0.64053713808E+03  0.46999998093E+01 0.  1.
</event>
<event>
 5   0  0.2969498E-05  0.1499829E+04  0.7818609E-02  0.8884567E-01
       -2   -1    0    0    0  501  0.00000000000E+00  0.00000000000E+00  0.42292527743E+03  0.42292527744E+03  0.25500000920E-02 0.  1.
        2   -1    0    0  501    0  0.00000000000E+00  0.00000000000E+00 -0.13297186638E+04  0.13297186638E+04  0.25500000920E-02 0. -1.
    10030    2    1    2    0    0  0.00000000000E+00  0.00000000000E+00 -0.90679338641E+03  0.17526439413E+04  0.14998288367E+04 0.  0.
        3    1    3    3  502    0  0.38072941995E+03 -0.49566346099E+03 -0.93765907036E+03  0.11268725306E+04  0.10100000352E+00 0. -1.
       -3    1    3    3    0  502 -0.38072941995E+03  0.49566346099E+03  0.30865683955E+02  0.62577141068E+03  0.10100000352E+00 0.  1.
</event>
<event>
 5   0  0.1588657E-05  0.1501499E+04  0.7818609E-02  0.8883457E-01
        1   -1    0    0  501    0  0.00000000000E+00  0.00000000000E+00  0.11052606208E+04  0.11052606208E+04  0.50400001928E-02 0.  1.
       -1   -1    0    0    0  501  0.00000000000E+00  0.00000000000E+00 -0.50994744258E+03  0.50994744260E+03  0.50400001928E-02 0. -1.
    10030    2    1    2    0    0  0.00000000000E+00  0.00000000000E+00  0.59531317825E+03  0.16152080634E+04  0.15014990203E+04 0.  0.
        3    1    3    3  502    0  0.25347312336E+02 -0.70476379075E+03  0.57462389765E+03  0.90968517683E+03  0.10100000352E+00 0.  1.
       -3    1    3    3    0  502 -0.25347312336E+02  0.70476379075E+03  0.20689280602E+02  0.70552288661E+03  0.10100000352E+00 0. -1.
</event>
<event>
 5   0  0.1588657E-05  0.1501528E+04  0.7818609E-02  0.8883437E-01
       -1   -1    0    0    0  501  0.00000000000E+00  0.00000000000E+00  0.49604710754E+03  0.49604710757E+03  0.50400001928E-02 0.  1.
        1   -1    0    0  501    0  0.00000000000E+00  0.00000000000E+00 -0.11362762584E+04  0.11362762584E+04  0.50400001928E-02 0. -1.
    10030    2    1    2    0    0  0.00000000000E+00  0.00000000000E+00 -0.64022915084E+03  0.16323233660E+04  0.15015279569E+04 0.  0.
        3    1    3    3  502    0  0.44751249653E+03 -0.41790888019E+03  0.15216015738E+03  0.63092629553E+03  0.10100000352E+00 0. -1.
       -3    1    3    3    0  502 -0.44751249653E+03  0.41790888019E+03 -0.79238930822E+03  0.10013970704E+04  0.10100000352E+00 0.  1.
</event>
<event>
 5   0  0.1643498E-05  0.1500048E+04  0.7818609E-02  0.8884421E-01
        1   -1    0    0  501    0  0.00000000000E+00  0.00000000000E+00  0.57570354467E+03  0.57570354469E+03  0.50400001928E-02 0.  1.
       -1   -1    0    0    0  501  0.00000000000E+00  0.00000000000E+00 -0.97712794786E+03  0.97712794787E+03  0.50400001928E-02 0. -1.
    10030    2    1    2    0    0  0.00000000000E+00  0.00000000000E+00 -0.40142440319E+03  0.15528314926E+04  0.15000480302E+04 0.  0.
        4    1    3    3  502    0 -0.73646404708E+03 -0.74916542602E+02 -0.75875975127E+02  0.74414417790E+03  0.12699999809E+01 0.  1.
       -4    1    3    3    0  502  0.73646404708E+03  0.74916542602E+02 -0.32554842806E+03  0.80868731467E+03  0.12699999809E+01 0. -1.
</event>
<event>
 5   0  0.3093600E-05  0.1500306E+04  0.7818609E-02  0.8884249E-01
        2   -1    0    0  501    0  0.00000000000E+00  0.00000000000E+00  0.10514727142E+04  0.10514727142E+04  0.25500000920E-02 0. -1.
       -2   -1    0    0    0  501  0.00000000000E+00  0.00000000000E+00 -0.53518243772E+03  0.53518243773E+03  0.25500000920E-02 0.  1.
    10030    2    1    2    0    0  0.00000000000E+00  0.00000000000E+00  0.51629027652E+03  0.15866551520E+04  0.15003062759E+04 0.  0.
        1    1    3    3  502    0 -0.45868648931E+03 -0.51851591294E+03  0.56369902557E+03  0.89275340319E+03  0.50400001928E-02 0. -1.
       -1    1    3    3    0  502  0.45868648931E+03  0.51851591294E+03 -0.47408749049E+02  0.69390174878E+03  0.50400001928E-02 0.  1.
</event>
<event>
 5   0  0.1116613E-05  0.1500099E+04  0.7818609E-02  0.8884387E-01
       -4   -1    0    0    0  501  0.00000000000E+00  0.00000000000E+00  0.15757978215E+04  0.15757983332E+04  0.12699999809E+01 0. -1.
        4   -1    0    0  501    0  0.00000000000E+00  0.00000000000E+00 -0.35700747137E+03  0.35700973028E+03  0.12699999809E+01 0.  1.
    10030    2    1    2    0    0  0.00000000000E+00  0.00000000000E+00  0.12187903501E+04  0.19328080635E+04  0.15000990277E+04 0.  0.
        1    1    3    3  502    0  0.35148036188E+03 -0.67338267228E+02  0.14587015469E+04  0.15019597498E+04  0.50400001928E-02 0. -1.
       -1    1    3    3    0  502 -0.35148036188E+03  0.67338267228E+02 -0.23991119685E+03  0.43084831370E+03  0.50400001928E-02 0.  1.
</event>
<event>
 5   0  0.3018308E-05  0.1500119E+04  0.7818609E-02  0.8884374E-01
        2   -1    0    0  501    0  0.00000000000E+00  0.00000000000E+00  0.13245352691E+04  0.13245352691E+04  0.25500000920E-02 0.  1.
       -2   -1    0    0    0  501  0.00000000000E+00  0.00000000000E+00 -0.42474477182E+03  0.42474477183E+03  0.25500000920E-02 0. -1.
    10030    2    1    2    0    0  0.00000000000E+00  0.00000000000E+00  0.89979049728E+03  0.17492800409E+04  0.15001192361E+04 0.  0.
        2    1    3    3  502    0  0.62609106823E+03 -0.11773934633E+03 -0.11761426804E+02  0.63717416031E+03  0.25500000920E-02 0. -1.
       -2    1    3    3    0  502 -0.62609106823E+03  0.11773934633E+03  0.91155192408E+03  0.11121058806E+04  0.25500000920E-02 0.  1.
</event>
<event>
 5   0  0.2969498E-05  0.1500122E+04  0.7818609E-02  0.8884371E-01
       -2   -1    0    0    0  501  0.00000000000E+00  0.00000000000E+00  0.42374489377E+03  0.42374489378E+03  0.25500000920E-02 0. -1.
        2   -1    0    0  501    0  0.00000000000E+00  0.00000000000E+00 -0.13276663606E+04  0.13276663606E+04  0.25500000920E-02 0.  1.
    10030    2    1    2    0    0  0.00000000000E+00  0.00000000000E+00 -0.90392146686E+03  0.17514112544E+04  0.15001224496E+04 0.  0.
        3    1    3    3  502    0  0.20375377241E+03  0.54368395751E+03  0.10243423085E+03  0.58957665089E+03  0.10100000352E+00 0. -1.
       -3    1    3    3    0  502 -0.20375377241E+03 -0.54368395751E+03 -0.10063556977E+04  0.11618346035E+04  0.10100000352E+00 0.  1.
</event>
<event>
 5   0  0.1580078E-05  0.1499773E+04  0.7818609E-02  0.8884604E-01
       -1   -1    0    0    0  501  0.00000000000E+00  0.00000000000E+00  0.44070751677E+03  0.44070751679E+03  0.50400001928E-02 0. -1.
        1   -1    0    0  501    0  0.00000000000E+00  0.00000000000E+00 -0.12759697771E+04  0.12759697771E+04  0.50400001928E-02 0.  1.
    10030    2    1    2    0    0  0.00000000000E+00  0.00000000000E+00 -0.83526226033E+03  0.17166772939E+04  0.14997726121E+04 0.  0.
        2    1    3    3  502    0 -0.61684679468E+02 -0.24694023575E+03  0.38975154130E+03  0.46550053025E+03  0.25500000920E-02 0. -1.
       -2    1    3    3    0  502  0.61684679468E+02  0.24694023575E+03 -0.12250138016E+04  0.12511767637E+04  0.25500000920E-02 0.  1.
</event>
<event>
 5   0  0.1576214E-05  0.1509005E+04  0.7818609E-02  0.8878487E-01
        1   -1    0    0  501    0  0.00000000000E+00  0.00000000000E+00  0.14191403686E+04  0.14191403687E+04  0.50400001928E-02 0.  1.
       -1   -1    0    0    0  501  0.00000000000E+00  0.00000000000E+00 -0.40113991162E+03  0.40113991165E+03  0.50400001928E-02 0. -1.
    10030    2    1    2    0    0  0.00000000000E+00  0.00000000000E+00  0.10180004570E+04  0.18202802803E+04  0.15090047609E+04 0.  0.
        1    1    3    3  502    0  0.61244734007E+03 -0.31470743121E+03  0.88107674835E+03  0.11182257143E+04  0.50400001928E-02 0.  1.
       -1    1    3    3    0  502 -0.61244734007E+03  0.31470743121E+03  0.13692370867E+03  0.70205456600E+03  0.50400001928E-02 0. -1.
</event>
<event>
 5   0  0.2969498E-05  0.1500685E+04  0.7818609E-02  0.8883998E-01
       -2   -1    0    0    0  501  0.00000000000E+00  0.00000000000E+00  0.48839069146E+03  0.48839069146E+03  0.25500000920E-02 0. -1.
        2   -1    0    0  501    0  0.00000000000E+00  0.00000000000E+00 -0.11527932512E+04  0.11527932512E+04  0.25500000920E-02 0.  1.
    10030    2    1    2    0    0  0.00000000000E+00  0.00000000000E+00 -0.66440255972E+03  0.16411839426E+04  0.15006845012E+04 0.  0.
        3    1    3    3  502    0  0.53889569018E+03  0.19827008338E+03  0.19602444303E+03  0.60674968754E+03  0.10100000352E+00 0. -1.
       -3    1    3    3    0  502 -0.53889569018E+03 -0.19827008338E+03 -0.86042700275E+03  0.10344342551E+04  0.10100000352E+00 0.  1.
</event>
<event>
 5   0  0.3030702E-05  0.1499583E+04  0.7818609E-02  0.8884731E-01
       -2   -1    0    0    0  501  0.00000000000E+00  0.00000000000E+00  0.37185986460E+03  0.37185986461E+03  0.25500000920E-02 0.  1.
        2   -1    0    0  501    0  0.00000000000E+00  0.00000000000E+00 -0.15118247432E+04  0.15118247432E+04  0.25500000920E-02 0. -1.
    10030    2    1    2    0    0  0.00000000000E+00  0.00000000000E+00 -0.11399648786E+04  0.18836846078E+04  0.14995825343E+04 0.  0.
        5    1    3    3  502    0 -0.17321809870E+03 -0.21939786686E+03 -0.14439024357E+04  0.14707196428E+04  0.46999998093E+01 0. -1.
       -5    1    3    3    0  502  0.17321809870E+03  0.21939786686E+03  0.30393755715E+03  0.41296496503E+03  0.46999998093E+01 0.  1.
</event>
<event>
 5   0  0.1588657E-05  0.1499806E+04  0.7818609E-02  0.8884582E-01
        1   -1    0    0  501    0  0.00000000000E+00  0.00000000000E+00  0.59700276445E+03  0.59700276447E+03  0.50400001928E-02 0. -1.
       -1   -1    0    0    0  501  0.00000000000E+00  0.00000000000E+00 -0.94196337994E+03  0.94196337996E+03  0.50400001928E-02 0.  1.
    10030    2    1    2    0    0  0.00000000000E+00  0.00000000000E+00 -0.34496061550E+03  0.15389661444E+04  0.14998063100E+04 0.  0.
        3    1    3    3  502    0  0.32736224642E+03  0.44110866173E+03  0.35135040816E+03  0.65206595629E+03  0.10100000352E+00 0. -1.
       -3    1    3    3    0  502 -0.32736224642E+03 -0.44110866173E+03 -0.69631102366E+03  0.88690018813E+03  0.10100000352E+00 0.  1.
</event>
<event>
 5   0  0.1580078E-05  0.1499797E+04  0.7818609E-02  0.8884588E-01
        1   -1    0    0  501    0  0.00000000000E+00  0.00000000000E+00  0.75828181139E+03  0.75828181140E+03  0.50400001928E-02 0. -1.
       -1   -1    0    0    0  501  0.00000000000E+00  0.00000000000E+00 -0.74160797789E+03  0.74160797791E+03  0.50400001928E-02 0.  1.
    10030    2    1    2    0    0  0.00000000000E+00  0.00000000000E+00  0.16673833497E+02  0.14998897893E+04  0.14997971074E+04 0.  0.
        2    1    3    3  502    0  0.42697461265E+03  0.39296858613E+03  0.48335701807E+03  0.75522555336E+03  0.25500000920E-02 0. -1.
       -2    1    3    3    0  502 -0.42697461265E+03 -0.39296858613E+03 -0.46668318457E+03  0.74466423595E+03  0.25500000920E-02 0.  1.
</event>
<event>
 5   0  0.1580078E-05  0.1500073E+04  0.7818609E-02  0.8884404E-01
        1   -1    0    0  501    0  0.00000000000E+00  0.00000000000E+00  0.80248163629E+03  0.80248163630E+03  0.50400001928E-02 0.  1.
       -1   -1    0    0    0  501  0.00000000000E+00  0.00000000000E+00 -0.70101911532E+03  0.70101911533E+03  0.50400001928E-02 0. -1.
    10030    2    1    2    0    0  0.00000000000E+00  0.00000000000E+00  0.10146252097E+03  0.15035007516E+04  0.15000732872E+04 0.  0.
        2    1    3    3  502    0  0.39024706705E+03  0.48253135950E+03  0.47291296794E+03  0.78024096373E+03  0.25500000920E-02 0.  1.
       -2    1    3    3    0  502 -0.39024706705E+03 -0.48253135950E+03 -0.37145044697E+03  0.72325978790E+03  0.25500000920E-02 0. -1.
</event>
<event>
 5   0  0.3070497E-05  0.1501499E+04  0.7818609E-02  0.8883456E-01
       -2   -1    0    0    0  501  0.00000000000E+00  0.00000000000E+00  0.76983009165E+03  0.76983009165E+03  0.25500000920E-02 0.  1.
        2   -1    0    0  501    0  0.00000000000E+00  0.00000000000E+00 -0.73214217453E+03  0.73214217454E+03  0.25500000920E-02 0. -1.
    10030    2    1    2    0    0  0.00000000000E+00  0.00000000000E+00  0.37687917118E+02  0.15019722662E+04  0.15014993537E+04 0.  0.
        4    1    3    3  502    0 -0.35934316669E+03  0.44012747804E+03  0.50969572285E+03  0.76330272577E+03  0.12699999809E+01 0.  1.
       -4    1    3    3    0  502  0.35934316669E+03 -0.44012747804E+03 -0.47200780573E+03  0.73866954042E+03  0.12699999809E+01 0. -1.
</event>
<event>
 5   0  0.1533777E-05  0.1500232E+04  0.7818609E-02  0.8884299E-01
       -1   -1    0    0    0  501  0.00000000000E+00  0.00000000000E+00  0.89883389548E+03  0.89883389549E+03  0.50400001928E-02 0. -1.
        1   -1    0    0  501    0  0.00000000000E+00  0.00000000000E+00 -0.62600438889E+03  0.62600438891E+03  0.50400001928E-02 0.  1.
    10030    2    1    2    0    0  0.00000000000E+00  0.00000000000E+00  0.27282950659E+03  0.15248382844E+04  0.15002319334E+04 0.  0.
        5    1    3    3  502    0  0.19198111829E+03 -0.45604757231E+03 -0.43658321207E+03  0.65989630173E+03  0.46999998093E+01 0.  1.
       -5    1    3    3    0  502 -0.19198111829E+03  0.45604757231E+03  0.70941271866E+03  0.86494198267E+03  0.46999998093E+01 0. -1.
</event>
<event>
 5   0  0.3030702E-05  0.1499685E+04  0.7818609E-02  0.8884662E-01
       -2   -1    0    0    0  501  0.00000000000E+00  0.00000000000E+00  0.78388909897E+03  0.78388909898E+03  0.25500000920E-02 0.  1.
        2   -1    0    0  501    0  0.00000000000E+00  0.00000000000E+00 -0.71727510924E+03  0.71727510924E+03  0.25500000920E-02 0. -1.
    10030    2    1    2    0    0  0.00000000000E+00  0.00000000000E+00  0.66613989736E+02  0.15011642082E+04  0.14996854858E+04 0.  0.
        5    1    3    3  502    0  0.64502707812E+03  0.29179999606E+03 -0.21398898704E+03  0.73960837325E+03  0.46999998093E+01 0. -1.
       -5    1    3    3    0  502 -0.64502707812E+03 -0.29179999606E+03  0.28060297678E+03  0.76155583497E+03  0.46999998093E+01 0.  1.
</event>
<event>
 5   0  0.1580078E-05  0.1499595E+04  0.7818609E-02  0.8884722E-01
        1   -1    0    0  501    0  0.00000000000E+00  0.00000000000E+00  0.14613240202E+04  0.14613240203E+04  0.50400001928E-02 0.  1.
       -1   -1    0    0    0  501  0.00000000000E+00  0.00000000000E+00 -0.38471693461E+03  0.38471693465E+03  0.50400001928E-02 0. -1.
    10030    2    1    2    0    0  0.00000000000E+00  0.00000000000E+00  0.10766070856E+04  0.18460409549E+04  0.14995947420E+04 0.  0.
        2    1    3    3  502    0 -0.47628206033E+03  0.33590952675E+03  0.11189988608E+04  0.12616807289E+04  0.25500000920E-02 0. -1.
       -2    1    3    3    0  502  0.47628206033E+03 -0.33590952675E+03 -0.42391775160E+02  0.58436022603E+03  0.25500000920E-02 0.  1.
</event>
<event>
 5   0  0.3093600E-05  0.1501505E+04  0.7818609E-02  0.8883452E-01
        2   -1    0    0  501    0  0.00000000000E+00  0.00000000000E+00  0.86181044059E+03  0.86181044060E+03  0.25500000920E-02 0.  1.
       -2   -1    0    0    0  501  0.00000000000E+00  0.00000000000E+00 -0.65400650812E+03  0.65400650813E+03  0.25500000920E-02 0. -1.
    10030    2    1    2    0    0  0.00000000000E+00  0.00000000000E+00  0.20780393247E+03  0.15158169487E+04  0.15015054271E+04 0.  0.
        1    1    3    3  502    0  0.40899632612E+03  0.17115492972E+03  0.71552943504E+03  0.84175672090E+03  0.50400001928E-02 0.  1.
       -1    1    3    3    0  502 -0.40899632612E+03 -0.17115492972E+03 -0.50772550257E+03  0.67406022782E+03  0.50400001928E-02 0. -1.
</event>
<event>
 5   0  0.1533777E-05  0.1500183E+04  0.7818609E-02  0.8884331E-01
       -1   -1    0    0    0  501  0.00000000000E+00  0.00000000000E+00  0.35312630175E+03  0.35312630179E+03  0.50400001928E-02 0. -1.
        1   -1    0    0  501    0  0.00000000000E+00  0.00000000000E+00 -0.15933032855E+04  0.15933032855E+04  0.50400001928E-02 0.  1.
    10030    2    1    2    0    0  0.00000000000E+00  0.00000000000E+00 -0.12401769837E+04  0.19464295873E+04  0.15001830512E+04 0.  0.
        5    1    3    3  502    0 -0.23746283264E+03 -0.62319719820E+03 -0.17467571844E+03  0.68941790036E+03  0.46999998093E+01 0. -1.
       -5    1    3    3    0  502  0.23746283264E+03  0.62319719820E+03 -0.10655012653E+04  0.12570116869E+04  0.46999998093E+01 0.  1.
</event>
<event>
 5   0  0.1580078E-05  0.1496765E+04  0.7818609E-02  0.8886607E-01
       -1   -1    0    0    0  501  0.00000000000E+00  0.00000000000E+00  0.64228997745E+03  0.64228997747E+03  0.50400001928E-02 0.  1.
        1   -1    0    0  501    0  0.00000000000E+00  0.00000000000E+00 -0.87199945235E+03  0.87199945236E+03  0.50400001928E-02 0. -1.
    10030    2    1    2    0    0  0.00000000000E+00  0.00000000000E+00 -0.22970947489E+03  0.15142894298E+04  0.14967651901E+04 0.  0.
        2    1    3    3  502    0 -0.56237285420E+03  0.48530606960E+03 -0.20697741205E+03  0.77111922388E+03  0.25500000920E-02 0. -1.
       -2    1    3    3    0  502  0.56237285420E+03 -0.48530606960E+03 -0.22732062844E+02  0.74317020595E+03  0.25500000920E-02 0.  1.
</event>
<event>
 5   0  0.3018308E-05  0.1500803E+04  0.7818609E-02  0.8883919E-01
        2   -1    0    0  501    0  0.00000000000E+00  0.00000000000E+00  0.12201105023E+04  0.12201105023E+04  0.25500000920E-02 0. -1.
       -2   -1    0    0    0  501  0.00000000000E+00  0.00000000000E+00 -0.46151730636E+03  0.46151730637E+03  0.25500000920E-02 0.  1.
    10030    2    1    2    0    0  0.00000000000E+00  0.00000000000E+00  0.75859319593E+03  0.16816278087E+04  0.15008026019E+04 0.  0.
        2    1    3    3  502    0  0.19045048310E+03  0.33341794067E+03  0.11016955319E+04  0.11666927422E+04  0.25500000920E-02 0. -1.
       -2    1    3    3    0  502 -0.19045048310E+03 -0.33341794067E+03 -0.34310233600E+03  0.51493506644E+03  0.25500000920E-02 0.  1.
</event>
<event>
 5   0  0.3018308E-05  0.1502022E+04  0.7818609E-02  0.8883109E-01
       -2   -1    0    0    0  501  0.00000000000E+00  0.00000000000E+00  0.59697865422E+03  0.59697865422E+03  0.25500000920E-02 0. -1.
        2   -1    0    0  501    0  0.00000000000E+00  0.00000000000E+00 -0.94478696522E+03  0.94478696522E+03  0.25500000920E-02 0.  1.
    10030    2    1    2    0    0  0.00000000000E+00  0.00000000000E+00 -0.34780831100E+03  0.15417656194E+04  0.15020221716E+04 0.  0.
        2    1    3    3  502    0  0.40963214401E+03  0.31710003120E+02 -0.81919866853E+03  0.91645538693E+03  0.25500000920E-02 0.  1.
       -2    1    3    3    0  502 -0.40963214401E+03 -0.31710003120E+02  0.47139035753E+03  0.62531023251E+03  0.25500000920E-02 0. -1.
</event>
<event>
 5   0  0.3070497E-05  0.1500049E+04  0.7818609E-02  0.8884420E-01
        2   -1    0    0  501    0  0.00000000000E+00  0.00000000000E+00  0.92219106951E+03  0.92219106951E+03  0.25500000920E-02 0.  1.
       -2   -1    0    0    0  501  0.00000000000E+00  0.00000000000E+00 -0.61000013626E+03  0.61000013627E+03  0.25500000920E-02 0. -1.
    10030    2    1    2    0    0  0.00000000000E+00  0.00000000000E+00  0.31219093324E+03  0.15321912058E+04  0.15000489033E+04 0.  0.
        4    1    3    3  502    0 -0.48622418691E+03  0.36689602322E+03 -0.29089831004E+03  0.67501858602E+03  0.12699999809E+01 0. -1.
       -4    1    3    3    0  502  0.48622418691E+03 -0.36689602322E+03  0.60308924328E+03  0.85717261975E+03  0.12699999809E+01 0.  1.
</event>
<event>
 5   0  0.3018308E-05  0.1500527E+04  0.7818609E-02  0.8884103E-01
       -2   -1    0    0    0  501  0.00000000000E+00  0.00000000000E+00  0.77566962293E+03  0.77566962294E+03  0.25500000920E-02 0.  1.
        2   -1    0    0  501    0  0.00000000000E+00  0.00000000000E+00 -0.72568921236E+03  0.72568921237E+03  0.25500000920E-02 0. -1.
    10030    2    1    2    0    0  0.00000000000E+00  0.00000000000E+00  0.49980410571E+02  0.15013588353E+04  0.15005266778E+04 0.  0.
        2    1    3    3  502    0  0.70524245794E+02  0.55727972180E+03  0.52261974351E+03  0.76724556297E+03  0.25500000920E-02 0.  1.
       -2    1    3    3    0  502 -0.70524245794E+02 -0.55727972180E+03 -0.47263933294E+03  0.73411327234E+03  0.25500000920E-02 0. -1.
</event>
<event>
 5   0  0.3018308E-05  0.1500122E+04  0.7818609E-02  0.8884372E-01
       -2   -1    0    0    0  501  0.00000000000E+00  0.00000000000E+00  0.81782069384E+03  0.81782069385E+03  0.25500000920E-02 0. -1.
        2   -1    0    0  501    0  0.00000000000E+00  0.00000000000E+00 -0.68791554880E+03  0.68791554880E+03  0.25500000920E-02 0.  1.
    10030    2    1    2    0    0  0.00000000000E+00  0.00000000000E+00  0.12990514505E+03  0.15057362426E+04  0.15001220903E+04 0.  0.
        2    1    3    3  502    0 -0.37579281105E+03  0.49018643548E+03  0.49209021349E+03  0.78971878323E+03  0.25500000920E-02 0. -1.
       -2    1    3    3    0  502  0.37579281105E+03 -0.49018643548E+03 -0.36218506845E+03  0.71601745941E+03  0.25500000920E-02 0.  1.
</event>
<event>
 5   0  0.2969498E-05  0.1501456E+04  0.7818609E-02  0.8883485E-01
       -2   -1    0    0    0  501  0.00000000000E+00  0.00000000000E+00  0.15887706379E+04  0.15887706379E+04  0.25500000920E-02 0.  1.
        2   -1    0    0  501    0  0.00000000000E+00  0.00000000000E+00 -0.35473514512E+03  0.35473514513E+03  0.25500000920E-02 0. -1.
    10030    2    1    2    0    0  0.00000000000E+00  0.00000000000E+00  0.12340354928E+04  0.19435057831E+04  0.15014563368E+04 0.  0.
        3    1    3    3  502    0 -0.39921992261E+03  0.63320076538E+03  0.69107152846E+03  0.10187735880E+04  0.10100000352E+00 0. -1.
       -3    1    3    3    0  502  0.39921992261E+03 -0.63320076538E+03  0.54296396435E+03  0.92473219511E+03  0.10100000352E+00 0.  1.
</event>
<event>
 5   0  0.1643498E-05  0.1499813E+04  0.7818609E-02  0.8884578E-01
       -1   -1    0    0    0  501  0.00000000000E+00  0.00000000000E+00  0.51793738264E+03  0.51793738267E+03  0.50400001928E-02 0. -1.
        1   -1    0    0  501    0  0.00000000000E+00  0.00000000000E+00 -0.10857673252E+04  0.10857673253E+04  0.50400001928E-02 0.  1.
    10030    2    1    2    0    0  0.00000000000E+00  0.00000000000E+00 -0.56782994260E+03  0.16037047079E+04  0.14998126371E+04 0.  0.
        4    1    3    3  502    0 -0.28347980687E+03  0.40886999582E+03 -0.88387208593E+03  0.10142814952E+04  0.12699999809E+01 0.  1.
       -4    1    3    3    0  502  0.28347980687E+03 -0.40886999582E+03  0.31604214333E+03  0.58942321268E+03  0.12699999809E+01 0. -1.
</event>
<event>
 5   0  0.1576214E-05  0.1499144E+04  0.7818609E-02  0.8885022E-01
       -1   -1    0    0    0  501  0.00000000000E+00  0.00000000000E+00  0.43905436725E+03  0.43905436728E+03  0.50400001928E-02 0.  1.
        1   -1    0    0  501    0  0.00000000000E+00  0.00000000000E+00 -0.12797013979E+04  0.12797013979E+04  0.50400001928E-02 0. -1.
    10030    2    1    2    0    0  0.00000000000E+00  0.00000000000E+00 -0.84064703064E+03  0.17187557652E+04  0.14991444061E+04 0.  0.
        1    1    3    3  502    0 -0.50338801316E+03  0.40041860897E+03 -0.86157209180E+03  0.10751934819E+04  0.50400001928E-02 0. -1.
       -1    1    3    3    0  502  0.50338801316E+03 -0.40041860897E+03  0.20925061162E+02  0.64356228325E+03  0.50400001928E-02 0.  1.
</event>
<event>
 5   0  0.1588657E-05  0.1500183E+04  0.7818609E-02  0.8884331E-01
       -1   -1    0    0    0  501  0.00000000000E+00  0.00000000000E+00  0.88551604964E+03  0.88551604965E+03  0.50400001928E-02 0. -1.
        1   -1    0    0  501    0  0.00000000000E+00  0.00000000000E+00 -0.63537773276E+03  0.63537773278E+03  0.50400001928E-02 0.  1.
    10030    2    1    2    0    0  0.00000000000E+00  0.00000000000E+00  0.25013831687E+03  0.15208937824E+04  0.15001828955E+04 0.  0.
        3    1    3    3  502    0  0.97333731287E+02  0.38394477625E+03  0.77084796958E+03  0.86665682301E+03  0.10100000352E+00 0. -1.
       -3    1    3    3    0  502 -0.97333731287E+02 -0.38394477625E+03 -0.52070965271E+03  0.65423695943E+03  0.10100000352E+00 0.  1.
</event>
<event>
 5   0  0.1580078E-05  0.1496670E+04  0.7818609E-02  0.8886670E-01
        1   -1    0    0  501    0  0.00000000000E+00  0.00000000000E+00  0.10972325018E+04  0.10972325018E+04  0.50400001928E-02 0.  1.
       -1   -1    0    0    0  501  0.00000000000E+00  0.00000000000E+00 -0.51037984314E+03  0.51037984316E+03  0.50400001928E-02 0. -1.
    10030    2    1    2    0    0  0.00000000000E+00  0.00000000000E+00  0.58685265867E+03  0.16076123450E+04  0.14966701069E+04 0.  0.
        2    1    3    3  502    0  0.45174710096E+03  0.28139552581E+03 -0.27163591571E+03  0.59753238898E+03  0.25500000920E-02 0. -1.
       -2    1    3    3    0  502 -0.45174710096E+03 -0.28139552581E+03  0.85848857438E+03  0.10100799560E+04  0.25500000920E-02 0.  1.
</event>
<event>
 5   0  0.1576214E-05  0.1499811E+04  0.7818609E-02  0.8884579E-01
        1   -1    0    0  501    0  0.00000000000E+00  0.00000000000E+00  0.12155059834E+04  0.12155059834E+04  0.50400001928E-02 0.  1.
       -1   -1    0    0    0  501  0.00000000000E+00  0.00000000000E+00 -0.46265353659E+03  0.46265353662E+03  0.50400001928E-02 0. -1.
    10030    2    1    2    0    0  0.00000000000E+00  0.00000000000E+00  0.75285244680E+03  0.16781595200E+04  0.14998108441E+04 0.  0.
        1    1    3    3  502    0  0.19764679997E+03 -0.65172709503E+03  0.72767558424E+03  0.99665652050E+03  0.50400001928E-02 0. -1.
       -1    1    3    3    0  502 -0.19764679997E+03  0.65172709503E+03  0.25176862561E+02  0.68150299953E+03  0.50400001928E-02 0.  1.
</event>
<event>
 5   0  0.3070497E-05  0.1499442E+04  0.7818609E-02  0.8884824E-01
       -2   -1    0    0    0  501  0.00000000000E+00  0.00000000000E+00  0.55520910181E+03  0.55520910181E+03  0.25500000920E-02 0.  1.
        2   -1    0    0  501    0  0.00000000000E+00  0.00000000000E+00 -0.10123784467E+04  0.10123784467E+04  0.25500000920E-02 0. -1.
    10030    2    1    2    0    0  0.00000000000E+00  0.00000000000E+00 -0.45716934487E+03  0.15675875485E+04  0.14994422004E+04 0.  0.
        4    1    3    3  502    0 -0.38044609764E+03 -0.10749227085E+03  0.43737934194E+03  0.58957283109E+03  0.12699999809E+01 0.  1.
       -4    1    3    3    0  502  0.38044609764E+03  0.10749227085E+03 -0.89454868681E+03  0.97801471741E+03  0.12699999809E+01 0. -1.
</event>
<event>
 5   0  0.3070497E-05  0.1500872E+04  0.7818609E-02  0.8883873E-01
        2   -1    0    0  501    0  0.00000000000E+00  0.00000000000E+00  0.61356493943E+03  0.61356493944E+03  0.25500000920E-02 0.  1.
       -2   -1    0    0    0  501  0.00000000000E+00  0.00000000000E+00 -0.91783953193E+03  0.91783953193E+03  0.25500000920E-02 0. -1.
    10030    2    1    2    0    0  0.00000000000E+00  0.00000000000E+00 -0.30427459249E+03  0.15314044714E+04  0.15008719557E+04 0.  0.
        4    1    3    3  502    0  0.74613862423E+03 -0.47263238796E+02 -0.21823067963E+03  0.77883432304E+03  0.12699999809E+01 0.  1.
       -4    1    3    3    0  502 -0.74613862423E+03  0.47263238796E+02 -0.86043912861E+02  0.75257014833E+03  0.12699999809E+01 0. -1.
</event>
<event>
 5   0  0.3018308E-05  0.1499398E+04  0.7818609E-02  0.8884853E-01
        2   -1    0    0  501    0  0.00000000000E+00  0.00000000000E+00  0.72415499603E+03  0.72415499603E+03  0.25500000920E-02 0.  1.
       -2   -1    0    0    0  501  0.00000000000E+00  0.00000000000E+00 -0.77614383096E+03  0.77614383096E+03  0.25500000920E-02 0. -1.
    10030    2    1    2    0    0  0.00000000000E+00  0.00000000000E+00 -0.51988834931E+02  0.15002988270E+04  0.14993977896E+04 0.  0.
        2    1    3    3  502    0  0.26011980138E+02 -0.24530905701E+03 -0.73437131340E+03  0.77469631632E+03  0.25500000920E-02 0. -1.
       -2    1    3    3    0  502 -0.26011980138E+02  0.24530905701E+03  0.68238247847E+03  0.72560251067E+03  0.25500000920E-02 0.  1.
</event>
<event>
 5   0  0.1116613E-05  0.1500245E+04  0.7818609E-02  0.8884290E-01
       -3   -1    0    0    0  501  0.00000000000E+00  0.00000000000E+00  0.64581621086E+03  0.64581621876E+03  0.10100000352E+00 0.  1.
        3   -1    0    0  501    0  0.00000000000E+00  0.00000000000E+00 -0.87127569423E+03  0.87127570008E+03  0.10100000352E+00 0. -1.
    10030    2    1    2    0    0  0.00000000000E+00  0.00000000000E+00 -0.22545948337E+03  0.15170919188E+04  0.15002452838E+04 0.  0.
        2    1    3    3  502    0  0.30352686897E+03  0.64318948180E+03  0.12840700362E+03  0.72270991986E+03  0.25500000920E-02 0.  1.
       -2    1    3    3    0  502 -0.30352686897E+03 -0.64318948180E+03 -0.35386648699E+03  0.79438199898E+03  0.25500000920E-02 0. -1.
</event>
<event>
 5   0  0.1643498E-05  0.1499734E+04  0.7818609E-02  0.8884630E-01
        1   -1    0    0  501    0  0.00000000000E+00  0.00000000000E+00  0.36563544047E+03  0.36563544051E+03  0.50400001928E-02 0.  1.
       -1   -1    0    0    0  501  0.00000000000E+00  0.00000000000E+00 -0.15378711237E+04  0.15378711237E+04  0.50400001928E-02 0. -1.
    10030    2    1    2    0    0  0.00000000000E+00  0.00000000000E+00 -0.11722356832E+04  0.19035065642E+04  0.14997335573E+04 0.  0.
        4    1    3    3  502    0 -0.42416183172E+02 -0.54153868273E+03  0.70008053701E+02  0.54769153542E+03  0.12699999809E+01 0.  1.
       -4    1    3    3    0  502  0.42416183172E+02  0.54153868273E+03 -0.12422437369E+04  0.13558150288E+04  0.12699999809E+01 0. -1.
</event>
<event>
 5   0  0.1588657E-05  0.1500506E+04  0.7818609E-02  0.8884117E-01
        1   -1    0    0  501    0  0.00000000000E+00  0.00000000000E+00  0.18015345329E+04  0.18015345329E+04  0.50400001928E-02 0. -1.
       -1   -1    0    0    0  501  0.00000000000E+00  0.00000000000E+00 -0.31244436384E+03  0.31244436388E+03  0.50400001928E-02 0.  1.
    10030    2    1    2    0    0  0.00000000000E+00  0.00000000000E+00  0.14890901691E+04  0.21139788968E+04  0.15005056629E+04 0.  0.
        3    1    3    3  502    0 -0.74005190607E+03  0.92511626422E+02  0.62970848819E+03  0.97609836339E+03  0.10100000352E+00 0.  1.
       -3    1    3    3    0  502  0.74005190607E+03 -0.92511626422E+02  0.85938168089E+03  0.11378805334E+04  0.10100000352E+00 0. -1.
</event>
<event>
 5   0  0.1643498E-05  0.1499866E+04  0.7818609E-02  0.8884542E-01
        1   -1    0    0  501    0  0.00000000000E+00  0.00000000000E+00  0.85796114466E+03  0.85796114468E+03  0.50400001928E-02 0.  1.
       -1   -1    0    0    0  501  0.00000000000E+00  0.00000000000E+00 -0.65550735347E+03  0.65550735349E+03  0.50400001928E-02 0. -1.
    10030    2    1    2    0    0  0.00000000000E+00  0.00000000000E+00  0.20245379119E+03  0.15134684982E+04  0.14998664465E+04 0.  0.
        4    1    3    3  502    0 -0.56330564315E+02  0.56301481899E+02  0.85368056414E+03  0.85738853959E+03  0.12699999809E+01 0.  1.
       -4    1    3    3    0  502  0.56330564315E+02 -0.56301481899E+02 -0.65122677295E+03  0.65607995857E+03  0.12699999809E+01 0. -1.
</event>
<event>
 5   0  0.1643498E-05  0.1500784E+04  0.7818609E-02  0.8883932E-01
       -1   -1    0    0    0  501  0.00000000000E+00  0.00000000000E+00  0.68053860269E+03  0.68053860271E+03  0.50400001928E-02 0. -1.
        1   -1    0    0  501    0  0.00000000000E+00  0.00000000000E+00 -0.82741492367E+03  0.82741492369E+03  0.50400001928E-02 0.  1.
    10030    2    1    2    0    0  0.00000000000E+00  0.00000000000E+00 -0.14687632098E+03  0.15079535264E+04  0.15007835234E+04 0.  0.
        4    1    3    3  502    0 -0.16380493674E+03  0.30251861062E+03  0.59663364992E+03  0.68871103678E+03  0.12699999809E+01 0. -1.
       -4    1    3    3    0  502  0.16380493674E+03 -0.30251861062E+03 -0.74350997089E+03  0.81924248961E+03  0.12699999809E+01 0.  1.
</event>
<event>
 5   0  0.2969498E-05  0.1499197E+04  0.7818609E-02  0.8884987E-01
        2   -1    0    0  501    0  0.00000000000E+00  0.00000000000E+00  0.10095948685E+04  0.10095948685E+04  0.25500000920E-02 0. -1.
       -2   -1    0    0    0  501  0.00000000000E+00  0.00000000000E+00 -0.55655776156E+03  0.55655776157E+03  0.25500000920E-02 0.  1.
    10030    2    1    2    0    0  0.00000000000E+00  0.00000000000E+00  0.45303710691E+03  0.15661526300E+04  0.14991969318E+04 0.  0.
        3    1    3    3  502    0  0.11388481179E+02  0.60613754823E+03  0.68707716328E+03  0.91630096769E+03  0.10100000352E+00 0. -1.
       -3    1    3    3    0  502 -0.11388481179E+02 -0.60613754823E+03 -0.23404005637E+03  0.64985166235E+03  0.10100000352E+00 0.  1.
</event>
<event>
 5   0  0.3018308E-05  0.1500358E+04  0.7818609E-02  0.8884215E-01
       -2   -1    0    0    0  501  0.00000000000E+00  0.00000000000E+00  0.42031237588E+03  0.42031237589E+03  0.25500000920E-02 0.  1.
        2   -1    0    0  501    0  0.00000000000E+00  0.00000000000E+00 -0.13389294501E+04  0.13389294501E+04  0.25500000920E-02 0. -1.
    10030    2    1    2    0    0  0.00000000000E+00  0.00000000000E+00 -0.91861707420E+03  0.17592418260E+04  0.15003581150E+04 0.  0.
        2    1    3    3  502    0 -0.32545004583E+03  0.63425247619E+03 -0.73323009867E+03  0.10226535647E+04  0.25500000920E-02 0. -1.
       -2    1    3    3    0  502  0.32545004583E+03 -0.63425247619E+03 -0.18538697552E+03  0.73658826123E+03  0.25500000920E-02 0.  1.
</event>
<event>
 5   0  0.2969498E-05  0.1499591E+04  0.7818609E-02  0.8884725E-01
       -2   -1    0    0    0  501  0.00000000000E+00  0.00000000000E+00  0.41049688978E+03  0.41049688978E+03  0.25500000920E-02 0. -1.
        2   -1    0    0  501    0  0.00000000000E+00  0.00000000000E+00 -0.13695430518E+04  0.13695430518E+04  0.25500000920E-02 0.  1.
    10030    2    1    2    0    0  0.00000000000E+00  0.00000000000E+00 -0.95904616207E+03  0.17800399416E+04  0.14995908285E+04 0.  0.
        3    1    3    3  502    0 -0.56380887404E+02  0.74364769995E+03 -0.57148777611E+03  0.93956851509E+03  0.10100000352E+00 0. -1.
       -3    1    3    3    0  502  0.56380887404E+02 -0.74364769995E+03 -0.38755838596E+03  0.84047142654E+03  0.10100000352E+00 0.  1.
</event>
<event>
 5   0  0.3030702E-05  0.1500112E+04  0.7818609E-02  0.8884378E-01
       -2   -1    0    0    0  501  0.00000000000E+00  0.00000000000E+00  0.40487705661E+03  0.40487705662E+03  0.25500000920E-02 0. -1.
        2   -1    0    0  501    0  0.00000000000E+00  0.00000000000E+00 -0.13895186535E+04  0.13895186535E+04  0.25500000920E-02 0.  1.
    10030    2    1    2    0    0  0.00000000000E+00  0.00000000000E+00 -0.98464159688E+03  0.17943957101E+04  0.15001122925E+04 0.  0.
        5    1    3    3  502    0  0.51810713518E+03  0.11032173881E+03 -0.11274839720E+04  0.12457319481E+04  0.46999998093E+01 0.  1.
       -5    1    3    3    0  502 -0.51810713518E+03 -0.11032173881E+03  0.14284237509E+03  0.54866376197E+03  0.46999998093E+01 0. -1.
</event>
<event>
 5   0  0.1533777E-05  0.1499956E+04  0.7818609E-02  0.8884482E-01
       -1   -1    0    0    0  501  0.00000000000E+00  0.00000000000E+00  0.90023822708E+03  0.90023822710E+03  0.50400001928E-02 0. -1.
        1   -1    0    0  501    0  0.00000000000E+00  0.00000000000E+00 -0.62479762941E+03  0.62479762943E+03  0.50400001928E-02 0.  1.
    10030    2    1    2    0    0  0.00000000000E+00  0.00000000000E+00  0.27544059767E+03  0.15250358565E+04  0.14999556130E+04 0.  0.
        5    1    3    3  502    0 -0.13120396612E+03 -0.53728425637E+03 -0.37726228083E+03  0.66950561716E+03  0.46999998093E+01 0.  1.
       -5    1    3    3    0  502  0.13120396612E+03  0.53728425637E+03  0.65270287851E+03  0.85553023937E+03  0.46999998093E+01 0. -1.
</event>
<event>
 5   0  0.1580078E-05  0.1500403E+04  0.7818609E-02  0.8884185E-01
       -1   -1    0    0    0  501  0.00000000000E+00  0.00000000000E+00  0.35209177459E+03  0.35209177463E+03  0.50400001928E-02 0.  1.
        1   -1    0    0  501    0  0.00000000000E+00  0.00000000000E+00 -0.15984534993E+04  0.15984534993E+04  0.50400001928E-02 0. -1.
    10030    2    1    2    0    0  0.00000000000E+00  0.00000000000E+00 -0.12463617247E+04  0.19505452740E+04  0.15004030515E+04 0.  0.
        2    1    3    3  502    0  0.32767517599E+02 -0.33534311123E+03  0.24819104480E+03  0.41848238576E+03  0.25500000920E-02 0.  1.
       -2    1    3    3    0  502 -0.32767517599E+02  0.33534311123E+03 -0.14945527695E+04  0.15320628882E+04  0.25500000920E-02 0. -1.
</event>
<event>
 5   0  0.1533777E-05  0.1500031E+04  0.7818609E-02  0.8884432E-01
        1   -1    0    0  501    0  0.00000000000E+00  0.00000000000E+00  0.80225923795E+03  0.80225923797E+03  0.50400001928E-02 0. -1.
       -1   -1    0    0    0  501  0.00000000000E+00  0.00000000000E+00 -0.70117374448E+03  0.70117374450E+03  0.50400001928E-02 0.  1.
    10030    2    1    2    0    0  0.00000000000E+00  0.00000000000E+00  0.10108549347E+03  0.15034329825E+04  0.15000308183E+04 0.  0.
        5    1    3    3  502    0  0.83852078810E+02 -0.72794097818E+03  0.21081724093E+03  0.76249277892E+03  0.46999998093E+01 0. -1.
       -5    1    3    3    0  502 -0.83852078810E+02  0.72794097818E+03 -0.10973174746E+03  0.74094020355E+03  0.46999998093E+01 0.  1.
</event>
<event>
 5   0  0.3018308E-05  0.1500039E+04  0.7818609E-02  0.8884427E-01
        2   -1    0    0  501    0  0.00000000000E+00  0.00000000000E+00  0.79063723635E+03  0.79063723636E+03  0.25500000920E-02 0.  1.
       -2   -1    0    0    0  501  0.00000000000E+00  0.00000000000E+00 -0.71148813361E+03  0.71148813362E+03  0.25500000920E-02 0. -1.
    10030    2    1    2    0    0  0.00000000000E+00  0.00000000000E+00  0.79149102738E+02  0.15021253700E+04  0.15000386817E+04 0.  0.
        2    1    3    3  502    0  0.34303008113E+03 -0.23279898367E+03  0.66547523166E+03  0.78404227393E+03  0.25500000920E-02 0.  1.
       -2    1    3    3    0  502 -0.34303008113E+03  0.23279898367E+03 -0.58632612892E+03  0.71808309604E+03  0.25500000920E-02 0. -1.
</event>
<event>
 5   0  0.3093600E-05  0.1501524E+04  0.7818609E-02  0.8883440E-01
       -2   -1    0    0    0  501  0.00000000000E+00  0.00000000000E+00  0.26228799007E+03  0.26228799008E+03  0.25500000920E-02 0.  1.
        2   -1    0    0  501    0  0.00000000000E+00  0.00000000000E+00 -0.21489479322E+04  0.21489479322E+04  0.25500000920E-02 0. -1.
    10030    2    1    2    0    0  0.00000000000E+00  0.00000000000E+00 -0.18866599421E+04  0.24112359223E+04  0.15015235382E+04 0.  0.
        1    1    3    3  502    0 -0.61630697923E+03 -0.37118242291E+03 -0.12878703111E+04  0.14752018919E+04  0.50400001928E-02 0. -1.
       -1    1    3    3    0  502  0.61630697923E+03  0.37118242291E+03 -0.59878963106E+03  0.93603403038E+03  0.50400001928E-02 0.  1.
</event>
<event>
 5   0  0.3093600E-05  0.1499837E+04  0.7818609E-02  0.8884561E-01
        2   -1    0    0  501    0  0.00000000000E+00  0.00000000000E+00  0.13749076267E+04  0.13749076267E+04  0.25500000920E-02 0. -1.
       -2   -1    0    0    0  501  0.00000000000E+00  0.00000000000E+00 -0.40902934826E+03  0.40902934826E+03  0.25500000920E-02 0.  1.
    10030    2    1    2    0    0  0.00000000000E+00  0.00000000000E+00  0.96587827848E+03  0.17839369750E+04  0.14998367518E+04 0.  0.
        1    1    3    3  502    0  0.58881956171E+03  0.29121249898E+03  0.91321425772E+03  0.11249326541E+04  0.50400001928E-02 0. -1.
       -1    1    3    3    0  502 -0.58881956171E+03 -0.29121249898E+03  0.52664020756E+02  0.65900432086E+03  0.50400001928E-02 0.  1.
</event>
<event>
 5   0  0.2969498E-05  0.1500203E+04  0.7818609E-02  0.8884318E-01
       -2   -1    0    0    0  501  0.00000000000E+00  0.00000000000E+00  0.33730262306E+03  0.33730262307E+03  0.25500000920E-02 0. -1.
        2   -1    0    0  501    0  0.00000000000E+00  0.00000000000E+00 -0.16680937732E+04  0.16680937732E+04  0.25500000920E-02 0.  1.
    10030    2    1    2    0    0  0.00000000000E+00  0.00000000000E+00 -0.13307911501E+04  0.20053963962E+04  0.15002031932E+04 0.  0.
        3    1    3    3  502    0 -0.32171940125E+03  0.23358639996E+03  0.18487234355E+03  0.43845612437E+03  0.10100000352E+00 0. -1.
       -3    1    3    3    0  502  0.32171940125E+03 -0.23358639996E+03 -0.15156634937E+04  0.15669402719E+04  0.10100000352E+00 0.  1.
</event>
<event>
 5   0  0.1643498E-05  0.1500882E+04  0.7818609E-02  0.8883867E-01
        1   -1    0    0  501    0  0.00000000000E+00  0.00000000000E+00  0.80376197985E+03  0.80376197986E+03  0.50400001928E-02 0.  1.
       -1   -1    0    0    0  501  0.00000000000E+00  0.00000000000E+00 -0.70065744974E+03  0.70065744976E+03  0.50400001928E-02 0. -1.
    10030    2    1    2    0    0  0.00000000000E+00  0.00000000000E+00  0.10310453011E+03  0.15044194296E+04  0.15008821660E+04 0.  0.
        4    1    3    3  502    0 -0.25786753678E+03  0.22932016635E+03  0.71951368519E+03  0.79798807090E+03  0.12699999809E+01 0.  1.
       -4    1    3    3    0  502  0.25786753678E+03 -0.22932016635E+03 -0.61640915508E+03  0.70643135872E+03  0.12699999809E+01 0. -1.
</event>
<event>
 5   0  0.2969498E-05  0.1499867E+04  0.7818609E-02  0.8884541E-01
        2   -1    0    0  501    0  0.00000000000E+00  0.00000000000E+00  0.14349623071E+04  0.14349623071E+04  0.25500000920E-02 0.  1.
       -2   -1    0    0    0  501  0.00000000000E+00  0.00000000000E+00 -0.39192695977E+03  0.39192695977E+03  0.25500000920E-02 0. -1.
    10030    2    1    2    0    0  0.00000000000E+00  0.00000000000E+00  0.10430353473E+04  0.18268892669E+04  0.14998672133E+04 0.  0.
        3    1    3    3  502    0 -0.43100708573E+03 -0.21708601302E+03 -0.17766669157E+03  0.51425568397E+03  0.10100000352E+00 0. -1.
       -3    1    3    3    0  502  0.43100708573E+03  0.21708601302E+03  0.12207020389E+04  0.13126335829E+04  0.10100000352E+00 0.  1.
</event>
<event>
 5   0  0.1580078E-05  0.1499967E+04  0.7818609E-02  0.8884475E-01
        1   -1    0    0  501    0  0.00000000000E+00  0.00000000000E+00  0.90259642502E+03  0.90259642503E+03  0.50400001928E-02 0. -1.
       -1   -1    0    0    0  501  0.00000000000E+00  0.00000000000E+00 -0.62317479619E+03  0.62317479621E+03  0.50400001928E-02 0.  1.
    10030    2    1    2    0    0  0.00000000000E+00  0.00000000000E+00  0.27942162883E+03  0.15257712212E+04  0.14999671239E+04 0.  0.
        2    1    3    3  502    0 -0.95885000041E+02 -0.57805540748E+03 -0.33645906865E+03  0.67568239006E+03  0.25500000920E-02 0.  1.
       -2    1    3    3    0  502  0.95885000041E+02  0.57805540748E+03  0.61588069749E+03  0.85008883118E+03  0.25500000920E-02 0. -1.
</event>
<event>
 5   0  0.1116613E-05  0.1500251E+04  0.7818609E-02  0.8884286E-01
        4   -1    0    0  501    0  0.00000000000E+00  0.00000000000E+00  0.36927330564E+03  0.36927548952E+03  0.12699999809E+01 0.  1.
       -4   -1    0    0    0  501  0.00000000000E+00  0.00000000000E+00 -0.15237657578E+04  0.15237662871E+04  0.12699999809E+01 0. -1.
    10030    2    1    2    0    0  0.00000000000E+00  0.00000000000E+00 -0.11544924522E+04  0.18930417766E+04  0.15002514275E+04 0.  0.
        4    1    3    3  502    0  0.14165041411E+03 -0.42698020544E+03 -0.13346619735E+04  0.14084392539E+04  0.12699999809E+01 0. -1.
       -4    1    3    3    0  502 -0.14165041411E+03  0.42698020544E+03  0.18016952131E+03  0.48460252265E+03  0.12699999809E+01 0.  1.
</event>
<event>
 5   0  0.2969498E-05  0.1500155E+04  0.7818609E-02  0.8884350E-01
        2   -1    0    0  501    0  0.00000000000E+00  0.00000000000E+00  0.19139828625E+04  0.19139828625E+04  0.25500000920E-02 0. -1.
       -2   -1    0    0    0  501  0.00000000000E+00  0.00000000000E+00 -0.29395041082E+03  0.29395041084E+03  0.25500000920E-02 0.  1.
    10030    2    1    2    0    0  0.00000000000E+00  0.00000000000E+00  0.16200324516E+04  0.22079332733E+04  0.15001547237E+04 0.  0.
        3    1    3    3  502    0  0.40405488067E+03 -0.27010442880E+03 -0.30845321902E+02  0.48699917159E+03  0.10100000352E+00 0.  1.
       -3    1    3    3    0  502 -0.40405488067E+03  0.27010442880E+03  0.16508777735E+04  0.17209341017E+04  0.10100000352E+00 0. -1.
</event>
<event>
 5   0  0.1580078E-05  0.1499598E+04  0.7818609E-02  0.8884720E-01
        1   -1    0    0  501    0  0.00000000000E+00  0.00000000000E+00  0.42418241448E+03  0.42418241451E+03  0.50400001928E-02 0. -1.
       -1   -1    0    0    0  501  0.00000000000E+00  0.00000000000E+00 -0.13253700261E+04  0.13253700261E+04  0.50400001928E-02 0.  1.
    10030    2    1    2    0    0  0.00000000000E+00  0.00000000000E+00 -0.90118761164E+03  0.17495524406E+04  0.14995981566E+04 0.  0.
        2    1    3    3  502    0 -0.61465639387E+03 -0.37135625590E+03 -0.19903753993E+03  0.74520057275E+03  0.25500000920E-02 0. -1.
       -2    1    3    3    0  502  0.61465639387E+03  0.37135625590E+03 -0.70215007172E+03  0.10043518679E+04  0.25500000920E-02 0.  1.
</event>
<event>
 5   0  0.1580078E-05  0.1499956E+04  0.7818609E-02  0.8884482E-01
       -1   -1    0    0    0  501  0.00000000000E+00  0.00000000000E+00  0.72030346325E+03  0.72030346327E+03  0.50400001928E-02 0. -1.
        1   -1    0    0  501    0  0.00000000000E+00  0.00000000000E+00 -0.78087526403E+03  0.78087526405E+03  0.50400001928E-02 0.  1.
    10030    2    1    2    0    0  0.00000000000E+00  0.00000000000E+00 -0.60571800781E+02  0.15011787273E+04  0.14999562088E+04 0.  0.
        2    1    3    3  502    0 -0.16990769632E+03  0.11348738285E+02 -0.76127132196E+03  0.78008425492E+03  0.25500000920E-02 0.  1.
       -2    1    3    3    0  502  0.16990769632E+03 -0.11348738285E+02  0.70069952118E+03  0.72109447239E+03  0.25500000920E-02 0. -1.
</event>
<event>
 5   0  0.1533777E-05  0.1499429E+04  0.7818609E-02  0.8884833E-01
        1   -1    0    0  501    0  0.00000000000E+00  0.00000000000E+00  0.11132017734E+04  0.11132017734E+04  0.50400001928E-02 0. -1.
       -1   -1    0    0    0  501  0.00000000000E+00  0.00000000000E+00 -0.50491455739E+03  0.50491455742E+03  0.50400001928E-02 0.  1.
    10030    2    1    2    0    0  0.00000000000E+00  0.00000000000E+00  0.60828721597E+03  0.16181163308E+04  0.14994289322E+04 0.  0.
        5    1    3    3  502    0 -0.95265130331E+02 -0.47917995897E+03  0.91780323003E+03  0.10397469583E+04  0.46999998093E+01 0. -1.
       -5    1    3    3    0  502  0.95265130331E+02  0.47917995897E+03 -0.30951601406E+03  0.57836937254E+03  0.46999998093E+01 0.  1.
</event>
<event>
 5   0  0.3018308E-05  0.1499116E+04  0.7818609E-02  0.8885041E-01
        2   -1    0    0  501    0  0.00000000000E+00  0.00000000000E+00  0.12219946284E+04  0.12219946284E+04  0.25500000920E-02 0.  1.
       -2   -1    0    0    0  501  0.00000000000E+00  0.00000000000E+00 -0.45977045086E+03  0.45977045087E+03  0.25500000920E-02 0. -1.
    10030    2    1    2    0    0  0.00000000000E+00  0.00000000000E+00  0.76222417751E+03  0.16817650792E+04  0.14991157677E+04 0.  0.
        2    1    3    3  502    0  0.45890116875E+02 -0.31308667843E+03 -0.38116661652E+03  0.49539596344E+03  0.25500000920E-02 0. -1.
       -2    1    3    3    0  502 -0.45890116875E+02  0.31308667843E+03  0.11433907940E+04  0.11863691158E+04  0.25500000920E-02 0.  1.
</event>
<event>
 5   0  0.3018308E-05  0.1500507E+04  0.7818609E-02  0.8884116E-01
        2   -1    0    0  501    0  0.00000000000E+00  0.00000000000E+00  0.12587564941E+04  0.12587564941E+04  0.25500000920E-02 0. -1.
       -2   -1    0    0    0  501  0.00000000000E+00  0.00000000000E+00 -0.44717161838E+03  0.44717161839E+03  0.25500000920E-02 0.  1.
    10030    2    1    2    0    0  0.00000000000E+00  0.00000000000E+00  0.81158487570E+03  0.17059281125E+04  0.15005068192E+04 0.  0.
        2    1    3    3  502    0 -0.27499601424E+03  0.45743146222E+03  0.10052465608E+04  0.11381506924E+04  0.25500000920E-02 0. -1.
       -2    1    3    3    0  502  0.27499601424E+03 -0.45743146222E+03 -0.19366168514E+03  0.56777742009E+03  0.25500000920E-02 0.  1.
</event>
<event>
 5   0  0.1588657E-05  0.1500744E+04  0.7818609E-02  0.8883958E-01
        1   -1    0    0  501    0  0.00000000000E+00  0.00000000000E+00  0.15109931010E+04  0.15109931011E+04  0.50400001928E-02 0.  1.
       -1   -1    0    0    0  501  0.00000000000E+00  0.00000000000E+00 -0.37264127674E+03  0.37264127678E+03  0.50400001928E-02 0. -1.
    10030    2    1    2    0    0  0.00000000000E+00  0.00000000000E+00  0.11383518243E+04  0.18836343778E+04  0.15007443465E+04 0.  0.
        3    1    3    3  502    0 -0.53177559288E+03 -0.46597433633E+03  0.25378751973E+03  0.75121600001E+03  0.10100000352E+00 0. -1.
       -3    1    3    3    0  502  0.53177559288E+03  0.46597433633E+03  0.88456430458E+03  0.11324183778E+04  0.10100000352E+00 0.  1.
</event>
<event>
 5   0  0.3070497E-05  0.1499999E+04  0.7818609E-02  0.8884454E-01
        2   -1    0    0  501    0  0.00000000000E+00  0.00000000000E+00  0.66669630763E+03  0.66669630763E+03  0.25500000920E-02 0.  1.
       -2   -1    0    0    0  501  0.00000000000E+00  0.00000000000E+00 -0.84371093886E+03  0.84371093886E+03  0.25500000920E-02 0. -1.
    10030    2    1    2    0    0  0.00000000000E+00  0.00000000000E+00 -0.17701463123E+03  0.15104072465E+04  0.14999986235E+04 0.  0.
        4    1    3    3  502    0  0.66498514505E+02  0.27457927731E+03  0.61106648594E+03  0.67321593497E+03  0.12699999809E+01 0.  1.
       -4    1    3    3    0  502 -0.66498514505E+02 -0.27457927731E+03 -0.78808111717E+03  0.83719131152E+03  0.12699999809E+01 0. -1.
</event>
<event>
 5   0  0.1576214E-05  0.1499729E+04  0.7818609E-02  0.8884633E-01
       -1   -1    0    0    0  501  0.00000000000E+00  0.00000000000E+00  0.55348651874E+03  0.55348651876E+03  0.50400001928E-02 0. -1.
        1   -1    0    0  501    0  0.00000000000E+00  0.00000000000E+00 -0.10159178258E+04  0.10159178258E+04  0.50400001928E-02 0.  1.
    10030    2    1    2    0    0  0.00000000000E+00  0.00000000000E+00 -0.46243130706E+03  0.15694043446E+04  0.14997290699E+04 0.  0.
        1    1    3    3  502    0  0.47445769128E+03 -0.53924921454E+03 -0.45662245286E+03  0.85111919299E+03  0.50400001928E-02 0.  1.
       -1    1    3    3    0  502 -0.47445769128E+03  0.53924921454E+03 -0.58088542073E+01  0.71828515160E+03  0.50400001928E-02 0. -1.
</event>
<event>
 5   0  0.3018308E-05  0.1500430E+04  0.7818609E-02  0.8884167E-01
       -2   -1    0    0    0  501  0.00000000000E+00  0.00000000000E+00  0.60117389009E+03  0.60117389010E+03  0.25500000920E-02 0.  1.
        2   -1    0    0  501    0  0.00000000000E+00  0.00000000000E+00 -0.93620555623E+03  0.93620555623E+03  0.25500000920E-02 0. -1.
    10030    2    1    2    0    0  0.00000000000E+00  0.00000000000E+00 -0.33503166614E+03  0.15373794463E+04  0.15004297200E+04 0.  0.
        2    1    3    3  502    0  0.35037018978E+03  0.56413952936E+03  0.19009138323E+03  0.69075857755E+03  0.25500000920E-02 0.  1.
       -2    1    3    3    0  502 -0.35037018978E+03 -0.56413952936E+03 -0.52512304937E+03  0.84662086878E+03  0.25500000920E-02 0. -1.
</event>
<event>
 5   0  0.1588657E-05  0.1499510E+04  0.7818609E-02  0.8884779E-01
       -1   -1    0    0    0  501  0.00000000000E+00  0.00000000000E+00  0.68071411436E+03  0.68071411438E+03  0.50400001928E-02 0.  1.
        1   -1    0    0  501    0  0.00000000000E+00  0.00000000000E+00 -0.82579847471E+03  0.82579847473E+03  0.50400001928E-02 0. -1.
    10030    2    1    2    0    0  0.00000000000E+00  0.00000000000E+00 -0.14508436035E+03  0.15065125891E+04  0.14995101565E+04 0.  0.
        3    1    3    3  502    0 -0.40904053213E+01 -0.76099276188E+02  0.67681276516E+03  0.68108983294E+03  0.10100000352E+00 0.  1.
       -3    1    3    3    0  502  0.40904053213E+01  0.76099276188E+02 -0.82189712552E+03  0.82542275616E+03  0.10100000352E+00 0. -1.
</event>
<event>
 5   0  0.3093600E-05  0.1501447E+04  0.7818609E-02  0.8883491E-01
       -2   -1    0    0    0  501  0.00000000000E+00  0.00000000000E+00  0.45789007369E+03  0.45789007370E+03  0.25500000920E-02 0. -1.
        2   -1    0    0  501    0  0.00000000000E+00  0.00000000000E+00 -0.12308328412E+04  0.12308328412E+04  0.25500000920E-02 0.  1.
    10030    2    1    2    0    0  0.00000000000E+00  0.00000000000E+00 -0.77294276747E+03  0.16887229149E+04  0.15014474887E+04 0.  0.
        1    1    3    3  502    0  0.26507540806E+03  0.42296824366E+03  0.24419932762E+03  0.55569813635E+03  0.50400001928E-02 0. -1.
       -1    1    3    3    0  502 -0.26507540806E+03 -0.42296824366E+03 -0.10171420951E+04  0.11330247785E+04  0.50400001928E-02 0.  1.
</event>
<event>
 5   0  0.1116613E-05  0.1499511E+04  0.7818609E-02  0.8884778E-01
       -4   -1    0    0    0  501  0.00000000000E+00  0.00000000000E+00  0.12110699974E+04  0.12110706633E+04  0.12699999809E+01 0. -1.
        4   -1    0    0  501    0  0.00000000000E+00  0.00000000000E+00 -0.46416062340E+03  0.46416236083E+03  0.12699999809E+01 0.  1.
    10030    2    1    2    0    0  0.00000000000E+00  0.00000000000E+00  0.74690937399E+03  0.16752330241E+04  0.14995106109E+04 0.  0.
        4    1    3    3  502    0 -0.40023287530E+03 -0.54808168338E+03  0.17439196837E+02  0.67888557549E+03  0.12699999809E+01 0. -1.
       -4    1    3    3    0  502  0.40023287530E+03  0.54808168338E+03  0.72947017716E+03  0.99634744863E+03  0.12699999809E+01 0.  1.
</event>
<event>
 5   0  0.1576214E-05  0.1500899E+04  0.7818609E-02  0.8883856E-01
       -1   -1    0    0    0  501  0.00000000000E+00  0.00000000000E+00  0.47167810363E+03  0.47167810365E+03  0.50400001928E-02 0. -1.
        1   -1    0    0  501    0  0.00000000000E+00  0.00000000000E+00 -0.11939797312E+04  0.11939797313E+04  0.50400001928E-02 0.  1.
    10030    2    1    2    0    0  0.00000000000E+00  0.00000000000E+00 -0.72230162761E+03  0.16656578349E+04  0.15008985248E+04 0.  0.
        1    1    3    3  502    0 -0.38566028520E+03 -0.18932970062E+03 -0.10439949966E+04  0.11289398319E+04  0.50400001928E-02 0.  1.
       -1    1    3    3    0  502  0.38566028520E+03  0.18932970062E+03  0.32169336895E+03  0.53671800303E+03  0.50400001928E-02 0. -1.
</event>
<event>
 5   0  0.1643498E-05  0.1499801E+04  0.7818609E-02  0.8884585E-01
       -1   -1    0    0    0  501  0.00000000000E+00  0.00000000000E+00  0.35402219815E+03  0.35402219819E+03  0.50400001928E-02 0. -1.
        1   -1    0    0  501    0  0.00000000000E+00  0.00000000000E+00 -0.15884617143E+04  0.15884617144E+04  0.50400001928E-02 0.  1.
    10030    2    1    2    0    0  0.00000000000E+00  0.00000000000E+00 -0.12344395162E+04  0.19424839125E+04  0.14998009306E+04 0.  0.
        4    1    3    3  502    0 -0.27725720757E+03  0.52709643662E+03 -0.27036997656E+02  0.59618354958E+03  0.12699999809E+01 0. -1.
       -4    1    3    3    0  502  0.27725720757E+03 -0.52709643662E+03 -0.12074025185E+04  0.13463003630E+04  0.12699999809E+01 0.  1.
</event>
<event>
 5   0  0.1643498E-05  0.1498321E+04  0.7818609E-02  0.8885570E-01
        1   -1    0    0  501    0  0.00000000000E+00  0.00000000000E+00  0.71696485522E+03  0.71696485523E+03  0.50400001928E-02 0.  1.
       -1   -1    0    0    0  501  0.00000000000E+00  0.00000000000E+00 -0.78280235000E+03  0.78280235001E+03  0.50400001928E-02 0. -1.
    10030    2    1    2    0    0  0.00000000000E+00  0.00000000000E+00 -0.65837494783E+02  0.14997672052E+04  0.14983214255E+04 0.  0.
        4    1    3    3  502    0 -0.46361587049E+03 -0.23752337066E+03 -0.57184623709E+03  0.77354169814E+03  0.12699999809E+01 0. -1.
       -4    1    3    3    0  502  0.46361587049E+03  0.23752337066E+03  0.50600874231E+03  0.72622550711E+03  0.12699999809E+01 0.  1.
</event>
<event>
 5   0  0.3018308E-05  0.1499160E+04  0.7818609E-02  0.8885012E-01
       -2   -1    0    0    0  501  0.00000000000E+00  0.00000000000E+00  0.44432465546E+03  0.44432465547E+03  0.25500000920E-02 0. -1.
        2   -1    0    0  501    0  0.00000000000E+00  0.00000000000E+00 -0.12645481822E+04  0.12645481822E+04  0.25500000920E-02 0.  1.
    10030    2    1    2    0    0  0.00000000000E+00  0.00000000000E+00 -0.82022352678E+03  0.17088728377E+04  0.14991596785E+04 0.  0.
        2    1    3    3  502    0  0.46332724800E+03  0.58076239082E+03 -0.29662088767E+03  0.79996315186E+03  0.25500000920E-02 0. -1.
       -2    1    3    3    0  502 -0.46332724800E+03 -0.58076239082E+03 -0.52360263911E+03  0.90890968585E+03  0.25500000920E-02 0.  1.
</event>
<event>
 5   0  0.3018308E-05  0.1500015E+04  0.7818609E-02  0.8884443E-01
        2   -1    0    0  501    0  0.00000000000E+00  0.00000000000E+00  0.15069682915E+04  0.15069682915E+04  0.25500000920E-02 0. -1.
       -2   -1    0    0    0  501  0.00000000000E+00  0.00000000000E+00 -0.37327330275E+03  0.37327330276E+03  0.25500000920E-02 0.  1.
    10030    2    1    2    0    0  0.00000000000E+00  0.00000000000E+00  0.11336949887E+04  0.18802415942E+04  0.15000147083E+04 0.  0.
        2    1    3    3  502    0 -0.48225025074E+02 -0.24204495707E+03  0.14546098724E+04  0.14753986903E+04  0.25500000920E-02 0. -1.
       -2    1    3    3    0  502  0.48225025074E+02  0.24204495707E+03 -0.32091488371E+03  0.40484290395E+03  0.25500000920E-02 0.  1.
</event>
<event>
 5   0  0.3070497E-05  0.1499861E+04  0.7818609E-02  0.8884546E-01
        2   -1    0    0  501    0  0.00000000000E+00  0.00000000000E+00  0.74437576903E+03  0.74437576904E+03  0.25500000920E-02 0. -1.
       -2   -1    0    0    0  501  0.00000000000E+00  0.00000000000E+00 -0.75552641792E+03  0.75552641792E+03  0.25500000920E-02 0.  1.
    10030    2    1    2    0    0  0.00000000000E+00  0.00000000000E+00 -0.11150648882E+02  0.14999021870E+04  0.14998607380E+04 0.  0.
        4    1    3    3  502    0 -0.31953872297E+03  0.32864849807E+03 -0.59912278302E+03  0.75436367409E+03  0.12699999809E+01 0.  1.
       -4    1    3    3    0  502  0.31953872297E+03 -0.32864849807E+03  0.58797213413E+03  0.74553851287E+03  0.12699999809E+01 0. -1.
</event>
<event>
 5   0  0.3030702E-05  0.1499287E+04  0.7818609E-02  0.8884927E-01
        2   -1    0    0  501    0  0.00000000000E+00  0.00000000000E+00  0.76467634573E+03  0.76467634574E+03  0.25500000920E-02 0.  1.
       -2   -1    0    0    0  501  0.00000000000E+00  0.00000000000E+00 -0.73490610810E+03  0.73490610811E+03  0.25500000920E-02 0. -1.
    10030    2    1    2    0    0  0.00000000000E+00  0.00000000000E+00  0.29770237630E+02  0.14995824538E+04  0.14992869201E+04 0.  0.
        5    1    3    3  502    0  0.59857165028E+03  0.14403365171E+03 -0.41287840210E+03  0.74129911524E+03  0.46999998093E+01 0. -1.
       -5    1    3    3    0  502 -0.59857165028E+03 -0.14403365171E+03  0.44264863973E+03  0.75828333860E+03  0.46999998093E+01 0.  1.
</event>
<event>
 5   0  0.3018308E-05  0.1499911E+04  0.7818609E-02  0.8884512E-01
       -2   -1    0    0    0  501  0.00000000000E+00  0.00000000000E+00  0.77749577728E+03  0.77749577729E+03  0.25500000920E-02 0.  1.
        2   -1    0    0  501    0  0.00000000000E+00  0.00000000000E+00 -0.72339096670E+03  0.72339096670E+03  0.25500000920E-02 0. -1.
    10030    2    1    2    0    0  0.00000000000E+00  0.00000000000E+00  0.54104810586E+02  0.15008867440E+04  0.14999112266E+04 0.  0.
        2    1    3    3  502    0 -0.39991187863E+03 -0.51419173134E+03  0.39892668918E+03  0.76384890561E+03  0.25500000920E-02 0.  1.
       -2    1    3    3    0  502  0.39991187863E+03  0.51419173134E+03 -0.34482187859E+03  0.73703783839E+03  0.25500000920E-02 0. -1.
</event>
<event>
 5   0  0.3093600E-05  0.1500250E+04  0.7818609E-02  0.8884287E-01
        2   -1    0    0  501    0  0.00000000000E+00  0.00000000000E+00  0.10065710612E+04  0.10065710612E+04  0.25500000920E-02 0. -1.
       -2   -1    0    0    0  501  0.00000000000E+00  0.00000000000E+00 -0.55901414727E+03  0.55901414728E+03  0.25500000920E-02 0.  1.
    10030    2    1    2    0    0  0.00000000000E+00  0.00000000000E+00  0.44755691388E+03  0.15655852084E+04  0.15002499304E+04 0.  0.
        1    1    3    3  502    0  0.26092951376E+02 -0.45052646007E+03  0.84906631267E+03  0.96154486982E+03  0.50400001928E-02 0. -1.
       -1    1    3    3    0  502 -0.26092951376E+02  0.45052646007E+03 -0.40150939879E+03  0.60404033862E+03  0.50400001928E-02 0.  1.
</event>
<event>
 5   0  0.3070497E-05  0.1500682E+04  0.7818609E-02  0.8883999E-01
       -2   -1    0    0    0  501  0.00000000000E+00  0.00000000000E+00  0.93783130721E+03  0.93783130721E+03  0.25500000920E-02 0.  1.
        2   -1    0    0  501    0  0.00000000000E+00  0.00000000000E+00 -0.60033382021E+03  0.60033382022E+03  0.25500000920E-02 0. -1.
    10030    2    1    2    0    0  0.00000000000E+00  0.00000000000E+00  0.33749748699E+03  0.15381651274E+04  0.15006823133E+04 0.  0.
        4    1    3    3  502    0  0.37507014358E+03 -0.64725307399E+03  0.10901724445E+03  0.75597653858E+03  0.12699999809E+01 0. -1.
       -4    1    3    3    0  502 -0.37507014358E+03  0.64725307399E+03  0.22848024254E+03  0.78218858885E+03  0.12699999809E+01 0.  1.
</event>
<event>
 5   0  0.3070497E-05  0.1501917E+04  0.7818609E-02  0.8883179E-01
       -2   -1    0    0    0  501  0.00000000000E+00  0.00000000000E+00  0.49522911541E+03  0.49522911541E+03  0.25500000920E-02 0.  1.
        2   -1    0    0  501    0  0.00000000000E+00  0.00000000000E+00 -0.11387435991E+04  0.11387435991E+04  0.25500000920E-02 0. -1.
    10030    2    1    2    0    0  0.00000000000E+00  0.00000000000E+00 -0.64351448374E+03  0.16339727146E+04  0.15019174215E+04 0.  0.
        4    1    3    3  502    0  0.13058176977E+02 -0.10322477071E+03  0.48734814088E+03  0.49833291342E+03  0.12699999809E+01 0.  1.
       -4    1    3    3    0  502 -0.13058176977E+02  0.10322477071E+03 -0.11308626246E+04  0.11356398011E+04  0.12699999809E+01 0. -1.
</event>
<event>
 5   0  0.3030702E-05  0.1500037E+04  0.7818609E-02  0.8884429E-01
        2   -1    0    0  501    0  0.00000000000E+00  0.00000000000E+00  0.25370286105E+04  0.25370286105E+04  0.25500000920E-02 0. -1.
       -2   -1    0    0    0  501  0.00000000000E+00  0.00000000000E+00 -0.22172686479E+03  0.22172686481E+03  0.25500000920E-02 0.  1.
    10030    2    1    2    0    0  0.00000000000E+00  0.00000000000E+00  0.23153017457E+04  0.27587554753E+04  0.15000365325E+04 0.  0.
        5    1    3    3  502    0 -0.35417519077E+03 -0.99755983076E+02 -0.44290457582E+02  0.37064141235E+03  0.46999998093E+01 0.  1.
       -5    1    3    3    0  502  0.35417519077E+03  0.99755983076E+02  0.23595922033E+04  0.23881140630E+04  0.46999998093E+01 0. -1.
</event>
<event>
 5   0  0.1643498E-05  0.1499734E+04  0.7818609E-02  0.8884630E-01
       -1   -1    0    0    0  501  0.00000000000E+00  0.00000000000E+00  0.53740354750E+03  0.53740354752E+03  0.50400001928E-02 0.  1.
        1   -1    0    0  501    0  0.00000000000E+00  0.00000000000E+00 -0.10463287338E+04  0.10463287339E+04  0.50400001928E-02 0. -1.
    10030    2    1    2    0    0  0.00000000000E+00  0.00000000000E+00 -0.50892518635E+03  0.15837322814E+04  0.14997343411E+04 0.  0.
        4    1    3    3  502    0  0.52465920791E+03 -0.31645569577E+03 -0.71098043581E+03  0.93856607910E+03  0.12699999809E+01 0. -1.
       -4    1    3    3    0  502 -0.52465920791E+03  0.31645569577E+03  0.20205524946E+03  0.64516620228E+03  0.12699999809E+01 0.  1.
</event>
<event>
 5   0  0.3030702E-05  0.1498386E+04  0.7818609E-02  0.8885527E-01
        2   -1    0    0  501    0  0.00000000000E+00  0.00000000000E+00  0.50358156699E+03  0.50358156699E+03  0.25500000920E-02 0. -1.
       -2   -1    0    0    0  501  0.00000000000E+00  0.00000000000E+00 -0.11145957742E+04  0.11145957742E+04  0.25500000920E-02 0.  1.
    10030    2    1    2    0    0  0.00000000000E+00  0.00000000000E+00 -0.61101420718E+03  0.16181773412E+04  0.14983856466E+04 0.  0.
        5    1    3    3  502    0 -0.66043420701E+03  0.33842946827E+03 -0.41648422024E+03  0.85099297441E+03  0.46999998093E+01 0.  1.
       -5    1    3    3    0  502  0.66043420701E+03 -0.33842946827E+03 -0.19452998694E+03  0.76718436676E+03  0.46999998093E+01 0. -1.
</event>
<event>
 5   0  0.2969498E-05  0.1499954E+04  0.7818609E-02  0.8884483E-01
        2   -1    0    0  501    0  0.00000000000E+00  0.00000000000E+00  0.11623485226E+04  0.11623485226E+04  0.25500000920E-02 0.  1.
       -2   -1    0    0    0  501  0.00000000000E+00  0.00000000000E+00 -0.48390451670E+03  0.48390451671E+03  0.25500000920E-02 0. -1.
    10030    2    1    2    0    0  0.00000000000E+00  0.00000000000E+00  0.67844400590E+03  0.16462530393E+04  0.14999542661E+04 0.  0.
        3    1    3    3  502    0  0.67140120227E+03 -0.11537749596E+03  0.68346020616E+03  0.96499191944E+03  0.10100000352E+00 0.  1.
       -3    1    3    3    0  502 -0.67140120227E+03  0.11537749596E+03 -0.50162002586E+01  0.68126111987E+03  0.10100000352E+00 0. -1.
</event>
<event>
 5   0  0.1116613E-05  0.1499705E+04  0.7818609E-02  0.8884649E-01
        4   -1    0    0  501    0  0.00000000000E+00  0.00000000000E+00  0.12210332632E+04  0.12210339236E+04  0.12699999809E+01 0. -1.
       -4   -1    0    0    0  501  0.00000000000E+00  0.00000000000E+00 -0.46049261870E+03  0.46049436998E+03  0.12699999809E+01 0.  1.
    10030    2    1    2    0    0  0.00000000000E+00  0.00000000000E+00  0.76054064447E+03  0.16815282936E+04  0.14997050811E+04 0.  0.
        3    1    3    3  502    0  0.54350715446E+03  0.51347904908E+03  0.44387594251E+03  0.86953241649E+03  0.10100000352E+00 0. -1.
       -3    1    3    3    0  502 -0.54350715446E+03 -0.51347904908E+03  0.31666470196E+03  0.81199587712E+03  0.10100000352E+00 0.  1.
</event>
<event>
 5   0  0.1576214E-05  0.1499998E+04  0.7818609E-02  0.8884454E-01
       -1   -1    0    0    0  501  0.00000000000E+00  0.00000000000E+00  0.30822000413E+03  0.30822000417E+03  0.50400001928E-02 0. -1.
        1   -1    0    0  501    0  0.00000000000E+00  0.00000000000E+00 -0.18249893456E+04  0.18249893456E+04  0.50400001928E-02 0.  1.
    10030    2    1    2    0    0  0.00000000000E+00  0.00000000000E+00 -0.15167693415E+04  0.21332093498E+04  0.14999976316E+04 0.  0.
        1    1    3    3  502    0  0.46464858307E+03 -0.41382422294E+02  0.76798198069E+02  0.47276714551E+03  0.50400001928E-02 0. -1.
       -1    1    3    3    0  502 -0.46464858307E+03  0.41382422294E+02 -0.15935675395E+04  0.16604422043E+04  0.50400001928E-02 0.  1.
</event>
<event>
 5   0  0.1533777E-05  0.1500438E+04  0.7818609E-02  0.8884162E-01
        1   -1    0    0  501    0  0.00000000000E+00  0.00000000000E+00  0.74674259839E+03  0.74674259841E+03  0.50400001928E-02 0.  1.
       -1   -1    0    0    0  501  0.00000000000E+00  0.00000000000E+00 -0.75371131771E+03  0.75371131773E+03  0.50400001928E-02 0. -1.
    10030    2    1    2    0    0  0.00000000000E+00  0.00000000000E+00 -0.69687193169E+01  0.15004539161E+04  0.15004377333E+04 0.  0.
        5    1    3    3  502    0 -0.22958685096E+02  0.71882127887E+03 -0.21696997691E+03  0.75121847226E+03  0.46999998093E+01 0.  1.
       -5    1    3    3    0  502  0.22958685096E+02 -0.71882127887E+03  0.21000125760E+03  0.74923544388E+03  0.46999998093E+01 0. -1.
</event>
<event>
 5   0  0.1533777E-05  0.1500083E+04  0.7818609E-02  0.8884398E-01
       -1   -1    0    0    0  501  0.00000000000E+00  0.00000000000E+00  0.86472564832E+03  0.86472564834E+03  0.50400001928E-02 0. -1.
        1   -1    0    0  501    0  0.00000000000E+00  0.00000000000E+00 -0.65056746336E+03  0.65056746338E+03  0.50400001928E-02 0.  1.
    10030    2    1    2    0    0  0.00000000000E+00  0.00000000000E+00  0.21415818496E+03  0.15152931117E+04  0.15000831598E+04 0.  0.
        5    1    3    3  502    0  0.34180434818E+03 -0.52320413537E+03 -0.31181525935E+03  0.69844371689E+03  0.46999998093E+01 0.  1.
       -5    1    3    3    0  502 -0.34180434818E+03  0.52320413537E+03  0.52597344432E+03  0.81684939483E+03  0.46999998093E+01 0. -1.
</event>
<event>
 5   0  0.3093600E-05  0.1499662E+04  0.7818609E-02  0.8884678E-01
        2   -1    0    0  501    0  0.00000000000E+00  0.00000000000E+00  0.20342840217E+04  0.20342840217E+04  0.25500000920E-02 0. -1.
       -2   -1    0    0    0  501  0.00000000000E+00  0.00000000000E+00 -0.27638532645E+03  0.27638532647E+03  0.25500000920E-02 0.  1.
    10030    2    1    2    0    0  0.00000000000E+00  0.00000000000E+00  0.17578986952E+04  0.23106693481E+04  0.14996616331E+04 0.  0.
        1    1    3    3  502    0 -0.58181916830E+03 -0.35434742928E+03  0.39618491822E+03  0.78805972787E+03  0.50400001928E-02 0.  1.
       -1    1    3    3    0  502  0.58181916830E+03  0.35434742928E+03  0.13617137770E+04  0.15226096203E+04  0.50400001928E-02 0. -1.
</event>
<event>
 5   0  0.3093600E-05  0.1499731E+04  0.7818609E-02  0.8884632E-01
        2   -1    0    0  501    0  0.00000000000E+00  0.00000000000E+00  0.67425139400E+03  0.67425139400E+03  0.25500000920E-02 0.  1.
       -2   -1    0    0    0  501  0.00000000000E+00  0.00000000000E+00 -0.83395929320E+03  0.83395929321E+03  0.25500000920E-02 0. -1.
    10030    2    1    2    0    0  0.00000000000E+00  0.00000000000E+00 -0.15970789921E+03  0.15082106872E+04  0.14997309305E+04 0.  0.
        1    1    3    3  502    0  0.14156377913E+03 -0.73444848123E+03 -0.26229465667E+02  0.74842692364E+03  0.50400001928E-02 0. -1.
       -1    1    3    3    0  502 -0.14156377913E+03  0.73444848123E+03 -0.13347843354E+03  0.75978376357E+03  0.50400001928E-02 0.  1.
</event>
<event>
 5   0  0.1643498E-05  0.1498624E+04  0.7818609E-02  0.8885368E-01
       -1   -1    0    0    0  501  0.00000000000E+00  0.00000000000E+00  0.29689205666E+03  0.29689205670E+03  0.50400001928E-02 0. -1.
        1   -1    0    0  501    0  0.00000000000E+00  0.00000000000E+00 -0.18911542957E+04  0.18911542957E+04  0.50400001928E-02 0.  1.
    10030    2    1    2    0    0  0.00000000000E+00  0.00000000000E+00 -0.15942622390E+04  0.21880463524E+04  0.14986242870E+04 0.  0.
        4    1    3    3  502    0  0.42588225335E+03 -0.36155125898E+03 -0.68030183761E+02  0.56278301804E+03  0.12699999809E+01 0. -1.
       -4    1    3    3    0  502 -0.42588225335E+03  0.36155125898E+03 -0.15262320553E+04  0.16252633344E+04  0.12699999809E+01 0.  1.
</event>
<event>
 5   0  0.3018308E-05  0.1500059E+04  0.7818609E-02  0.8884414E-01
        2   -1    0    0  501    0  0.00000000000E+00  0.00000000000E+00  0.56897274085E+03  0.56897274085E+03  0.25500000920E-02 0. -1.
       -2   -1    0    0    0  501  0.00000000000E+00  0.00000000000E+00 -0.98870175852E+03  0.98870175852E+03  0.25500000920E-02 0.  1.
    10030    2    1    2    0    0  0.00000000000E+00  0.00000000000E+00 -0.41972901767E+03  0.15576744994E+04  0.15000591314E+04 0.  0.
        2    1    3    3  502    0 -0.21388500462E+03  0.48917283706E+03 -0.75688763304E+03  0.92623741491E+03  0.25500000920E-02 0. -1.
       -2    1    3    3    0  502  0.21388500462E+03 -0.48917283706E+03  0.33715861537E+03  0.63143708447E+03  0.25500000920E-02 0.  1.
</event>
<event>
 5   0  0.1116613E-05  0.1498845E+04  0.7818609E-02  0.8885221E-01
       -3   -1    0    0    0  501  0.00000000000E+00  0.00000000000E+00  0.82951194466E+03  0.82951195081E+03  0.10100000352E+00 0.  1.
        3   -1    0    0  501    0  0.00000000000E+00  0.00000000000E+00 -0.67706550879E+03  0.67706551632E+03  0.10100000352E+00 0. -1.
    10030    2    1    2    0    0  0.00000000000E+00  0.00000000000E+00  0.15244643587E+03  0.15065774671E+04  0.14988448047E+04 0.  0.
        4    1    3    3  502    0  0.10388932725E+03 -0.22804494998E+03  0.78614938933E+03  0.82512421293E+03  0.12699999809E+01 0.  1.
       -4    1    3    3    0  502 -0.10388932725E+03  0.22804494998E+03 -0.63370295346E+03  0.68145325419E+03  0.12699999809E+01 0. -1.
</event>
<event>
 5   0  0.3030702E-05  0.1500520E+04  0.7818609E-02  0.8884107E-01
       -2   -1    0    0    0  501  0.00000000000E+00  0.00000000000E+00  0.68619871232E+03  0.68619871232E+03  0.25500000920E-02 0.  1.
        2   -1    0    0  501    0  0.00000000000E+00  0.00000000000E+00 -0.82030155402E+03  0.82030155403E+03  0.25500000920E-02 0. -1.
    10030    2    1    2    0    0  0.00000000000E+00  0.00000000000E+00 -0.13410284171E+03  0.15065002664E+04  0.15005197367E+04 0.  0.
        5    1    3    3  502    0 -0.14100698478E+03 -0.10364005206E+03  0.66540654097E+03  0.68804955120E+03  0.46999998093E+01 0.  1.
       -5    1    3    3    0  502  0.14100698478E+03  0.10364005206E+03 -0.79950938267E+03  0.81845071515E+03  0.46999998093E+01 0. -1.
</event>
<event>
 5   0  0.3030702E-05  0.1499701E+04  0.7818609E-02  0.8884651E-01
       -2   -1    0    0    0  501  0.00000000000E+00  0.00000000000E+00  0.63777831055E+03  0.63777831055E+03  0.25500000920E-02 0. -1.
        2   -1    0    0  501    0  0.00000000000E+00  0.00000000000E+00 -0.88161685687E+03  0.88161685687E+03  0.25500000920E-02 0.  1.
    10030    2    1    2    0    0  0.00000000000E+00  0.00000000000E+00 -0.24383854632E+03  0.15193951674E+04  0.14997014497E+04 0.  0.
        5    1    3    3  502    0  0.41903470589E+02  0.72451684526E+03  0.69166776048E+02  0.72903133871E+03  0.46999998093E+01 0. -1.
       -5    1    3    3    0  502 -0.41903470589E+02 -0.72451684526E+03 -0.31300532237E+03  0.79036382871E+03  0.46999998093E+01 0.  1.
</event>
<event>
 5   0  0.1576214E-05  0.1499575E+04  0.7818609E-02  0.8884736E-01
        1   -1    0    0  501    0  0.00000000000E+00  0.00000000000E+00  0.17478825050E+04  0.17478825050E+04  0.50400001928E-02 0.  1.
       -1   -1    0    0    0  501  0.00000000000E+00  0.00000000000E+00 -0.32163566202E+03  0.32163566206E+03  0.50400001928E-02 0. -1.
    10030    2    1    2    0    0  0.00000000000E+00  0.00000000000E+00  0.14262468430E+04  0.20695181671E+04  0.14995750687E+04 0.  0.
        1    1    3    3  502    0  0.64443124801E+03  0.29244580440E+03  0.37125264063E+03  0.79915249178E+03  0.50400001928E-02 0. -1.
       -1    1    3    3    0  502 -0.64443124801E+03 -0.29244580440E+03  0.10549942024E+04  0.12703656753E+04  0.50400001928E-02 0.  1.
</event>
<event>
 5   0  0.1643498E-05  0.1500222E+04  0.7818609E-02  0.8884305E-01
        1   -1    0    0  501    0  0.00000000000E+00  0.00000000000E+00  0.90003543952E+03  0.90003543954E+03  0.50400001928E-02 0.  1.
       -1   -1    0    0    0  501  0.00000000000E+00  0.00000000000E+00 -0.62516026598E+03  0.62516026600E+03  0.50400001928E-02 0. -1.
    10030    2    1    2    0    0  0.00000000000E+00  0.00000000000E+00  0.27487517355E+03  0.15251957055E+04  0.15002218433E+04 0.  0.
        4    1    3    3  502    0  0.33928469372E+03 -0.40022480552E+03  0.68243117803E+03  0.86081817127E+03  0.12699999809E+01 0.  1.
       -4    1    3    3    0  502 -0.33928469372E+03  0.40022480552E+03 -0.40755600448E+03  0.66437753426E+03  0.12699999809E+01 0. -1.
</event>
<event>
 5   0  0.2969498E-05  0.1502549E+04  0.7818609E-02  0.8882760E-01
       -2   -1    0    0    0  501  0.00000000000E+00  0.00000000000E+00  0.29972721928E+03  0.29972721929E+03  0.25500000920E-02 0. -1.
        2   -1    0    0  501    0  0.00000000000E+00  0.00000000000E+00 -0.18830903200E+04  0.18830903200E+04  0.25500000920E-02 0.  1.
    10030    2    1    2    0    0  0.00000000000E+00  0.00000000000E+00 -0.15833631007E+04  0.21828175393E+04  0.15025490678E+04 0.  0.
        3    1    3    3  502    0  0.15030670842E+03  0.47574174235E+03  0.24303739565E+02  0.49951275656E+03  0.10100000352E+00 0. -1.
       -3    1    3    3    0  502 -0.15030670842E+03 -0.47574174235E+03 -0.16076668403E+04  0.16833047827E+04  0.10100000352E+00 0.  1.
</event>
<event>
 5   0  0.3093600E-05  0.1492837E+04  0.7818609E-02  0.8889230E-01
       -2   -1    0    0    0  501  0.00000000000E+00  0.00000000000E+00  0.32398440602E+03  0.32398440603E+03  0.25500000920E-02 0. -1.
        2   -1    0    0  501    0  0.00000000000E+00  0.00000000000E+00 -0.17196517086E+04  0.17196517086E+04  0.25500000920E-02 0.  1.
    10030    2    1    2    0    0  0.00000000000E+00  0.00000000000E+00 -0.13956673026E+04  0.20436361147E+04  0.14928366788E+04 0.  0.
        1    1    3    3  502    0 -0.24805138126E+03 -0.40048977143E+03 -0.14904361744E+04  0.15631127709E+04  0.50400001928E-02 0.  1.
       -1    1    3    3    0  502  0.24805138126E+03  0.40048977143E+03  0.94768871779E+02  0.48052334371E+03  0.50400001928E-02 0. -1.
</event>
<event>
 5   0  0.3030702E-05  0.1489530E+04  0.7818609E-02  0.8891445E-01
       -2   -1    0    0    0  501  0.00000000000E+00  0.00000000000E+00  0.10754550806E+04  0.10754550806E+04  0.25500000920E-02 0.  1.
        2   -1    0    0  501    0  0.00000000000E+00  0.00000000000E+00 -0.51575848958E+03  0.51575848959E+03  0.25500000920E-02 0. -1.
    10030    2    1    2    0    0  0.00000000000E+00  0.00000000000E+00  0.55969659104E+03  0.15912135702E+04  0.14895302454E+04 0.  0.
        5    1    3    3  502    0 -0.50263751636E+03 -0.21552660291E+03 -0.26018790832E+03  0.60565338854E+03  0.46999998093E+01 0. -1.
       -5    1    3    3    0  502  0.50263751636E+03  0.21552660291E+03  0.81988449936E+03  0.98556018167E+03  0.46999998093E+01 0.  1.
</event>
<event>
 5   0  0.1116613E-05  0.1500009E+04  0.7818609E-02  0.8884447E-01
        4   -1    0    0  501    0  0.00000000000E+00  0.00000000000E+00  0.78597122227E+03  0.78597224833E+03  0.12699999809E+01 0. -1.
       -4   -1    0    0    0  501  0.00000000000E+00  0.00000000000E+00 -0.71568189513E+03  0.71568302196E+03  0.12699999809E+01 0.  1.
    10030    2    1    2    0    0  0.00000000000E+00  0.00000000000E+00  0.70289327140E+02  0.15016552703E+04  0.15000093204E+04 0.  0.
        5    1    3    3  502    0 -0.46975798244E+03  0.46684895492E+03  0.38747458249E+03  0.76731945815E+03  0.46999998093E+01 0. -1.
       -5    1    3    3    0  502  0.46975798244E+03 -0.46684895492E+03 -0.31718525536E+03  0.73433581214E+03  0.46999998093E+01 0.  1.
</event>
<event>
 5   0  0.2969498E-05  0.1499924E+04  0.7818609E-02  0.8884504E-01
        2   -1    0    0  501    0  0.00000000000E+00  0.00000000000E+00  0.14058032181E+04  0.14058032181E+04  0.25500000920E-02 0. -1.
       -2   -1    0    0    0  501  0.00000000000E+00  0.00000000000E+00 -0.40008649426E+03  0.40008649427E+03  0.25500000920E-02 0.  1.
    10030    2    1    2    0    0  0.00000000000E+00  0.00000000000E+00  0.10057167238E+04  0.18058897124E+04  0.14999238396E+04 0.  0.
        3    1    3    3  502    0  0.45359563347E+03 -0.79361880050E+02  0.12155494300E+04  0.12998491196E+04  0.10100000352E+00 0. -1.
       -3    1    3    3    0  502 -0.45359563347E+03  0.79361880050E+02 -0.20983270622E+03  0.50604059274E+03  0.10100000352E+00 0.  1.
</event>
<event>
 5   0  0.3070497E-05  0.1500751E+04  0.7818609E-02  0.8883954E-01
       -2   -1    0    0    0  501  0.00000000000E+00  0.00000000000E+00  0.35738426801E+03  0.35738426802E+03  0.25500000920E-02 0.  1.
        2   -1    0    0  501    0  0.00000000000E+00  0.00000000000E+00 -0.15755120333E+04  0.15755120333E+04  0.25500000920E-02 0. -1.
    10030    2    1    2    0    0  0.00000000000E+00  0.00000000000E+00 -0.12181277653E+04  0.19328963014E+04  0.15007507652E+04 0.  0.
        4    1    3    3  502    0  0.63532384712E+03  0.20719702154E+03 -0.16946873600E+03  0.68941153300E+03  0.12699999809E+01 0.  1.
       -4    1    3    3    0  502 -0.63532384712E+03 -0.20719702154E+03 -0.10486590293E+04  0.12434847684E+04  0.12699999809E+01 0. -1.
</event>
<event>
 5   0  0.1533777E-05  0.1500401E+04  0.7818609E-02  0.8884187E-01
       -1   -1    0    0    0  501  0.00000000000E+00  0.00000000000E+00  0.38223295474E+03  0.38223295478E+03  0.50400001928E-02 0.  1.
        1   -1    0    0  501    0  0.00000000000E+00  0.00000000000E+00 -0.14724016173E+04  0.14724016173E+04  0.50400001928E-02 0. -1.
    10030    2    1    2    0    0  0.00000000000E+00  0.00000000000E+00 -0.10901686625E+04  0.18546345720E+04  0.15004005076E+04 0.  0.
        5    1    3    3  502    0  0.61420100476E+03  0.20561990267E+03 -0.10129351846E+04  0.12023236655E+04  0.46999998093E+01 0. -1.
       -5    1    3    3    0  502 -0.61420100476E+03 -0.20561990267E+03 -0.77233477955E+02  0.65231090650E+03  0.46999998093E+01 0.  1.
</event>
<event>
 5   0  0.2969498E-05  0.1504521E+04  0.7818609E-02  0.8881452E-01
       -2   -1    0    0    0  501  0.00000000000E+00  0.00000000000E+00  0.31501242972E+03  0.31501242973E+03  0.25500000920E-02 0.  1.
        2   -1    0    0  501    0  0.00000000000E+00  0.00000000000E+00 -0.17964231936E+04  0.17964231937E+04  0.25500000920E-02 0. -1.
    10030    2    1    2    0    0  0.00000000000E+00  0.00000000000E+00 -0.14814107639E+04  0.21114356234E+04  0.15045207012E+04 0.  0.
        3    1    3    3  502    0  0.36541357710E+03 -0.58361858811E+03 -0.31559532745E+03  0.75745505452E+03  0.10100000352E+00 0.  1.
       -3    1    3    3    0  502 -0.36541357710E+03  0.58361858811E+03 -0.11658154365E+04  0.13539805689E+04  0.10100000352E+00 0. -1.
</event>
<event>
 5   0  0.3070497E-05  0.1501157E+04  0.7818609E-02  0.8883684E-01
       -2   -1    0    0    0  501  0.00000000000E+00  0.00000000000E+00  0.51648452424E+03  0.51648452425E+03  0.25500000920E-02 0.  1.
        2   -1    0    0  501    0  0.00000000000E+00  0.00000000000E+00 -0.10907739899E+04  0.10907739899E+04  0.25500000920E-02 0. -1.
    10030    2    1    2    0    0  0.00000000000E+00  0.00000000000E+00 -0.57428946566E+03  0.16072585141E+04  0.15011567343E+04 0.  0.
        4    1    3    3  502    0  0.27971501337E+03  0.53775686030E+03 -0.76108646625E+03  0.97297335601E+03  0.12699999809E+01 0. -1.
       -4    1    3    3    0  502 -0.27971501337E+03 -0.53775686030E+03  0.18679700059E+03  0.63428515814E+03  0.12699999809E+01 0.  1.
</event>
<event>
 5   0  0.3093600E-05  0.1500027E+04  0.7818609E-02  0.8884435E-01
        2   -1    0    0  501    0  0.00000000000E+00  0.00000000000E+00  0.15080060074E+04  0.15080060074E+04  0.25500000920E-02 0.  1.
       -2   -1    0    0    0  501  0.00000000000E+00  0.00000000000E+00 -0.37302253775E+03  0.37302253776E+03  0.25500000920E-02 0. -1.
    10030    2    1    2    0    0  0.00000000000E+00  0.00000000000E+00  0.11349834696E+04  0.18810285451E+04  0.15000269702E+04 0.  0.
        1    1    3    3  502    0  0.18737751496E+03 -0.53041360503E+03  0.11895438946E+04  0.13158509045E+04  0.50400001928E-02 0.  1.
       -1    1    3    3    0  502 -0.18737751496E+03  0.53041360503E+03 -0.54560424996E+02  0.56517764067E+03  0.50400001928E-02 0. -1.
</event>
<event>
 5   0  0.1643498E-05  0.1500291E+04  0.7818609E-02  0.8884260E-01
       -1   -1    0    0    0  501  0.00000000000E+00  0.00000000000E+00  0.10394514439E+04  0.10394514439E+04  0.50400001928E-02 0.  1.
        1   -1    0    0  501    0  0.00000000000E+00  0.00000000000E+00 -0.54136072106E+03  0.54136072108E+03  0.50400001928E-02 0. -1.
    10030    2    1    2    0    0  0.00000000000E+00  0.00000000000E+00  0.49809072282E+03  0.15808121650E+04  0.15002908827E+04 0.  0.
        4    1    3    3  502    0  0.54705905809E+03  0.30848664002E+02  0.78888189267E+03  0.96050065413E+03  0.12699999809E+01 0.  1.
       -4    1    3    3    0  502 -0.54705905809E+03 -0.30848664002E+02 -0.29079116985E+03  0.62031151083E+03  0.12699999809E+01 0. -1.
</event>
<event>
 5   0  0.2969498E-05  0.1501465E+04  0.7818609E-02  0.8883479E-01
        2   -1    0    0  501    0  0.00000000000E+00  0.00000000000E+00  0.57854926114E+03  0.57854926114E+03  0.25500000920E-02 0.  1.
       -2   -1    0    0    0  501  0.00000000000E+00  0.00000000000E+00 -0.97415918672E+03  0.97415918673E+03  0.25500000920E-02 0. -1.
    10030    2    1    2    0    0  0.00000000000E+00  0.00000000000E+00 -0.39560992558E+03  0.15527084479E+04  0.15014647218E+04 0.  0.
        3    1    3    3  502    0 -0.68665352427E+03  0.25245283207E+03 -0.37199840268E+03  0.82073644771E+03  0.10100000352E+00 0. -1.
       -3    1    3    3    0  502  0.68665352427E+03 -0.25245283207E+03 -0.23611522907E+02  0.73197200016E+03  0.10100000352E+00 0.  1.
</event>
<event>
 5   0  0.3030702E-05  0.1492285E+04  0.7818609E-02  0.8889600E-01
       -2   -1    0    0    0  501  0.00000000000E+00  0.00000000000E+00  0.36035917396E+03  0.36035917396E+03  0.25500000920E-02 0.  1.
        2   -1    0    0  501    0  0.00000000000E+00  0.00000000000E+00 -0.15449261692E+04  0.15449261692E+04  0.25500000920E-02 0. -1.
    10030    2    1    2    0    0  0.00000000000E+00  0.00000000000E+00 -0.11845669953E+04  0.19052853432E+04  0.14922845817E+04 0.  0.
        5    1    3    3  502    0  0.53257186310E+03  0.34434214777E+03 -0.10941351066E+04  0.12646572759E+04  0.46999998093E+01 0. -1.
       -5    1    3    3    0  502 -0.53257186310E+03 -0.34434214777E+03 -0.90431888703E+02  0.64062806728E+03  0.46999998093E+01 0.  1.
</event>
<event>
 5   0  0.1588657E-05  0.1499479E+04  0.7818609E-02  0.8884799E-01
        1   -1    0    0  501    0  0.00000000000E+00  0.00000000000E+00  0.12296452776E+04  0.12296452777E+04  0.50400001928E-02 0. -1.
       -1   -1    0    0    0  501  0.00000000000E+00  0.00000000000E+00 -0.45713125103E+03  0.45713125105E+03  0.50400001928E-02 0.  1.
    10030    2    1    2    0    0  0.00000000000E+00  0.00000000000E+00  0.77251402662E+03  0.16867765287E+04  0.14994789550E+04 0.  0.
        3    1    3    3  502    0  0.55480442534E+02  0.62513168374E+03  0.84766364654E+03  0.10547043991E+04  0.10100000352E+00 0. -1.
       -3    1    3    3    0  502 -0.55480442534E+02 -0.62513168374E+03 -0.75149619916E+02  0.63207212966E+03  0.10100000352E+00 0.  1.
</event>
<event>
 5   0  0.1116613E-05  0.1499223E+04  0.7818609E-02  0.8884969E-01
        3   -1    0    0  501    0  0.00000000000E+00  0.00000000000E+00  0.80438639427E+03  0.80438640062E+03  0.10100000352E+00 0.  1.
       -3   -1    0    0    0  501  0.00000000000E+00  0.00000000000E+00 -0.69856692920E+03  0.69856693650E+03  0.10100000352E+00 0. -1.
    10030    2    1    2    0    0  0.00000000000E+00  0.00000000000E+00  0.10581946507E+03  0.15029533371E+04  0.14992234571E+04 0.  0.
        5    1    3    3  502    0 -0.22196393627E+03  0.60071194090E+03  0.44345928329E+03  0.77897435829E+03  0.46999998093E+01 0.  1.
       -5    1    3    3    0  502  0.22196393627E+03 -0.60071194090E+03 -0.33763981821E+03  0.72397897883E+03  0.46999998093E+01 0. -1.
</event>
<event>
 5   0  0.1643498E-05  0.1499775E+04  0.7818609E-02  0.8884603E-01
       -1   -1    0    0    0  501  0.00000000000E+00  0.00000000000E+00  0.59639053076E+03  0.59639053079E+03  0.50400001928E-02 0. -1.
        1   -1    0    0  501    0  0.00000000000E+00  0.00000000000E+00 -0.94289054393E+03  0.94289054394E+03  0.50400001928E-02 0.  1.
    10030    2    1    2    0    0  0.00000000000E+00  0.00000000000E+00 -0.34650001316E+03  0.15392810747E+04  0.14997746390E+04 0.  0.
        4    1    3    3  502    0  0.30484392044E+03 -0.38635205093E+03 -0.75395590178E+03  0.90036039330E+03  0.12699999809E+01 0.  1.
       -4    1    3    3    0  502 -0.30484392044E+03  0.38635205093E+03  0.40745588862E+03  0.63892068143E+03  0.12699999809E+01 0. -1.
</event>
<event>
 5   0  0.3070497E-05  0.1499614E+04  0.7818609E-02  0.8884710E-01
       -2   -1    0    0    0  501  0.00000000000E+00  0.00000000000E+00  0.27153075814E+04  0.27153075814E+04  0.25500000920E-02 0.  1.
        2   -1    0    0  501    0  0.00000000000E+00  0.00000000000E+00 -0.20705216474E+03  0.20705216476E+03  0.25500000920E-02 0. -1.
    10030    2    1    2    0    0  0.00000000000E+00  0.00000000000E+00  0.25082554166E+04  0.29223597461E+04  0.14996137005E+04 0.  0.
        4    1    3    3  502    0 -0.15296137235E+03  0.93850866744E+02  0.26728378064E+04  0.26788558600E+04  0.12699999809E+01 0.  1.
       -4    1    3    3    0  502  0.15296137235E+03 -0.93850866744E+02 -0.16458238977E+03  0.24350388610E+03  0.12699999809E+01 0. -1.
</event>
<event>
 5   0  0.1588657E-05  0.1500906E+04  0.7818609E-02  0.8883851E-01
        1   -1    0    0  501    0  0.00000000000E+00  0.00000000000E+00  0.48151537733E+03  0.48151537735E+03  0.50400001928E-02 0.  1.
       -1   -1    0    0    0  501  0.00000000000E+00  0.00000000000E+00 -0.11695980901E+04  0.11695980901E+04  0.50400001928E-02 0. -1.
    10030    2    1    2    0    0  0.00000000000E+00  0.00000000000E+00 -0.68808271277E+03  0.16511134675E+04  0.15009056809E+04 0.  0.
        3    1    3    3  502    0 -0.47701473480E+03 -0.51135322769E+03 -0.64360673144E+03  0.95039718836E+03  0.10100000352E+00 0. -1.
       -3    1    3    3    0  502  0.47701473480E+03  0.51135322769E+03 -0.44475981329E+02  0.70071627910E+03  0.10100000352E+00 0.  1.
</event>
<event>
 5   0  0.3030702E-05  0.1499396E+04  0.7818609E-02  0.8884855E-01
       -2   -1    0    0    0  501  0.00000000000E+00  0.00000000000E+00  0.70399820954E+03  0.70399820955E+03  0.25500000920E-02 0.  1.
        2   -1    0    0  501    0  0.00000000000E+00  0.00000000000E+00 -0.79836435063E+03  0.79836435064E+03  0.25500000920E-02 0. -1.
    10030    2    1    2    0    0  0.00000000000E+00  0.00000000000E+00 -0.94366141093E+02  0.15023625602E+04  0.14993959763E+04 0.  0.
        5    1    3    3  502    0 -0.62827184658E+03 -0.31776118794E+03  0.21086734503E+03  0.73497266137E+03  0.46999998093E+01 0. -1.
       -5    1    3    3    0  502  0.62827184658E+03  0.31776118794E+03 -0.30523348612E+03  0.76738989882E+03  0.46999998093E+01 0.  1.
</event>
<event>
 5   0  0.3018308E-05  0.1500094E+04  0.7818609E-02  0.8884391E-01
       -2   -1    0    0    0  501  0.00000000000E+00  0.00000000000E+00  0.61576713743E+03  0.61576713744E+03  0.25500000920E-02 0.  1.
        2   -1    0    0  501    0  0.00000000000E+00  0.00000000000E+00 -0.91360883885E+03  0.91360883885E+03  0.25500000920E-02 0. -1.
    10030    2    1    2    0    0  0.00000000000E+00  0.00000000000E+00 -0.29784170142E+03  0.15293759763E+04  0.15000937297E+04 0.  0.
        2    1    3    3  502    0 -0.53602898814E+03 -0.51524354986E+03 -0.48161977674E+02  0.74506547893E+03  0.25500000920E-02 0.  1.
       -2    1    3    3    0  502  0.53602898814E+03  0.51524354986E+03 -0.24967972374E+03  0.78431049735E+03  0.25500000920E-02 0. -1.
</event>
<event>
 5   0  0.3030702E-05  0.1500393E+04  0.7818609E-02  0.8884191E-01
       -2   -1    0    0    0  501  0.00000000000E+00  0.00000000000E+00  0.33427365421E+03  0.33427365422E+03  0.25500000920E-02 0. -1.
        2   -1    0    0  501    0  0.00000000000E+00  0.00000000000E+00 -0.16836358382E+04  0.16836358382E+04  0.25500000920E-02 0.  1.
    10030    2    1    2    0    0  0.00000000000E+00  0.00000000000E+00 -0.13493621840E+04  0.20179094924E+04  0.15003934204E+04 0.  0.
        5    1    3    3  502    0  0.17019066109E+03 -0.65838361855E+02 -0.16533113319E+04  0.16633580496E+04  0.46999998093E+01 0.  1.
       -5    1    3    3    0  502 -0.17019066109E+03  0.65838361855E+02  0.30394914797E+03  0.35455144276E+03  0.46999998093E+01 0. -1.
</event>
<event>
 5   0  0.1533777E-05  0.1499951E+04  0.7818609E-02  0.8884486E-01
       -1   -1    0    0    0  501  0.00000000000E+00  0.00000000000E+00  0.44244659923E+03  0.44244659926E+03  0.50400001928E-02 0. -1.
        1   -1    0    0  501    0  0.00000000000E+00  0.00000000000E+00 -0.12712560592E+04  0.12712560592E+04  0.50400001928E-02 0.  1.
    10030    2    1    2    0    0  0.00000000000E+00  0.00000000000E+00 -0.82880945999E+03  0.17137026585E+04  0.14999505594E+04 0.  0.
        5    1    3    3  502    0 -0.61493921217E+03 -0.14555815900E+02 -0.90459007543E+03  0.10939229411E+04  0.46999998093E+01 0.  1.
       -5    1    3    3    0  502  0.61493921217E+03  0.14555815900E+02  0.75780615441E+02  0.61977971741E+03  0.46999998093E+01 0. -1.
</event>
<event>
 5   0  0.1643498E-05  0.1500305E+04  0.7818609E-02  0.8884250E-01
       -1   -1    0    0    0  501  0.00000000000E+00  0.00000000000E+00  0.48739264790E+03  0.48739264793E+03  0.50400001928E-02 0. -1.
        1   -1    0    0  501    0  0.00000000000E+00  0.00000000000E+00 -0.11545697722E+04  0.11545697723E+04  0.50400001928E-02 0.  1.
    10030    2    1    2    0    0  0.00000000000E+00  0.00000000000E+00 -0.66717712434E+03  0.16419624202E+04  0.15003050603E+04 0.  0.
        4    1    3    3  502    0  0.41111725085E+03 -0.38917491741E+03 -0.87225255744E+03  0.10398560704E+04  0.12699999809E+01 0.  1.
       -4    1    3    3    0  502 -0.41111725085E+03  0.38917491741E+03  0.20507543310E+03  0.60210634978E+03  0.12699999809E+01 0. -1.
</event>
<event>
 5   0  0.2969498E-05  0.1499503E+04  0.7818609E-02  0.8884784E-01
       -2   -1    0    0    0  501  0.00000000000E+00  0.00000000000E+00  0.10042603260E+04  0.10042603260E+04  0.25500000920E-02 0.  1.
        2   -1    0    0  501    0  0.00000000000E+00  0.00000000000E+00 -0.55974237453E+03  0.55974237454E+03  0.25500000920E-02 0. -1.
    10030    2    1    2    0    0  0.00000000000E+00  0.00000000000E+00  0.44451795145E+03  0.15640027005E+04  0.14995026636E+04 0.  0.
        3    1    3    3  502    0 -0.16391847747E+03  0.37887364411E+03  0.87504973297E+03  0.96753633050E+03  0.10100000352E+00 0.  1.
       -3    1    3    3    0  502  0.16391847747E+03 -0.37887364411E+03 -0.43053178153E+03  0.59646637002E+03  0.10100000352E+00 0. -1.
</event>
<event>
 5   0  0.1580078E-05  0.1497443E+04  0.7818609E-02  0.8886155E-01
       -1   -1    0    0    0  501  0.00000000000E+00  0.00000000000E+00  0.10727117479E+04  0.10727117479E+04  0.50400001928E-02 0. -1.
        1   -1    0    0  501    0  0.00000000000E+00  0.00000000000E+00 -0.52258543270E+03  0.52258543273E+03  0.50400001928E-02 0.  1.
    10030    2    1    2    0    0  0.00000000000E+00  0.00000000000E+00  0.55012631515E+03  0.15952971806E+04  0.14974425304E+04 0.  0.
        2    1    3    3  502    0 -0.31500621547E+03  0.66471316917E+03  0.42387291874E+03  0.84896452476E+03  0.25500000920E-02 0.  1.
       -2    1    3    3    0  502  0.31500621547E+03 -0.66471316917E+03  0.12625339641E+03  0.74633265583E+03  0.25500000920E-02 0. -1.
</event>
<event>
 5   0  0.3070497E-05  0.1498030E+04  0.7818609E-02  0.8885764E-01
       -2   -1    0    0    0  501  0.00000000000E+00  0.00000000000E+00  0.45872061556E+03  0.45872061557E+03  0.25500000920E-02 0. -1.
        2   -1    0    0  501    0  0.00000000000E+00  0.00000000000E+00 -0.12230178511E+04  0.12230178511E+04  0.25500000920E-02 0.  1.
    10030    2    1    2    0    0  0.00000000000E+00  0.00000000000E+00 -0.76429723553E+03  0.16817384667E+04  0.14980300418E+04 0.  0.
        4    1    3    3  502    0  0.54735667168E+03  0.10591153421E+03 -0.94369572690E+03  0.10960747315E+04  0.12699999809E+01 0.  1.
       -4    1    3    3    0  502 -0.54735667168E+03 -0.10591153421E+03  0.17939849137E+03  0.58566373519E+03  0.12699999809E+01 0. -1.
</event>
<event>
 5   0  0.1643498E-05  0.1499680E+04  0.7818609E-02  0.8884666E-01
        1   -1    0    0  501    0  0.00000000000E+00  0.00000000000E+00  0.57742697656E+03  0.57742697658E+03  0.50400001928E-02 0. -1.
       -1   -1    0    0    0  501  0.00000000000E+00  0.00000000000E+00 -0.97373343708E+03  0.97373343709E+03  0.50400001928E-02 0.  1.
    10030    2    1    2    0    0  0.00000000000E+00  0.00000000000E+00 -0.39630646052E+03  0.15511604137E+04  0.14996799053E+04 0.  0.
        4    1    3    3  502    0  0.50816154325E+03  0.26506648652E+03  0.30194173035E+03  0.64781078853E+03  0.12699999809E+01 0. -1.
       -4    1    3    3    0  502 -0.50816154325E+03 -0.26506648652E+03 -0.69824819087E+03  0.90334962515E+03  0.12699999809E+01 0.  1.
</event>
<event>
 5   0  0.1576214E-05  0.1500044E+04  0.7818609E-02  0.8884424E-01
       -1   -1    0    0    0  501  0.00000000000E+00  0.00000000000E+00  0.53734928128E+03  0.53734928130E+03  0.50400001928E-02 0. -1.
        1   -1    0    0  501    0  0.00000000000E+00  0.00000000000E+00 -0.10468666413E+04  0.10468666413E+04  0.50400001928E-02 0.  1.
    10030    2    1    2    0    0  0.00000000000E+00  0.00000000000E+00 -0.50951736006E+03  0.15842159226E+04  0.15000440491E+04 0.  0.
        1    1    3    3  502    0 -0.18379576213E+03 -0.22205970818E+02 -0.10223566802E+04  0.10389837193E+04  0.50400001928E-02 0.  1.
       -1    1    3    3    0  502  0.18379576213E+03  0.22205970818E+02  0.51283932013E+03  0.54523220339E+03  0.50400001928E-02 0. -1.
</event>
<event>
 5   0  0.1533777E-05  0.1500159E+04  0.7818609E-02  0.8884347E-01
       -1   -1    0    0    0  501  0.00000000000E+00  0.00000000000E+00  0.41571356579E+03  0.41571356582E+03  0.50400001928E-02 0. -1.
        1   -1    0    0  501    0  0.00000000000E+00  0.00000000000E+00 -0.13533827353E+04  0.13533827353E+04  0.50400001928E-02 0.  1.
    10030    2    1    2    0    0  0.00000000000E+00  0.00000000000E+00 -0.93766916949E+03  0.17690963011E+04  0.15001594086E+04 0.  0.
        5    1    3    3  502    0 -0.17269353082E+03  0.98465836572E+01 -0.13295235307E+04  0.13407367078E+04  0.46999998093E+01 0.  1.
       -5    1    3    3    0  502  0.17269353082E+03 -0.98465836572E+01  0.39185436124E+03  0.42835959335E+03  0.46999998093E+01 0. -1.
</event>
<event>
 5   0  0.1588657E-05  0.1500062E+04  0.7818609E-02  0.8884411E-01
       -1   -1    0    0    0  501  0.00000000000E+00  0.00000000000E+00  0.54336771620E+03  0.54336771622E+03  0.50400001928E-02 0.  1.
        1   -1    0    0  501    0  0.00000000000E+00  0.00000000000E+00 -0.10352966411E+04  0.10352966411E+04  0.50400001928E-02 0. -1.
    10030    2    1    2    0    0  0.00000000000E+00  0.00000000000E+00 -0.49192892493E+03  0.15786643574E+04  0.15000623607E+04 0.  0.
        3    1    3    3  502    0 -0.60581081767E+03 -0.41902621590E+03 -0.39463626499E+03  0.83565992381E+03  0.10100000352E+00 0. -1.
       -3    1    3    3    0  502  0.60581081767E+03  0.41902621590E+03 -0.97292659943E+02  0.74300443356E+03  0.10100000352E+00 0.  1.
</event>
<event>
 5   0  0.3018308E-05  0.1499629E+04  0.7818609E-02  0.8884700E-01
       -2   -1    0    0    0  501  0.00000000000E+00  0.00000000000E+00  0.60720764904E+03  0.60720764904E+03  0.25500000920E-02 0. -1.
        2   -1    0    0  501    0  0.00000000000E+00  0.00000000000E+00 -0.92591350490E+03  0.92591350491E+03  0.25500000920E-02 0.  1.
    10030    2    1    2    0    0  0.00000000000E+00  0.00000000000E+00 -0.31870585586E+03  0.15331211540E+04  0.14996289708E+04 0.  0.
        2    1    3    3  502    0  0.25016415446E+02 -0.69243368568E+03 -0.45233943300E+03  0.82746673212E+03  0.25500000920E-02 0.  1.
       -2    1    3    3    0  502 -0.25016415446E+02  0.69243368568E+03  0.13363357714E+03  0.70565442183E+03  0.25500000920E-02 0. -1.
</event>
<event>
 5   0  0.1643498E-05  0.1500272E+04  0.7818609E-02  0.8884272E-01
        1   -1    0    0  501    0  0.00000000000E+00  0.00000000000E+00  0.13122551250E+04  0.13122551250E+04  0.50400001928E-02 0. -1.
       -1   -1    0    0    0  501  0.00000000000E+00  0.00000000000E+00 -0.42880696950E+03  0.42880696953E+03  0.50400001928E-02 0.  1.
    10030    2    1    2    0    0  0.00000000000E+00  0.00000000000E+00  0.88344815553E+03  0.17410620946E+04  0.15002721665E+04 0.  0.
        4    1    3    3  502    0 -0.13494830773E+03  0.54775574940E+03  0.10155019299E+04  0.11616768868E+04  0.12699999809E+01 0. -1.
       -4    1    3    3    0  502  0.13494830773E+03 -0.54775574940E+03 -0.13205377439E+03  0.57938520777E+03  0.12699999809E+01 0.  1.
</event>
<event>
 5   0  0.3030702E-05  0.1502531E+04  0.7818609E-02  0.8882771E-01
       -2   -1    0    0    0  501  0.00000000000E+00  0.00000000000E+00  0.44671888255E+03  0.44671888256E+03  0.25500000920E-02 0.  1.
        2   -1    0    0  501    0  0.00000000000E+00  0.00000000000E+00 -0.12634347380E+04  0.12634347380E+04  0.25500000920E-02 0. -1.
    10030    2    1    2    0    0  0.00000000000E+00  0.00000000000E+00 -0.81671585546E+03  0.17101536206E+04  0.15025314031E+04 0.  0.
        5    1    3    3  502    0  0.40220362750E+03 -0.63424470022E+03 -0.38724882793E+03  0.84499576477E+03  0.46999998093E+01 0. -1.
       -5    1    3    3    0  502 -0.40220362750E+03  0.63424470022E+03 -0.42946702753E+03  0.86515785581E+03  0.46999998093E+01 0.  1.
</event>
<event>
 5   0  0.3070497E-05  0.1500234E+04  0.7818609E-02  0.8884297E-01
       -2   -1    0    0    0  501  0.00000000000E+00  0.00000000000E+00  0.37514645652E+03  0.37514645653E+03  0.25500000920E-02 0.  1.
        2   -1    0    0  501    0  0.00000000000E+00  0.00000000000E+00 -0.14998824201E+04  0.14998824201E+04  0.25500000920E-02 0. -1.
    10030    2    1    2    0    0  0.00000000000E+00  0.00000000000E+00 -0.11247359636E+04  0.18750288766E+04  0.15002340819E+04 0.  0.
        4    1    3    3  502    0  0.29936952186E+03 -0.60449415797E+03 -0.97241445758E+03  0.11834807932E+04  0.12699999809E+01 0. -1.
       -4    1    3    3    0  502 -0.29936952186E+03  0.60449415797E+03 -0.15232150600E+03  0.69154808345E+03  0.12699999809E+01 0.  1.
</event>
<event>
 5   0  0.1576214E-05  0.1499698E+04  0.7818609E-02  0.8884653E-01
        1   -1    0    0  501    0  0.00000000000E+00  0.00000000000E+00  0.98144033704E+03  0.98144033705E+03  0.50400001928E-02 0. -1.
       -1   -1    0    0    0  501  0.00000000000E+00  0.00000000000E+00 -0.57290679948E+03  0.57290679950E+03  0.50400001928E-02 0.  1.
    10030    2    1    2    0    0  0.00000000000E+00  0.00000000000E+00  0.40853353756E+03  0.15543471366E+04  0.14996984262E+04 0.  0.
        1    1    3    3  502    0  0.40621879607E+03 -0.16592391651E+03 -0.42594435782E+03  0.61153336159E+03  0.50400001928E-02 0.  1.
       -1    1    3    3    0  502 -0.40621879607E+03  0.16592391651E+03  0.83447789539E+03  0.94281377496E+03  0.50400001928E-02 0. -1.
</event>
<event>
 5   0  0.3030702E-05  0.1499838E+04  0.7818609E-02  0.8884561E-01
        2   -1    0    0  501    0  0.00000000000E+00  0.00000000000E+00  0.51399972381E+03  0.51399972382E+03  0.25500000920E-02 0.  1.
       -2   -1    0    0    0  501  0.00000000000E+00  0.00000000000E+00 -0.10941214875E+04  0.10941214875E+04  0.25500000920E-02 0. -1.
    10030    2    1    2    0    0  0.00000000000E+00  0.00000000000E+00 -0.58012176370E+03  0.16081212113E+04  0.14998375144E+04 0.  0.
        5    1    3    3  502    0 -0.41083839845E+03 -0.74487055093E+02 -0.95794538590E+03  0.10449966332E+04  0.46999998093E+01 0. -1.
       -5    1    3    3    0  502  0.41083839845E+03  0.74487055093E+02  0.37782362220E+03  0.56312457814E+03  0.46999998093E+01 0.  1.
</event>
<event>
 5   0  0.1116613E-05  0.1499965E+04  0.7818609E-02  0.8884476E-01
       -3   -1    0    0    0  501  0.00000000000E+00  0.00000000000E+00  0.33671138128E+03  0.33671139643E+03  0.10100000352E+00 0. -1.
        3   -1    0    0  501    0  0.00000000000E+00  0.00000000000E+00 -0.16704923502E+04  0.16704923533E+04  0.10100000352E+00 0.  1.
    10030    2    1    2    0    0  0.00000000000E+00  0.00000000000E+00 -0.13337809689E+04  0.20072037497E+04  0.14999650728E+04 0.  0.
        5    1    3    3  502    0  0.33451727232E+02 -0.17334799669E+03 -0.16422693520E+04  0.16517382542E+04  0.46999998093E+01 0.  1.
       -5    1    3    3    0  502 -0.33451727232E+02  0.17334799669E+03  0.30848838304E+03  0.35546549549E+03  0.46999998093E+01 0. -1.
</event>
<event>
 5   0  0.3093600E-05  0.1499835E+04  0.7818609E-02  0.8884563E-01
       -2   -1    0    0    0  501  0.00000000000E+00  0.00000000000E+00  0.10592382930E+04  0.10592382930E+04  0.25500000920E-02 0.  1.
        2   -1    0    0  501    0  0.00000000000E+00  0.00000000000E+00 -0.53092529915E+03  0.53092529916E+03  0.25500000920E-02 0. -1.
    10030    2    1    2    0    0  0.00000000000E+00  0.00000000000E+00  0.52831299385E+03  0.15901635922E+04  0.14998352011E+04 0.  0.
        1    1    3    3  502    0 -0.17335714670E+03  0.21475627696E+03 -0.47512064980E+03  0.54946573205E+03  0.50400001928E-02 0. -1.
       -1    1    3    3    0  502  0.17335714670E+03 -0.21475627696E+03  0.10034336436E+04  0.10406978601E+04  0.50400001928E-02 0.  1.
</event>
<event>
 5   0  0.2969498E-05  0.1499744E+04  0.7818609E-02  0.8884623E-01
       -2   -1    0    0    0  501  0.00000000000E+00  0.00000000000E+00  0.41316606429E+03  0.41316606430E+03  0.25500000920E-02 0. -1.
        2   -1    0    0  501    0  0.00000000000E+00  0.00000000000E+00 -0.13609740772E+04  0.13609740772E+04  0.25500000920E-02 0.  1.
    10030    2    1    2    0    0  0.00000000000E+00  0.00000000000E+00 -0.94780801295E+03  0.17741401415E+04  0.14997443824E+04 0.  0.
        3    1    3    3  502    0 -0.35898064459E+03  0.17160397698E+03 -0.12257999483E+04  0.12887593071E+04  0.10100000352E+00 0.  1.
       -3    1    3    3    0  502  0.35898064459E+03 -0.17160397698E+03  0.27799193538E+03  0.48538083444E+03  0.10100000352E+00 0. -1.
</event>
<event>
 5   0  0.1576214E-05  0.1492871E+04  0.7818609E-02  0.8889207E-01
        1   -1    0    0  501    0  0.00000000000E+00  0.00000000000E+00  0.68213082610E+03  0.68213082612E+03  0.50400001928E-02 0. -1.
       -1   -1    0    0    0  501  0.00000000000E+00  0.00000000000E+00 -0.81680225138E+03  0.81680225139E+03  0.50400001928E-02 0.  1.
    10030    2    1    2    0    0  0.00000000000E+00  0.00000000000E+00 -0.13467142528E+03  0.14989330775E+04  0.14928710521E+04 0.  0.
        1    1    3    3  502    0  0.58421300406E+02 -0.73882538693E+03  0.21850614071E+02  0.74145360615E+03  0.50400001928E-02 0. -1.
       -1    1    3    3    0  502 -0.58421300406E+02  0.73882538693E+03 -0.15652203935E+03  0.75747947136E+03  0.50400001928E-02 0.  1.
</event>
<event>
 5   0  0.1580078E-05  0.1499631E+04  0.7818609E-02  0.8884699E-01
       -1   -1    0    0    0  501  0.00000000000E+00  0.00000000000E+00  0.72834517665E+03  0.72834517667E+03  0.50400001928E-02 0. -1.
        1   -1    0    0  501    0  0.00000000000E+00  0.00000000000E+00 -0.77191845774E+03  0.77191845775E+03  0.50400001928E-02 0.  1.
    10030    2    1    2    0    0  0.00000000000E+00  0.00000000000E+00 -0.43573281085E+02  0.15002636344E+04  0.14996307352E+04 0.  0.
        2    1    3    3  502    0 -0.34491360039E+03 -0.15554394052E+03  0.62583792011E+03  0.73132237175E+03  0.25500000920E-02 0. -1.
       -2    1    3    3    0  502  0.34491360039E+03  0.15554394052E+03 -0.66941120119E+03  0.76894126268E+03  0.25500000920E-02 0.  1.
</event>
<event>
 5   0  0.3093600E-05  0.1499906E+04  0.7818609E-02  0.8884515E-01
        2   -1    0    0  501    0  0.00000000000E+00  0.00000000000E+00  0.86640881589E+03  0.86640881589E+03  0.25500000920E-02 0.  1.
       -2   -1    0    0    0  501  0.00000000000E+00  0.00000000000E+00 -0.64915037853E+03  0.64915037853E+03  0.25500000920E-02 0. -1.
    10030    2    1    2    0    0  0.00000000000E+00  0.00000000000E+00  0.21725843736E+03  0.15155591944E+04  0.14999061448E+04 0.  0.
        1    1    3    3  502    0  0.30390180125E+03 -0.44874244781E+03 -0.41514666513E+03  0.68269527819E+03  0.50400001928E-02 0. -1.
       -1    1    3    3    0  502 -0.30390180125E+03  0.44874244781E+03  0.63240510249E+03  0.83286391623E+03  0.50400001928E-02 0.  1.
</event>
<event>
 5   0  0.2969498E-05  0.1500185E+04  0.7818609E-02  0.8884330E-01
        2   -1    0    0  501    0  0.00000000000E+00  0.00000000000E+00  0.17560421128E+04  0.17560421128E+04  0.25500000920E-02 0.  1.
       -2   -1    0    0    0  501  0.00000000000E+00  0.00000000000E+00 -0.32040144933E+03  0.32040144934E+03  0.25500000920E-02 0. -1.
    10030    2    1    2    0    0  0.00000000000E+00  0.00000000000E+00  0.14356406634E+04  0.20764435621E+04  0.15001845727E+04 0.  0.
        3    1    3    3  502    0 -0.41700682946E+03  0.36101025871E+03  0.14206174476E+02  0.55174715976E+03  0.10100000352E+00 0. -1.
       -3    1    3    3    0  502  0.41700682946E+03 -0.36101025871E+03  0.14214344890E+04  0.15246964023E+04  0.10100000352E+00 0.  1.
</event>
<event>
 5   0  0.1533777E-05  0.1499862E+04  0.7818609E-02  0.8884545E-01
       -1   -1    0    0    0  501  0.00000000000E+00  0.00000000000E+00  0.34187325952E+03  0.34187325956E+03  0.50400001928E-02 0. -1.
        1   -1    0    0  501    0  0.00000000000E+00  0.00000000000E+00 -0.16450428272E+04  0.16450428272E+04  0.50400001928E-02 0.  1.
    10030    2    1    2    0    0  0.00000000000E+00  0.00000000000E+00 -0.13031695677E+04  0.19869160868E+04  0.14998615315E+04 0.  0.
        5    1    3    3  502    0 -0.65009064122E+03 -0.15867130723E+03 -0.11000017977E+04  0.12875637733E+04  0.46999998093E+01 0.  1.
       -5    1    3    3    0  502  0.65009064122E+03  0.15867130723E+03 -0.20316777002E+03  0.69935231344E+03  0.46999998093E+01 0. -1.
</event>
<event>
 5   0  0.2969498E-05  0.1499544E+04  0.7818609E-02  0.8884756E-01
       -2   -1    0    0    0  501  0.00000000000E+00  0.00000000000E+00  0.39706546343E+03  0.39706546344E+03  0.25500000920E-02 0.  1.
        2   -1    0    0  501    0  0.00000000000E+00  0.00000000000E+00 -0.14157818573E+04  0.14157818574E+04  0.25500000920E-02 0. -1.
    10030    2    1    2    0    0  0.00000000000E+00  0.00000000000E+00 -0.10187163939E+04  0.18128473208E+04  0.14995440365E+04 0.  0.
        3    1    3    3  502    0 -0.16634073464E+03 -0.72105673860E+03 -0.36345248650E+03  0.82443300542E+03  0.10100000352E+00 0. -1.
       -3    1    3    3    0  502  0.16634073464E+03  0.72105673860E+03 -0.65526390742E+03  0.98841431538E+03  0.10100000352E+00 0.  1.
</event>
<event>
 5   0  0.1643498E-05  0.1503045E+04  0.7818609E-02  0.8882430E-01
       -1   -1    0    0    0  501  0.00000000000E+00  0.00000000000E+00  0.29487172183E+03  0.29487172187E+03  0.50400001928E-02 0. -1.
        1   -1    0    0  501    0  0.00000000000E+00  0.00000000000E+00 -0.19153621998E+04  0.19153621998E+04  0.50400001928E-02 0.  1.
    10030    2    1    2    0    0  0.00000000000E+00  0.00000000000E+00 -0.16204904779E+04  0.22102339216E+04  0.15030451089E+04 0.  0.
        4    1    3    3  502    0  0.50232071974E+03  0.12473860012E+03 -0.89909211564E+01  0.51765652068E+03  0.12699999809E+01 0. -1.
       -4    1    3    3    0  502 -0.50232071974E+03 -0.12473860012E+03 -0.16114995568E+04  0.16925774010E+04  0.12699999809E+01 0.  1.
</event>
<event>
 5   0  0.1643498E-05  0.1500596E+04  0.7818609E-02  0.8884057E-01
        1   -1    0    0  501    0  0.00000000000E+00  0.00000000000E+00  0.14366924421E+04  0.14366924421E+04  0.50400001928E-02 0.  1.
       -1   -1    0    0    0  501  0.00000000000E+00  0.00000000000E+00 -0.39183540462E+03  0.39183540465E+03  0.50400001928E-02 0. -1.
    10030    2    1    2    0    0  0.00000000000E+00  0.00000000000E+00  0.10448570375E+04  0.18285278468E+04  0.15005958342E+04 0.  0.
        4    1    3    3  502    0 -0.65815820529E+03  0.15392474071E+03  0.12555217148E+03  0.68748091585E+03  0.12699999809E+01 0.  1.
       -4    1    3    3    0  502  0.65815820529E+03 -0.15392474071E+03  0.91930486604E+03  0.11410469309E+04  0.12699999809E+01 0. -1.
</event>
<event>
 5   0  0.2969498E-05  0.1499967E+04  0.7818609E-02  0.8884475E-01
        2   -1    0    0  501    0  0.00000000000E+00  0.00000000000E+00  0.34148158250E+03  0.34148158251E+03  0.25500000920E-02 0. -1.
       -2   -1    0    0    0  501  0.00000000000E+00  0.00000000000E+00 -0.16471622080E+04  0.16471622080E+04  0.25500000920E-02 0.  1.
    10030    2    1    2    0    0  0.00000000000E+00  0.00000000000E+00 -0.13056806255E+04  0.19886437905E+04  0.14999674096E+04 0.  0.
        3    1    3    3  502    0  0.57745223981E+03  0.34379751004E+03 -0.21147378459E+03  0.70453459031E+03  0.10100000352E+00 0. -1.
       -3    1    3    3    0  502 -0.57745223981E+03 -0.34379751004E+03 -0.10942068409E+04  0.12841092002E+04  0.10100000352E+00 0.  1.
</event>
<event>
 5   0  0.1588657E-05  0.1499889E+04  0.7818609E-02  0.8884527E-01
        1   -1    0    0  501    0  0.00000000000E+00  0.00000000000E+00  0.11289540378E+04  0.11289540378E+04  0.50400001928E-02 0.  1.
       -1   -1    0    0    0  501  0.00000000000E+00  0.00000000000E+00 -0.49817521319E+03  0.49817521322E+03  0.50400001928E-02 0. -1.
    10030    2    1    2    0    0  0.00000000000E+00  0.00000000000E+00  0.63077882461E+03  0.16271292510E+04  0.14998892206E+04 0.  0.
        3    1    3    3  502    0  0.31748128932E+03 -0.66477442783E+03  0.16313551587E+03  0.75454132803E+03  0.10100000352E+00 0.  1.
       -3    1    3    3    0  502 -0.31748128932E+03  0.66477442783E+03  0.46764330874E+03  0.87258792300E+03  0.10100000352E+00 0. -1.
</event>
<event>
 5   0  0.1576214E-05  0.1498688E+04  0.7818609E-02  0.8885326E-01
       -1   -1    0    0    0  501  0.00000000000E+00  0.00000000000E+00  0.10021533725E+04  0.10021533726E+04  0.50400001928E-02 0.  1.
        1   -1    0    0  501    0  0.00000000000E+00  0.00000000000E+00 -0.56030952763E+03  0.56030952765E+03  0.50400001928E-02 0. -1.
    10030    2    1    2    0    0  0.00000000000E+00  0.00000000000E+00  0.44184384491E+03  0.15624629002E+04  0.14986875362E+04 0.  0.
        1    1    3    3  502    0  0.76292301459E+02  0.17038532842E+03  0.97752064404E+03  0.99518756270E+03  0.50400001928E-02 0.  1.
       -1    1    3    3    0  502 -0.76292301459E+02 -0.17038532842E+03 -0.53567679912E+03  0.56727533751E+03  0.50400001928E-02 0. -1.
</event>
<event>
 5   0  0.1643498E-05  0.1501155E+04  0.7818609E-02  0.8883685E-01
       -1   -1    0    0    0  501  0.00000000000E+00  0.00000000000E+00  0.84191557694E+03  0.84191557696E+03  0.50400001928E-02 0.  1.
        1   -1    0    0  501    0  0.00000000000E+00  0.00000000000E+00 -0.66914839143E+03  0.66914839145E+03  0.50400001928E-02 0. -1.
    10030    2    1    2    0    0  0.00000000000E+00  0.00000000000E+00  0.17276718552E+03  0.15110639684E+04  0.15011548275E+04 0.  0.
        4    1    3    3  502    0  0.44415180512E+03  0.59946019808E+03  0.37350532077E+01  0.74608238057E+03  0.12699999809E+01 0. -1.
       -4    1    3    3    0  502 -0.44415180512E+03 -0.59946019808E+03  0.16903213231E+03  0.76498158784E+03  0.12699999809E+01 0.  1.
</event>
<event>
 5   0  0.3018308E-05  0.1500517E+04  0.7818609E-02  0.8884109E-01
        2   -1    0    0  501    0  0.00000000000E+00  0.00000000000E+00  0.13660151679E+04  0.13660151679E+04  0.25500000920E-02 0.  1.
       -2   -1    0    0    0  501  0.00000000000E+00  0.00000000000E+00 -0.41206563203E+03  0.41206563204E+03  0.25500000920E-02 0. -1.
    10030    2    1    2    0    0  0.00000000000E+00  0.00000000000E+00  0.95394953583E+03  0.17780807999E+04  0.15005171155E+04 0.  0.
        2    1    3    3  502    0  0.41903414273E+03  0.32858953478E+03 -0.14930323690E+03  0.55303901462E+03  0.25500000920E-02 0. -1.
       -2    1    3    3    0  502 -0.41903414273E+03 -0.32858953478E+03  0.11032527727E+04  0.12250417853E+04  0.25500000920E-02 0.  1.
</event>
<event>
 5   0  0.3018308E-05  0.1499669E+04  0.7818609E-02  0.8884673E-01
        2   -1    0    0  501    0  0.00000000000E+00  0.00000000000E+00  0.91397504093E+03  0.91397504094E+03  0.25500000920E-02 0.  1.
       -2   -1    0    0    0  501  0.00000000000E+00  0.00000000000E+00 -0.61517176585E+03  0.61517176585E+03  0.25500000920E-02 0. -1.
    10030    2    1    2    0    0  0.00000000000E+00  0.00000000000E+00  0.29880327508E+03  0.15291468068E+04  0.14996688166E+04 0.  0.
        2    1    3    3  502    0  0.45681898957E+03 -0.58070650530E+03  0.27977420148E+03  0.79004888352E+03  0.25500000920E-02 0. -1.
       -2    1    3    3    0  502 -0.45681898957E+03  0.58070650530E+03  0.19029073602E+02  0.73909792327E+03  0.25500000920E-02 0.  1.
</event>
<event>
 5   0  0.3018308E-05  0.1500002E+04  0.7818609E-02  0.8884452E-01
        2   -1    0    0  501    0  0.00000000000E+00  0.00000000000E+00  0.14201499005E+04  0.14201499005E+04  0.25500000920E-02 0. -1.
       -2   -1    0    0    0  501  0.00000000000E+00  0.00000000000E+00 -0.39608580638E+03  0.39608580638E+03  0.25500000920E-02 0.  1.
    10030    2    1    2    0    0  0.00000000000E+00  0.00000000000E+00  0.10240640941E+04  0.18162357069E+04  0.15000016247E+04 0.  0.
        2    1    3    3  502    0 -0.18915449819E+03 -0.45276057110E+03  0.11988253156E+04  0.12953585204E+04  0.25500000920E-02 0. -1.
       -2    1    3    3    0  502  0.18915449819E+03  0.45276057110E+03 -0.17476122146E+03  0.52087718655E+03  0.25500000920E-02 0.  1.
</event>
<event>
 5   0  0.1580078E-05  0.1499791E+04  0.7818609E-02  0.8884592E-01
        1   -1    0    0  501    0  0.00000000000E+00  0.00000000000E+00  0.10321957451E+04  0.10321957451E+04  0.50400001928E-02 0. -1.
       -1   -1    0    0    0  501  0.00000000000E+00  0.00000000000E+00 -0.54480298790E+03  0.54480298793E+03  0.50400001928E-02 0.  1.
    10030    2    1    2    0    0  0.00000000000E+00  0.00000000000E+00  0.48739275720E+03  0.15769987330E+04  0.14997910869E+04 0.  0.
        2    1    3    3  502    0  0.56343358129E+03  0.17717711834E+03 -0.24214400477E+03  0.63834383434E+03  0.25500000920E-02 0.  1.
       -2    1    3    3    0  502 -0.56343358129E+03 -0.17717711834E+03  0.72953676196E+03  0.93865489870E+03  0.25500000920E-02 0. -1.
</event>
<event>
 5   0  0.1643498E-05  0.1500013E+04  0.7818609E-02  0.8884444E-01
       -1   -1    0    0    0  501  0.00000000000E+00  0.00000000000E+00  0.48183835482E+03  0.48183835485E+03  0.50400001928E-02 0.  1.
        1   -1    0    0  501    0  0.00000000000E+00  0.00000000000E+00 -0.11674242307E+04  0.11674242307E+04  0.50400001928E-02 0. -1.
    10030    2    1    2    0    0  0.00000000000E+00  0.00000000000E+00 -0.68558587583E+03  0.16492625855E+04  0.15000130276E+04 0.  0.
        4    1    3    3  502    0  0.15892481731E+03 -0.14708710314E+03  0.44671800851E+03  0.49643761491E+03  0.12699999809E+01 0.  1.
       -4    1    3    3    0  502 -0.15892481731E+03  0.14708710314E+03 -0.11323038843E+04  0.11528249706E+04  0.12699999809E+01 0. -1.
</event>
<event>
 5   0  0.1588657E-05  0.1500245E+04  0.7818609E-02  0.8884290E-01
       -1   -1    0    0    0  501  0.00000000000E+00  0.00000000000E+00  0.72690346234E+03  0.72690346236E+03  0.50400001928E-02 0. -1.
        1   -1    0    0  501    0  0.00000000000E+00  0.00000000000E+00 -0.77408271204E+03  0.77408271206E+03  0.50400001928E-02 0.  1.
    10030    2    1    2    0    0  0.00000000000E+00  0.00000000000E+00 -0.47179249704E+02  0.15009861744E+04  0.15002445181E+04 0.  0.
        3    1    3    3  502    0  0.73959497919E+03  0.12521415602E+03 -0.25609344605E+02  0.75055657138E+03  0.10100000352E+00 0.  1.
       -3    1    3    3    0  502 -0.73959497919E+03 -0.12521415602E+03 -0.21569905099E+02  0.75042960304E+03  0.10100000352E+00 0. -1.
</event>
<event>
 5   0  0.3030702E-05  0.1499290E+04  0.7818609E-02  0.8884925E-01
       -2   -1    0    0    0  501  0.00000000000E+00  0.00000000000E+00  0.34275482685E+03  0.34275482686E+03  0.25500000920E-02 0. -1.
        2   -1    0    0  501    0  0.00000000000E+00  0.00000000000E+00 -0.16395607120E+04  0.16395607120E+04  0.25500000920E-02 0.  1.
    10030    2    1    2    0    0  0.00000000000E+00  0.00000000000E+00 -0.12968058851E+04  0.19823155388E+04  0.14992896291E+04 0.  0.
        5    1    3    3  502    0 -0.13548042398E+03 -0.41999392495E+03  0.15278770984E+03  0.46702892475E+03  0.46999998093E+01 0. -1.
       -5    1    3    3    0  502  0.13548042398E+03  0.41999392495E+03 -0.14495935949E+04  0.15152866141E+04  0.46999998093E+01 0.  1.
</event>
<event>
 5   0  0.1643498E-05  0.1500212E+04  0.7818609E-02  0.8884312E-01
       -1   -1    0    0    0  501  0.00000000000E+00  0.00000000000E+00  0.54144107036E+03  0.54144107038E+03  0.50400001928E-02 0.  1.
        1   -1    0    0  501    0  0.00000000000E+00  0.00000000000E+00 -0.10391883645E+04  0.10391883645E+04  0.50400001928E-02 0. -1.
    10030    2    1    2    0    0  0.00000000000E+00  0.00000000000E+00 -0.49774729412E+03  0.15806294349E+04  0.15002123322E+04 0.  0.
        4    1    3    3  502    0 -0.21751355407E+03 -0.59971921456E+02 -0.10025862552E+04  0.10276621962E+04  0.12699999809E+01 0. -1.
       -4    1    3    3    0  502  0.21751355407E+03  0.59971921456E+02  0.50483896104E+03  0.55296723867E+03  0.12699999809E+01 0.  1.
</event>
<event>
 5   0  0.3030702E-05  0.1500386E+04  0.7818609E-02  0.8884196E-01
       -2   -1    0    0    0  501  0.00000000000E+00  0.00000000000E+00  0.34630234817E+03  0.34630234818E+03  0.25500000920E-02 0. -1.
        2   -1    0    0  501    0  0.00000000000E+00  0.00000000000E+00 -0.16251397233E+04  0.16251397233E+04  0.25500000920E-02 0.  1.
    10030    2    1    2    0    0  0.00000000000E+00  0.00000000000E+00 -0.12788373751E+04  0.19714420714E+04  0.15003862200E+04 0.  0.
        5    1    3    3  502    0  0.45103915532E+03 -0.43220080206E+03 -0.93638211000E+02  0.63168351054E+03  0.46999998093E+01 0. -1.
       -5    1    3    3    0  502 -0.45103915532E+03  0.43220080206E+03 -0.11851991641E+04  0.13397585609E+04  0.46999998093E+01 0.  1.
</event>
<event>
 5   0  0.1643498E-05  0.1499711E+04  0.7818609E-02  0.8884645E-01
       -1   -1    0    0    0  501  0.00000000000E+00  0.00000000000E+00  0.77291842641E+03  0.77291842643E+03  0.50400001928E-02 0. -1.
        1   -1    0    0  501    0  0.00000000000E+00  0.00000000000E+00 -0.72748026391E+03  0.72748026393E+03  0.50400001928E-02 0.  1.
    10030    2    1    2    0    0  0.00000000000E+00  0.00000000000E+00  0.45438162499E+02  0.15003986904E+04  0.14997105065E+04 0.  0.
        4    1    3    3  502    0 -0.48114186477E+03 -0.10513672305E+02  0.59802491597E+03  0.76762194104E+03  0.12699999809E+01 0. -1.
       -4    1    3    3    0  502  0.48114186477E+03  0.10513672305E+02 -0.55258675347E+03  0.73277674932E+03  0.12699999809E+01 0.  1.
</event>
<event>
 5   0  0.1533777E-05  0.1499056E+04  0.7818609E-02  0.8885081E-01
        1   -1    0    0  501    0  0.00000000000E+00  0.00000000000E+00  0.60428206212E+03  0.60428206215E+03  0.50400001928E-02 0.  1.
       -1   -1    0    0    0  501  0.00000000000E+00  0.00000000000E+00 -0.92968508915E+03  0.92968508916E+03  0.50400001928E-02 0. -1.
    10030    2    1    2    0    0  0.00000000000E+00  0.00000000000E+00 -0.32540302703E+03  0.15339671513E+04  0.14990557332E+04 0.  0.
        5    1    3    3  502    0 -0.21882748955E+03 -0.51728078459E+03 -0.67055090953E+03  0.87471452061E+03  0.46999998093E+01 0.  1.
       -5    1    3    3    0  502  0.21882748955E+03  0.51728078459E+03  0.34514788250E+03  0.65925263070E+03  0.46999998093E+01 0. -1.
</event>
<event>
 5   0  0.1588657E-05  0.1500903E+04  0.7818609E-02  0.8883853E-01
       -1   -1    0    0    0  501  0.00000000000E+00  0.00000000000E+00  0.44137822124E+03  0.44137822127E+03  0.50400001928E-02 0. -1.
        1   -1    0    0  501    0  0.00000000000E+00  0.00000000000E+00 -0.12759524015E+04  0.12759524015E+04  0.50400001928E-02 0.  1.
    10030    2    1    2    0    0  0.00000000000E+00  0.00000000000E+00 -0.83457418028E+03  0.17173306228E+04  0.15009031966E+04 0.  0.
        3    1    3    3  502    0  0.48500788695E+03 -0.15982799373E+03 -0.10464919834E+04  0.11644411190E+04  0.10100000352E+00 0.  1.
       -3    1    3    3    0  502 -0.48500788695E+03  0.15982799373E+03  0.21191780313E+03  0.55288950385E+03  0.10100000352E+00 0. -1.
</event>
<event>
 5   0  0.1588657E-05  0.1502536E+04  0.7818609E-02  0.8882769E-01
        1   -1    0    0  501    0  0.00000000000E+00  0.00000000000E+00  0.17258236888E+04  0.17258236888E+04  0.50400001928E-02 0.  1.
       -1   -1    0    0    0  501  0.00000000000E+00  0.00000000000E+00 -0.32703413659E+03  0.32703413663E+03  0.50400001928E-02 0. -1.
    10030    2    1    2    0    0  0.00000000000E+00  0.00000000000E+00  0.13987895522E+04  0.20528578254E+04  0.15025355370E+04 0.  0.
        3    1    3    3  502    0  0.27998741255E+03  0.62863067285E+03  0.28762183557E+03  0.74585240130E+03  0.10100000352E+00 0. -1.
       -3    1    3    3    0  502 -0.27998741255E+03 -0.62863067285E+03  0.11111677166E+04  0.13070054241E+04  0.10100000352E+00 0.  1.
</event>
<event>
 5   0  0.3070497E-05  0.1500283E+04  0.7818609E-02  0.8884265E-01
        2   -1    0    0  501    0  0.00000000000E+00  0.00000000000E+00  0.44911861109E+03  0.44911861110E+03  0.25500000920E-02 0.  1.
       -2   -1    0    0    0  501  0.00000000000E+00  0.00000000000E+00 -0.12529249702E+04  0.12529249702E+04  0.25500000920E-02 0. -1.
    10030    2    1    2    0    0  0.00000000000E+00  0.00000000000E+00 -0.80380635914E+03  0.17020435813E+04  0.15002825366E+04 0.  0.
        4    1    3    3  502    0 -0.56531020239E+03  0.42874202306E+02 -0.95918274950E+03  0.11142023972E+04  0.12699999809E+01 0. -1.
       -4    1    3    3    0  502  0.56531020239E+03 -0.42874202306E+02  0.15537639036E+03  0.58784118411E+03  0.12699999809E+01 0.  1.
</event>
<event>
 5   0  0.3018308E-05  0.1500396E+04  0.7818609E-02  0.8884190E-01
        2   -1    0    0  501    0  0.00000000000E+00  0.00000000000E+00  0.18486488617E+04  0.18486488617E+04  0.25500000920E-02 0.  1.
       -2   -1    0    0    0  501  0.00000000000E+00  0.00000000000E+00 -0.30443689181E+03  0.30443689182E+03  0.25500000920E-02 0. -1.
    10030    2    1    2    0    0  0.00000000000E+00  0.00000000000E+00  0.15442119699E+04  0.21530857535E+04  0.15003958324E+04 0.  0.
        2    1    3    3  502    0  0.21952124603E+03  0.33283032410E+03 -0.13981135289E+03  0.42250777093E+03  0.25500000920E-02 0. -1.
       -2    1    3    3    0  502 -0.21952124603E+03 -0.33283032410E+03  0.16840233228E+04  0.17305779826E+04  0.25500000920E-02 0.  1.
</event>
<event>
 5   0  0.1588657E-05  0.1500082E+04  0.7818609E-02  0.8884398E-01
        1   -1    0    0  501    0  0.00000000000E+00  0.00000000000E+00  0.17424563045E+04  0.17424563045E+04  0.50400001928E-02 0. -1.
       -1   -1    0    0    0  501  0.00000000000E+00  0.00000000000E+00 -0.32285551998E+03  0.32285552002E+03  0.50400001928E-02 0.  1.
    10030    2    1    2    0    0  0.00000000000E+00  0.00000000000E+00  0.14196007845E+04  0.20653118245E+04  0.15000821795E+04 0.  0.
        3    1    3    3  502    0 -0.50547293503E+03 -0.35893870021E+03  0.12910342820E+04  0.14321694754E+04  0.10100000352E+00 0. -1.
       -3    1    3    3    0  502  0.50547293503E+03  0.35893870021E+03  0.12856650250E+03  0.63314234918E+03  0.10100000352E+00 0.  1.
</event>
<event>
 5   0  0.2969498E-05  0.1500407E+04  0.7818609E-02  0.8884182E-01
       -2   -1    0    0    0  501  0.00000000000E+00  0.00000000000E+00  0.24500113319E+03  0.24500113320E+03  0.25500000920E-02 0.  1.
        2   -1    0    0  501    0  0.00000000000E+00  0.00000000000E+00 -0.22971541914E+04  0.22971541914E+04  0.25500000920E-02 0. -1.
    10030    2    1    2    0    0  0.00000000000E+00  0.00000000000E+00 -0.20521530582E+04  0.25421553246E+04  0.15004071181E+04 0.  0.
        3    1    3    3  502    0  0.26710450063E+03  0.34470815171E+03 -0.20603511400E+04  0.21059950984E+04  0.10100000352E+00 0. -1.
       -3    1    3    3    0  502 -0.26710450063E+03 -0.34470815171E+03  0.81980818761E+01  0.43616022613E+03  0.10100000352E+00 0.  1.
</event>
<event>
 5   0  0.1576214E-05  0.1500263E+04  0.7818609E-02  0.8884278E-01
       -1   -1    0    0    0  501  0.00000000000E+00  0.00000000000E+00  0.14353861267E+04  0.14353861267E+04  0.50400001928E-02 0.  1.
        1   -1    0    0  501    0  0.00000000000E+00  0.00000000000E+00 -0.39201815160E+03  0.39201815163E+03  0.50400001928E-02 0. -1.
    10030    2    1    2    0    0  0.00000000000E+00  0.00000000000E+00  0.10433679751E+04  0.18274042784E+04  0.15002631986E+04 0.  0.
        1    1    3    3  502    0 -0.47139875165E+03  0.51449042293E+03  0.18637502393E+03  0.72225537583E+03  0.50400001928E-02 0. -1.
       -1    1    3    3    0  502  0.47139875165E+03 -0.51449042293E+03  0.85699295118E+03  0.11051489025E+04  0.50400001928E-02 0.  1.
</event>
<event>
 5   0  0.1643498E-05  0.1503202E+04  0.7818609E-02  0.8882327E-01
        1   -1    0    0  501    0  0.00000000000E+00  0.00000000000E+00  0.74786936322E+03  0.74786936323E+03  0.50400001928E-02 0.  1.
       -1   -1    0    0    0  501  0.00000000000E+00  0.00000000000E+00 -0.75535106856E+03  0.75535106858E+03  0.50400001928E-02 0. -1.
    10030    2    1    2    0    0  0.00000000000E+00  0.00000000000E+00 -0.74817053447E+01  0.15032204318E+04  0.15032018130E+04 0.  0.
        4    1    3    3  502    0 -0.70949323780E+03  0.22127703398E+03 -0.11580530116E+03  0.75216797388E+03  0.12699999809E+01 0. -1.
       -4    1    3    3    0  502  0.70949323780E+03 -0.22127703398E+03  0.10832359581E+03  0.75105245793E+03  0.12699999809E+01 0.  1.
</event>
<event>
 5   0  0.1533777E-05  0.1499982E+04  0.7818609E-02  0.8884465E-01
        1   -1    0    0  501    0  0.00000000000E+00  0.00000000000E+00  0.49742511423E+03  0.49742511426E+03  0.50400001928E-02 0.  1.
       -1   -1    0    0    0  501  0.00000000000E+00  0.00000000000E+00 -0.11307960578E+04  0.11307960578E+04  0.50400001928E-02 0. -1.
    10030    2    1    2    0    0  0.00000000000E+00  0.00000000000E+00 -0.63337094352E+03  0.16282211720E+04  0.14999818109E+04 0.  0.
        5    1    3    3  502    0 -0.33157306898E+03  0.19009450826E+03  0.38376321088E+03  0.54163909956E+03  0.46999998093E+01 0.  1.
       -5    1    3    3    0  502  0.33157306898E+03 -0.19009450826E+03 -0.10171341544E+04  0.10865820725E+04  0.46999998093E+01 0. -1.
</event>
<event>
 5   0  0.2969498E-05  0.1499479E+04  0.7818609E-02  0.8884800E-01
        2   -1    0    0  501    0  0.00000000000E+00  0.00000000000E+00  0.33588387845E+03  0.33588387846E+03  0.25500000920E-02 0.  1.
       -2   -1    0    0    0  501  0.00000000000E+00  0.00000000000E+00 -0.16735223803E+04  0.16735223803E+04  0.25500000920E-02 0. -1.
    10030    2    1    2    0    0  0.00000000000E+00  0.00000000000E+00 -0.13376385018E+04  0.20094062587E+04  0.14994788265E+04 0.  0.
        3    1    3    3  502    0 -0.29924277439E+03  0.64765054014E+03 -0.35998704363E+03  0.79911710153E+03  0.10100000352E+00 0.  1.
       -3    1    3    3    0  502  0.29924277439E+03 -0.64765054014E+03 -0.97765145820E+03  0.12102891572E+04  0.10100000352E+00 0. -1.
</event>
<event>
 5   0  0.1576214E-05  0.1499950E+04  0.7818609E-02  0.8884486E-01
       -1   -1    0    0    0  501  0.00000000000E+00  0.00000000000E+00  0.28932950266E+03  0.28932950271E+03  0.50400001928E-02 0. -1.
        1   -1    0    0  501    0  0.00000000000E+00  0.00000000000E+00 -0.19440211595E+04  0.19440211595E+04  0.50400001928E-02 0.  1.
    10030    2    1    2    0    0  0.00000000000E+00  0.00000000000E+00 -0.16546916569E+04  0.22333506622E+04  0.14999502329E+04 0.  0.
        1    1    3    3  502    0 -0.70113128326E+02  0.54342118130E+03 -0.64863578019E+02  0.55175149735E+03  0.50400001928E-02 0.  1.
       -1    1    3    3    0  502  0.70113128326E+02 -0.54342118130E+03 -0.15898280788E+04  0.16815991649E+04  0.50400001928E-02 0. -1.
</event>
<event>
 5   0  0.3093600E-05  0.1499845E+04  0.7818609E-02  0.8884556E-01
        2   -1    0    0  501    0  0.00000000000E+00  0.00000000000E+00  0.81435360936E+03  0.81435360936E+03  0.25500000920E-02 0. -1.
       -2   -1    0    0    0  501  0.00000000000E+00  0.00000000000E+00 -0.69058870366E+03  0.69058870367E+03  0.25500000920E-02 0.  1.
    10030    2    1    2    0    0  0.00000000000E+00  0.00000000000E+00  0.12376490570E+03  0.15049423130E+04  0.14998445298E+04 0.  0.
        1    1    3    3  502    0 -0.23261979356E+03 -0.20000570114E+03  0.74851025614E+03  0.80893871981E+03  0.50400001928E-02 0. -1.
       -1    1    3    3    0  502  0.23261979356E+03  0.20000570114E+03 -0.62474535044E+03  0.69600359321E+03  0.50400001928E-02 0.  1.
</event>
<event>
 5   0  0.1643498E-05  0.1500463E+04  0.7818609E-02  0.8884145E-01
        1   -1    0    0  501    0  0.00000000000E+00  0.00000000000E+00  0.55924498821E+03  0.55924498823E+03  0.50400001928E-02 0.  1.
       -1   -1    0    0    0  501  0.00000000000E+00  0.00000000000E+00 -0.10064408798E+04  0.10064408798E+04  0.50400001928E-02 0. -1.
    10030    2    1    2    0    0  0.00000000000E+00  0.00000000000E+00 -0.44719589163E+03  0.15656858681E+04  0.15004626193E+04 0.  0.
        4    1    3    3  502    0  0.74991646305E+03  0.93988126396E+01 -0.24400211937E+03  0.78867083526E+03  0.12699999809E+01 0.  1.
       -4    1    3    3    0  502 -0.74991646305E+03 -0.93988126396E+01 -0.20319377225E+03  0.77701503281E+03  0.12699999809E+01 0. -1.
</event>
<event>
 5   0  0.1533777E-05  0.1500236E+04  0.7818609E-02  0.8884296E-01
        1   -1    0    0  501    0  0.00000000000E+00  0.00000000000E+00  0.12914890843E+04  0.12914890843E+04  0.50400001928E-02 0.  1.
       -1   -1    0    0    0  501  0.00000000000E+00  0.00000000000E+00 -0.43568062429E+03  0.43568062432E+03  0.50400001928E-02 0. -1.
    10030    2    1    2    0    0  0.00000000000E+00  0.00000000000E+00  0.85580846004E+03  0.17271697087E+04  0.15002356756E+04 0.  0.
        5    1    3    3  502    0  0.10147148000E+03 -0.51952927039E+03 -0.18394502403E+03  0.56041501221E+03  0.46999998093E+01 0. -1.
       -5    1    3    3    0  502 -0.10147148000E+03  0.51952927039E+03  0.10397534841E+04  0.11667546964E+04  0.46999998093E+01 0.  1.
</event>
<event>
 5   0  0.1580078E-05  0.1499253E+04  0.7818609E-02  0.8884950E-01
       -1   -1    0    0    0  501  0.00000000000E+00  0.00000000000E+00  0.61204757510E+03  0.61204757512E+03  0.50400001928E-02 0.  1.
        1   -1    0    0  501    0  0.00000000000E+00  0.00000000000E+00 -0.91813053770E+03  0.91813053771E+03  0.50400001928E-02 0. -1.
    10030    2    1    2    0    0  0.00000000000E+00  0.00000000000E+00 -0.30608296260E+03  0.15301781128E+04  0.14992525728E+04 0.  0.
        2    1    3    3  502    0  0.38085521225E+03 -0.31931928526E+03 -0.72579809278E+03  0.87965809842E+03  0.25500000920E-02 0. -1.
       -2    1    3    3    0  502 -0.38085521225E+03  0.31931928526E+03  0.41971513018E+03  0.65052001441E+03  0.25500000920E-02 0.  1.
</event>
<event>
 5   0  0.1643498E-05  0.1500887E+04  0.7818609E-02  0.8883864E-01
        1   -1    0    0  501    0  0.00000000000E+00  0.00000000000E+00  0.77833912164E+03  0.77833912165E+03  0.50400001928E-02 0. -1.
       -1   -1    0    0    0  501  0.00000000000E+00  0.00000000000E+00 -0.72354732447E+03  0.72354732449E+03  0.50400001928E-02 0.  1.
    10030    2    1    2    0    0  0.00000000000E+00  0.00000000000E+00  0.54791797163E+02  0.15018864461E+04  0.15008866566E+04 0.  0.
        4    1    3    3  502    0  0.48707419804E+03  0.56965097771E+03 -0.10312957894E+02  0.74956752918E+03  0.12699999809E+01 0. -1.
       -4    1    3    3    0  502 -0.48707419804E+03 -0.56965097771E+03  0.65104755057E+02  0.75231891697E+03  0.12699999809E+01 0.  1.
</event>
<event>
 5   0  0.1533777E-05  0.1498066E+04  0.7818609E-02  0.8885740E-01
       -1   -1    0    0    0  501  0.00000000000E+00  0.00000000000E+00  0.82264568376E+03  0.82264568378E+03  0.50400001928E-02 0. -1.
        1   -1    0    0  501    0  0.00000000000E+00  0.00000000000E+00 -0.68200712793E+03  0.68200712795E+03  0.50400001928E-02 0.  1.
    10030    2    1    2    0    0  0.00000000000E+00  0.00000000000E+00  0.14063855584E+03  0.15046528117E+04  0.14980657130E+04 0.  0.
        5    1    3    3  502    0  0.54712162995E+03  0.50869181102E+03  0.16056791992E+02  0.74725453972E+03  0.46999998093E+01 0.  1.
       -5    1    3    3    0  502 -0.54712162995E+03 -0.50869181102E+03  0.12458176385E+03  0.75739827201E+03  0.46999998093E+01 0. -1.
</event>
<event>
 5   0  0.3018308E-05  0.1500664E+04  0.7818609E-02  0.8884011E-01
       -2   -1    0    0    0  501  0.00000000000E+00  0.00000000000E+00  0.38770108961E+03  0.38770108962E+03  0.25500000920E-02 0.  1.
        2   -1    0    0  501    0  0.00000000000E+00  0.00000000000E+00 -0.14521451649E+04  0.14521451649E+04  0.25500000920E-02 0. -1.
    10030    2    1    2    0    0  0.00000000000E+00  0.00000000000E+00 -0.10644440753E+04  0.18398462545E+04  0.15006642032E+04 0.  0.
        2    1    3    3  502    0  0.44327245575E+03  0.65864310843E+02  0.20560413682E+03  0.49305338307E+03  0.25500000920E-02 0.  1.
       -2    1    3    3    0  502 -0.44327245575E+03 -0.65864310843E+02 -0.12700482121E+04  0.13467928714E+04  0.25500000920E-02 0. -1.
</event>
<event>
 5   0  0.1576214E-05  0.1499545E+04  0.7818609E-02  0.8884755E-01
        1   -1    0    0  501    0  0.00000000000E+00  0.00000000000E+00  0.66159056830E+03  0.66159056832E+03  0.50400001928E-02 0. -1.
       -1   -1    0    0    0  501  0.00000000000E+00  0.00000000000E+00 -0.84970826123E+03  0.84970826125E+03  0.50400001928E-02 0.  1.
    10030    2    1    2    0    0  0.00000000000E+00  0.00000000000E+00 -0.18811769293E+03  0.15112988296E+04  0.14995452263E+04 0.  0.
        1    1    3    3  502    0  0.14505704058E+02 -0.23695655456E+03  0.62271186851E+03  0.66642996286E+03  0.50400001928E-02 0. -1.
       -1    1    3    3    0  502 -0.14505704058E+02  0.23695655456E+03 -0.81082956144E+03  0.84486886670E+03  0.50400001928E-02 0.  1.
</event>
<event>
 5   0  0.1576214E-05  0.1499918E+04  0.7818609E-02  0.8884507E-01
        1   -1    0    0  501    0  0.00000000000E+00  0.00000000000E+00  0.70424113909E+03  0.70424113911E+03  0.50400001928E-02 0.  1.
       -1   -1    0    0    0  501  0.00000000000E+00  0.00000000000E+00 -0.79864507797E+03  0.79864507799E+03  0.50400001928E-02 0. -1.
    10030    2    1    2    0    0  0.00000000000E+00  0.00000000000E+00 -0.94403938879E+02  0.15028862171E+04  0.14999182904E+04 0.  0.
        1    1    3    3  502    0 -0.12656567556E+03  0.17093212193E+03  0.67338868123E+03  0.70617913915E+03  0.50400001928E-02 0.  1.
       -1    1    3    3    0  502  0.12656567556E+03 -0.17093212193E+03 -0.76779262011E+03  0.79670707795E+03  0.50400001928E-02 0. -1.
</event>
<event>
 5   0  0.1576214E-05  0.1501904E+04  0.7818609E-02  0.8883188E-01
        1   -1    0    0  501    0  0.00000000000E+00  0.00000000000E+00  0.15101531426E+04  0.15101531426E+04  0.50400001928E-02 0.  1.
       -1   -1    0    0    0  501  0.00000000000E+00  0.00000000000E+00 -0.37342504656E+03  0.37342504659E+03  0.50400001928E-02 0. -1.
    10030    2    1    2    0    0  0.00000000000E+00  0.00000000000E+00  0.11367280961E+04  0.18835781892E+04  0.15019041349E+04 0.  0.
        1    1    3    3  502    0  0.60969420148E+03  0.43828140750E+03  0.58160064943E+03  0.94977730386E+03  0.50400001928E-02 0. -1.
       -1    1    3    3    0  502 -0.60969420148E+03 -0.43828140750E+03  0.55512744663E+03  0.93380088536E+03  0.50400001928E-02 0.  1.
</event>
<event>
 5   0  0.3070497E-05  0.1501339E+04  0.7818609E-02  0.8883563E-01
       -2   -1    0    0    0  501  0.00000000000E+00  0.00000000000E+00  0.76327721240E+03  0.76327721241E+03  0.25500000920E-02 0. -1.
        2   -1    0    0  501    0  0.00000000000E+00  0.00000000000E+00 -0.73827049858E+03  0.73827049859E+03  0.25500000920E-02 0.  1.
    10030    2    1    2    0    0  0.00000000000E+00  0.00000000000E+00  0.25006713821E+02  0.15015477110E+04  0.15013394662E+04 0.  0.
        4    1    3    3  502    0 -0.60360876948E+03  0.37476178541E+03 -0.22983892547E+03  0.74673789709E+03  0.12699999809E+01 0.  1.
       -4    1    3    3    0  502  0.60360876948E+03 -0.37476178541E+03  0.25484563929E+03  0.75480981390E+03  0.12699999809E+01 0. -1.
</event>
<event>
 5   0  0.1588657E-05  0.1499887E+04  0.7818609E-02  0.8884528E-01
        1   -1    0    0  501    0  0.00000000000E+00  0.00000000000E+00  0.16275937105E+04  0.16275937105E+04  0.50400001928E-02 0.  1.
       -1   -1    0    0    0  501  0.00000000000E+00  0.00000000000E+00 -0.34555010420E+03  0.34555010424E+03  0.50400001928E-02 0. -1.
    10030    2    1    2    0    0  0.00000000000E+00  0.00000000000E+00  0.12820436063E+04  0.19731438147E+04  0.14998868975E+04 0.  0.
        3    1    3    3  502    0  0.74842520029E+03 -0.47633779462E+02  0.64421957391E+03  0.98864964825E+03  0.10100000352E+00 0.  1.
       -3    1    3    3    0  502 -0.74842520029E+03  0.47633779462E+02  0.63782403238E+03  0.98449416649E+03  0.10100000352E+00 0. -1.
</event>
<event>
 5   0  0.3070497E-05  0.1499913E+04  0.7818609E-02  0.8884511E-01
       -2   -1    0    0    0  501  0.00000000000E+00  0.00000000000E+00  0.62692225427E+03  0.62692225427E+03  0.25500000920E-02 0.  1.
        2   -1    0    0  501    0  0.00000000000E+00  0.00000000000E+00 -0.89713604255E+03  0.89713604255E+03  0.25500000920E-02 0. -1.
    10030    2    1    2    0    0  0.00000000000E+00  0.00000000000E+00 -0.27021378828E+03  0.15240582968E+04  0.14999127310E+04 0.  0.
        4    1    3    3  502    0  0.87522816419E+02  0.35126807907E+03 -0.80247787449E+03  0.88035325791E+03  0.12699999809E+01 0. -1.
       -4    1    3    3    0  502 -0.87522816419E+02 -0.35126807907E+03  0.53226408621E+03  0.64370503892E+03  0.12699999809E+01 0.  1.
</event>
<event>
 5   0  0.2969498E-05  0.1499624E+04  0.7818609E-02  0.8884703E-01
        2   -1    0    0  501    0  0.00000000000E+00  0.00000000000E+00  0.12050989252E+04  0.12050989252E+04  0.25500000920E-02 0. -1.
       -2   -1    0    0    0  501  0.00000000000E+00  0.00000000000E+00 -0.46653273006E+03  0.46653273007E+03  0.25500000920E-02 0.  1.
    10030    2    1    2    0    0  0.00000000000E+00  0.00000000000E+00  0.73856619515E+03  0.16716316553E+04  0.14996240750E+04 0.  0.
        3    1    3    3  502    0  0.48636307542E+03  0.43434820252E+03 -0.43322763024E+02  0.65351685071E+03  0.10100000352E+00 0.  1.
       -3    1    3    3    0  502 -0.48636307542E+03 -0.43434820252E+03  0.78188895817E+03  0.10181148046E+04  0.10100000352E+00 0. -1.
</event>
<event>
 5   0  0.3093600E-05  0.1499901E+04  0.7818609E-02  0.8884519E-01
        2   -1    0    0  501    0  0.00000000000E+00  0.00000000000E+00  0.61695666597E+03  0.61695666597E+03  0.25500000920E-02 0.  1.
       -2   -1    0    0    0  501  0.00000000000E+00  0.00000000000E+00 -0.91161303960E+03  0.91161303961E+03  0.25500000920E-02 0. -1.
    10030    2    1    2    0    0  0.00000000000E+00  0.00000000000E+00 -0.29465637364E+03  0.15285697056E+04  0.14999009855E+04 0.  0.
        1    1    3    3  502    0  0.40887405757E+03  0.61775555130E+03 -0.26628903937E+03  0.78721646873E+03  0.50400001928E-02 0. -1.
       -1    1    3    3    0  502 -0.40887405757E+03 -0.61775555130E+03 -0.28367334268E+02  0.74135323686E+03  0.50400001928E-02 0.  1.
</event>
<event>
 5   0  0.3070497E-05  0.1499692E+04  0.7818609E-02  0.8884657E-01
        2   -1    0    0  501    0  0.00000000000E+00  0.00000000000E+00  0.14938227664E+04  0.14938227664E+04  0.25500000920E-02 0. -1.
       -2   -1    0    0    0  501  0.00000000000E+00  0.00000000000E+00 -0.37639630902E+03  0.37639630903E+03  0.25500000920E-02 0.  1.
    10030    2    1    2    0    0  0.00000000000E+00  0.00000000000E+00  0.11174264573E+04  0.18702190754E+04  0.14996924693E+04 0.  0.
        4    1    3    3  502    0  0.42318433980E+03  0.40565795971E+03 -0.24382129186E+02  0.58671924022E+03  0.12699999809E+01 0.  1.
       -4    1    3    3    0  502 -0.42318433980E+03 -0.40565795971E+03  0.11418085865E+04  0.12834998352E+04  0.12699999809E+01 0. -1.
</event>
<event>
 5   0  0.1588657E-05  0.1501584E+04  0.7818609E-02  0.8883401E-01
        1   -1    0    0  501    0  0.00000000000E+00  0.00000000000E+00  0.16084356914E+04  0.16084356914E+04  0.50400001928E-02 0.  1.
       -1   -1    0    0    0  501  0.00000000000E+00  0.00000000000E+00 -0.35045746144E+03  0.35045746148E+03  0.50400001928E-02 0. -1.
    10030    2    1    2    0    0  0.00000000000E+00  0.00000000000E+00  0.12579782300E+04  0.19588931529E+04  0.15015835499E+04 0.  0.
        3    1    3    3  502    0 -0.57247987705E+02 -0.64237939828E+03  0.11304524464E+04  0.13014804521E+04  0.10100000352E+00 0.  1.
       -3    1    3    3    0  502  0.57247987705E+02  0.64237939828E+03  0.12752578351E+03  0.65741270074E+03  0.10100000352E+00 0. -1.
</event>
<event>
 5   0  0.2969498E-05  0.1505583E+04  0.7818609E-02  0.8880749E-01
       -2   -1    0    0    0  501  0.00000000000E+00  0.00000000000E+00  0.21005615048E+03  0.21005615050E+03  0.25500000920E-02 0.  1.
        2   -1    0    0  501    0  0.00000000000E+00  0.00000000000E+00 -0.26978253561E+04  0.26978253561E+04  0.25500000920E-02 0. -1.
    10030    2    1    2    0    0  0.00000000000E+00  0.00000000000E+00 -0.24877692057E+04  0.29078815066E+04  0.15055826899E+04 0.  0.
        3    1    3    3  502    0 -0.19867372036E+03 -0.72599190195E+03 -0.12682623481E+04  0.14747965564E+04  0.10100000352E+00 0.  1.
       -3    1    3    3    0  502  0.19867372036E+03  0.72599190195E+03 -0.12195068576E+04  0.14330849503E+04  0.10100000352E+00 0. -1.
</event>
<event>
 5   0  0.1588657E-05  0.1501504E+04  0.7818609E-02  0.8883454E-01
        1   -1    0    0  501    0  0.00000000000E+00  0.00000000000E+00  0.10355264950E+04  0.10355264950E+04  0.50400001928E-02 0.  1.
       -1   -1    0    0    0  501  0.00000000000E+00  0.00000000000E+00 -0.54429154585E+03  0.54429154588E+03  0.50400001928E-02 0. -1.
    10030    2    1    2    0    0  0.00000000000E+00  0.00000000000E+00  0.49123494914E+03  0.15798180409E+04  0.15015036687E+04 0.  0.
        3    1    3    3  502    0 -0.63845554857E+03  0.28086494226E+03  0.53780233874E+03  0.88076215237E+03  0.10100000352E+00 0.  1.
       -3    1    3    3    0  502  0.63845554857E+03 -0.28086494226E+03 -0.46567389604E+02  0.69905588851E+03  0.10100000352E+00 0. -1.
</event>
<event>
 5   0  0.3070497E-05  0.1501045E+04  0.7818609E-02  0.8883758E-01
        2   -1    0    0  501    0  0.00000000000E+00  0.00000000000E+00  0.87416963008E+03  0.87416963008E+03  0.25500000920E-02 0. -1.
       -2   -1    0    0    0  501  0.00000000000E+00  0.00000000000E+00 -0.64436505945E+03  0.64436505946E+03  0.25500000920E-02 0.  1.
    10030    2    1    2    0    0  0.00000000000E+00  0.00000000000E+00  0.22980457063E+03  0.15185346895E+04  0.15010454566E+04 0.  0.
        4    1    3    3  502    0  0.45735673391E+03 -0.24760583290E+03  0.66231591954E+03  0.84210915012E+03  0.12699999809E+01 0. -1.
       -4    1    3    3    0  502 -0.45735673391E+03  0.24760583290E+03 -0.43251134892E+03  0.67642553942E+03  0.12699999809E+01 0.  1.
</event>
<event>
 5   0  0.3018308E-05  0.1502026E+04  0.7818609E-02  0.8883106E-01
       -2   -1    0    0    0  501  0.00000000000E+00  0.00000000000E+00  0.66046122976E+03  0.66046122976E+03  0.25500000920E-02 0. -1.
        2   -1    0    0  501    0  0.00000000000E+00  0.00000000000E+00 -0.85398026789E+03  0.85398026789E+03  0.25500000920E-02 0.  1.
    10030    2    1    2    0    0  0.00000000000E+00  0.00000000000E+00 -0.19351903813E+03  0.15144414977E+04  0.15020264417E+04 0.  0.
        2    1    3    3  502    0  0.16365982432E+03  0.25158617087E+03 -0.79088331727E+03  0.84591758524E+03  0.25500000920E-02 0.  1.
       -2    1    3    3    0  502 -0.16365982432E+03 -0.25158617087E+03  0.59736427914E+03  0.66852391242E+03  0.25500000920E-02 0. -1.
</event>
<event>
 5   0  0.3093600E-05  0.1499147E+04  0.7818609E-02  0.8885021E-01
       -2   -1    0    0    0  501  0.00000000000E+00  0.00000000000E+00  0.48298019941E+03  0.48298019941E+03  0.25500000920E-02 0.  1.
        2   -1    0    0  501    0  0.00000000000E+00  0.00000000000E+00 -0.11633191070E+04  0.11633191070E+04  0.25500000920E-02 0. -1.
    10030    2    1    2    0    0  0.00000000000E+00  0.00000000000E+00 -0.68033890759E+03  0.16462993064E+04  0.14991465496E+04 0.  0.
        1    1    3    3  502    0  0.13107367566E+03  0.22891901748E+03  0.43032404665E+03  0.50474053747E+03  0.50400001928E-02 0.  1.
       -1    1    3    3    0  502 -0.13107367566E+03 -0.22891901748E+03 -0.11106629542E+04  0.11415587690E+04  0.50400001928E-02 0. -1.
</event>
<event>
 5   0  0.2969498E-05  0.1499396E+04  0.7818609E-02  0.8884855E-01
       -2   -1    0    0    0  501  0.00000000000E+00  0.00000000000E+00  0.94698747696E+03  0.94698747697E+03  0.25500000920E-02 0. -1.
        2   -1    0    0  501    0  0.00000000000E+00  0.00000000000E+00 -0.59351063239E+03  0.59351063240E+03  0.25500000920E-02 0.  1.
    10030    2    1    2    0    0  0.00000000000E+00  0.00000000000E+00  0.35347684457E+03  0.15404981094E+04  0.14993960602E+04 0.  0.
        3    1    3    3  502    0  0.46782159669E+03 -0.12134641855E+03 -0.41209091222E+03  0.63513851226E+03  0.10100000352E+00 0.  1.
       -3    1    3    3    0  502 -0.46782159669E+03  0.12134641855E+03  0.76556775679E+03  0.90535959710E+03  0.10100000352E+00 0. -1.
</event>
<event>
 5   0  0.3018308E-05  0.1499817E+04  0.7818609E-02  0.8884575E-01
       -2   -1    0    0    0  501  0.00000000000E+00  0.00000000000E+00  0.71497505356E+03  0.71497505357E+03  0.25500000920E-02 0.  1.
        2   -1    0    0  501    0  0.00000000000E+00  0.00000000000E+00 -0.78654855194E+03  0.78654855195E+03  0.25500000920E-02 0. -1.
    10030    2    1    2    0    0  0.00000000000E+00  0.00000000000E+00 -0.71573498378E+02  0.15015236055E+04  0.14998167796E+04 0.  0.
        2    1    3    3  502    0  0.63432113241E+03  0.35443065871E+03 -0.22141135180E+03  0.75961001676E+03  0.25500000920E-02 0. -1.
       -2    1    3    3    0  502 -0.63432113241E+03 -0.35443065871E+03  0.14983785343E+03  0.74191358875E+03  0.25500000920E-02 0.  1.
</event>
<event>
 5   0  0.1580078E-05  0.1500183E+04  0.7818609E-02  0.8884331E-01
       -1   -1    0    0    0  501  0.00000000000E+00  0.00000000000E+00  0.69401519853E+03  0.69401519855E+03  0.50400001928E-02 0.  1.
        1   -1    0    0  501    0  0.00000000000E+00  0.00000000000E+00 -0.81069867937E+03  0.81069867939E+03  0.50400001928E-02 0. -1.
    10030    2    1    2    0    0  0.00000000000E+00  0.00000000000E+00 -0.11668348084E+03  0.15047138779E+04  0.15001829288E+04 0.  0.
        2    1    3    3  502    0 -0.40970188703E+03  0.16177414898E+03 -0.66730861918E+03  0.79957945494E+03  0.25500000920E-02 0. -1.
       -2    1    3    3    0  502  0.40970188703E+03 -0.16177414898E+03  0.55062513834E+03  0.70513442300E+03  0.25500000920E-02 0.  1.
</event>
<event>
 5   0  0.1580078E-05  0.1500797E+04  0.7818609E-02  0.8883923E-01
       -1   -1    0    0    0  501  0.00000000000E+00  0.00000000000E+00  0.97894930778E+03  0.97894930780E+03  0.50400001928E-02 0.  1.
        1   -1    0    0  501    0  0.00000000000E+00  0.00000000000E+00 -0.57520624660E+03  0.57520624662E+03  0.50400001928E-02 0. -1.
    10030    2    1    2    0    0  0.00000000000E+00  0.00000000000E+00  0.40374306118E+03  0.15541555544E+04  0.15007967977E+04 0.  0.
        2    1    3    3  502    0  0.20570902103E+03 -0.71388330081E+03  0.31123005467E+03  0.80548725344E+03  0.25500000920E-02 0.  1.
       -2    1    3    3    0  502 -0.20570902103E+03  0.71388330081E+03  0.92513006509E+02  0.74866830098E+03  0.25500000920E-02 0. -1.
</event>
<event>
 5   0  0.1643498E-05  0.1499009E+04  0.7818609E-02  0.8885112E-01
       -1   -1    0    0    0  501  0.00000000000E+00  0.00000000000E+00  0.25290986980E+03  0.25290986985E+03  0.50400001928E-02 0. -1.
        1   -1    0    0  501    0  0.00000000000E+00  0.00000000000E+00 -0.22211733783E+04  0.22211733783E+04  0.50400001928E-02 0.  1.
    10030    2    1    2    0    0  0.00000000000E+00  0.00000000000E+00 -0.19682635085E+04  0.24740832482E+04  0.14990085657E+04 0.  0.
        4    1    3    3  502    0 -0.45336688115E+03 -0.15137575039E+02  0.61751351791E+00  0.45362172492E+03  0.12699999809E+01 0. -1.
       -4    1    3    3    0  502  0.45336688115E+03  0.15137575039E+02 -0.19688810220E+04  0.20204615232E+04  0.12699999809E+01 0.  1.
</event>
<event>
 5   0  0.1533777E-05  0.1499913E+04  0.7818609E-02  0.8884511E-01
        1   -1    0    0  501    0  0.00000000000E+00  0.00000000000E+00  0.17568293653E+04  0.17568293653E+04  0.50400001928E-02 0.  1.
       -1   -1    0    0    0  501  0.00000000000E+00  0.00000000000E+00 -0.32014205470E+03  0.32014205474E+03  0.50400001928E-02 0. -1.
    10030    2    1    2    0    0  0.00000000000E+00  0.00000000000E+00  0.14366873106E+04  0.20769714200E+04  0.14999132812E+04 0.  0.
        5    1    3    3  502    0  0.39589749088E+03 -0.24060712496E+03 -0.98277413637E+02  0.47361075990E+03  0.46999998093E+01 0. -1.
       -5    1    3    3    0  502 -0.39589749088E+03  0.24060712496E+03  0.15349647242E+04  0.16033606601E+04  0.46999998093E+01 0.  1.
</event>
<event>
 5   0  0.1533777E-05  0.1500022E+04  0.7818609E-02  0.8884438E-01
        1   -1    0    0  501    0  0.00000000000E+00  0.00000000000E+00  0.92780503864E+03  0.92780503865E+03  0.50400001928E-02 0. -1.
       -1   -1    0    0    0  501  0.00000000000E+00  0.00000000000E+00 -0.60628731883E+03  0.60628731885E+03  0.50400001928E-02 0.  1.
    10030    2    1    2    0    0  0.00000000000E+00  0.00000000000E+00  0.32151771980E+03  0.15340923575E+04  0.15000219056E+04 0.  0.
        5    1    3    3  502    0 -0.37520455221E+03  0.53455958474E+03  0.53786410357E+03  0.84608054554E+03  0.46999998093E+01 0. -1.
       -5    1    3    3    0  502  0.37520455221E+03 -0.53455958474E+03 -0.21634638376E+03  0.68801181196E+03  0.46999998093E+01 0.  1.
</event>
<event>
 5   0  0.2969498E-05  0.1499526E+04  0.7818609E-02  0.8884768E-01
       -2   -1    0    0    0  501  0.00000000000E+00  0.00000000000E+00  0.42803242254E+03  0.42803242255E+03  0.25500000920E-02 0.  1.
        2   -1    0    0  501    0  0.00000000000E+00  0.00000000000E+00 -0.13133219818E+04  0.13133219818E+04  0.25500000920E-02 0. -1.
    10030    2    1    2    0    0  0.00000000000E+00  0.00000000000E+00 -0.88528955921E+03  0.17413544043E+04  0.14995257776E+04 0.  0.
        3    1    3    3  502    0 -0.74343321549E+03  0.65563046235E+02 -0.52600520955E+03  0.91305692571E+03  0.10100000352E+00 0. -1.
       -3    1    3    3    0  502  0.74343321549E+03 -0.65563046235E+02 -0.35928434967E+03  0.82829747859E+03  0.10100000352E+00 0.  1.
</event>
<event>
 5   0  0.2969498E-05  0.1500044E+04  0.7818609E-02  0.8884423E-01
        2   -1    0    0  501    0  0.00000000000E+00  0.00000000000E+00  0.39860511149E+03  0.39860511150E+03  0.25500000920E-02 0. -1.
       -2   -1    0    0    0  501  0.00000000000E+00  0.00000000000E+00 -0.14112547917E+04  0.14112547917E+04  0.25500000920E-02 0.  1.
    10030    2    1    2    0    0  0.00000000000E+00  0.00000000000E+00 -0.10126496802E+04  0.18098599032E+04  0.15000444975E+04 0.  0.
        3    1    3    3  502    0 -0.55575160362E+03  0.15296866268E+03 -0.10853045835E+04  0.12288796954E+04  0.10100000352E+00 0.  1.
       -3    1    3    3    0  502  0.55575160362E+03 -0.15296866268E+03  0.72654903257E+02  0.58098020780E+03  0.10100000352E+00 0. -1.
</event>
<event>
 5   0  0.1533777E-05  0.1499656E+04  0.7818609E-02  0.8884682E-01
       -1   -1    0    0    0  501  0.00000000000E+00  0.00000000000E+00  0.63721112362E+03  0.63721112364E+03  0.50400001928E-02 0.  1.
        1   -1    0    0  501    0  0.00000000000E+00  0.00000000000E+00 -0.88234807858E+03  0.88234807859E+03  0.50400001928E-02 0. -1.
    10030    2    1    2    0    0  0.00000000000E+00  0.00000000000E+00 -0.24513695496E+03  0.15195592022E+04  0.14996559747E+04 0.  0.
        5    1    3    3  502    0 -0.17844538864E+03  0.33142330717E+03  0.53452543874E+03  0.65377649080E+03  0.46999998093E+01 0.  1.
       -5    1    3    3    0  502  0.17844538864E+03 -0.33142330717E+03 -0.77966239370E+03  0.86578271143E+03  0.46999998093E+01 0. -1.
</event>
<event>
 5   0  0.3093600E-05  0.1499926E+04  0.7818609E-02  0.8884502E-01
       -2   -1    0    0    0  501  0.00000000000E+00  0.00000000000E+00  0.40973382366E+03  0.40973382367E+03  0.25500000920E-02 0.  1.
        2   -1    0    0  501    0  0.00000000000E+00  0.00000000000E+00 -0.13727063674E+04  0.13727063674E+04  0.25500000920E-02 0. -1.
    10030    2    1    2    0    0  0.00000000000E+00  0.00000000000E+00 -0.96297254371E+03  0.17824401910E+04  0.14999256364E+04 0.  0.
        1    1    3    3  502    0 -0.50377587605E+03 -0.52091315994E+03 -0.25196630824E+03  0.76722074659E+03  0.50400001928E-02 0. -1.
       -1    1    3    3    0  502  0.50377587605E+03  0.52091315994E+03 -0.71100623548E+03  0.10152194445E+04  0.50400001928E-02 0.  1.
</event>
<event>
 5   0  0.1580078E-05  0.1499888E+04  0.7818609E-02  0.8884528E-01
        1   -1    0    0  501    0  0.00000000000E+00  0.00000000000E+00  0.19952459271E+04  0.19952459272E+04  0.50400001928E-02 0.  1.
       -1   -1    0    0    0  501  0.00000000000E+00  0.00000000000E+00 -0.28187796893E+03  0.28187796897E+03  0.50400001928E-02 0. -1.
    10030    2    1    2    0    0  0.00000000000E+00  0.00000000000E+00  0.17133679582E+04  0.22771238961E+04  0.14998878218E+04 0.  0.
        2    1    3    3  502    0 -0.33342612186E+02 -0.86137674395E+01  0.19940448910E+04  0.19943422359E+04  0.25500000920E-02 0.  1.
       -2    1    3    3    0  502  0.33342612186E+02  0.86137674395E+01 -0.28067693274E+03  0.28278166021E+03  0.25500000920E-02 0. -1.
</event>
<event>
 5   0  0.2969498E-05  0.1500100E+04  0.7818609E-02  0.8884386E-01
        2   -1    0    0  501    0  0.00000000000E+00  0.00000000000E+00  0.71870341055E+03  0.71870341055E+03  0.25500000920E-02 0. -1.
       -2   -1    0    0    0  501  0.00000000000E+00  0.00000000000E+00 -0.78276407523E+03  0.78276407524E+03  0.25500000920E-02 0.  1.
    10030    2    1    2    0    0  0.00000000000E+00  0.00000000000E+00 -0.64060664683E+02  0.15014674858E+04  0.15001002774E+04 0.  0.
        3    1    3    3  502    0  0.59286275023E+02  0.58592905012E+03  0.43287926616E+03  0.73089820321E+03  0.10100000352E+00 0. -1.
       -3    1    3    3    0  502 -0.59286275023E+02 -0.58592905012E+03 -0.49693993085E+03  0.77056928258E+03  0.10100000352E+00 0.  1.
</event>
<event>
 5   0  0.3070497E-05  0.1498942E+04  0.7818609E-02  0.8885157E-01
        2   -1    0    0  501    0  0.00000000000E+00  0.00000000000E+00  0.31271517535E+03  0.31271517536E+03  0.25500000920E-02 0. -1.
       -2   -1    0    0    0  501  0.00000000000E+00  0.00000000000E+00 -0.17962236889E+04  0.17962236889E+04  0.25500000920E-02 0.  1.
    10030    2    1    2    0    0  0.00000000000E+00  0.00000000000E+00 -0.14835085135E+04  0.21089388642E+04  0.14989415010E+04 0.  0.
        4    1    3    3  502    0  0.30133844076E+03  0.58921418640E+03 -0.12366466856E+04  0.14025957547E+04  0.12699999809E+01 0.  1.
       -4    1    3    3    0  502 -0.30133844076E+03 -0.58921418640E+03 -0.24686182791E+03  0.70634310948E+03  0.12699999809E+01 0. -1.
</event>
<event>
 5   0  0.3030702E-05  0.1500401E+04  0.7818609E-02  0.8884186E-01
       -2   -1    0    0    0  501  0.00000000000E+00  0.00000000000E+00  0.24405214879E+03  0.24405214880E+03  0.25500000920E-02 0. -1.
        2   -1    0    0  501    0  0.00000000000E+00  0.00000000000E+00 -0.23060684130E+04  0.23060684130E+04  0.25500000920E-02 0.  1.
    10030    2    1    2    0    0  0.00000000000E+00  0.00000000000E+00 -0.20620162642E+04  0.25501205618E+04  0.15004012150E+04 0.  0.
        5    1    3    3  502    0  0.50735007653E+03 -0.26768721548E+02 -0.19691310367E+04  0.20336223333E+04  0.46999998093E+01 0.  1.
       -5    1    3    3    0  502 -0.50735007653E+03  0.26768721548E+02 -0.92885227521E+02  0.51649822855E+03  0.46999998093E+01 0. -1.
</event>
<event>
 5   0  0.1576214E-05  0.1499885E+04  0.7818609E-02  0.8884530E-01
        1   -1    0    0  501    0  0.00000000000E+00  0.00000000000E+00  0.12904995564E+04  0.12904995565E+04  0.50400001928E-02 0. -1.
       -1   -1    0    0    0  501  0.00000000000E+00  0.00000000000E+00 -0.43581075363E+03  0.43581075366E+03  0.50400001928E-02 0.  1.
    10030    2    1    2    0    0  0.00000000000E+00  0.00000000000E+00  0.85468880282E+03  0.17263103101E+04  0.14998847746E+04 0.  0.
        1    1    3    3  502    0  0.62737641701E+03 -0.40462442732E+03  0.50947090796E+03  0.90381563490E+03  0.50400001928E-02 0. -1.
       -1    1    3    3    0  502 -0.62737641701E+03  0.40462442732E+03  0.34521789486E+03  0.82249467522E+03  0.50400001928E-02 0.  1.
</event>
<event>
 5   0  0.1588657E-05  0.1500071E+04  0.7818609E-02  0.8884406E-01
       -1   -1    0    0    0  501  0.00000000000E+00  0.00000000000E+00  0.10035744915E+04  0.10035744915E+04  0.50400001928E-02 0.  1.
        1   -1    0    0  501    0  0.00000000000E+00  0.00000000000E+00 -0.56054978593E+03  0.56054978595E+03  0.50400001928E-02 0. -1.
    10030    2    1    2    0    0  0.00000000000E+00  0.00000000000E+00  0.44302470556E+03  0.15641242774E+04  0.15000712868E+04 0.  0.
        3    1    3    3  502    0  0.57102007072E+03  0.54462845125E+02  0.72538931163E+03  0.92478093962E+03  0.10100000352E+00 0.  1.
       -3    1    3    3    0  502 -0.57102007072E+03 -0.54462845125E+02 -0.28236460607E+03  0.63934333783E+03  0.10100000352E+00 0. -1.
</event>
<event>
 5   0  0.1643498E-05  0.1491902E+04  0.7818609E-02  0.8889856E-01
        1   -1    0    0  501    0  0.00000000000E+00  0.00000000000E+00  0.14102018405E+04  0.14102018405E+04  0.50400001928E-02 0. -1.
       -1   -1    0    0    0  501  0.00000000000E+00  0.00000000000E+00 -0.39458409246E+03  0.39458409249E+03  0.50400001928E-02 0.  1.
    10030    2    1    2    0    0  0.00000000000E+00  0.00000000000E+00  0.10156177480E+04  0.18047859330E+04  0.14919024277E+04 0.  0.
        4    1    3    3  502    0  0.84102917858E+02 -0.14250373790E+03 -0.37210090533E+03  0.40723618793E+03  0.12699999809E+01 0.  1.
       -4    1    3    3    0  502 -0.84102917858E+02  0.14250373790E+03  0.13877186533E+04  0.13975497450E+04  0.12699999809E+01 0. -1.
</event>
<event>
 5   0  0.1533777E-05  0.1499492E+04  0.7818609E-02  0.8884791E-01
        1   -1    0    0  501    0  0.00000000000E+00  0.00000000000E+00  0.12231031530E+04  0.12231031530E+04  0.50400001928E-02 0.  1.
       -1   -1    0    0    0  501  0.00000000000E+00  0.00000000000E+00 -0.45958408386E+03  0.45958408389E+03  0.50400001928E-02 0. -1.
    10030    2    1    2    0    0  0.00000000000E+00  0.00000000000E+00  0.76351906914E+03  0.16826872369E+04  0.14994915699E+04 0.  0.
        5    1    3    3  502    0  0.31780363198E+03 -0.64888206157E+03  0.60633293818E+03  0.94324376502E+03  0.46999998093E+01 0.  1.
       -5    1    3    3    0  502 -0.31780363198E+03  0.64888206157E+03  0.15718613096E+03  0.73944347187E+03  0.46999998093E+01 0. -1.
</event>
<event>
 5   0  0.2969498E-05  0.1500177E+04  0.7818609E-02  0.8884335E-01
       -2   -1    0    0    0  501  0.00000000000E+00  0.00000000000E+00  0.55205693516E+03  0.55205693516E+03  0.25500000920E-02 0.  1.
        2   -1    0    0  501    0  0.00000000000E+00  0.00000000000E+00 -0.10191568667E+04  0.10191568668E+04  0.25500000920E-02 0. -1.
    10030    2    1    2    0    0  0.00000000000E+00  0.00000000000E+00 -0.46709993159E+03  0.15712138019E+04  0.15001768113E+04 0.  0.
        3    1    3    3  502    0 -0.51620551372E+03 -0.95066616153E+02  0.32766560494E+03  0.61876534548E+03  0.10100000352E+00 0.  1.
       -3    1    3    3    0  502  0.51620551372E+03  0.95066616153E+02 -0.79476553653E+03  0.95244845644E+03  0.10100000352E+00 0. -1.
</event>
<event>
 5   0  0.1580078E-05  0.1499783E+04  0.7818609E-02  0.8884597E-01
        1   -1    0    0  501    0  0.00000000000E+00  0.00000000000E+00  0.88579242883E+03  0.88579242885E+03  0.50400001928E-02 0. -1.
       -1   -1    0    0    0  501  0.00000000000E+00  0.00000000000E+00 -0.63484122701E+03  0.63484122703E+03  0.50400001928E-02 0.  1.
    10030    2    1    2    0    0  0.00000000000E+00  0.00000000000E+00  0.25095120182E+03  0.15206336559E+04  0.14997833876E+04 0.  0.
        2    1    3    3  502    0 -0.14632439073E+03 -0.73427676911E+03  0.82887467268E+02  0.75328847941E+03  0.25500000920E-02 0.  1.
       -2    1    3    3    0  502  0.14632439073E+03  0.73427676911E+03  0.16806373455E+03  0.76734517647E+03  0.25500000920E-02 0. -1.
</event>
<event>
 5   0  0.1643498E-05  0.1500337E+04  0.7818609E-02  0.8884229E-01
       -1   -1    0    0    0  501  0.00000000000E+00  0.00000000000E+00  0.60931593118E+03  0.60931593120E+03  0.50400001928E-02 0.  1.
        1   -1    0    0  501    0  0.00000000000E+00  0.00000000000E+00 -0.92358094639E+03  0.92358094640E+03  0.50400001928E-02 0. -1.
    10030    2    1    2    0    0  0.00000000000E+00  0.00000000000E+00 -0.31426501521E+03  0.15328968776E+04  0.15003367414E+04 0.  0.
        4    1    3    3  502    0  0.55725362116E+03  0.40965026142E+03 -0.45396466501E+03  0.82730312761E+03  0.12699999809E+01 0. -1.
       -4    1    3    3    0  502 -0.55725362116E+03 -0.40965026142E+03  0.13969964980E+03  0.70559374999E+03  0.12699999809E+01 0.  1.
</event>
<event>
 5   0  0.1588657E-05  0.1500122E+04  0.7818609E-02  0.8884372E-01
       -1   -1    0    0    0  501  0.00000000000E+00  0.00000000000E+00  0.19070979240E+04  0.19070979240E+04  0.50400001928E-02 0. -1.
        1   -1    0    0  501    0  0.00000000000E+00  0.00000000000E+00 -0.29499860690E+03  0.29499860694E+03  0.50400001928E-02 0.  1.
    10030    2    1    2    0    0  0.00000000000E+00  0.00000000000E+00  0.16120993171E+04  0.22020965309E+04  0.15001216362E+04 0.  0.
        3    1    3    3  502    0 -0.46570559368E+03  0.49634399622E+03  0.34335069105E+03  0.76231802407E+03  0.10100000352E+00 0. -1.
       -3    1    3    3    0  502  0.46570559368E+03 -0.49634399622E+03  0.12687486260E+04  0.14397785069E+04  0.10100000352E+00 0.  1.
</event>
<event>
 5   0  0.1643498E-05  0.1499872E+04  0.7818609E-02  0.8884538E-01
       -1   -1    0    0    0  501  0.00000000000E+00  0.00000000000E+00  0.50450922811E+03  0.50450922814E+03  0.50400001928E-02 0. -1.
        1   -1    0    0  501    0  0.00000000000E+00  0.00000000000E+00 -0.11147546491E+04  0.11147546491E+04  0.50400001928E-02 0.  1.
    10030    2    1    2    0    0  0.00000000000E+00  0.00000000000E+00 -0.61024542101E+03  0.16192638773E+04  0.14998720047E+04 0.  0.
        4    1    3    3  502    0  0.59468954059E+03  0.22914304570E+03 -0.73185925396E+03  0.97045441190E+03  0.12699999809E+01 0.  1.
       -4    1    3    3    0  502 -0.59468954059E+03 -0.22914304570E+03  0.12161383295E+03  0.64880946536E+03  0.12699999809E+01 0. -1.
</event>
<event>
 5   0  0.3018308E-05  0.1501417E+04  0.7818609E-02  0.8883511E-01
        2   -1    0    0  501    0  0.00000000000E+00  0.00000000000E+00  0.17163356731E+04  0.17163356731E+04  0.25500000920E-02 0. -1.
       -2   -1    0    0    0  501  0.00000000000E+00  0.00000000000E+00 -0.32835276677E+03  0.32835276678E+03  0.25500000920E-02 0.  1.
    10030    2    1    2    0    0  0.00000000000E+00  0.00000000000E+00  0.13879829063E+04  0.20446884398E+04  0.15014174196E+04 0.  0.
        2    1    3    3  502    0 -0.41212021904E+03  0.62224480632E+03  0.80405543564E+03  0.10970582562E+04  0.25500000920E-02 0. -1.
       -2    1    3    3    0  502  0.41212021904E+03 -0.62224480632E+03  0.58392747065E+03  0.94763018363E+03  0.25500000920E-02 0.  1.
</event>
<event>
 5   0  0.3030702E-05  0.1499889E+04  0.7818609E-02  0.8884527E-01
       -2   -1    0    0    0  501  0.00000000000E+00  0.00000000000E+00  0.88846820381E+03  0.88846820381E+03  0.25500000920E-02 0. -1.
        2   -1    0    0  501    0  0.00000000000E+00  0.00000000000E+00 -0.63301843693E+03  0.63301843693E+03  0.25500000920E-02 0.  1.
    10030    2    1    2    0    0  0.00000000000E+00  0.00000000000E+00  0.25544976688E+03  0.15214866407E+04  0.14998890007E+04 0.  0.
        5    1    3    3  502    0  0.64302473278E+03 -0.10793738668E+02 -0.26357221206E+03  0.69504655436E+03  0.46999998093E+01 0.  1.
       -5    1    3    3    0  502 -0.64302473278E+03  0.10793738668E+02  0.51902197894E+03  0.82644008638E+03  0.46999998093E+01 0. -1.
</event>
<event>
 5   0  0.2969498E-05  0.1492388E+04  0.7818609E-02  0.8889531E-01
       -2   -1    0    0    0  501  0.00000000000E+00  0.00000000000E+00  0.52103081555E+03  0.52103081556E+03  0.25500000920E-02 0.  1.
        2   -1    0    0  501    0  0.00000000000E+00  0.00000000000E+00 -0.10686608294E+04  0.10686608294E+04  0.25500000920E-02 0. -1.
    10030    2    1    2    0    0  0.00000000000E+00  0.00000000000E+00 -0.54763001381E+03  0.15896916449E+04  0.14923876487E+04 0.  0.
        3    1    3    3  502    0  0.18779904638E+03 -0.23457084978E+03  0.45373564840E+03  0.54421320658E+03  0.10100000352E+00 0.  1.
       -3    1    3    3    0  502 -0.18779904638E+03  0.23457084978E+03 -0.10013656622E+04  0.10454784383E+04  0.10100000352E+00 0. -1.
</event>
<event>
 5   0  0.3030702E-05  0.1499518E+04  0.7818609E-02  0.8884774E-01
       -2   -1    0    0    0  501  0.00000000000E+00  0.00000000000E+00  0.10099488664E+04  0.10099488664E+04  0.25500000920E-02 0. -1.
        2   -1    0    0  501    0  0.00000000000E+00  0.00000000000E+00 -0.55660070089E+03  0.55660070090E+03  0.25500000920E-02 0.  1.
    10030    2    1    2    0    0  0.00000000000E+00  0.00000000000E+00  0.45334816549E+03  0.15665495673E+04  0.14995175850E+04 0.  0.
        5    1    3    3  502    0 -0.54628716957E+03 -0.32750230968E+03 -0.18651689226E+03  0.66370029048E+03  0.46999998093E+01 0.  1.
       -5    1    3    3    0  502  0.54628716957E+03  0.32750230968E+03  0.63986505775E+03  0.90284927680E+03  0.46999998093E+01 0. -1.
</event>
<event>
 5   0  0.1643498E-05  0.1498209E+04  0.7818609E-02  0.8885645E-01
        1   -1    0    0  501    0  0.00000000000E+00  0.00000000000E+00  0.97975939349E+03  0.97975939350E+03  0.50400001928E-02 0. -1.
       -1   -1    0    0    0  501  0.00000000000E+00  0.00000000000E+00 -0.57275008219E+03  0.57275008222E+03  0.50400001928E-02 0.  1.
    10030    2    1    2    0    0  0.00000000000E+00  0.00000000000E+00  0.40700931129E+03  0.15525094757E+04  0.14982086279E+04 0.  0.
        4    1    3    3  502    0 -0.37986253708E+03  0.11630563826E+03 -0.45459839546E+03  0.60372498923E+03  0.12699999809E+01 0.  1.
       -4    1    3    3    0  502  0.37986253708E+03 -0.11630563826E+03  0.86160770675E+03  0.94878448649E+03  0.12699999809E+01 0. -1.
</event>
<event>
 5   0  0.1588657E-05  0.1499358E+04  0.7818609E-02  0.8884880E-01
        1   -1    0    0  501    0  0.00000000000E+00  0.00000000000E+00  0.22863460577E+04  0.22863460577E+04  0.50400001928E-02 0. -1.
       -1   -1    0    0    0  501  0.00000000000E+00  0.00000000000E+00 -0.24581511589E+03  0.24581511594E+03  0.50400001928E-02 0.  1.
    10030    2    1    2    0    0  0.00000000000E+00  0.00000000000E+00  0.20405309418E+04  0.25321611737E+04  0.14993577575E+04 0.  0.
        3    1    3    3  502    0 -0.19826730124E+03 -0.24553733979E+03 -0.12816401249E+03  0.34062374003E+03  0.10100000352E+00 0.  1.
       -3    1    3    3    0  502  0.19826730124E+03  0.24553733979E+03  0.21686949543E+04  0.21915374336E+04  0.10100000352E+00 0. -1.
</event>
<event>
 5   0  0.1588657E-05  0.1500793E+04  0.7818609E-02  0.8883926E-01
        1   -1    0    0  501    0  0.00000000000E+00  0.00000000000E+00  0.19593840449E+04  0.19593840449E+04  0.50400001928E-02 0. -1.
       -1   -1    0    0    0  501  0.00000000000E+00  0.00000000000E+00 -0.28738375017E+03  0.28738375021E+03  0.50400001928E-02 0.  1.
    10030    2    1    2    0    0  0.00000000000E+00  0.00000000000E+00  0.16720002947E+04  0.22467677951E+04  0.15007933034E+04 0.  0.
        3    1    3    3  502    0  0.48047687745E+01  0.31086054784E+03  0.18584314959E+04  0.18842571484E+04  0.10100000352E+00 0. -1.
       -3    1    3    3    0  502 -0.48047687745E+01 -0.31086054784E+03 -0.18643120120E+03  0.36251064673E+03  0.10100000352E+00 0.  1.
</event>
<event>
 5   0  0.1533777E-05  0.1500726E+04  0.7818609E-02  0.8883970E-01
        1   -1    0    0  501    0  0.00000000000E+00  0.00000000000E+00  0.11085570351E+04  0.11085570351E+04  0.50400001928E-02 0. -1.
       -1   -1    0    0    0  501  0.00000000000E+00  0.00000000000E+00 -0.50790750610E+03  0.50790750612E+03  0.50400001928E-02 0.  1.
    10030    2    1    2    0    0  0.00000000000E+00  0.00000000000E+00  0.60064952897E+03  0.16164645412E+04  0.15007257432E+04 0.  0.
        5    1    3    3  502    0 -0.42361028899E+03  0.43896604313E+03 -0.17027456380E+03  0.63336591401E+03  0.46999998093E+01 0.  1.
       -5    1    3    3    0  502  0.42361028899E+03 -0.43896604313E+03  0.77092409278E+03  0.98309862719E+03  0.46999998093E+01 0. -1.
</event>
<event>
 5   0  0.3018308E-05  0.1499616E+04  0.7818609E-02  0.8884708E-01
       -2   -1    0    0    0  501  0.00000000000E+00  0.00000000000E+00  0.51359707542E+03  0.51359707543E+03  0.25500000920E-02 0.  1.
        2   -1    0    0  501    0  0.00000000000E+00  0.00000000000E+00 -0.10946555519E+04  0.10946555519E+04  0.25500000920E-02 0. -1.
    10030    2    1    2    0    0  0.00000000000E+00  0.00000000000E+00 -0.58105847651E+03  0.16082526274E+04  0.14996158042E+04 0.  0.
        2    1    3    3  502    0 -0.22899729694E+03  0.60922374673E+03  0.10875755307E+03  0.65986478990E+03  0.25500000920E-02 0.  1.
       -2    1    3    3    0  502  0.22899729694E+03 -0.60922374673E+03 -0.68981602957E+03  0.94838783747E+03  0.25500000920E-02 0. -1.
</event>
<event>
 5   0  0.2969498E-05  0.1502326E+04  0.7818609E-02  0.8882908E-01
       -2   -1    0    0    0  501  0.00000000000E+00  0.00000000000E+00  0.62413979352E+03  0.62413979352E+03  0.25500000920E-02 0.  1.
        2   -1    0    0  501    0  0.00000000000E+00  0.00000000000E+00 -0.90403705065E+03  0.90403705065E+03  0.25500000920E-02 0. -1.
    10030    2    1    2    0    0  0.00000000000E+00  0.00000000000E+00 -0.27989725713E+03  0.15281768442E+04  0.15023255281E+04 0.  0.
        3    1    3    3  502    0 -0.47541658250E+03  0.17156380148E+03 -0.70519981024E+03  0.86761849188E+03  0.10100000352E+00 0. -1.
       -3    1    3    3    0  502  0.47541658250E+03 -0.17156380148E+03  0.42530255311E+03  0.66055835229E+03  0.10100000352E+00 0.  1.
</event>
<event>
 5   0  0.2969498E-05  0.1499314E+04  0.7818609E-02  0.8884909E-01
       -2   -1    0    0    0  501  0.00000000000E+00  0.00000000000E+00  0.89726491134E+03  0.89726491135E+03  0.25500000920E-02 0. -1.
        2   -1    0    0  501    0  0.00000000000E+00  0.00000000000E+00 -0.62633198893E+03  0.62633198893E+03  0.25500000920E-02 0.  1.
    10030    2    1    2    0    0  0.00000000000E+00  0.00000000000E+00  0.27093292242E+03  0.15235969003E+04  0.14993141319E+04 0.  0.
        3    1    3    3  502    0  0.52914583182E+03  0.52630764513E+03  0.63677720380E+02  0.74903265011E+03  0.10100000352E+00 0. -1.
       -3    1    3    3    0  502 -0.52914583182E+03 -0.52630764513E+03  0.20725520204E+03  0.77456425016E+03  0.10100000352E+00 0.  1.
</event>
<event>
 5   0  0.1580078E-05  0.1500052E+04  0.7818609E-02  0.8884418E-01
       -1   -1    0    0    0  501  0.00000000000E+00  0.00000000000E+00  0.67159198601E+03  0.67159198603E+03  0.50400001928E-02 0.  1.
        1   -1    0    0  501    0  0.00000000000E+00  0.00000000000E+00 -0.83762023791E+03  0.83762023793E+03  0.50400001928E-02 0. -1.
    10030    2    1    2    0    0  0.00000000000E+00  0.00000000000E+00 -0.16602825190E+03  0.15092122240E+04  0.15000520513E+04 0.  0.
        2    1    3    3  502    0  0.24926464709E+03  0.81279936616E+02 -0.79001413016E+03  0.83238309585E+03  0.25500000920E-02 0. -1.
       -2    1    3    3    0  502 -0.24926464709E+03 -0.81279936616E+02  0.62398587826E+03  0.67682912811E+03  0.25500000920E-02 0.  1.
</event>
<event>
 5   0  0.3070497E-05  0.1500102E+04  0.7818609E-02  0.8884385E-01
       -2   -1    0    0    0  501  0.00000000000E+00  0.00000000000E+00  0.79716804110E+03  0.79716804110E+03  0.25500000920E-02 0.  1.
        2   -1    0    0  501    0  0.00000000000E+00  0.00000000000E+00 -0.70571854946E+03  0.70571854947E+03  0.25500000920E-02 0. -1.
    10030    2    1    2    0    0  0.00000000000E+00  0.00000000000E+00  0.91449491637E+02  0.15028865906E+04  0.15001016948E+04 0.  0.
        4    1    3    3  502    0  0.11997222180E+03  0.39807524401E+03  0.67115721098E+03  0.78950037913E+03  0.12699999809E+01 0.  1.
       -4    1    3    3    0  502 -0.11997222180E+03 -0.39807524401E+03 -0.57970771935E+03  0.71338621144E+03  0.12699999809E+01 0. -1.
</event>
<event>
 5   0  0.2969498E-05  0.1500338E+04  0.7818609E-02  0.8884228E-01
       -2   -1    0    0    0  501  0.00000000000E+00  0.00000000000E+00  0.55359238017E+03  0.55359238017E+03  0.25500000920E-02 0.  1.
        2   -1    0    0  501    0  0.00000000000E+00  0.00000000000E+00 -0.10165485557E+04  0.10165485557E+04  0.25500000920E-02 0. -1.
    10030    2    1    2    0    0  0.00000000000E+00  0.00000000000E+00 -0.46295617554E+03  0.15701409359E+04  0.15003380079E+04 0.  0.
        3    1    3    3  502    0  0.42283850072E+03  0.31165231615E+02  0.41617607327E+03  0.59410958881E+03  0.10100000352E+00 0.  1.
       -3    1    3    3    0  502 -0.42283850072E+03 -0.31165231615E+02 -0.87913224882E+03  0.97603134707E+03  0.10100000352E+00 0. -1.
</event>
<event>
 5   0  0.2969498E-05  0.1501117E+04  0.7818609E-02  0.8883711E-01
        2   -1    0    0  501    0  0.00000000000E+00  0.00000000000E+00  0.36869164829E+03  0.36869164830E+03  0.25500000920E-02 0.  1.
       -2   -1    0    0    0  501  0.00000000000E+00  0.00000000000E+00 -0.15279377344E+04  0.15279377344E+04  0.25500000920E-02 0. -1.
    10030    2    1    2    0    0  0.00000000000E+00  0.00000000000E+00 -0.11592460862E+04  0.18966293827E+04  0.15011167600E+04 0.  0.
        3    1    3    3  502    0  0.54806320325E+03 -0.42652268325E+03 -0.21993520921E+03  0.72846851719E+03  0.10100000352E+00 0.  1.
       -3    1    3    3    0  502 -0.54806320325E+03  0.42652268325E+03 -0.93931087694E+03  0.11681608656E+04  0.10100000352E+00 0. -1.
</event>
<event>
 5   0  0.2969498E-05  0.1499888E+04  0.7818609E-02  0.8884528E-01
       -2   -1    0    0    0  501  0.00000000000E+00  0.00000000000E+00  0.47186222816E+03  0.47186222817E+03  0.25500000920E-02 0. -1.
        2   -1    0    0  501    0  0.00000000000E+00  0.00000000000E+00 -0.11919065909E+04  0.11919065909E+04  0.25500000920E-02 0.  1.
    10030    2    1    2    0    0  0.00000000000E+00  0.00000000000E+00 -0.72004436274E+03  0.16637688191E+04  0.14998875955E+04 0.  0.
        3    1    3    3  502    0  0.48274878271E+03  0.43989003397E+03 -0.76889642972E+03  0.10088366364E+04  0.10100000352E+00 0.  1.
       -3    1    3    3    0  502 -0.48274878271E+03 -0.43989003397E+03  0.48852066979E+02  0.65493218263E+03  0.10100000352E+00 0. -1.
</event>
<event>
 5   0  0.3030702E-05  0.1499780E+04  0.7818609E-02  0.8884599E-01
        2   -1    0    0  501    0  0.00000000000E+00  0.00000000000E+00  0.17382437887E+04  0.17382437887E+04  0.25500000920E-02 0.  1.
       -2   -1    0    0    0  501  0.00000000000E+00  0.00000000000E+00 -0.32350749407E+03  0.32350749408E+03  0.25500000920E-02 0. -1.
    10030    2    1    2    0    0  0.00000000000E+00  0.00000000000E+00  0.14147362946E+04  0.20617512827E+04  0.14997798401E+04 0.  0.
        5    1    3    3  502    0 -0.58326390560E+02 -0.30854817032E+03  0.16434880080E+04  0.16732240924E+04  0.46999998093E+01 0.  1.
       -5    1    3    3    0  502  0.58326390560E+02  0.30854817032E+03 -0.22875171335E+03  0.38852719030E+03  0.46999998093E+01 0. -1.
</event>
<event>
 5   0  0.1588657E-05  0.1499985E+04  0.7818609E-02  0.8884463E-01
        1   -1    0    0  501    0  0.00000000000E+00  0.00000000000E+00  0.40958683467E+03  0.40958683470E+03  0.50400001928E-02 0. -1.
       -1   -1    0    0    0  501  0.00000000000E+00  0.00000000000E+00 -0.13733080507E+04  0.13733080507E+04  0.50400001928E-02 0.  1.
    10030    2    1    2    0    0  0.00000000000E+00  0.00000000000E+00 -0.96372121603E+03  0.17828948854E+04  0.14999851967E+04 0.  0.
        3    1    3    3  502    0  0.22897268291E+03 -0.65106035504E+03 -0.13292599117E+03  0.70283526146E+03  0.10100000352E+00 0. -1.
       -3    1    3    3    0  502 -0.22897268291E+03  0.65106035504E+03 -0.83079522486E+03  0.10800596239E+04  0.10100000352E+00 0.  1.
</event>
<event>
 5   0  0.1580078E-05  0.1500855E+04  0.7818609E-02  0.8883885E-01
        1   -1    0    0  501    0  0.00000000000E+00  0.00000000000E+00  0.13540336588E+04  0.13540336588E+04  0.50400001928E-02 0.  1.
       -1   -1    0    0    0  501  0.00000000000E+00  0.00000000000E+00 -0.41589892514E+03  0.41589892517E+03  0.50400001928E-02 0. -1.
    10030    2    1    2    0    0  0.00000000000E+00  0.00000000000E+00  0.93813473363E+03  0.17699325839E+04  0.15008546143E+04 0.  0.
        2    1    3    3  502    0 -0.38957722747E+03 -0.28952657437E+03  0.11439894627E+04  0.12427018727E+04  0.25500000920E-02 0.  1.
       -2    1    3    3    0  502  0.38957722747E+03  0.28952657437E+03 -0.20585472911E+03  0.52723071129E+03  0.25500000920E-02 0. -1.
</event>
<event>
 5   0  0.1643498E-05  0.1500193E+04  0.7818609E-02  0.8884325E-01
        1   -1    0    0  501    0  0.00000000000E+00  0.00000000000E+00  0.50447491168E+03  0.50447491170E+03  0.50400001928E-02 0.  1.
       -1   -1    0    0    0  501  0.00000000000E+00  0.00000000000E+00 -0.11153073596E+04  0.11153073596E+04  0.50400001928E-02 0. -1.
    10030    2    1    2    0    0  0.00000000000E+00  0.00000000000E+00 -0.61083244791E+03  0.16197822713E+04  0.15001927633E+04 0.  0.
        4    1    3    3  502    0  0.35444732349E+03 -0.44921853248E+03 -0.82906492048E+03  0.10073631174E+04  0.12699999809E+01 0. -1.
       -4    1    3    3    0  502 -0.35444732349E+03  0.44921853248E+03  0.21823247257E+03  0.61241915388E+03  0.12699999809E+01 0.  1.
</event>
<event>
 5   0  0.2969498E-05  0.1499951E+04  0.7818609E-02  0.8884485E-01
       -2   -1    0    0    0  501  0.00000000000E+00  0.00000000000E+00  0.52620772723E+03  0.52620772724E+03  0.25500000920E-02 0. -1.
        2   -1    0    0  501    0  0.00000000000E+00  0.00000000000E+00 -0.10689001332E+04  0.10689001332E+04  0.25500000920E-02 0.  1.
    10030    2    1    2    0    0  0.00000000000E+00  0.00000000000E+00 -0.54269240601E+03  0.15951078605E+04  0.14999513456E+04 0.  0.
        3    1    3    3  502    0 -0.17202072172E+03  0.61868497353E+03  0.14066125070E+03  0.65737951202E+03  0.10100000352E+00 0. -1.
       -3    1    3    3    0  502  0.17202072172E+03 -0.61868497353E+03 -0.68335365671E+03  0.93772834847E+03  0.10100000352E+00 0.  1.
</event>
<event>
 5   0  0.2969498E-05  0.1501018E+04  0.7818609E-02  0.8883776E-01
       -2   -1    0    0    0  501  0.00000000000E+00  0.00000000000E+00  0.39124124716E+03  0.39124124717E+03  0.25500000920E-02 0.  1.
        2   -1    0    0  501    0  0.00000000000E+00  0.00000000000E+00 -0.14396837195E+04  0.14396837195E+04  0.25500000920E-02 0. -1.
    10030    2    1    2    0    0  0.00000000000E+00  0.00000000000E+00 -0.10484424724E+04  0.18309249667E+04  0.15010178599E+04 0.  0.
        3    1    3    3  502    0  0.36789031747E+03 -0.12946529333E+03 -0.13063704953E+04  0.13633445746E+04  0.10100000352E+00 0. -1.
       -3    1    3    3    0  502 -0.36789031747E+03  0.12946529333E+03  0.25792802294E+03  0.46758039211E+03  0.10100000352E+00 0.  1.
</event>
<event>
 5   0  0.3093600E-05  0.1499624E+04  0.7818609E-02  0.8884703E-01
       -2   -1    0    0    0  501  0.00000000000E+00  0.00000000000E+00  0.52442487955E+03  0.52442487956E+03  0.25500000920E-02 0.  1.
        2   -1    0    0  501    0  0.00000000000E+00  0.00000000000E+00 -0.10720652939E+04  0.10720652939E+04  0.25500000920E-02 0. -1.
    10030    2    1    2    0    0  0.00000000000E+00  0.00000000000E+00 -0.54764041431E+03  0.15964901734E+04  0.14996235696E+04 0.  0.
        1    1    3    3  502    0 -0.72829468953E+03 -0.17823947644E+03 -0.26749981555E+03  0.79607701707E+03  0.50400001928E-02 0. -1.
       -1    1    3    3    0  502  0.72829468953E+03  0.17823947644E+03 -0.28014059876E+03  0.80041315635E+03  0.50400001928E-02 0.  1.
</event>
<event>
 5   0  0.1576214E-05  0.1499456E+04  0.7818609E-02  0.8884815E-01
        1   -1    0    0  501    0  0.00000000000E+00  0.00000000000E+00  0.11118532881E+04  0.11118532881E+04  0.50400001928E-02 0.  1.
       -1   -1    0    0    0  501  0.00000000000E+00  0.00000000000E+00 -0.50554498247E+03  0.50554498250E+03  0.50400001928E-02 0. -1.
    10030    2    1    2    0    0  0.00000000000E+00  0.00000000000E+00  0.60630830558E+03  0.16173982706E+04  0.14994557026E+04 0.  0.
        1    1    3    3  502    0  0.19088052935E+03  0.31248454009E+03  0.10088380942E+04  0.10732363507E+04  0.50400001928E-02 0.  1.
       -1    1    3    3    0  502 -0.19088052935E+03 -0.31248454009E+03 -0.40252978858E+03  0.54416191983E+03  0.50400001928E-02 0. -1.
</event>
<event>
 5   0  0.3018308E-05  0.1498264E+04  0.7818609E-02  0.8885608E-01
       -2   -1    0    0    0  501  0.00000000000E+00  0.00000000000E+00  0.49384578178E+03  0.49384578178E+03  0.25500000920E-02 0.  1.
        2   -1    0    0  501    0  0.00000000000E+00  0.00000000000E+00 -0.11363850227E+04  0.11363850227E+04  0.25500000920E-02 0. -1.
    10030    2    1    2    0    0  0.00000000000E+00  0.00000000000E+00 -0.64253924095E+03  0.16302308045E+04  0.14982642623E+04 0.  0.
        2    1    3    3  502    0 -0.58886886405E+03 -0.45989372730E+03 -0.26237072914E+03  0.79190099064E+03  0.25500000920E-02 0.  1.
       -2    1    3    3    0  502  0.58886886405E+03  0.45989372730E+03 -0.38016851181E+03  0.83832981388E+03  0.25500000920E-02 0. -1.
</event>
<event>
 5   0  0.2969498E-05  0.1500352E+04  0.7818609E-02  0.8884219E-01
        2   -1    0    0  501    0  0.00000000000E+00  0.00000000000E+00  0.18412435250E+04  0.18412435250E+04  0.25500000920E-02 0. -1.
       -2   -1    0    0    0  501  0.00000000000E+00  0.00000000000E+00 -0.30564351986E+03  0.30564351987E+03  0.25500000920E-02 0.  1.
    10030    2    1    2    0    0  0.00000000000E+00  0.00000000000E+00  0.15356000051E+04  0.21468870449E+04  0.15003521612E+04 0.  0.
        3    1    3    3  502    0 -0.44716886192E+03 -0.37031405542E+03  0.14475582573E+04  0.15596529772E+04  0.10100000352E+00 0. -1.
       -3    1    3    3    0  502  0.44716886192E+03  0.37031405542E+03  0.88041747833E+02  0.58723406770E+03  0.10100000352E+00 0.  1.
</event>
<event>
 5   0  0.1576214E-05  0.1499820E+04  0.7818609E-02  0.8884573E-01
        1   -1    0    0  501    0  0.00000000000E+00  0.00000000000E+00  0.34408435996E+03  0.34408436000E+03  0.50400001928E-02 0. -1.
       -1   -1    0    0    0  501  0.00000000000E+00  0.00000000000E+00 -0.16343812535E+04  0.16343812535E+04  0.50400001928E-02 0.  1.
    10030    2    1    2    0    0  0.00000000000E+00  0.00000000000E+00 -0.12902968935E+04  0.19784656135E+04  0.14998200260E+04 0.  0.
        1    1    3    3  502    0  0.56077948488E+03 -0.26921280870E+03 -0.11976376399E+04  0.13495499559E+04  0.50400001928E-02 0.  1.
       -1    1    3    3    0  502 -0.56077948488E+03  0.26921280870E+03 -0.92659253651E+02  0.62891565757E+03  0.50400001928E-02 0. -1.
</event>
<event>
 5   0  0.3070497E-05  0.1499777E+04  0.7818609E-02  0.8884601E-01
       -2   -1    0    0    0  501  0.00000000000E+00  0.00000000000E+00  0.17861372059E+04  0.17861372059E+04  0.25500000920E-02 0. -1.
        2   -1    0    0  501    0  0.00000000000E+00  0.00000000000E+00 -0.31483171233E+03  0.31483171234E+03  0.25500000920E-02 0.  1.
    10030    2    1    2    0    0  0.00000000000E+00  0.00000000000E+00  0.14713054936E+04  0.21009689183E+04  0.14997768301E+04 0.  0.
        4    1    3    3  502    0  0.74166181842E+02 -0.32354033911E+03 -0.20631327845E+03  0.39082701458E+03  0.12699999809E+01 0.  1.
       -4    1    3    3    0  502 -0.74166181842E+02  0.32354033911E+03  0.16776187720E+04  0.17101419037E+04  0.12699999809E+01 0. -1.
</event>
<event>
 5   0  0.1533777E-05  0.1499799E+04  0.7818609E-02  0.8884587E-01
       -1   -1    0    0    0  501  0.00000000000E+00  0.00000000000E+00  0.30619215295E+03  0.30619215299E+03  0.50400001928E-02 0. -1.
        1   -1    0    0  501    0  0.00000000000E+00  0.00000000000E+00 -0.18365892305E+04  0.18365892305E+04  0.50400001928E-02 0.  1.
    10030    2    1    2    0    0  0.00000000000E+00  0.00000000000E+00 -0.15303970776E+04  0.21427813835E+04  0.14997989340E+04 0.  0.
        5    1    3    3  502    0 -0.56829276428E+03 -0.48496058064E+03 -0.85760972987E+03  0.11373917397E+04  0.46999998093E+01 0.  1.
       -5    1    3    3    0  502  0.56829276428E+03  0.48496058064E+03 -0.67278734768E+03  0.10053896438E+04  0.46999998093E+01 0. -1.
</event>
<event>
 5   0  0.3030702E-05  0.1500090E+04  0.7818609E-02  0.8884393E-01
        2   -1    0    0  501    0  0.00000000000E+00  0.00000000000E+00  0.15853028556E+04  0.15853028556E+04  0.25500000920E-02 0.  1.
       -2   -1    0    0    0  501  0.00000000000E+00  0.00000000000E+00 -0.35486451737E+03  0.35486451738E+03  0.25500000920E-02 0. -1.
    10030    2    1    2    0    0  0.00000000000E+00  0.00000000000E+00  0.12304383382E+04  0.19401673730E+04  0.15000903076E+04 0.  0.
        5    1    3    3  502    0 -0.12211047278E+03 -0.49685422469E+03 -0.94096331020E+02  0.52024157626E+03  0.46999998093E+01 0. -1.
       -5    1    3    3    0  502  0.12211047278E+03  0.49685422469E+03  0.13245346692E+04  0.14199257967E+04  0.46999998093E+01 0.  1.
</event>
<event>
 5   0  0.3070497E-05  0.1500104E+04  0.7818609E-02  0.8884384E-01
        2   -1    0    0  501    0  0.00000000000E+00  0.00000000000E+00  0.26699991096E+04  0.26699991096E+04  0.25500000920E-02 0. -1.
       -2   -1    0    0    0  501  0.00000000000E+00  0.00000000000E+00 -0.21070347848E+03  0.21070347849E+03  0.25500000920E-02 0.  1.
    10030    2    1    2    0    0  0.00000000000E+00  0.00000000000E+00  0.24592956312E+04  0.28807025881E+04  0.15001041297E+04 0.  0.
        4    1    3    3  502    0 -0.43997543477E+02  0.64342055155E+03  0.49425550923E+03  0.81253671381E+03  0.12699999809E+01 0. -1.
       -4    1    3    3    0  502  0.43997543477E+02 -0.64342055155E+03  0.19650401219E+04  0.20681658743E+04  0.12699999809E+01 0.  1.
</event>
<event>
 5   0  0.2969498E-05  0.1499754E+04  0.7818609E-02  0.8884617E-01
        2   -1    0    0  501    0  0.00000000000E+00  0.00000000000E+00  0.23855583357E+04  0.23855583357E+04  0.25500000920E-02 0. -1.
       -2   -1    0    0    0  501  0.00000000000E+00  0.00000000000E+00 -0.23571647531E+03  0.23571647533E+03  0.25500000920E-02 0.  1.
    10030    2    1    2    0    0  0.00000000000E+00  0.00000000000E+00  0.21498418604E+04  0.26212748110E+04  0.14997538499E+04 0.  0.
        3    1    3    3  502    0  0.30864664426E+03  0.35830633579E+03  0.20920602114E+04  0.21448454769E+04  0.10100000352E+00 0. -1.
       -3    1    3    3    0  502 -0.30864664426E+03 -0.35830633579E+03  0.57781648969E+02  0.47642933415E+03  0.10100000352E+00 0.  1.
</event>
<event>
 5   0  0.3030702E-05  0.1500194E+04  0.7818609E-02  0.8884324E-01
       -2   -1    0    0    0  501  0.00000000000E+00  0.00000000000E+00  0.24375509437E+03  0.24375509438E+03  0.25500000920E-02 0.  1.
        2   -1    0    0  501    0  0.00000000000E+00  0.00000000000E+00 -0.23082421179E+04  0.23082421179E+04  0.25500000920E-02 0. -1.
    10030    2    1    2    0    0  0.00000000000E+00  0.00000000000E+00 -0.20644870235E+04  0.25519972123E+04  0.15001943544E+04 0.  0.
        5    1    3    3  502    0  0.21530807570E+03  0.71754222236E+03 -0.96861020243E+03  0.12245212218E+04  0.46999998093E+01 0. -1.
       -5    1    3    3    0  502 -0.21530807570E+03 -0.71754222236E+03 -0.10958768211E+04  0.13274759905E+04  0.46999998093E+01 0.  1.
</event>
<event>
 5   0  0.3070497E-05  0.1499728E+04  0.7818609E-02  0.8884634E-01
       -2   -1    0    0    0  501  0.00000000000E+00  0.00000000000E+00  0.15161079495E+04  0.15161079495E+04  0.25500000920E-02 0. -1.
        2   -1    0    0  501    0  0.00000000000E+00  0.00000000000E+00 -0.37088138060E+03  0.37088138061E+03  0.25500000920E-02 0.  1.
    10030    2    1    2    0    0  0.00000000000E+00  0.00000000000E+00  0.11452265689E+04  0.18869893301E+04  0.14997282547E+04 0.  0.
        4    1    3    3  502    0  0.34780189342E+02 -0.37051619589E+03 -0.24649010317E+03  0.44637528700E+03  0.12699999809E+01 0.  1.
       -4    1    3    3    0  502 -0.34780189342E+02  0.37051619589E+03  0.13917166721E+04  0.14406140431E+04  0.12699999809E+01 0. -1.
</event>
<event>
 5   0  0.2969498E-05  0.1495117E+04  0.7818609E-02  0.8887707E-01
       -2   -1    0    0    0  501  0.00000000000E+00  0.00000000000E+00  0.12274268870E+04  0.12274268870E+04  0.25500000920E-02 0.  1.
        2   -1    0    0  501    0  0.00000000000E+00  0.00000000000E+00 -0.45529677066E+03  0.45529677066E+03  0.25500000920E-02 0. -1.
    10030    2    1    2    0    0  0.00000000000E+00  0.00000000000E+00  0.77213011632E+03  0.16827236576E+04  0.14951167150E+04 0.  0.
        3    1    3    3  502    0  0.63190977000E+03  0.39361687874E+03  0.30973725359E+03  0.80633825477E+03  0.10100000352E+00 0.  1.
       -3    1    3    3    0  502 -0.63190977000E+03 -0.39361687874E+03  0.46239286273E+03  0.87638540286E+03  0.10100000352E+00 0. -1.
</event>
<event>
 5   0  0.1533777E-05  0.1500204E+04  0.7818609E-02  0.8884318E-01
        1   -1    0    0  501    0  0.00000000000E+00  0.00000000000E+00  0.36257469977E+03  0.36257469980E+03  0.50400001928E-02 0.  1.
       -1   -1    0    0    0  501  0.00000000000E+00  0.00000000000E+00 -0.15518254589E+04  0.15518254589E+04  0.50400001928E-02 0. -1.
    10030    2    1    2    0    0  0.00000000000E+00  0.00000000000E+00 -0.11892507591E+04  0.19144001587E+04  0.15002035194E+04 0.  0.
        5    1    3    3  502    0  0.64857442750E+03  0.19683815267E+03 -0.18461088837E+03  0.70249364157E+03  0.46999998093E+01 0.  1.
       -5    1    3    3    0  502 -0.64857442750E+03 -0.19683815267E+03 -0.10046398707E+04  0.12119065171E+04  0.46999998093E+01 0. -1.
</event>
<event>
 5   0  0.3093600E-05  0.1499723E+04  0.7818609E-02  0.8884637E-01
        2   -1    0    0  501    0  0.00000000000E+00  0.00000000000E+00  0.15328450052E+04  0.15328450052E+04  0.25500000920E-02 0. -1.
       -2   -1    0    0    0  501  0.00000000000E+00  0.00000000000E+00 -0.36682929315E+03  0.36682929316E+03  0.25500000920E-02 0.  1.
    10030    2    1    2    0    0  0.00000000000E+00  0.00000000000E+00  0.11660157121E+04  0.18996742984E+04  0.14997232408E+04 0.  0.
        1    1    3    3  502    0 -0.16192646591E+02 -0.56838576218E+03  0.12022176039E+04  0.13299066673E+04  0.50400001928E-02 0. -1.
       -1    1    3    3    0  502  0.16192646591E+02  0.56838576218E+03 -0.36201891861E+02  0.56976763110E+03  0.50400001928E-02 0.  1.
</event>
<event>
 5   0  0.1588657E-05  0.1500782E+04  0.7818609E-02  0.8883933E-01
        1   -1    0    0  501    0  0.00000000000E+00  0.00000000000E+00  0.58834832680E+03  0.58834832683E+03  0.50400001928E-02 0.  1.
       -1   -1    0    0    0  501  0.00000000000E+00  0.00000000000E+00 -0.95706287771E+03  0.95706287773E+03  0.50400001928E-02 0. -1.
    10030    2    1    2    0    0  0.00000000000E+00  0.00000000000E+00 -0.36871455091E+03  0.15454112046E+04  0.15007815867E+04 0.  0.
        3    1    3    3  502    0  0.28602489230E+03  0.64555612378E+03 -0.44594585863E+03  0.83511715765E+03  0.10100000352E+00 0. -1.
       -3    1    3    3    0  502 -0.28602489230E+03 -0.64555612378E+03  0.77231307717E+02  0.71029404690E+03  0.10100000352E+00 0.  1.
</event>
<event>
 5   0  0.3070497E-05  0.1499868E+04  0.7818609E-02  0.8884540E-01
        2   -1    0    0  501    0  0.00000000000E+00  0.00000000000E+00  0.94634936009E+03  0.94634936009E+03  0.25500000920E-02 0. -1.
       -2   -1    0    0    0  501  0.00000000000E+00  0.00000000000E+00 -0.59428506191E+03  0.59428506191E+03  0.25500000920E-02 0.  1.
    10030    2    1    2    0    0  0.00000000000E+00  0.00000000000E+00  0.35206429818E+03  0.15406344220E+04  0.14998683783E+04 0.  0.
        4    1    3    3  502    0 -0.36339489251E+02  0.65660255015E+03  0.54631899048E+03  0.85493480430E+03  0.12699999809E+01 0.  1.
       -4    1    3    3    0  502  0.36339489251E+02 -0.65660255015E+03 -0.19425469230E+03  0.68569961771E+03  0.12699999809E+01 0. -1.
</event>
<event>
 5   0  0.3070497E-05  0.1498946E+04  0.7818609E-02  0.8885154E-01
       -2   -1    0    0    0  501  0.00000000000E+00  0.00000000000E+00  0.63574925090E+03  0.63574925091E+03  0.25500000920E-02 0.  1.
        2   -1    0    0  501    0  0.00000000000E+00  0.00000000000E+00 -0.88353969329E+03  0.88353969330E+03  0.25500000920E-02 0. -1.
    10030    2    1    2    0    0  0.00000000000E+00  0.00000000000E+00 -0.24779044239E+03  0.15192889442E+04  0.14989458938E+04 0.  0.
        4    1    3    3  502    0  0.98117687055E+02  0.66879540697E+03 -0.45200715412E+03  0.81315832233E+03  0.12699999809E+01 0.  1.
       -4    1    3    3    0  502 -0.98117687055E+02 -0.66879540697E+03  0.20421671172E+03  0.70613062187E+03  0.12699999809E+01 0. -1.
</event>
<event>
 5   0  0.1116613E-05  0.1500100E+04  0.7818609E-02  0.8884386E-01
       -3   -1    0    0    0  501  0.00000000000E+00  0.00000000000E+00  0.35705583500E+03  0.35705584928E+03  0.10100000352E+00 0.  1.
        3   -1    0    0  501    0  0.00000000000E+00  0.00000000000E+00 -0.15755940149E+04  0.15755940181E+04  0.10100000352E+00 0. -1.
    10030    2    1    2    0    0  0.00000000000E+00  0.00000000000E+00 -0.12185381799E+04  0.19326498674E+04  0.15001000680E+04 0.  0.
        1    1    3    3  502    0 -0.84155471036E+01 -0.58063574109E+03  0.23450306433E+01  0.58070145898E+03  0.50400001928E-02 0.  1.
       -1    1    3    3    0  502  0.84155471036E+01  0.58063574109E+03 -0.12208832105E+04  0.13519484084E+04  0.50400001928E-02 0. -1.
</event>
<event>
 5   0  0.3070497E-05  0.1499984E+04  0.7818609E-02  0.8884464E-01
        2   -1    0    0  501    0  0.00000000000E+00  0.00000000000E+00  0.82225715924E+03  0.82225715924E+03  0.25500000920E-02 0.  1.
       -2   -1    0    0    0  501  0.00000000000E+00  0.00000000000E+00 -0.68407775302E+03  0.68407775303E+03  0.25500000920E-02 0. -1.
    10030    2    1    2    0    0  0.00000000000E+00  0.00000000000E+00  0.13817940621E+03  0.15063349123E+04  0.14999837731E+04 0.  0.
        4    1    3    3  502    0  0.11013549875E+03 -0.32879357210E+03 -0.59874576318E+03  0.69190544366E+03  0.12699999809E+01 0. -1.
       -4    1    3    3    0  502 -0.11013549875E+03  0.32879357210E+03  0.73692516939E+03  0.81442946860E+03  0.12699999809E+01 0.  1.
</event>
<event>
 5   0  0.3093600E-05  0.1495912E+04  0.7818609E-02  0.8887176E-01
        2   -1    0    0  501    0  0.00000000000E+00  0.00000000000E+00  0.91054663911E+03  0.91054663911E+03  0.25500000920E-02 0.  1.
       -2   -1    0    0    0  501  0.00000000000E+00  0.00000000000E+00 -0.61439831444E+03  0.61439831444E+03  0.25500000920E-02 0. -1.
    10030    2    1    2    0    0  0.00000000000E+00  0.00000000000E+00  0.29614832467E+03  0.15249449536E+04  0.14959121903E+04 0.  0.
        1    1    3    3  502    0  0.61700125096E+03 -0.39140591845E+03  0.31101748923E+03  0.79411649984E+03  0.50400001928E-02 0.  1.
       -1    1    3    3    0  502 -0.61700125096E+03  0.39140591845E+03 -0.14869164562E+02  0.73082845372E+03  0.50400001928E-02 0. -1.
</event>
<event>
 5   0  0.1643498E-05  0.1501207E+04  0.7818609E-02  0.8883650E-01
        1   -1    0    0  501    0  0.00000000000E+00  0.00000000000E+00  0.43738828494E+03  0.43738828497E+03  0.50400001928E-02 0.  1.
       -1   -1    0    0    0  501  0.00000000000E+00  0.00000000000E+00 -0.12881139080E+04  0.12881139080E+04  0.50400001928E-02 0. -1.
    10030    2    1    2    0    0  0.00000000000E+00  0.00000000000E+00 -0.85072562306E+03  0.17255021930E+04  0.15012074248E+04 0.  0.
        4    1    3    3  502    0 -0.59185364032E+03  0.41671370336E+03 -0.65369723514E+03  0.97532698633E+03  0.12699999809E+01 0.  1.
       -4    1    3    3    0  502  0.59185364032E+03 -0.41671370336E+03 -0.19702838792E+03  0.75017520665E+03  0.12699999809E+01 0. -1.
</event>
<event>
 5   0  0.1116613E-05  0.1500717E+04  0.7818609E-02  0.8883976E-01
       -3   -1    0    0    0  501  0.00000000000E+00  0.00000000000E+00  0.47543202329E+03  0.47543203402E+03  0.10100000352E+00 0. -1.
        3   -1    0    0  501    0  0.00000000000E+00  0.00000000000E+00 -0.11842652644E+04  0.11842652687E+04  0.10100000352E+00 0.  1.
    10030    2    1    2    0    0  0.00000000000E+00  0.00000000000E+00 -0.70883324109E+03  0.16596973027E+04  0.15007166864E+04 0.  0.
        3    1    3    3  502    0 -0.49975908463E+03  0.43117392187E+03  0.40276499517E+02  0.66128080282E+03  0.10100000352E+00 0. -1.
       -3    1    3    3    0  502  0.49975908463E+03 -0.43117392187E+03 -0.74910974061E+03  0.99841649989E+03  0.10100000352E+00 0.  1.
</event>
<event>
 5   0  0.1533777E-05  0.1500114E+04  0.7818609E-02  0.8884377E-01
        1   -1    0    0  501    0  0.00000000000E+00  0.00000000000E+00  0.66242293587E+03  0.66242293589E+03  0.50400001928E-02 0.  1.
       -1   -1    0    0    0  501  0.00000000000E+00  0.00000000000E+00 -0.84928452790E+03  0.84928452791E+03  0.50400001928E-02 0. -1.
    10030    2    1    2    0    0  0.00000000000E+00  0.00000000000E+00 -0.18686159202E+03  0.15117074638E+04  0.15001140628E+04 0.  0.
        5    1    3    3  502    0 -0.19187606426E+03  0.53025947169E+03  0.40493333771E+03  0.69425112845E+03  0.46999998093E+01 0.  1.
       -5    1    3    3    0  502  0.19187606426E+03 -0.53025947169E+03 -0.59179492973E+03  0.81745633536E+03  0.46999998093E+01 0. -1.
</event>
<event>
 5   0  0.3070497E-05  0.1499778E+04  0.7818609E-02  0.8884601E-01
        2   -1    0    0  501    0  0.00000000000E+00  0.00000000000E+00  0.17455912618E+04  0.17455912618E+04  0.25500000920E-02 0. -1.
       -2   -1    0    0    0  501  0.00000000000E+00  0.00000000000E+00 -0.32214496300E+03  0.32214496301E+03  0.25500000920E-02 0.  1.
    10030    2    1    2    0    0  0.00000000000E+00  0.00000000000E+00  0.14234462988E+04  0.20677362248E+04  0.14997778935E+04 0.  0.
        4    1    3    3  502    0  0.88777673080E+02  0.33399998956E+03  0.16292488944E+04  0.16655002375E+04  0.12699999809E+01 0. -1.
       -4    1    3    3    0  502 -0.88777673080E+02 -0.33399998956E+03 -0.20580259559E+03  0.40223598734E+03  0.12699999809E+01 0.  1.
</event>
<event>
 5   0  0.3093600E-05  0.1500341E+04  0.7818609E-02  0.8884226E-01
       -2   -1    0    0    0  501  0.00000000000E+00  0.00000000000E+00  0.12407209474E+04  0.12407209474E+04  0.25500000920E-02 0. -1.
        2   -1    0    0  501    0  0.00000000000E+00  0.00000000000E+00 -0.45357183311E+03  0.45357183311E+03  0.25500000920E-02 0.  1.
    10030    2    1    2    0    0  0.00000000000E+00  0.00000000000E+00  0.78714911429E+03  0.16942927805E+04  0.15003413938E+04 0.  0.
        1    1    3    3  502    0  0.46334853880E+03  0.43197609023E+01  0.10597926285E+04  0.11566637127E+04  0.50400001928E-02 0. -1.
       -1    1    3    3    0  502 -0.46334853880E+03 -0.43197609023E+01 -0.27264351421E+03  0.53762906785E+03  0.50400001928E-02 0.  1.
</event>
<event>
 5   0  0.3018308E-05  0.1497524E+04  0.7818609E-02  0.8886101E-01
       -2   -1    0    0    0  501  0.00000000000E+00  0.00000000000E+00  0.52701402106E+03  0.52701402106E+03  0.25500000920E-02 0.  1.
        2   -1    0    0  501    0  0.00000000000E+00  0.00000000000E+00 -0.10638127593E+04  0.10638127593E+04  0.25500000920E-02 0. -1.
    10030    2    1    2    0    0  0.00000000000E+00  0.00000000000E+00 -0.53679873821E+03  0.15908267803E+04  0.14975236091E+04 0.  0.
        2    1    3    3  502    0 -0.46060700161E+03  0.90164865646E+02 -0.88814824365E+03  0.10045376129E+04  0.25500000920E-02 0. -1.
       -2    1    3    3    0  502  0.46060700161E+03 -0.90164865646E+02  0.35134950543E+03  0.58628916748E+03  0.25500000920E-02 0.  1.
</event>
<event>
 5   0  0.3030702E-05  0.1500274E+04  0.7818609E-02  0.8884271E-01
       -2   -1    0    0    0  501  0.00000000000E+00  0.00000000000E+00  0.69126167132E+03  0.69126167133E+03  0.25500000920E-02 0. -1.
        2   -1    0    0  501    0  0.00000000000E+00  0.00000000000E+00 -0.81402643633E+03  0.81402643634E+03  0.25500000920E-02 0.  1.
    10030    2    1    2    0    0  0.00000000000E+00  0.00000000000E+00 -0.12276476501E+03  0.15052881077E+04  0.15002736749E+04 0.  0.
        5    1    3    3  502    0  0.54741021068E+03 -0.83424529974E+02  0.44633818416E+03  0.71123656796E+03  0.46999998093E+01 0. -1.
       -5    1    3    3    0  502 -0.54741021068E+03  0.83424529974E+02 -0.56910294917E+03  0.79405153971E+03  0.46999998093E+01 0.  1.
</event>
<event>
 5   0  0.3018308E-05  0.1495999E+04  0.7818609E-02  0.8887118E-01
        2   -1    0    0  501    0  0.00000000000E+00  0.00000000000E+00  0.11254168995E+04  0.11254168995E+04  0.25500000920E-02 0. -1.
       -2   -1    0    0    0  501  0.00000000000E+00  0.00000000000E+00 -0.49715187400E+03  0.49715187401E+03  0.25500000920E-02 0.  1.
    10030    2    1    2    0    0  0.00000000000E+00  0.00000000000E+00  0.62826502546E+03  0.16225687735E+04  0.14959988243E+04 0.  0.
        2    1    3    3  502    0  0.74317668730E+02  0.39317155174E+03 -0.37131434634E+03  0.54587666078E+03  0.25500000920E-02 0.  1.
       -2    1    3    3    0  502 -0.74317668730E+02 -0.39317155174E+03  0.99957937180E+03  0.10766921127E+04  0.25500000920E-02 0. -1.
</event>
<event>
 5   0  0.1588657E-05  0.1499926E+04  0.7818609E-02  0.8884502E-01
        1   -1    0    0  501    0  0.00000000000E+00  0.00000000000E+00  0.98678229738E+03  0.98678229739E+03  0.50400001928E-02 0. -1.
       -1   -1    0    0    0  501  0.00000000000E+00  0.00000000000E+00 -0.56997814533E+03  0.56997814535E+03  0.50400001928E-02 0.  1.
    10030    2    1    2    0    0  0.00000000000E+00  0.00000000000E+00  0.41680415205E+03  0.15567604427E+04  0.14999257898E+04 0.  0.
        3    1    3    3  502    0 -0.26431570543E+03 -0.43788592781E+03  0.77767164494E+03  0.93079539936E+03  0.10100000352E+00 0. -1.
       -3    1    3    3    0  502  0.26431570543E+03  0.43788592781E+03 -0.36086749289E+03  0.62596504339E+03  0.10100000352E+00 0.  1.
</event>
<event>
 5   0  0.3093600E-05  0.1499514E+04  0.7818609E-02  0.8884776E-01
       -2   -1    0    0    0  501  0.00000000000E+00  0.00000000000E+00  0.66489437004E+03  0.66489437004E+03  0.25500000920E-02 0.  1.
        2   -1    0    0  501    0  0.00000000000E+00  0.00000000000E+00 -0.84545126074E+03  0.84545126075E+03  0.25500000920E-02 0. -1.
    10030    2    1    2    0    0  0.00000000000E+00  0.00000000000E+00 -0.18055689071E+03  0.15103456308E+04  0.14995142993E+04 0.  0.
        1    1    3    3  502    0 -0.51568249186E+03 -0.48999124478E+03  0.14832066411E+03  0.72664907060E+03  0.50400001928E-02 0. -1.
       -1    1    3    3    0  502  0.51568249186E+03  0.48999124478E+03 -0.32887755481E+03  0.78369656019E+03  0.50400001928E-02 0.  1.
</event>
<event>
 5   0  0.1580078E-05  0.1500176E+04  0.7818609E-02  0.8884336E-01
        1   -1    0    0  501    0  0.00000000000E+00  0.00000000000E+00  0.48790854946E+03  0.48790854949E+03  0.50400001928E-02 0.  1.
       -1   -1    0    0    0  501  0.00000000000E+00  0.00000000000E+00 -0.11531509727E+04  0.11531509728E+04  0.50400001928E-02 0. -1.
    10030    2    1    2    0    0  0.00000000000E+00  0.00000000000E+00 -0.66524242329E+03  0.16410595222E+04  0.15001762809E+04 0.  0.
        2    1    3    3  502    0 -0.19590657542E+03 -0.54681624981E+03 -0.85179104071E+03  0.10309875724E+04  0.25500000920E-02 0. -1.
       -2    1    3    3    0  502  0.19590657542E+03  0.54681624981E+03  0.18654861742E+03  0.61007194987E+03  0.25500000920E-02 0.  1.
</event>
<event>
 5   0  0.1643498E-05  0.1500363E+04  0.7818609E-02  0.8884211E-01
        1   -1    0    0  501    0  0.00000000000E+00  0.00000000000E+00  0.22393183058E+04  0.22393183059E+04  0.50400001928E-02 0. -1.
       -1   -1    0    0    0  501  0.00000000000E+00  0.00000000000E+00 -0.25131425189E+03  0.25131425194E+03  0.50400001928E-02 0.  1.
    10030    2    1    2    0    0  0.00000000000E+00  0.00000000000E+00  0.19880040540E+04  0.24906325578E+04  0.15003634291E+04 0.  0.
        4    1    3    3  502    0 -0.72677465250E+03 -0.16852047088E+02  0.68662663229E+03  0.99997156564E+03  0.12699999809E+01 0. -1.
       -4    1    3    3    0  502  0.72677465250E+03  0.16852047088E+02  0.13013774217E+04  0.14906609922E+04  0.12699999809E+01 0.  1.
</event>
<event>
 5   0  0.2969498E-05  0.1500474E+04  0.7818609E-02  0.8884138E-01
       -2   -1    0    0    0  501  0.00000000000E+00  0.00000000000E+00  0.57878626250E+03  0.57878626250E+03  0.25500000920E-02 0.  1.
        2   -1    0    0  501    0  0.00000000000E+00  0.00000000000E+00 -0.97247520682E+03  0.97247520682E+03  0.25500000920E-02 0. -1.
    10030    2    1    2    0    0  0.00000000000E+00  0.00000000000E+00 -0.39368894432E+03  0.15512614693E+04  0.15004736457E+04 0.  0.
        3    1    3    3  502    0 -0.18415676336E+03 -0.53830700761E+02 -0.94668273173E+03  0.96592942941E+03  0.10100000352E+00 0. -1.
       -3    1    3    3    0  502  0.18415676336E+03  0.53830700761E+02  0.55299378741E+03  0.58533203991E+03  0.10100000352E+00 0.  1.
</event>
<event>
 5   0  0.3030702E-05  0.1499252E+04  0.7818609E-02  0.8884950E-01
        2   -1    0    0  501    0  0.00000000000E+00  0.00000000000E+00  0.15002055763E+04  0.15002055763E+04  0.25500000920E-02 0. -1.
       -2   -1    0    0    0  501  0.00000000000E+00  0.00000000000E+00 -0.37457481735E+03  0.37457481736E+03  0.25500000920E-02 0.  1.
    10030    2    1    2    0    0  0.00000000000E+00  0.00000000000E+00  0.11256307589E+04  0.18747803937E+04  0.14992521199E+04 0.  0.
        5    1    3    3  502    0 -0.24846595258E+03 -0.20013175975E+03  0.14110491840E+04  0.14466754787E+04  0.46999998093E+01 0. -1.
       -5    1    3    3    0  502  0.24846595258E+03  0.20013175975E+03 -0.28541842509E+03  0.42810491498E+03  0.46999998093E+01 0.  1.
</event>
<event>
 5   0  0.1116613E-05  0.1500018E+04  0.7818609E-02  0.8884441E-01
        3   -1    0    0  501    0  0.00000000000E+00  0.00000000000E+00  0.27735555838E+04  0.27735555857E+04  0.10100000352E+00 0.  1.
       -3   -1    0    0    0  501  0.00000000000E+00  0.00000000000E+00 -0.20281321309E+03  0.20281323824E+03  0.10100000352E+00 0. -1.
    10030    2    1    2    0    0  0.00000000000E+00  0.00000000000E+00  0.25707423707E+04  0.29763688239E+04  0.15000183463E+04 0.  0.
        1    1    3    3  502    0 -0.29142216788E+03  0.58454489407E+00  0.26566198398E+04  0.26725561163E+04  0.50400001928E-02 0.  1.
       -1    1    3    3    0  502  0.29142216788E+03 -0.58454489407E+00 -0.85877469006E+02  0.30381270765E+03  0.50400001928E-02 0. -1.
</event>
<event>
 5   0  0.3030702E-05  0.1498565E+04  0.7818609E-02  0.8885408E-01
       -2   -1    0    0    0  501  0.00000000000E+00  0.00000000000E+00  0.14822464147E+04  0.14822464147E+04  0.25500000920E-02 0.  1.
        2   -1    0    0  501    0  0.00000000000E+00  0.00000000000E+00 -0.37876559653E+03  0.37876559654E+03  0.25500000920E-02 0. -1.
    10030    2    1    2    0    0  0.00000000000E+00  0.00000000000E+00  0.11034808181E+04  0.18610120112E+04  0.14985645765E+04 0.  0.
        5    1    3    3  502    0 -0.72924728692E+03  0.16249412915E+03  0.62194588423E+03  0.97213410617E+03  0.46999998093E+01 0. -1.
       -5    1    3    3    0  502  0.72924728692E+03 -0.16249412915E+03  0.48153493392E+03  0.88887790504E+03  0.46999998093E+01 0.  1.
</event>
<event>
 5   0  0.3093600E-05  0.1499481E+04  0.7818609E-02  0.8884798E-01
       -2   -1    0    0    0  501  0.00000000000E+00  0.00000000000E+00  0.72433390436E+03  0.72433390437E+03  0.25500000920E-02 0. -1.
        2   -1    0    0  501    0  0.00000000000E+00  0.00000000000E+00 -0.77603818363E+03  0.77603818364E+03  0.25500000920E-02 0.  1.
    10030    2    1    2    0    0  0.00000000000E+00  0.00000000000E+00 -0.51704279267E+02  0.15003720880E+04  0.14994809335E+04 0.  0.
        1    1    3    3  502    0 -0.60855530912E+03 -0.38828519462E+03  0.17676712288E+03  0.74320358744E+03  0.50400001928E-02 0. -1.
       -1    1    3    3    0  502  0.60855530912E+03  0.38828519462E+03 -0.22847140215E+03  0.75716850057E+03  0.50400001928E-02 0.  1.
</event>
<event>
 5   0  0.1643498E-05  0.1499339E+04  0.7818609E-02  0.8884892E-01
       -1   -1    0    0    0  501  0.00000000000E+00  0.00000000000E+00  0.30569018732E+03  0.30569018736E+03  0.50400001928E-02 0.  1.
        1   -1    0    0  501    0  0.00000000000E+00  0.00000000000E+00 -0.18384780808E+04  0.18384780808E+04  0.50400001928E-02 0. -1.
    10030    2    1    2    0    0  0.00000000000E+00  0.00000000000E+00 -0.15327878935E+04  0.21441682682E+04  0.14993394665E+04 0.  0.
        4    1    3    3  502    0  0.26905966590E+03 -0.11768637402E+03  0.22000548440E+03  0.36694306440E+03  0.12699999809E+01 0.  1.
       -4    1    3    3    0  502 -0.26905966590E+03  0.11768637402E+03 -0.17527933779E+04  0.17772252038E+04  0.12699999809E+01 0. -1.
</event>
<event>
 5   0  0.1533777E-05  0.1500354E+04  0.7818609E-02  0.8884218E-01
        1   -1    0    0  501    0  0.00000000000E+00  0.00000000000E+00  0.10890692735E+04  0.10890692735E+04  0.50400001928E-02 0. -1.
       -1   -1    0    0    0  501  0.00000000000E+00  0.00000000000E+00 -0.51673971170E+03  0.51673971172E+03  0.50400001928E-02 0.  1.
    10030    2    1    2    0    0  0.00000000000E+00  0.00000000000E+00  0.57232956178E+03  0.16058089852E+04  0.15003537482E+04 0.  0.
        5    1    3    3  502    0  0.28427465936E+03  0.54290350567E+03 -0.17689600525E+03  0.63786408042E+03  0.46999998093E+01 0.  1.
       -5    1    3    3    0  502 -0.28427465936E+03 -0.54290350567E+03  0.74922556703E+03  0.96794490479E+03  0.46999998093E+01 0. -1.
</event>
<event>
 5   0  0.3030702E-05  0.1499698E+04  0.7818609E-02  0.8884654E-01
       -2   -1    0    0    0  501  0.00000000000E+00  0.00000000000E+00  0.75349772264E+03  0.75349772264E+03  0.25500000920E-02 0.  1.
        2   -1    0    0  501    0  0.00000000000E+00  0.00000000000E+00 -0.74621759198E+03  0.74621759199E+03  0.25500000920E-02 0. -1.
    10030    2    1    2    0    0  0.00000000000E+00  0.00000000000E+00  0.72801306563E+01  0.14997153146E+04  0.14996976444E+04 0.  0.
        5    1    3    3  502    0  0.35010421241E+03  0.35218961533E+03  0.56546576748E+03  0.75258495127E+03  0.46999998093E+01 0.  1.
       -5    1    3    3    0  502 -0.35010421241E+03 -0.35218961533E+03 -0.55818563682E+03  0.74713036336E+03  0.46999998093E+01 0. -1.
</event>
<event>
 5   0  0.3018308E-05  0.1499666E+04  0.7818609E-02  0.8884675E-01
        2   -1    0    0  501    0  0.00000000000E+00  0.00000000000E+00  0.86931607874E+03  0.86931607875E+03  0.25500000920E-02 0.  1.
       -2   -1    0    0    0  501  0.00000000000E+00  0.00000000000E+00 -0.64677224934E+03  0.64677224935E+03  0.25500000920E-02 0. -1.
    10030    2    1    2    0    0  0.00000000000E+00  0.00000000000E+00  0.22254382940E+03  0.15160883281E+04  0.14996659837E+04 0.  0.
        2    1    3    3  502    0 -0.49983924774E+03 -0.10752538055E+03 -0.44323110276E+03  0.67664968153E+03  0.25500000920E-02 0. -1.
       -2    1    3    3    0  502  0.49983924774E+03  0.10752538055E+03  0.66577493216E+03  0.83943864657E+03  0.25500000920E-02 0.  1.
</event>
<event>
 5   0  0.2969498E-05  0.1500175E+04  0.7818609E-02  0.8884336E-01
       -2   -1    0    0    0  501  0.00000000000E+00  0.00000000000E+00  0.64695404462E+03  0.64695404463E+03  0.25500000920E-02 0.  1.
        2   -1    0    0  501    0  0.00000000000E+00  0.00000000000E+00 -0.86966227555E+03  0.86966227556E+03  0.25500000920E-02 0. -1.
    10030    2    1    2    0    0  0.00000000000E+00  0.00000000000E+00 -0.22270823093E+03  0.15166163202E+04  0.15001753586E+04 0.  0.
        3    1    3    3  502    0  0.51717565836E+03 -0.97005111075E+02  0.42906098163E+03  0.67895065309E+03  0.10100000352E+00 0.  1.
       -3    1    3    3    0  502 -0.51717565836E+03  0.97005111075E+02 -0.65176921256E+03  0.83766566709E+03  0.10100000352E+00 0. -1.
</event>
<event>
 5   0  0.1576214E-05  0.1499652E+04  0.7818609E-02  0.8884685E-01
       -1   -1    0    0    0  501  0.00000000000E+00  0.00000000000E+00  0.52716253767E+03  0.52716253769E+03  0.50400001928E-02 0.  1.
        1   -1    0    0  501    0  0.00000000000E+00  0.00000000000E+00 -0.10665378381E+04  0.10665378381E+04  0.50400001928E-02 0. -1.
    10030    2    1    2    0    0  0.00000000000E+00  0.00000000000E+00 -0.53937530046E+03  0.15937003758E+04  0.14996516840E+04 0.  0.
        1    1    3    3  502    0 -0.29484160150E+03 -0.64041934228E+03 -0.54098221942E+03  0.88866769137E+03  0.50400001928E-02 0. -1.
       -1    1    3    3    0  502  0.29484160150E+03  0.64041934228E+03  0.16069189610E+01  0.70503268446E+03  0.50400001928E-02 0.  1.
</event>
<event>
 5   0  0.2969498E-05  0.1504443E+04  0.7818609E-02  0.8881504E-01
       -2   -1    0    0    0  501  0.00000000000E+00  0.00000000000E+00  0.62171319895E+03  0.62171319896E+03  0.25500000920E-02 0. -1.
        2   -1    0    0  501    0  0.00000000000E+00  0.00000000000E+00 -0.91012544834E+03  0.91012544835E+03  0.25500000920E-02 0.  1.
    10030    2    1    2    0    0  0.00000000000E+00  0.00000000000E+00 -0.28841224939E+03  0.15318386473E+04  0.15044427592E+04 0.  0.
        3    1    3    3  502    0  0.50984639044E+03 -0.36212525959E+03  0.28144821453E+03  0.68577777241E+03  0.10100000352E+00 0. -1.
       -3    1    3    3    0  502 -0.50984639044E+03  0.36212525959E+03 -0.56986046392E+03  0.84606087489E+03  0.10100000352E+00 0.  1.
</event>
<event>
 5   0  0.3030702E-05  0.1499745E+04  0.7818609E-02  0.8884622E-01
        2   -1    0    0  501    0  0.00000000000E+00  0.00000000000E+00  0.11093051849E+04  0.11093051849E+04  0.25500000920E-02 0. -1.
       -2   -1    0    0    0  501  0.00000000000E+00  0.00000000000E+00 -0.50690188601E+03  0.50690188601E+03  0.25500000920E-02 0.  1.
    10030    2    1    2    0    0  0.00000000000E+00  0.00000000000E+00  0.60240329888E+03  0.16162070709E+04  0.14997451655E+04 0.  0.
        5    1    3    3  502    0  0.46644844252E+03 -0.28832074973E+03 -0.24996756344E+03  0.60266813175E+03  0.46999998093E+01 0.  1.
       -5    1    3    3    0  502 -0.46644844252E+03  0.28832074973E+03  0.85237086233E+03  0.10135389392E+04  0.46999998093E+01 0. -1.
</event>
<event>
 5   0  0.1576214E-05  0.1500061E+04  0.7818609E-02  0.8884413E-01
        1   -1    0    0  501    0  0.00000000000E+00  0.00000000000E+00  0.76274240563E+03  0.76274240565E+03  0.50400001928E-02 0.  1.
       -1   -1    0    0    0  501  0.00000000000E+00  0.00000000000E+00 -0.73753016162E+03  0.73753016163E+03  0.50400001928E-02 0. -1.
    10030    2    1    2    0    0  0.00000000000E+00  0.00000000000E+00  0.25212244018E+02  0.15002725673E+04  0.15000607051E+04 0.  0.
        1    1    3    3  502    0 -0.31211199961E+03 -0.53369165744E+03 -0.41207702900E+03  0.74299943700E+03  0.50400001928E-02 0. -1.
       -1    1    3    3    0  502  0.31211199961E+03  0.53369165744E+03  0.43728927302E+03  0.75727313028E+03  0.50400001928E-02 0.  1.
</event>
<event>
 5   0  0.1580078E-05  0.1500212E+04  0.7818609E-02  0.8884312E-01
        1   -1    0    0  501    0  0.00000000000E+00  0.00000000000E+00  0.16558738443E+04  0.16558738443E+04  0.50400001928E-02 0. -1.
       -1   -1    0    0    0  501  0.00000000000E+00  0.00000000000E+00 -0.33979587823E+03  0.33979587826E+03  0.50400001928E-02 0.  1.
    10030    2    1    2    0    0  0.00000000000E+00  0.00000000000E+00  0.13160779660E+04  0.19956697225E+04  0.15002121279E+04 0.  0.
        2    1    3    3  502    0  0.50870037347E+03 -0.45963641720E+03  0.25320003116E+03  0.73085700500E+03  0.25500000920E-02 0.  1.
       -2    1    3    3    0  502 -0.50870037347E+03  0.45963641720E+03  0.10628779349E+04  0.12648127175E+04  0.25500000920E-02 0. -1.
</event>
<event>
 5   0  0.3070497E-05  0.1499909E+04  0.7818609E-02  0.8884513E-01
        2   -1    0    0  501    0  0.00000000000E+00  0.00000000000E+00  0.25998702754E+04  0.25998702754E+04  0.25500000920E-02 0.  1.
       -2   -1    0    0    0  501  0.00000000000E+00  0.00000000000E+00 -0.21633082740E+03  0.21633082741E+03  0.25500000920E-02 0. -1.
    10030    2    1    2    0    0  0.00000000000E+00  0.00000000000E+00  0.23835394480E+04  0.28162011028E+04  0.14999094477E+04 0.  0.
        4    1    3    3  502    0  0.72007990236E+02  0.63581292639E+03  0.45738059715E+03  0.78653788947E+03  0.12699999809E+01 0. -1.
       -4    1    3    3    0  502 -0.72007990236E+02 -0.63581292639E+03  0.19261588509E+04  0.20296632134E+04  0.12699999809E+01 0.  1.
</event>
<event>
 5   0  0.3070497E-05  0.1500584E+04  0.7818609E-02  0.8884065E-01
        2   -1    0    0  501    0  0.00000000000E+00  0.00000000000E+00  0.81972560529E+03  0.81972560530E+03  0.25500000920E-02 0. -1.
       -2   -1    0    0    0  501  0.00000000000E+00  0.00000000000E+00 -0.68673977252E+03  0.68673977253E+03  0.25500000920E-02 0.  1.
    10030    2    1    2    0    0  0.00000000000E+00  0.00000000000E+00  0.13298583277E+03  0.15064653778E+04  0.15005841206E+04 0.  0.
        4    1    3    3  502    0  0.57720378191E+03  0.13539751775E+03 -0.39513519660E+03  0.71248167004E+03  0.12699999809E+01 0.  1.
       -4    1    3    3    0  502 -0.57720378191E+03 -0.13539751775E+03  0.52812102937E+03  0.79398370778E+03  0.12699999809E+01 0. -1.
</event>
<event>
 5   0  0.3018308E-05  0.1499357E+04  0.7818609E-02  0.8884881E-01
       -2   -1    0    0    0  501  0.00000000000E+00  0.00000000000E+00  0.49838152921E+03  0.49838152922E+03  0.25500000920E-02 0.  1.
        2   -1    0    0  501    0  0.00000000000E+00  0.00000000000E+00 -0.11276853749E+04  0.11276853749E+04  0.25500000920E-02 0. -1.
    10030    2    1    2    0    0  0.00000000000E+00  0.00000000000E+00 -0.62930384573E+03  0.16260669042E+04  0.14993566109E+04 0.  0.
        2    1    3    3  502    0 -0.70150891744E+03  0.81509798668E+02 -0.41883261818E+02  0.70746930404E+03  0.25500000920E-02 0.  1.
       -2    1    3    3    0  502  0.70150891744E+03 -0.81509798668E+02 -0.58742058391E+03  0.91859760012E+03  0.25500000920E-02 0. -1.
</event>
<event>
 5   0  0.3093600E-05  0.1500165E+04  0.7818609E-02  0.8884343E-01
       -2   -1    0    0    0  501  0.00000000000E+00  0.00000000000E+00  0.41988685073E+03  0.41988685074E+03  0.25500000920E-02 0.  1.
        2   -1    0    0  501    0  0.00000000000E+00  0.00000000000E+00 -0.13399421089E+04  0.13399421089E+04  0.25500000920E-02 0. -1.
    10030    2    1    2    0    0  0.00000000000E+00  0.00000000000E+00 -0.92005525819E+03  0.17598289597E+04  0.15001654206E+04 0.  0.
        1    1    3    3  502    0 -0.14118879804E+03 -0.47171377742E+03  0.20375462005E+03  0.53288282925E+03  0.50400001928E-02 0.  1.
       -1    1    3    3    0  502  0.14118879804E+03  0.47171377742E+03 -0.11238098782E+04  0.12269461304E+04  0.50400001928E-02 0. -1.
</event>
<event>
 5   0  0.3070497E-05  0.1499802E+04  0.7818609E-02  0.8884585E-01
        2   -1    0    0  501    0  0.00000000000E+00  0.00000000000E+00  0.11123143636E+04  0.11123143636E+04  0.25500000920E-02 0. -1.
       -2   -1    0    0    0  501  0.00000000000E+00  0.00000000000E+00 -0.50556888785E+03  0.50556888785E+03  0.25500000920E-02 0.  1.
    10030    2    1    2    0    0  0.00000000000E+00  0.00000000000E+00  0.60674547574E+03  0.16178832514E+04  0.14998020346E+04 0.  0.
        4    1    3    3  502    0 -0.31858317213E+03  0.31851634284E+03  0.95007369005E+03  0.10514701744E+04  0.12699999809E+01 0. -1.
       -4    1    3    3    0  502  0.31858317213E+03 -0.31851634284E+03 -0.34332821430E+03  0.56641307705E+03  0.12699999809E+01 0.  1.
</event>
<event>
 5   0  0.3030702E-05  0.1500181E+04  0.7818609E-02  0.8884332E-01
        2   -1    0    0  501    0  0.00000000000E+00  0.00000000000E+00  0.55693406692E+03  0.55693406692E+03  0.25500000920E-02 0. -1.
       -2   -1    0    0    0  501  0.00000000000E+00  0.00000000000E+00 -0.10102378630E+04  0.10102378630E+04  0.25500000920E-02 0.  1.
    10030    2    1    2    0    0  0.00000000000E+00  0.00000000000E+00 -0.45330379608E+03  0.15671719299E+04  0.15001811645E+04 0.  0.
        5    1    3    3  502    0  0.23236829067E+03  0.70203833386E+03 -0.95503168266E+02  0.74565125217E+03  0.46999998093E+01 0. -1.
       -5    1    3    3    0  502 -0.23236829067E+03 -0.70203833386E+03 -0.35780062782E+03  0.82152067776E+03  0.46999998093E+01 0.  1.
</event>
<event>
 5   0  0.1588657E-05  0.1499905E+04  0.7818609E-02  0.8884516E-01
       -1   -1    0    0    0  501  0.00000000000E+00  0.00000000000E+00  0.11132890412E+04  0.11132890412E+04  0.50400001928E-02 0. -1.
        1   -1    0    0  501    0  0.00000000000E+00  0.00000000000E+00 -0.50519529420E+03  0.50519529423E+03  0.50400001928E-02 0.  1.
    10030    2    1    2    0    0  0.00000000000E+00  0.00000000000E+00  0.60809374696E+03  0.16184843354E+04  0.14999045099E+04 0.  0.
        3    1    3    3  502    0  0.69981881759E+03  0.97007032283E+02  0.32622146090E+02  0.70726300369E+03  0.10100000352E+00 0. -1.
       -3    1    3    3    0  502 -0.69981881759E+03 -0.97007032283E+02  0.57547160087E+03  0.91122133171E+03  0.10100000352E+00 0.  1.
</event>
<event>
 5   0  0.1588657E-05  0.1502089E+04  0.7818609E-02  0.8883065E-01
        1   -1    0    0  501    0  0.00000000000E+00  0.00000000000E+00  0.37409045622E+03  0.37409045625E+03  0.50400001928E-02 0.  1.
       -1   -1    0    0    0  501  0.00000000000E+00  0.00000000000E+00 -0.15078371917E+04  0.15078371917E+04  0.50400001928E-02 0. -1.
    10030    2    1    2    0    0  0.00000000000E+00  0.00000000000E+00 -0.11337467355E+04  0.18819276480E+04  0.15020885500E+04 0.  0.
        3    1    3    3  502    0  0.29139625492E+03 -0.61309438292E+03 -0.16425223754E+03  0.69840912615E+03  0.10100000352E+00 0.  1.
       -3    1    3    3    0  502 -0.29139625492E+03  0.61309438292E+03 -0.96949449796E+03  0.11835185218E+04  0.10100000352E+00 0. -1.
</event>
<event>
 5   0  0.1643498E-05  0.1500169E+04  0.7818609E-02  0.8884341E-01
       -1   -1    0    0    0  501  0.00000000000E+00  0.00000000000E+00  0.40808592246E+03  0.40808592249E+03  0.50400001928E-02 0. -1.
        1   -1    0    0  501    0  0.00000000000E+00  0.00000000000E+00 -0.13786965142E+04  0.13786965142E+04  0.50400001928E-02 0.  1.
    10030    2    1    2    0    0  0.00000000000E+00  0.00000000000E+00 -0.97061059176E+03  0.17867824367E+04  0.15001688423E+04 0.  0.
        4    1    3    3  502    0  0.52239195563E+03 -0.12326361864E+03  0.13876364600E+03  0.55438636107E+03  0.12699999809E+01 0.  1.
       -4    1    3    3    0  502 -0.52239195563E+03  0.12326361864E+03 -0.11093742378E+04  0.12323960757E+04  0.12699999809E+01 0. -1.
</event>
<event>
 5   0  0.1576214E-05  0.1499566E+04  0.7818609E-02  0.8884741E-01
        1   -1    0    0  501    0  0.00000000000E+00  0.00000000000E+00  0.18806426199E+04  0.18806426199E+04  0.50400001928E-02 0.  1.
       -1   -1    0    0    0  501  0.00000000000E+00  0.00000000000E+00 -0.29892689826E+03  0.29892689830E+03  0.50400001928E-02 0. -1.
    10030    2    1    2    0    0  0.00000000000E+00  0.00000000000E+00  0.15817157217E+04  0.21795695182E+04  0.14995661575E+04 0.  0.
        1    1    3    3  502    0 -0.22529571898E+03  0.49150963314E+03  0.15458702221E+04  0.16376979649E+04  0.50400001928E-02 0.  1.
       -1    1    3    3    0  502  0.22529571898E+03 -0.49150963314E+03  0.35845499524E+02  0.54187155334E+03  0.50400001928E-02 0. -1.
</event>
<event>
 5   0  0.3093600E-05  0.1501223E+04  0.7818609E-02  0.8883640E-01
       -2   -1    0    0    0  501  0.00000000000E+00  0.00000000000E+00  0.34074580596E+03  0.34074580597E+03  0.25500000920E-02 0.  1.
        2   -1    0    0  501    0  0.00000000000E+00  0.00000000000E+00 -0.16534826282E+04  0.16534826282E+04  0.25500000920E-02 0. -1.
    10030    2    1    2    0    0  0.00000000000E+00  0.00000000000E+00 -0.13127368222E+04  0.19942284342E+04  0.15012225295E+04 0.  0.
        1    1    3    3  502    0 -0.36910317652E+03  0.59586047555E+03 -0.29959783492E+03  0.76226355282E+03  0.50400001928E-02 0.  1.
       -1    1    3    3    0  502  0.36910317652E+03 -0.59586047555E+03 -0.10131389873E+04  0.12319648814E+04  0.50400001928E-02 0. -1.
</event>
<event>
 5   0  0.3070497E-05  0.1499991E+04  0.7818609E-02  0.8884459E-01
       -2   -1    0    0    0  501  0.00000000000E+00  0.00000000000E+00  0.82018085628E+03  0.82018085629E+03  0.25500000920E-02 0. -1.
        2   -1    0    0  501    0  0.00000000000E+00  0.00000000000E+00 -0.68581634727E+03  0.68581634727E+03  0.25500000920E-02 0.  1.
    10030    2    1    2    0    0  0.00000000000E+00  0.00000000000E+00  0.13436450901E+03  0.15059972036E+04  0.14999912519E+04 0.  0.
        4    1    3    3  502    0 -0.19723932116E+03 -0.24676313768E+03  0.75012376946E+03  0.81393038912E+03  0.12699999809E+01 0. -1.
       -4    1    3    3    0  502  0.19723932116E+03  0.24676313768E+03 -0.61575926044E+03  0.69206681444E+03  0.12699999809E+01 0.  1.
</event>
<event>
 5   0  0.3018308E-05  0.1500189E+04  0.7818609E-02  0.8884327E-01
        2   -1    0    0  501    0  0.00000000000E+00  0.00000000000E+00  0.16202837431E+04  0.16202837431E+04  0.25500000920E-02 0.  1.
       -2   -1    0    0    0  501  0.00000000000E+00  0.00000000000E+00 -0.34724879816E+03  0.34724879817E+03  0.25500000920E-02 0. -1.
    10030    2    1    2    0    0  0.00000000000E+00  0.00000000000E+00  0.12730349449E+04  0.19675325413E+04  0.15001887648E+04 0.  0.
        2    1    3    3  502    0 -0.23846000012E+03  0.54927185826E+03  0.12289992534E+04  0.13671144469E+04  0.25500000920E-02 0.  1.
       -2    1    3    3    0  502  0.23846000012E+03 -0.54927185826E+03  0.44035691505E+02  0.60041809439E+03  0.25500000920E-02 0. -1.
</event>
<event>
 5   0  0.1533777E-05  0.1500000E+04  0.7818609E-02  0.8884453E-01
        1   -1    0    0  501    0  0.00000000000E+00  0.00000000000E+00  0.11562024111E+04  0.11562024111E+04  0.50400001928E-02 0. -1.
       -1   -1    0    0    0  501  0.00000000000E+00  0.00000000000E+00 -0.48650632999E+03  0.48650633002E+03  0.50400001928E-02 0.  1.
    10030    2    1    2    0    0  0.00000000000E+00  0.00000000000E+00  0.66969608111E+03  0.16427087411E+04  0.14999997224E+04 0.  0.
        5    1    3    3  502    0 -0.69680313289E+03 -0.25259275556E+03  0.20931241252E+03  0.77017626697E+03  0.46999998093E+01 0.  1.
       -5    1    3    3    0  502  0.69680313289E+03  0.25259275556E+03  0.46038366859E+03  0.87253247416E+03  0.46999998093E+01 0. -1.
</event>
<event>
 5   0  0.1588657E-05  0.1500367E+04  0.7818609E-02  0.8884209E-01
       -1   -1    0    0    0  501  0.00000000000E+00  0.00000000000E+00  0.59567915656E+03  0.59567915658E+03  0.50400001928E-02 0.  1.
        1   -1    0    0  501    0  0.00000000000E+00  0.00000000000E+00 -0.94476218828E+03  0.94476218829E+03  0.50400001928E-02 0. -1.
    10030    2    1    2    0    0  0.00000000000E+00  0.00000000000E+00 -0.34908303172E+03  0.15404413449E+04  0.15003668131E+04 0.  0.
        3    1    3    3  502    0 -0.28165383112E+03 -0.17351306415E+03  0.51674722416E+03  0.61356610719E+03  0.10100000352E+00 0.  1.
       -3    1    3    3    0  502  0.28165383112E+03  0.17351306415E+03 -0.86583025588E+03  0.92687523768E+03  0.10100000352E+00 0. -1.
</event>
<event>
 5   0  0.3093600E-05  0.1500052E+04  0.7818609E-02  0.8884418E-01
       -2   -1    0    0    0  501  0.00000000000E+00  0.00000000000E+00  0.70018554223E+03  0.70018554224E+03  0.25500000920E-02 0. -1.
        2   -1    0    0  501    0  0.00000000000E+00  0.00000000000E+00 -0.80341463809E+03  0.80341463809E+03  0.25500000920E-02 0.  1.
    10030    2    1    2    0    0  0.00000000000E+00  0.00000000000E+00 -0.10322909585E+03  0.15036001803E+04  0.15000524178E+04 0.  0.
        1    1    3    3  502    0 -0.35879392517E+02  0.21112118050E+03  0.66888993612E+03  0.70233413012E+03  0.50400001928E-02 0. -1.
       -1    1    3    3    0  502  0.35879392517E+02 -0.21112118050E+03 -0.77211903197E+03  0.80126605021E+03  0.50400001928E-02 0.  1.
</event>
<event>
 5   0  0.1643498E-05  0.1500150E+04  0.7818609E-02  0.8884353E-01
        1   -1    0    0  501    0  0.00000000000E+00  0.00000000000E+00  0.76589734133E+03  0.76589734135E+03  0.50400001928E-02 0.  1.
       -1   -1    0    0    0  501  0.00000000000E+00  0.00000000000E+00 -0.73457924825E+03  0.73457924827E+03  0.50400001928E-02 0. -1.
    10030    2    1    2    0    0  0.00000000000E+00  0.00000000000E+00  0.31318093079E+02  0.15004765896E+04  0.15001497169E+04 0.  0.
        4    1    3    3  502    0  0.67010811140E+03  0.13493675211E+03 -0.29320893911E+03  0.74379157222E+03  0.12699999809E+01 0. -1.
       -4    1    3    3    0  502 -0.67010811140E+03 -0.13493675211E+03  0.32452703219E+03  0.75668501740E+03  0.12699999809E+01 0.  1.
</event>
<event>
 5   0  0.1588657E-05  0.1502258E+04  0.7818609E-02  0.8882953E-01
       -1   -1    0    0    0  501  0.00000000000E+00  0.00000000000E+00  0.90767393971E+03  0.90767393973E+03  0.50400001928E-02 0.  1.
        1   -1    0    0  501    0  0.00000000000E+00  0.00000000000E+00 -0.62158301167E+03  0.62158301169E+03  0.50400001928E-02 0. -1.
    10030    2    1    2    0    0  0.00000000000E+00  0.00000000000E+00  0.28609092804E+03  0.15292569514E+04  0.15022579021E+04 0.  0.
        3    1    3    3  502    0 -0.75715809875E+02 -0.10553988787E+03  0.89615452139E+03  0.90551890550E+03  0.10100000352E+00 0.  1.
       -3    1    3    3    0  502  0.75715809875E+02  0.10553988787E+03 -0.61006359335E+03  0.62373804592E+03  0.10100000352E+00 0. -1.
</event>
<event>
 5   0  0.1576214E-05  0.1499705E+04  0.7818609E-02  0.8884649E-01
        1   -1    0    0  501    0  0.00000000000E+00  0.00000000000E+00  0.87152420173E+03  0.87152420174E+03  0.50400001928E-02 0. -1.
       -1   -1    0    0    0  501  0.00000000000E+00  0.00000000000E+00 -0.64516673630E+03  0.64516673632E+03  0.50400001928E-02 0.  1.
    10030    2    1    2    0    0  0.00000000000E+00  0.00000000000E+00  0.22635746543E+03  0.15166909381E+04  0.14997045374E+04 0.  0.
        1    1    3    3  502    0 -0.44138220162E+03 -0.60504046929E+03  0.75525219850E+02  0.75272589716E+03  0.50400001928E-02 0.  1.
       -1    1    3    3    0  502  0.44138220162E+03  0.60504046929E+03  0.15083224558E+03  0.76396504090E+03  0.50400001928E-02 0. -1.
</event>
<event>
 5   0  0.1533777E-05  0.1499415E+04  0.7818609E-02  0.8884842E-01
        1   -1    0    0  501    0  0.00000000000E+00  0.00000000000E+00  0.13511897361E+04  0.13511897361E+04  0.50400001928E-02 0.  1.
       -1   -1    0    0    0  501  0.00000000000E+00  0.00000000000E+00 -0.41597539689E+03  0.41597539692E+03  0.50400001928E-02 0. -1.
    10030    2    1    2    0    0  0.00000000000E+00  0.00000000000E+00  0.93521433923E+03  0.17671651331E+04  0.14994154685E+04 0.  0.
        5    1    3    3  502    0  0.35176864341E+03 -0.26320512310E+02  0.12472516472E+04  0.12961839026E+04  0.46999998093E+01 0.  1.
       -5    1    3    3    0  502 -0.35176864341E+03  0.26320512310E+02 -0.31203730800E+03  0.47098123045E+03  0.46999998093E+01 0. -1.
</event>
<event>
 5   0  0.1588657E-05  0.1500235E+04  0.7818609E-02  0.8884296E-01
        1   -1    0    0  501    0  0.00000000000E+00  0.00000000000E+00  0.73185615450E+03  0.73185615452E+03  0.50400001928E-02 0.  1.
       -1   -1    0    0    0  501  0.00000000000E+00  0.00000000000E+00 -0.76883497699E+03  0.76883497701E+03  0.50400001928E-02 0. -1.
    10030    2    1    2    0    0  0.00000000000E+00  0.00000000000E+00 -0.36978822492E+02  0.15006911315E+04  0.15002354612E+04 0.  0.
        3    1    3    3  502    0  0.19630952467E+02 -0.34970793079E+02 -0.76776182502E+03  0.76880853326E+03  0.10100000352E+00 0. -1.
       -3    1    3    3    0  502 -0.19630952467E+02  0.34970793079E+02  0.73078300252E+03  0.73188259826E+03  0.10100000352E+00 0.  1.
</event>
<event>
 5   0  0.3070497E-05  0.1500034E+04  0.7818609E-02  0.8884430E-01
        2   -1    0    0  501    0  0.00000000000E+00  0.00000000000E+00  0.53801471214E+03  0.53801471214E+03  0.25500000920E-02 0. -1.
       -2   -1    0    0    0  501  0.00000000000E+00  0.00000000000E+00 -0.10455576789E+04  0.10455576789E+04  0.25500000920E-02 0.  1.
    10030    2    1    2    0    0  0.00000000000E+00  0.00000000000E+00 -0.50754296675E+03  0.15835723910E+04  0.15000338845E+04 0.  0.
        4    1    3    3  502    0 -0.53042142340E+03  0.21597171398E+03  0.25748514842E+03  0.62792585725E+03  0.12699999809E+01 0. -1.
       -4    1    3    3    0  502  0.53042142340E+03 -0.21597171398E+03 -0.76502811517E+03  0.95564653379E+03  0.12699999809E+01 0.  1.
</event>
<event>
 5   0  0.3093600E-05  0.1501967E+04  0.7818609E-02  0.8883146E-01
        2   -1    0    0  501    0  0.00000000000E+00  0.00000000000E+00  0.81793751343E+03  0.81793751343E+03  0.25500000920E-02 0. -1.
       -2   -1    0    0    0  501  0.00000000000E+00  0.00000000000E+00 -0.68950989900E+03  0.68950989901E+03  0.25500000920E-02 0.  1.
    10030    2    1    2    0    0  0.00000000000E+00  0.00000000000E+00  0.12842761443E+03  0.15074474124E+04  0.15019667270E+04 0.  0.
        1    1    3    3  502    0  0.37249170225E+02  0.23632071679E+03 -0.65024121569E+03  0.69285541095E+03  0.50400001928E-02 0.  1.
       -1    1    3    3    0  502 -0.37249170225E+02 -0.23632071679E+03  0.77866883012E+03  0.81459200149E+03  0.50400001928E-02 0. -1.
</event>
<event>
 5   0  0.1643498E-05  0.1499746E+04  0.7818609E-02  0.8884622E-01
        1   -1    0    0  501    0  0.00000000000E+00  0.00000000000E+00  0.89002328705E+03  0.89002328706E+03  0.50400001928E-02 0.  1.
       -1   -1    0    0    0  501  0.00000000000E+00  0.00000000000E+00 -0.63179170374E+03  0.63179170376E+03  0.50400001928E-02 0. -1.
    10030    2    1    2    0    0  0.00000000000E+00  0.00000000000E+00  0.25823158331E+03  0.15218149908E+04  0.14997457503E+04 0.  0.
        4    1    3    3  502    0 -0.44039225173E+03  0.34360555878E+03  0.63677534236E+03  0.84705050908E+03  0.12699999809E+01 0.  1.
       -4    1    3    3    0  502  0.44039225173E+03 -0.34360555878E+03 -0.37854375904E+03  0.67476448174E+03  0.12699999809E+01 0. -1.
</event>
<event>
 5   0  0.3030702E-05  0.1499973E+04  0.7818609E-02  0.8884471E-01
        2   -1    0    0  501    0  0.00000000000E+00  0.00000000000E+00  0.75167818429E+03  0.75167818429E+03  0.25500000920E-02 0. -1.
       -2   -1    0    0    0  501  0.00000000000E+00  0.00000000000E+00 -0.74829905566E+03  0.74829905567E+03  0.25500000920E-02 0.  1.
    10030    2    1    2    0    0  0.00000000000E+00  0.00000000000E+00  0.33791286256E+01  0.14999772400E+04  0.14999734337E+04 0.  0.
        5    1    3    3  502    0 -0.53717191034E+03 -0.48333638398E+03  0.20241442228E+03  0.75044081025E+03  0.46999998093E+01 0.  1.
       -5    1    3    3    0  502  0.53717191034E+03  0.48333638398E+03 -0.19903529366E+03  0.74953642971E+03  0.46999998093E+01 0. -1.
</event>
<event>
 5   0  0.1643498E-05  0.1501314E+04  0.7818609E-02  0.8883580E-01
       -1   -1    0    0    0  501  0.00000000000E+00  0.00000000000E+00  0.40495119784E+03  0.40495119787E+03  0.50400001928E-02 0. -1.
        1   -1    0    0  501    0  0.00000000000E+00  0.00000000000E+00 -0.13914903867E+04  0.13914903867E+04  0.50400001928E-02 0.  1.
    10030    2    1    2    0    0  0.00000000000E+00  0.00000000000E+00 -0.98653918890E+03  0.17964415846E+04  0.15013136900E+04 0.  0.
        4    1    3    3  502    0  0.34920802096E+03  0.59403411657E+03 -0.84956377821E+03  0.10938843630E+04  0.12699999809E+01 0. -1.
       -4    1    3    3    0  502 -0.34920802096E+03 -0.59403411657E+03 -0.13697541069E+03  0.70255722157E+03  0.12699999809E+01 0.  1.
</event>
<event>
 5   0  0.1576214E-05  0.1499387E+04  0.7818609E-02  0.8884861E-01
       -1   -1    0    0    0  501  0.00000000000E+00  0.00000000000E+00  0.87174445521E+03  0.87174445522E+03  0.50400001928E-02 0.  1.
        1   -1    0    0  501    0  0.00000000000E+00  0.00000000000E+00 -0.64473042960E+03  0.64473042962E+03  0.50400001928E-02 0. -1.
    10030    2    1    2    0    0  0.00000000000E+00  0.00000000000E+00  0.22701402561E+03  0.15164748848E+04  0.14993867775E+04 0.  0.
        1    1    3    3  502    0  0.11735424404E+03 -0.16978130639E+02 -0.63518613861E+03  0.64615919572E+03  0.50400001928E-02 0. -1.
       -1    1    3    3    0  502 -0.11735424404E+03  0.16978130639E+02  0.86220016422E+03  0.87031568911E+03  0.50400001928E-02 0.  1.
</event>
<event>
 5   0  0.1576214E-05  0.1500751E+04  0.7818609E-02  0.8883953E-01
        1   -1    0    0  501    0  0.00000000000E+00  0.00000000000E+00  0.53812274861E+03  0.53812274863E+03  0.50400001928E-02 0.  1.
       -1   -1    0    0    0  501  0.00000000000E+00  0.00000000000E+00 -0.10463480915E+04  0.10463480915E+04  0.50400001928E-02 0. -1.
    10030    2    1    2    0    0  0.00000000000E+00  0.00000000000E+00 -0.50822534286E+03  0.15844708401E+04  0.15007514265E+04 0.  0.
        1    1    3    3  502    0  0.55762412800E+03  0.66429285822E+02  0.27135247913E+03  0.62369037679E+03  0.50400001928E-02 0.  1.
       -1    1    3    3    0  502 -0.55762412800E+03 -0.66429285822E+02 -0.77957782199E+03  0.96078046332E+03  0.50400001928E-02 0. -1.
</event>
<event>
 5   0  0.1588657E-05  0.1499342E+04  0.7818609E-02  0.8884891E-01
        1   -1    0    0  501    0  0.00000000000E+00  0.00000000000E+00  0.49384711020E+03  0.49384711023E+03  0.50400001928E-02 0.  1.
       -1   -1    0    0    0  501  0.00000000000E+00  0.00000000000E+00 -0.11380170805E+04  0.11380170805E+04  0.50400001928E-02 0. -1.
    10030    2    1    2    0    0  0.00000000000E+00  0.00000000000E+00 -0.64416997031E+03  0.16318641908E+04  0.14993417844E+04 0.  0.
        3    1    3    3  502    0  0.71375676396E+03  0.22666804808E+03 -0.35946144358E+03  0.83068625951E+03  0.10100000352E+00 0.  1.
       -3    1    3    3    0  502 -0.71375676396E+03 -0.22666804808E+03 -0.28470852674E+03  0.80117793124E+03  0.10100000352E+00 0. -1.
</event>
<event>
 5   0  0.3030702E-05  0.1500235E+04  0.7818609E-02  0.8884297E-01
       -2   -1    0    0    0  501  0.00000000000E+00  0.00000000000E+00  0.73972620813E+03  0.73972620813E+03  0.25500000920E-02 0. -1.
        2   -1    0    0  501    0  0.00000000000E+00  0.00000000000E+00 -0.76065481426E+03  0.76065481426E+03  0.25500000920E-02 0.  1.
    10030    2    1    2    0    0  0.00000000000E+00  0.00000000000E+00 -0.20928606130E+02  0.15003810224E+04  0.15002350502E+04 0.  0.
        5    1    3    3  502    0  0.27429942746E+03 -0.32544836790E+03 -0.62817915479E+03  0.75880692972E+03  0.46999998093E+01 0.  1.
       -5    1    3    3    0  502 -0.27429942746E+03  0.32544836790E+03  0.60725054866E+03  0.74157409267E+03  0.46999998093E+01 0. -1.
</event>
<event>
 5   0  0.3093600E-05  0.1499794E+04  0.7818609E-02  0.8884590E-01
       -2   -1    0    0    0  501  0.00000000000E+00  0.00000000000E+00  0.71351064710E+03  0.71351064710E+03  0.25500000920E-02 0. -1.
        2   -1    0    0  501    0  0.00000000000E+00  0.00000000000E+00 -0.78813892876E+03  0.78813892876E+03  0.25500000920E-02 0.  1.
    10030    2    1    2    0    0  0.00000000000E+00  0.00000000000E+00 -0.74628281663E+02  0.15016495759E+04  0.14997940086E+04 0.  0.
        1    1    3    3  502    0 -0.28755320523E+03 -0.48259630758E+02 -0.72905941803E+03  0.78520282274E+03  0.50400001928E-02 0.  1.
       -1    1    3    3    0  502  0.28755320523E+03  0.48259630758E+02  0.65443113636E+03  0.71644675313E+03  0.50400001928E-02 0. -1.
</event>
<event>
 5   0  0.1643498E-05  0.1500166E+04  0.7818609E-02  0.8884342E-01
       -1   -1    0    0    0  501  0.00000000000E+00  0.00000000000E+00  0.40633980060E+03  0.40633980063E+03  0.50400001928E-02 0. -1.
        1   -1    0    0  501    0  0.00000000000E+00  0.00000000000E+00 -0.13846164558E+04  0.13846164558E+04  0.50400001928E-02 0.  1.
    10030    2    1    2    0    0  0.00000000000E+00  0.00000000000E+00 -0.97827665519E+03  0.17909562564E+04  0.15001663569E+04 0.  0.
        4    1    3    3  502    0 -0.59216704246E+03  0.43953278404E+02  0.57985551298E+02  0.59662185169E+03  0.12699999809E+01 0. -1.
       -4    1    3    3    0  502  0.59216704246E+03 -0.43953278404E+02 -0.10362622065E+04  0.11943344047E+04  0.12699999809E+01 0.  1.
</event>
<event>
 5   0  0.1588657E-05  0.1500296E+04  0.7818609E-02  0.8884256E-01
        1   -1    0    0  501    0  0.00000000000E+00  0.00000000000E+00  0.10171473984E+04  0.10171473984E+04  0.50400001928E-02 0.  1.
       -1   -1    0    0    0  501  0.00000000000E+00  0.00000000000E+00 -0.55323542429E+03  0.55323542431E+03  0.50400001928E-02 0. -1.
    10030    2    1    2    0    0  0.00000000000E+00  0.00000000000E+00  0.46391197414E+03  0.15703828227E+04  0.15002959342E+04 0.  0.
        3    1    3    3  502    0  0.27703762564E+03  0.23048306998E+03  0.92060376365E+03  0.98862712456E+03  0.10100000352E+00 0.  1.
       -3    1    3    3    0  502 -0.27703762564E+03 -0.23048306998E+03 -0.45669178951E+03  0.58175569819E+03  0.10100000352E+00 0. -1.
</event>
<event>
 5   0  0.3030702E-05  0.1502513E+04  0.7818609E-02  0.8882784E-01
       -2   -1    0    0    0  501  0.00000000000E+00  0.00000000000E+00  0.50917718328E+03  0.50917718329E+03  0.25500000920E-02 0. -1.
        2   -1    0    0  501    0  0.00000000000E+00  0.00000000000E+00 -0.11084279071E+04  0.11084279071E+04  0.25500000920E-02 0.  1.
    10030    2    1    2    0    0  0.00000000000E+00  0.00000000000E+00 -0.59925072385E+03  0.16176050904E+04  0.15025128281E+04 0.  0.
        5    1    3    3  502    0 -0.94083213211E+02 -0.43012520887E+03  0.35569130582E+03  0.56603687278E+03  0.46999998093E+01 0. -1.
       -5    1    3    3    0  502  0.94083213211E+02  0.43012520887E+03 -0.95494202967E+03  0.10515682176E+04  0.46999998093E+01 0.  1.
</event>
<event>
 5   0  0.1588657E-05  0.1500045E+04  0.7818609E-02  0.8884423E-01
       -1   -1    0    0    0  501  0.00000000000E+00  0.00000000000E+00  0.36623762819E+03  0.36623762822E+03  0.50400001928E-02 0.  1.
        1   -1    0    0  501    0  0.00000000000E+00  0.00000000000E+00 -0.15359801461E+04  0.15359801461E+04  0.50400001928E-02 0. -1.
    10030    2    1    2    0    0  0.00000000000E+00  0.00000000000E+00 -0.11697425180E+04  0.19022177744E+04  0.15000449669E+04 0.  0.
        3    1    3    3  502    0  0.25742179887E+03  0.29923204247E+03  0.22386692588E+03  0.45378652302E+03  0.10100000352E+00 0.  1.
       -3    1    3    3    0  502 -0.25742179887E+03 -0.29923204247E+03 -0.13936094438E+04  0.14484312514E+04  0.10100000352E+00 0. -1.
</event>
<event>
 5   0  0.1588657E-05  0.1499342E+04  0.7818609E-02  0.8884890E-01
       -1   -1    0    0    0  501  0.00000000000E+00  0.00000000000E+00  0.39613074302E+03  0.39613074305E+03  0.50400001928E-02 0.  1.
        1   -1    0    0  501    0  0.00000000000E+00  0.00000000000E+00 -0.14187408654E+04  0.14187408654E+04  0.50400001928E-02 0. -1.
    10030    2    1    2    0    0  0.00000000000E+00  0.00000000000E+00 -0.10226101224E+04  0.18148716084E+04  0.14993423534E+04 0.  0.
        3    1    3    3  502    0 -0.62738068453E+02 -0.72204421459E+03 -0.74326547656E+03  0.10381365478E+04  0.10100000352E+00 0.  1.
       -3    1    3    3    0  502  0.62738068453E+02  0.72204421459E+03 -0.27934464580E+03  0.77673506062E+03  0.10100000352E+00 0. -1.
</event>
<event>
 5   0  0.3070497E-05  0.1500646E+04  0.7818609E-02  0.8884023E-01
        2   -1    0    0  501    0  0.00000000000E+00  0.00000000000E+00  0.74374413315E+03  0.74374413316E+03  0.25500000920E-02 0. -1.
       -2   -1    0    0    0  501  0.00000000000E+00  0.00000000000E+00 -0.75696003435E+03  0.75696003435E+03  0.25500000920E-02 0.  1.
    10030    2    1    2    0    0  0.00000000000E+00  0.00000000000E+00 -0.13215901192E+02  0.15007041675E+04  0.15006459737E+04 0.  0.
        4    1    3    3  502    0 -0.11315838236E+03  0.16089225103E+03  0.71750012128E+03  0.74397525017E+03  0.12699999809E+01 0. -1.
       -4    1    3    3    0  502  0.11315838236E+03 -0.16089225103E+03 -0.73071602247E+03  0.75672891734E+03  0.12699999809E+01 0.  1.
</event>
<event>
 5   0  0.3018308E-05  0.1497950E+04  0.7818609E-02  0.8885817E-01
        2   -1    0    0  501    0  0.00000000000E+00  0.00000000000E+00  0.17703364672E+04  0.17703364672E+04  0.25500000920E-02 0.  1.
       -2   -1    0    0    0  501  0.00000000000E+00  0.00000000000E+00 -0.31686821241E+03  0.31686821242E+03  0.25500000920E-02 0. -1.
    10030    2    1    2    0    0  0.00000000000E+00  0.00000000000E+00  0.14534682548E+04  0.20872046797E+04  0.14979497345E+04 0.  0.
        2    1    3    3  502    0 -0.64084314209E+03  0.18518457417E+03  0.12012800507E+04  0.13740622328E+04  0.25500000920E-02 0.  1.
       -2    1    3    3    0  502  0.64084314209E+03 -0.18518457417E+03  0.25218820415E+03  0.71314244692E+03  0.25500000920E-02 0. -1.
</event>
<event>
 5   0  0.1580078E-05  0.1498190E+04  0.7818609E-02  0.8885657E-01
        1   -1    0    0  501    0  0.00000000000E+00  0.00000000000E+00  0.62994491630E+03  0.62994491632E+03  0.50400001928E-02 0.  1.
       -1   -1    0    0    0  501  0.00000000000E+00  0.00000000000E+00 -0.89078175483E+03  0.89078175484E+03  0.50400001928E-02 0. -1.
    10030    2    1    2    0    0  0.00000000000E+00  0.00000000000E+00 -0.26083683852E+03  0.15207266712E+04  0.14981901588E+04 0.  0.
        2    1    3    3  502    0 -0.12887750287E+03 -0.41544372070E+03 -0.74946165547E+03  0.86654236414E+03  0.25500000920E-02 0. -1.
       -2    1    3    3    0  502  0.12887750287E+03  0.41544372070E+03  0.48862481695E+03  0.65418430703E+03  0.25500000920E-02 0.  1.
</event>
<event>
 5   0  0.3018308E-05  0.1499392E+04  0.7818609E-02  0.8884858E-01
        2   -1    0    0  501    0  0.00000000000E+00  0.00000000000E+00  0.14345757235E+04  0.14345757236E+04  0.25500000920E-02 0.  1.
       -2   -1    0    0    0  501  0.00000000000E+00  0.00000000000E+00 -0.39178404053E+03  0.39178404054E+03  0.25500000920E-02 0. -1.
    10030    2    1    2    0    0  0.00000000000E+00  0.00000000000E+00  0.10427916830E+04  0.18263597641E+04  0.14993917079E+04 0.  0.
        2    1    3    3  502    0 -0.37216691912E+03 -0.54460800862E+03  0.95537279457E+03  0.11609665264E+04  0.25500000920E-02 0.  1.
       -2    1    3    3    0  502  0.37216691912E+03  0.54460800862E+03  0.87418888457E+02  0.66539323772E+03  0.25500000920E-02 0. -1.
</event>
<event>
 5   0  0.1580078E-05  0.1499492E+04  0.7818609E-02  0.8884791E-01
       -1   -1    0    0    0  501  0.00000000000E+00  0.00000000000E+00  0.35207692160E+03  0.35207692164E+03  0.50400001928E-02 0.  1.
        1   -1    0    0  501    0  0.00000000000E+00  0.00000000000E+00 -0.15965798495E+04  0.15965798495E+04  0.50400001928E-02 0. -1.
    10030    2    1    2    0    0  0.00000000000E+00  0.00000000000E+00 -0.12445029279E+04  0.19486567711E+04  0.14994918053E+04 0.  0.
        2    1    3    3  502    0  0.17968255209E+03  0.22107327864E+03 -0.15235021332E+04  0.15499090180E+04  0.25500000920E-02 0. -1.
       -2    1    3    3    0  502 -0.17968255209E+03 -0.22107327864E+03  0.27899920535E+03  0.39874775315E+03  0.25500000920E-02 0.  1.
</event>
<event>
 5   0  0.1116613E-05  0.1499120E+04  0.7818609E-02  0.8885039E-01
        3   -1    0    0  501    0  0.00000000000E+00  0.00000000000E+00  0.21129696143E+04  0.21129696168E+04  0.10100000352E+00 0.  1.
       -3   -1    0    0    0  501  0.00000000000E+00  0.00000000000E+00 -0.26590062825E+03  0.26590064743E+03  0.10100000352E+00 0. -1.
    10030    2    1    2    0    0  0.00000000000E+00  0.00000000000E+00  0.18470689861E+04  0.23788702642E+04  0.14991197065E+04 0.  0.
        4    1    3    3  502    0  0.57604771091E+03 -0.26804128686E+03  0.15546146256E+04  0.16794360196E+04  0.12699999809E+01 0.  1.
       -4    1    3    3    0  502 -0.57604771091E+03  0.26804128686E+03  0.29245436048E+03  0.69943424464E+03  0.12699999809E+01 0. -1.
</event>
<event>
 5   0  0.1576214E-05  0.1500035E+04  0.7818609E-02  0.8884429E-01
       -1   -1    0    0    0  501  0.00000000000E+00  0.00000000000E+00  0.55426566287E+03  0.55426566289E+03  0.50400001928E-02 0.  1.
        1   -1    0    0  501    0  0.00000000000E+00  0.00000000000E+00 -0.10149043193E+04  0.10149043193E+04  0.50400001928E-02 0. -1.
    10030    2    1    2    0    0  0.00000000000E+00  0.00000000000E+00 -0.46063865639E+03  0.15691699822E+04  0.15000354866E+04 0.  0.
        1    1    3    3  502    0  0.43771873921E+02 -0.74792267831E+03 -0.19374651597E+03  0.77384883676E+03  0.50400001928E-02 0. -1.
       -1    1    3    3    0  502 -0.43771873921E+02  0.74792267831E+03 -0.26689214042E+03  0.79532114540E+03  0.50400001928E-02 0.  1.
</event>
<event>
 5   0  0.3018308E-05  0.1499139E+04  0.7818609E-02  0.8885026E-01
        2   -1    0    0  501    0  0.00000000000E+00  0.00000000000E+00  0.33344945557E+03  0.33344945558E+03  0.25500000920E-02 0.  1.
       -2   -1    0    0    0  501  0.00000000000E+00  0.00000000000E+00 -0.16849765631E+04  0.16849765631E+04  0.25500000920E-02 0. -1.
    10030    2    1    2    0    0  0.00000000000E+00  0.00000000000E+00 -0.13515271075E+04  0.20184260187E+04  0.14991391098E+04 0.  0.
        2    1    3    3  502    0 -0.10492456577E+03 -0.71185324987E+03 -0.39298860922E+03  0.81986844118E+03  0.25500000920E-02 0. -1.
       -2    1    3    3    0  502  0.10492456577E+03  0.71185324987E+03 -0.95853849831E+03  0.11985575775E+04  0.25500000920E-02 0.  1.
</event>
<event>
 5   0  0.3070497E-05  0.1498815E+04  0.7818609E-02  0.8885241E-01
       -2   -1    0    0    0  501  0.00000000000E+00  0.00000000000E+00  0.33430516552E+03  0.33430516553E+03  0.25500000920E-02 0. -1.
        2   -1    0    0  501    0  0.00000000000E+00  0.00000000000E+00 -0.16799364004E+04  0.16799364004E+04  0.25500000920E-02 0.  1.
    10030    2    1    2    0    0  0.00000000000E+00  0.00000000000E+00 -0.13456312348E+04  0.20142415659E+04  0.14988147536E+04 0.  0.
        4    1    3    3  502    0 -0.73898142605E+03  0.10637986558E+03 -0.58572597529E+03  0.94893980571E+03  0.12699999809E+01 0. -1.
       -4    1    3    3    0  502  0.73898142605E+03 -0.10637986558E+03 -0.75990525956E+03  0.10653017602E+04  0.12699999809E+01 0.  1.
</event>
<event>
 5   0  0.3093600E-05  0.1499862E+04  0.7818609E-02  0.8884545E-01
        2   -1    0    0  501    0  0.00000000000E+00  0.00000000000E+00  0.94814860190E+03  0.94814860190E+03  0.25500000920E-02 0. -1.
       -2   -1    0    0    0  501  0.00000000000E+00  0.00000000000E+00 -0.59315210925E+03  0.59315210926E+03  0.25500000920E-02 0.  1.
    10030    2    1    2    0    0  0.00000000000E+00  0.00000000000E+00  0.35499649265E+03  0.15413007112E+04  0.14998617844E+04 0.  0.
        1    1    3    3  502    0 -0.29717160505E+03 -0.65462438463E+03  0.39682482883E+03  0.82116623932E+03  0.50400001928E-02 0. -1.
       -1    1    3    3    0  502  0.29717160505E+03  0.65462438463E+03 -0.41828336179E+02  0.72013447184E+03  0.50400001928E-02 0.  1.
</event>
<event>
 5   0  0.3093600E-05  0.1499526E+04  0.7818609E-02  0.8884769E-01
       -2   -1    0    0    0  501  0.00000000000E+00  0.00000000000E+00  0.31365742502E+03  0.31365742503E+03  0.25500000920E-02 0. -1.
        2   -1    0    0  501    0  0.00000000000E+00  0.00000000000E+00 -0.17922234331E+04  0.17922234331E+04  0.25500000920E-02 0.  1.
    10030    2    1    2    0    0  0.00000000000E+00  0.00000000000E+00 -0.14785660080E+04  0.21058808581E+04  0.14995255077E+04 0.  0.
        1    1    3    3  502    0 -0.30769499928E+03  0.22168437865E+03  0.16903168094E+03  0.41520101819E+03  0.50400001928E-02 0. -1.
       -1    1    3    3    0  502  0.30769499928E+03 -0.22168437865E+03 -0.16475976890E+04  0.16906798399E+04  0.50400001928E-02 0.  1.
</event>
<event>
 5   0  0.1580078E-05  0.1498592E+04  0.7818609E-02  0.8885390E-01
        1   -1    0    0  501    0  0.00000000000E+00  0.00000000000E+00  0.84418249522E+03  0.84418249523E+03  0.50400001928E-02 0.  1.
       -1   -1    0    0    0  501  0.00000000000E+00  0.00000000000E+00 -0.66507450371E+03  0.66507450373E+03  0.50400001928E-02 0. -1.
    10030    2    1    2    0    0  0.00000000000E+00  0.00000000000E+00  0.17910799151E+03  0.15092569990E+04  0.14985916776E+04 0.  0.
        2    1    3    3  502    0  0.51630793078E+03 -0.32772356674E+03  0.52561076865E+03  0.80637664630E+03  0.25500000920E-02 0.  1.
       -2    1    3    3    0  502 -0.51630793078E+03  0.32772356674E+03 -0.34650277714E+03  0.70288035266E+03  0.25500000920E-02 0. -1.
</event>
<event>
 5   0  0.1116613E-05  0.1499522E+04  0.7818609E-02  0.8884771E-01
        4   -1    0    0  501    0  0.00000000000E+00  0.00000000000E+00  0.61162658403E+03  0.61162790256E+03  0.12699999809E+01 0.  1.
       -4   -1    0    0    0  501  0.00000000000E+00  0.00000000000E+00 -0.91908944627E+03  0.91909032371E+03  0.12699999809E+01 0. -1.
    10030    2    1    2    0    0  0.00000000000E+00  0.00000000000E+00 -0.30746286224E+03  0.15307182263E+04  0.14995215492E+04 0.  0.
        5    1    3    3  502    0 -0.16908942210E+03  0.72879080709E+03 -0.10380735281E+03  0.75533127147E+03  0.46999998093E+01 0. -1.
       -5    1    3    3    0  502  0.16908942210E+03 -0.72879080709E+03 -0.20365550943E+03  0.77538695481E+03  0.46999998093E+01 0.  1.
</event>
<event>
 5   0  0.3093600E-05  0.1500692E+04  0.7818609E-02  0.8883993E-01
        2   -1    0    0  501    0  0.00000000000E+00  0.00000000000E+00  0.13803909677E+04  0.13803909677E+04  0.25500000920E-02 0. -1.
       -2   -1    0    0    0  501  0.00000000000E+00  0.00000000000E+00 -0.40786922599E+03  0.40786922599E+03  0.25500000920E-02 0.  1.
    10030    2    1    2    0    0  0.00000000000E+00  0.00000000000E+00  0.97252174170E+03  0.17882601937E+04  0.15006918345E+04 0.  0.
        1    1    3    3  502    0  0.88381292261E+02 -0.65761370035E+03  0.90375792386E+03  0.11211803676E+04  0.50400001928E-02 0. -1.
       -1    1    3    3    0  502 -0.88381292261E+02  0.65761370035E+03  0.68763817841E+02  0.66707982609E+03  0.50400001928E-02 0.  1.
</event>
<event>
 5   0  0.3030702E-05  0.1499789E+04  0.7818609E-02  0.8884593E-01
       -2   -1    0    0    0  501  0.00000000000E+00  0.00000000000E+00  0.79845011569E+03  0.79845011569E+03  0.25500000920E-02 0. -1.
        2   -1    0    0  501    0  0.00000000000E+00  0.00000000000E+00 -0.70429140703E+03  0.70429140703E+03  0.25500000920E-02 0.  1.
    10030    2    1    2    0    0  0.00000000000E+00  0.00000000000E+00  0.94158708657E+02  0.15027415227E+04  0.14997887257E+04 0.  0.
        5    1    3    3  502    0  0.23260368895E+03 -0.69552286156E+03 -0.10963490438E+03  0.74155136661E+03  0.46999998093E+01 0.  1.
       -5    1    3    3    0  502 -0.23260368895E+03  0.69552286156E+03  0.20379361303E+03  0.76119015612E+03  0.46999998093E+01 0. -1.
</event>
<event>
 5   0  0.3070497E-05  0.1499538E+04  0.7818609E-02  0.8884760E-01
        2   -1    0    0  501    0  0.00000000000E+00  0.00000000000E+00  0.71292656356E+03  0.71292656356E+03  0.25500000920E-02 0. -1.
       -2   -1    0    0    0  501  0.00000000000E+00  0.00000000000E+00 -0.78851521018E+03  0.78851521018E+03  0.25500000920E-02 0.  1.
    10030    2    1    2    0    0  0.00000000000E+00  0.00000000000E+00 -0.75588646620E+02  0.15014417737E+04  0.14995378476E+04 0.  0.
        4    1    3    3  502    0 -0.71846590698E+03  0.23857974937E+02 -0.25111262170E+03  0.76146019209E+03  0.12699999809E+01 0.  1.
       -4    1    3    3    0  502  0.71846590698E+03 -0.23857974937E+02  0.17552397508E+03  0.73998158165E+03  0.12699999809E+01 0. -1.
</event>
<event>
 5   0  0.1576214E-05  0.1498560E+04  0.7818609E-02  0.8885411E-01
       -1   -1    0    0    0  501  0.00000000000E+00  0.00000000000E+00  0.84558392194E+03  0.84558392196E+03  0.50400001928E-02 0.  1.
        1   -1    0    0  501    0  0.00000000000E+00  0.00000000000E+00 -0.66394455353E+03  0.66394455355E+03  0.50400001928E-02 0. -1.
    10030    2    1    2    0    0  0.00000000000E+00  0.00000000000E+00  0.18163936841E+03  0.15095284755E+04  0.14985604286E+04 0.  0.
        1    1    3    3  502    0 -0.49932229494E+03 -0.46705706858E+03  0.39958520721E+03  0.79191754456E+03  0.50400001928E-02 0.  1.
       -1    1    3    3    0  502  0.49932229494E+03  0.46705706858E+03 -0.21794583879E+03  0.71761093095E+03  0.50400001928E-02 0. -1.
</event>
<event>
 5   0  0.2969498E-05  0.1500945E+04  0.7818609E-02  0.8883825E-01
       -2   -1    0    0    0  501  0.00000000000E+00  0.00000000000E+00  0.58640544458E+03  0.58640544458E+03  0.25500000920E-02 0. -1.
        2   -1    0    0  501    0  0.00000000000E+00  0.00000000000E+00 -0.96044277577E+03  0.96044277577E+03  0.25500000920E-02 0.  1.
    10030    2    1    2    0    0  0.00000000000E+00  0.00000000000E+00 -0.37403733119E+03  0.15468482204E+04  0.15009448663E+04 0.  0.
        3    1    3    3  502    0 -0.20098459816E+03  0.59643402438E+03 -0.60827442981E+03  0.87528632246E+03  0.10100000352E+00 0.  1.
       -3    1    3    3    0  502  0.20098459816E+03 -0.59643402438E+03  0.23423709861E+03  0.67156189789E+03  0.10100000352E+00 0. -1.
</event>
<event>
 5   0  0.3093600E-05  0.1499645E+04  0.7818609E-02  0.8884689E-01
        2   -1    0    0  501    0  0.00000000000E+00  0.00000000000E+00  0.12321908863E+04  0.12321908863E+04  0.25500000920E-02 0.  1.
       -2   -1    0    0    0  501  0.00000000000E+00  0.00000000000E+00 -0.45628811983E+03  0.45628811983E+03  0.25500000920E-02 0. -1.
    10030    2    1    2    0    0  0.00000000000E+00  0.00000000000E+00  0.77590276650E+03  0.16884790062E+04  0.14996453751E+04 0.  0.
        1    1    3    3  502    0  0.52336964464E+02  0.74723920326E+03  0.35012858573E+03  0.82685888234E+03  0.50400001928E-02 0. -1.
       -1    1    3    3    0  502 -0.52336964464E+02 -0.74723920326E+03  0.42577418077E+03  0.86162012382E+03  0.50400001928E-02 0.  1.
</event>
<event>
 5   0  0.1643498E-05  0.1500180E+04  0.7818609E-02  0.8884333E-01
        1   -1    0    0  501    0  0.00000000000E+00  0.00000000000E+00  0.76329079794E+03  0.76329079795E+03  0.50400001928E-02 0. -1.
       -1   -1    0    0    0  501  0.00000000000E+00  0.00000000000E+00 -0.73711738822E+03  0.73711738823E+03  0.50400001928E-02 0.  1.
    10030    2    1    2    0    0  0.00000000000E+00  0.00000000000E+00  0.26173409722E+02  0.15004081862E+04  0.15001798818E+04 0.  0.
        4    1    3    3  502    0  0.31624836919E+03 -0.35360365820E+02 -0.66625883137E+03  0.73835345856E+03  0.12699999809E+01 0.  1.
       -4    1    3    3    0  502 -0.31624836919E+03  0.35360365820E+02  0.69243224110E+03  0.76205472762E+03  0.12699999809E+01 0. -1.
</event>
<event>
 5   0  0.2969498E-05  0.1500550E+04  0.7818609E-02  0.8884088E-01
       -2   -1    0    0    0  501  0.00000000000E+00  0.00000000000E+00  0.50318981402E+03  0.50318981402E+03  0.25500000920E-02 0. -1.
        2   -1    0    0  501    0  0.00000000000E+00  0.00000000000E+00 -0.11186876101E+04  0.11186876101E+04  0.25500000920E-02 0.  1.
    10030    2    1    2    0    0  0.00000000000E+00  0.00000000000E+00 -0.61549779605E+03  0.16218774241E+04  0.15005495133E+04 0.  0.
        3    1    3    3  502    0  0.23492783893E+03 -0.12199595104E+03  0.45103802049E+03  0.52298126898E+03  0.10100000352E+00 0. -1.
       -3    1    3    3    0  502 -0.23492783893E+03  0.12199595104E+03 -0.10665358165E+04  0.10988961551E+04  0.10100000352E+00 0.  1.
</event>
<event>
 5   0  0.3093600E-05  0.1500147E+04  0.7818609E-02  0.8884355E-01
        2   -1    0    0  501    0  0.00000000000E+00  0.00000000000E+00  0.14277227919E+04  0.14277227919E+04  0.25500000920E-02 0. -1.
       -2   -1    0    0    0  501  0.00000000000E+00  0.00000000000E+00 -0.39406113901E+03  0.39406113902E+03  0.25500000920E-02 0.  1.
    10030    2    1    2    0    0  0.00000000000E+00  0.00000000000E+00  0.10336616529E+04  0.18217839309E+04  0.15001467522E+04 0.  0.
        1    1    3    3  502    0  0.48168643831E+02  0.35248386351E+03 -0.28508496378E+03  0.45589311124E+03  0.50400001928E-02 0.  1.
       -1    1    3    3    0  502 -0.48168643831E+02 -0.35248386351E+03  0.13187466166E+04  0.13658908197E+04  0.50400001928E-02 0. -1.
</event>
<event>
 5   0  0.1580078E-05  0.1499761E+04  0.7818609E-02  0.8884612E-01
        1   -1    0    0  501    0  0.00000000000E+00  0.00000000000E+00  0.70537494391E+03  0.70537494392E+03  0.50400001928E-02 0.  1.
       -1   -1    0    0    0  501  0.00000000000E+00  0.00000000000E+00 -0.79719402545E+03  0.79719402546E+03  0.50400001928E-02 0. -1.
    10030    2    1    2    0    0  0.00000000000E+00  0.00000000000E+00 -0.91819081543E+02  0.15025689694E+04  0.14997609023E+04 0.  0.
        2    1    3    3  502    0  0.52587208356E+03 -0.82476040421E+02  0.48326208040E+03  0.71894783112E+03  0.25500000920E-02 0.  1.
       -2    1    3    3    0  502 -0.52587208356E+03  0.82476040421E+02 -0.57508116194E+03  0.78362113827E+03  0.25500000920E-02 0. -1.
</event>
<event>
 5   0  0.3030702E-05  0.1499383E+04  0.7818609E-02  0.8884864E-01
       -2   -1    0    0    0  501  0.00000000000E+00  0.00000000000E+00  0.83650863044E+03  0.83650863044E+03  0.25500000920E-02 0.  1.
        2   -1    0    0  501    0  0.00000000000E+00  0.00000000000E+00 -0.67188443730E+03  0.67188443730E+03  0.25500000920E-02 0. -1.
    10030    2    1    2    0    0  0.00000000000E+00  0.00000000000E+00  0.16462419314E+03  0.15083930677E+04  0.14993827136E+04 0.  0.
        5    1    3    3  502    0 -0.38663328872E+03  0.43629841110E+02 -0.56233991828E+03  0.68383999348E+03  0.46999998093E+01 0. -1.
       -5    1    3    3    0  502  0.38663328872E+03 -0.43629841110E+02  0.72696411142E+03  0.82455307427E+03  0.46999998093E+01 0.  1.
</event>
<event>
 5   0  0.1576214E-05  0.1500439E+04  0.7818609E-02  0.8884161E-01
       -1   -1    0    0    0  501  0.00000000000E+00  0.00000000000E+00  0.22652481423E+03  0.22652481429E+03  0.50400001928E-02 0.  1.
        1   -1    0    0  501    0  0.00000000000E+00  0.00000000000E+00 -0.24846253788E+04  0.24846253788E+04  0.50400001928E-02 0. -1.
    10030    2    1    2    0    0  0.00000000000E+00  0.00000000000E+00 -0.22581005646E+04  0.27111501931E+04  0.15004390057E+04 0.  0.
        1    1    3    3  502    0 -0.23560335887E+03  0.95661850898E+02 -0.24043834522E+04  0.24177923644E+04  0.50400001928E-02 0. -1.
       -1    1    3    3    0  502  0.23560335887E+03 -0.95661850898E+02  0.14628288757E+03  0.29335782869E+03  0.50400001928E-02 0.  1.
</event>
<event>
 5   0  0.3093600E-05  0.1500523E+04  0.7818609E-02  0.8884106E-01
        2   -1    0    0  501    0  0.00000000000E+00  0.00000000000E+00  0.15228665396E+04  0.15228665396E+04  0.25500000920E-02 0. -1.
       -2   -1    0    0    0  501  0.00000000000E+00  0.00000000000E+00 -0.36962659411E+03  0.36962659412E+03  0.25500000920E-02 0.  1.
    10030    2    1    2    0    0  0.00000000000E+00  0.00000000000E+00  0.11532399455E+04  0.18924931338E+04  0.15005225388E+04 0.  0.
        1    1    3    3  502    0 -0.43952288843E+03 -0.39767005911E+03  0.11567414746E+04  0.12997587024E+04  0.50400001928E-02 0. -1.
       -1    1    3    3    0  502  0.43952288843E+03  0.39767005911E+03 -0.35015290941E+01  0.59273443134E+03  0.50400001928E-02 0.  1.
</event>
<event>
 5   0  0.3018308E-05  0.1498648E+04  0.7818609E-02  0.8885352E-01
       -2   -1    0    0    0  501  0.00000000000E+00  0.00000000000E+00  0.81446152773E+03  0.81446152773E+03  0.25500000920E-02 0.  1.
        2   -1    0    0  501    0  0.00000000000E+00  0.00000000000E+00 -0.68939616500E+03  0.68939616500E+03  0.25500000920E-02 0. -1.
    10030    2    1    2    0    0  0.00000000000E+00  0.00000000000E+00  0.12506536274E+03  0.15038576927E+04  0.14986482626E+04 0.  0.
        2    1    3    3  502    0  0.30080750767E+03  0.46407331866E+03 -0.44483087309E+03  0.70973495576E+03  0.25500000920E-02 0. -1.
       -2    1    3    3    0  502 -0.30080750767E+03 -0.46407331866E+03  0.56989623583E+03  0.79412273698E+03  0.25500000920E-02 0.  1.
</event>
<event>
 5   0  0.1533777E-05  0.1500805E+04  0.7818609E-02  0.8883918E-01
       -1   -1    0    0    0  501  0.00000000000E+00  0.00000000000E+00  0.60344498297E+03  0.60344498299E+03  0.50400001928E-02 0.  1.
        1   -1    0    0  501    0  0.00000000000E+00  0.00000000000E+00 -0.93314882124E+03  0.93314882125E+03  0.50400001928E-02 0. -1.
    10030    2    1    2    0    0  0.00000000000E+00  0.00000000000E+00 -0.32970383827E+03  0.15365938042E+04  0.15008050834E+04 0.  0.
        5    1    3    3  502    0 -0.44456768391E+03 -0.47506625823E+03  0.21789891578E+03  0.68617082624E+03  0.46999998093E+01 0.  1.
       -5    1    3    3    0  502  0.44456768391E+03  0.47506625823E+03 -0.54760275404E+03  0.85042297800E+03  0.46999998093E+01 0. -1.
</event>
<event>
 5   0  0.1588657E-05  0.1499891E+04  0.7818609E-02  0.8884525E-01
        1   -1    0    0  501    0  0.00000000000E+00  0.00000000000E+00  0.51436800541E+03  0.51436800544E+03  0.50400001928E-02 0.  1.
       -1   -1    0    0    0  501  0.00000000000E+00  0.00000000000E+00 -0.10934168005E+04  0.10934168005E+04  0.50400001928E-02 0. -1.
    10030    2    1    2    0    0  0.00000000000E+00  0.00000000000E+00 -0.57904879506E+03  0.16077848059E+04  0.14998914878E+04 0.  0.
        3    1    3    3  502    0 -0.62340340183E+02 -0.21347254797E+03 -0.10572580468E+04  0.10803941107E+04  0.10100000352E+00 0. -1.
       -3    1    3    3    0  502  0.62340340183E+02  0.21347254797E+03  0.47820925173E+03  0.52739069521E+03  0.10100000352E+00 0.  1.
</event>
<event>
 5   0  0.2969498E-05  0.1499859E+04  0.7818609E-02  0.8884547E-01
        2   -1    0    0  501    0  0.00000000000E+00  0.00000000000E+00  0.46206333031E+03  0.46206333032E+03  0.25500000920E-02 0.  1.
       -2   -1    0    0    0  501  0.00000000000E+00  0.00000000000E+00 -0.12171360957E+04  0.12171360957E+04  0.25500000920E-02 0. -1.
    10030    2    1    2    0    0  0.00000000000E+00  0.00000000000E+00 -0.75507276537E+03  0.16791994260E+04  0.14998586038E+04 0.  0.
        3    1    3    3  502    0 -0.42280479543E+03 -0.32105692634E+02  0.31497039926E+03  0.52820548383E+03  0.10100000352E+00 0.  1.
       -3    1    3    3    0  502  0.42280479543E+03  0.32105692634E+02 -0.10700431646E+04  0.11509939422E+04  0.10100000352E+00 0. -1.
</event>
<event>
 5   0  0.3030702E-05  0.1501205E+04  0.7818609E-02  0.8883652E-01
       -2   -1    0    0    0  501  0.00000000000E+00  0.00000000000E+00  0.41569453285E+03  0.41569453286E+03  0.25500000920E-02 0.  1.
        2   -1    0    0  501    0  0.00000000000E+00  0.00000000000E+00 -0.13553321356E+04  0.13553321356E+04  0.25500000920E-02 0. -1.
    10030    2    1    2    0    0  0.00000000000E+00  0.00000000000E+00 -0.93963760275E+03  0.17710266685E+04  0.15012050612E+04 0.  0.
        5    1    3    3  502    0 -0.14708070623E+02 -0.61665032911E+03 -0.97436572897E+03  0.11532062346E+04  0.46999998093E+01 0. -1.
       -5    1    3    3    0  502  0.14708070623E+02  0.61665032911E+03  0.34728126220E+02  0.61782043385E+03  0.46999998093E+01 0.  1.
</event>
<event>
 5   0  0.1533777E-05  0.1498824E+04  0.7818609E-02  0.8885235E-01
        1   -1    0    0  501    0  0.00000000000E+00  0.00000000000E+00  0.23502296487E+04  0.23502296487E+04  0.50400001928E-02 0. -1.
       -1   -1    0    0    0  501  0.00000000000E+00  0.00000000000E+00 -0.23896313615E+03  0.23896313621E+03  0.50400001928E-02 0.  1.
    10030    2    1    2    0    0  0.00000000000E+00  0.00000000000E+00  0.21112665125E+04  0.25891927849E+04  0.14988238690E+04 0.  0.
        5    1    3    3  502    0  0.49591063933E+02  0.39654048985E+03 -0.39504497647E+02  0.40160469251E+03  0.46999998093E+01 0.  1.
       -5    1    3    3    0  502 -0.49591063933E+02 -0.39654048985E+03  0.21507710102E+04  0.21875880924E+04  0.46999998093E+01 0. -1.
</event>
<event>
 5   0  0.3093600E-05  0.1499591E+04  0.7818609E-02  0.8884725E-01
       -2   -1    0    0    0  501  0.00000000000E+00  0.00000000000E+00  0.57906035512E+03  0.57906035513E+03  0.25500000920E-02 0. -1.
        2   -1    0    0  501    0  0.00000000000E+00  0.00000000000E+00 -0.97087140521E+03  0.97087140522E+03  0.25500000920E-02 0.  1.
    10030    2    1    2    0    0  0.00000000000E+00  0.00000000000E+00 -0.39181105009E+03  0.15499317603E+04  0.14995907984E+04 0.  0.
        1    1    3    3  502    0  0.23371986309E+03 -0.68884406967E+03 -0.38383913806E+03  0.82247407902E+03  0.50400001928E-02 0.  1.
       -1    1    3    3    0  502 -0.23371986309E+03  0.68884406967E+03 -0.79719120283E+01  0.72745768133E+03  0.50400001928E-02 0. -1.
</event>
<event>
 5   0  0.1576214E-05  0.1498527E+04  0.7818609E-02  0.8885433E-01
        1   -1    0    0  501    0  0.00000000000E+00  0.00000000000E+00  0.72384399125E+03  0.72384399127E+03  0.50400001928E-02 0.  1.
       -1   -1    0    0    0  501  0.00000000000E+00  0.00000000000E+00 -0.77557568131E+03  0.77557568133E+03  0.50400001928E-02 0. -1.
    10030    2    1    2    0    0  0.00000000000E+00  0.00000000000E+00 -0.51731690056E+02  0.14994196726E+04  0.14985270057E+04 0.  0.
        1    1    3    3  502    0 -0.21645117374E+02 -0.12900697406E+03  0.71233002044E+03  0.72424123641E+03  0.50400001928E-02 0.  1.
       -1    1    3    3    0  502  0.21645117374E+02  0.12900697406E+03 -0.76406171050E+03  0.77517843619E+03  0.50400001928E-02 0. -1.
</event>
<event>
 5   0  0.2969498E-05  0.1499704E+04  0.7818609E-02  0.8884650E-01
        2   -1    0    0  501    0  0.00000000000E+00  0.00000000000E+00  0.19378511142E+04  0.19378511142E+04  0.25500000920E-02 0.  1.
       -2   -1    0    0    0  501  0.00000000000E+00  0.00000000000E+00 -0.29015526046E+03  0.29015526047E+03  0.25500000920E-02 0. -1.
    10030    2    1    2    0    0  0.00000000000E+00  0.00000000000E+00  0.16476958538E+04  0.22280063747E+04  0.14997035638E+04 0.  0.
        3    1    3    3  502    0 -0.42165185458E+03  0.37610530794E+03  0.91457075542E+02  0.57237216564E+03  0.10100000352E+00 0. -1.
       -3    1    3    3    0  502  0.42165185458E+03 -0.37610530794E+03  0.15562387782E+04  0.16556342090E+04  0.10100000352E+00 0.  1.
</event>
<event>
 5   0  0.3070497E-05  0.1502544E+04  0.7818609E-02  0.8882763E-01
        2   -1    0    0  501    0  0.00000000000E+00  0.00000000000E+00  0.10555710638E+04  0.10555710638E+04  0.25500000920E-02 0. -1.
       -2   -1    0    0    0  501  0.00000000000E+00  0.00000000000E+00 -0.53469631810E+03  0.53469631810E+03  0.25500000920E-02 0.  1.
    10030    2    1    2    0    0  0.00000000000E+00  0.00000000000E+00  0.52087474573E+03  0.15902673819E+04  0.15025444570E+04 0.  0.
        4    1    3    3  502    0 -0.31882626620E+03  0.68023114161E+03  0.25343647735E+03  0.79284062396E+03  0.12699999809E+01 0.  1.
       -4    1    3    3    0  502  0.31882626620E+03 -0.68023114161E+03  0.26743826837E+03  0.79742675797E+03  0.12699999809E+01 0. -1.
</event>
<event>
 5   0  0.3018308E-05  0.1498725E+04  0.7818609E-02  0.8885301E-01
        2   -1    0    0  501    0  0.00000000000E+00  0.00000000000E+00  0.16738947605E+04  0.16738947605E+04  0.25500000920E-02 0. -1.
       -2   -1    0    0    0  501  0.00000000000E+00  0.00000000000E+00 -0.33547144201E+03  0.33547144202E+03  0.25500000920E-02 0.  1.
    10030    2    1    2    0    0  0.00000000000E+00  0.00000000000E+00  0.13384233185E+04  0.20093662025E+04  0.14987246433E+04 0.  0.
        2    1    3    3  502    0 -0.47280426235E+03 -0.37198278025E+03  0.70181242107E+02  0.60567356394E+03  0.25500000920E-02 0.  1.
       -2    1    3    3    0  502  0.47280426235E+03  0.37198278025E+03  0.12682420764E+04  0.14036926386E+04  0.25500000920E-02 0. -1.
</event>
<event>
 5   0  0.3018308E-05  0.1500517E+04  0.7818609E-02  0.8884109E-01
       -2   -1    0    0    0  501  0.00000000000E+00  0.00000000000E+00  0.54586769136E+03  0.54586769136E+03  0.25500000920E-02 0.  1.
        2   -1    0    0  501    0  0.00000000000E+00  0.00000000000E+00 -0.10311801204E+04  0.10311801204E+04  0.25500000920E-02 0. -1.
    10030    2    1    2    0    0  0.00000000000E+00  0.00000000000E+00 -0.48531242900E+03  0.15770478117E+04  0.15005171264E+04 0.  0.
        2    1    3    3  502    0  0.45171477311E+03 -0.43961781619E+03  0.18501008071E+03  0.65691612138E+03  0.25500000920E-02 0.  1.
       -2    1    3    3    0  502 -0.45171477311E+03  0.43961781619E+03 -0.67032250971E+03  0.92013169035E+03  0.25500000920E-02 0. -1.
</event>
<event>
 5   0  0.3093600E-05  0.1499123E+04  0.7818609E-02  0.8885036E-01
       -2   -1    0    0    0  501  0.00000000000E+00  0.00000000000E+00  0.27030988862E+03  0.27030988863E+03  0.25500000920E-02 0.  1.
        2   -1    0    0  501    0  0.00000000000E+00  0.00000000000E+00 -0.20785126144E+04  0.20785126144E+04  0.25500000920E-02 0. -1.
    10030    2    1    2    0    0  0.00000000000E+00  0.00000000000E+00 -0.18082027258E+04  0.23488225031E+04  0.14991230948E+04 0.  0.
        1    1    3    3  502    0  0.33104940351E+02  0.34991766367E+03 -0.19413926329E+04  0.19729530313E+04  0.50400001928E-02 0. -1.
       -1    1    3    3    0  502 -0.33104940351E+02 -0.34991766367E+03  0.13318990713E+03  0.37586947177E+03  0.50400001928E-02 0.  1.
</event>
<event>
 5   0  0.1533777E-05  0.1501939E+04  0.7818609E-02  0.8883165E-01
       -1   -1    0    0    0  501  0.00000000000E+00  0.00000000000E+00  0.32480720280E+03  0.32480720284E+03  0.50400001928E-02 0.  1.
        1   -1    0    0  501    0  0.00000000000E+00  0.00000000000E+00 -0.17362758808E+04  0.17362758808E+04  0.50400001928E-02 0. -1.
    10030    2    1    2    0    0  0.00000000000E+00  0.00000000000E+00 -0.14114686780E+04  0.20610830836E+04  0.15019386301E+04 0.  0.
        5    1    3    3  502    0  0.44815931081E+03  0.28268332569E+03  0.24515852753E+02  0.53045239892E+03  0.46999998093E+01 0.  1.
       -5    1    3    3    0  502 -0.44815931081E+03 -0.28268332569E+03 -0.14359845307E+04  0.15306306847E+04  0.46999998093E+01 0. -1.
</event>
<event>
 5   0  0.1576214E-05  0.1499773E+04  0.7818609E-02  0.8884604E-01
       -1   -1    0    0    0  501  0.00000000000E+00  0.00000000000E+00  0.12136755098E+04  0.12136755099E+04  0.50400001928E-02 0. -1.
        1   -1    0    0  501    0  0.00000000000E+00  0.00000000000E+00 -0.46332768330E+03  0.46332768332E+03  0.50400001928E-02 0.  1.
    10030    2    1    2    0    0  0.00000000000E+00  0.00000000000E+00  0.75034782655E+03  0.16770031932E+04  0.14997725991E+04 0.  0.
        1    1    3    3  502    0  0.41361470294E+03  0.43535663112E+03 -0.12702950479E+03  0.61379883827E+03  0.50400001928E-02 0.  1.
       -1    1    3    3    0  502 -0.41361470294E+03 -0.43535663112E+03  0.87737733134E+03  0.10632043549E+04  0.50400001928E-02 0. -1.
</event>
<event>
 5   0  0.3093600E-05  0.1495220E+04  0.7818609E-02  0.8887638E-01
        2   -1    0    0  501    0  0.00000000000E+00  0.00000000000E+00  0.21201524273E+04  0.21201524273E+04  0.25500000920E-02 0.  1.
       -2   -1    0    0    0  501  0.00000000000E+00  0.00000000000E+00 -0.26362277019E+03  0.26362277020E+03  0.25500000920E-02 0. -1.
    10030    2    1    2    0    0  0.00000000000E+00  0.00000000000E+00  0.18565296571E+04  0.23837751975E+04  0.14952196576E+04 0.  0.
        1    1    3    3  502    0  0.41400839361E+03  0.27533275712E+02 -0.63207851019E+02  0.41970973745E+03  0.50400001928E-02 0. -1.
       -1    1    3    3    0  502 -0.41400839361E+03 -0.27533275712E+02  0.19197375082E+04  0.19640654601E+04  0.50400001928E-02 0.  1.
</event>
<event>
 5   0  0.1580078E-05  0.1499576E+04  0.7818609E-02  0.8884735E-01
        1   -1    0    0  501    0  0.00000000000E+00  0.00000000000E+00  0.54107274527E+03  0.54107274529E+03  0.50400001928E-02 0. -1.
       -1   -1    0    0    0  501  0.00000000000E+00  0.00000000000E+00 -0.10390131626E+04  0.10390131626E+04  0.50400001928E-02 0.  1.
    10030    2    1    2    0    0  0.00000000000E+00  0.00000000000E+00 -0.49794041733E+03  0.15800859079E+04  0.14995755457E+04 0.  0.
        2    1    3    3  502    0  0.38075455712E+03  0.64580846412E+03 -0.26139744726E+03  0.79395921214E+03  0.25500000920E-02 0.  1.
       -2    1    3    3    0  502 -0.38075455712E+03 -0.64580846412E+03 -0.23654297007E+03  0.78612669577E+03  0.25500000920E-02 0. -1.
</event>
<event>
 5   0  0.1588657E-05  0.1500177E+04  0.7818609E-02  0.8884336E-01
        1   -1    0    0  501    0  0.00000000000E+00  0.00000000000E+00  0.13917276173E+04  0.13917276173E+04  0.50400001928E-02 0. -1.
       -1   -1    0    0    0  501  0.00000000000E+00  0.00000000000E+00 -0.40426908103E+03  0.40426908106E+03  0.50400001928E-02 0.  1.
    10030    2    1    2    0    0  0.00000000000E+00  0.00000000000E+00  0.98745853629E+03  0.17959966984E+04  0.15001765828E+04 0.  0.
        3    1    3    3  502    0 -0.57865488248E+03  0.33306540875E+03  0.84475100350E+02  0.67298595253E+03  0.10100000352E+00 0.  1.
       -3    1    3    3    0  502  0.57865488248E+03 -0.33306540875E+03  0.90298343594E+03  0.11230107459E+04  0.10100000352E+00 0. -1.
</event>
<event>
 5   0  0.1643498E-05  0.1500361E+04  0.7818609E-02  0.8884213E-01
        1   -1    0    0  501    0  0.00000000000E+00  0.00000000000E+00  0.14121082623E+04  0.14121082624E+04  0.50400001928E-02 0. -1.
       -1   -1    0    0    0  501  0.00000000000E+00  0.00000000000E+00 -0.39853220565E+03  0.39853220568E+03  0.50400001928E-02 0.  1.
    10030    2    1    2    0    0  0.00000000000E+00  0.00000000000E+00  0.10135760567E+04  0.18106404680E+04  0.15003607839E+04 0.  0.
        4    1    3    3  502    0 -0.53989226341E+03  0.34601149285E+02  0.11339637714E+04  0.12564061220E+04  0.12699999809E+01 0. -1.
       -4    1    3    3    0  502  0.53989226341E+03 -0.34601149285E+02 -0.12038771468E+03  0.55423434607E+03  0.12699999809E+01 0.  1.
</event>
<event>
 5   0  0.3093600E-05  0.1500016E+04  0.7818609E-02  0.8884443E-01
       -2   -1    0    0    0  501  0.00000000000E+00  0.00000000000E+00  0.34400056103E+03  0.34400056104E+03  0.25500000920E-02 0.  1.
        2   -1    0    0  501    0  0.00000000000E+00  0.00000000000E+00 -0.16352058097E+04  0.16352058097E+04  0.25500000920E-02 0. -1.
    10030    2    1    2    0    0  0.00000000000E+00  0.00000000000E+00 -0.12912052487E+04  0.19792063708E+04  0.15000156212E+04 0.  0.
        1    1    3    3  502    0 -0.57833599888E+03  0.39764633449E+03 -0.29671514047E+03  0.76199410073E+03  0.50400001928E-02 0.  1.
       -1    1    3    3    0  502  0.57833599888E+03 -0.39764633449E+03 -0.99449010824E+03  0.12172122700E+04  0.50400001928E-02 0. -1.
</event>
<event>
 5   0  0.1580078E-05  0.1500019E+04  0.7818609E-02  0.8884440E-01
        1   -1    0    0  501    0  0.00000000000E+00  0.00000000000E+00  0.11441566135E+04  0.11441566135E+04  0.50400001928E-02 0.  1.
       -1   -1    0    0    0  501  0.00000000000E+00  0.00000000000E+00 -0.49164109067E+03  0.49164109069E+03  0.50400001928E-02 0. -1.
    10030    2    1    2    0    0  0.00000000000E+00  0.00000000000E+00  0.65251552282E+03  0.16357977042E+04  0.15000192071E+04 0.  0.
        2    1    3    3  502    0 -0.60988591496E+03  0.43549563552E+03  0.35892104729E+03  0.83092815334E+03  0.25500000920E-02 0. -1.
       -2    1    3    3    0  502  0.60988591496E+03 -0.43549563552E+03  0.29359447553E+03  0.80486955085E+03  0.25500000920E-02 0.  1.
</event>
<event>
 5   0  0.1533777E-05  0.1501758E+04  0.7818609E-02  0.8883285E-01
        1   -1    0    0  501    0  0.00000000000E+00  0.00000000000E+00  0.55533361775E+03  0.55533361777E+03  0.50400001928E-02 0. -1.
       -1   -1    0    0    0  501  0.00000000000E+00  0.00000000000E+00 -0.10152796512E+04  0.10152796512E+04  0.50400001928E-02 0.  1.
    10030    2    1    2    0    0  0.00000000000E+00  0.00000000000E+00 -0.45994603344E+03  0.15706132690E+04  0.15017575327E+04 0.  0.
        5    1    3    3  502    0  0.33414356196E+03  0.59263243320E+03 -0.56223699497E+03  0.88260843492E+03  0.46999998093E+01 0.  1.
       -5    1    3    3    0  502 -0.33414356196E+03 -0.59263243320E+03  0.10229096153E+03  0.68800483406E+03  0.46999998093E+01 0. -1.
</event>
<event>
 5   0  0.1533777E-05  0.1498126E+04  0.7818609E-02  0.8885700E-01
       -1   -1    0    0    0  501  0.00000000000E+00  0.00000000000E+00  0.21788416247E+03  0.21788416253E+03  0.50400001928E-02 0. -1.
        1   -1    0    0  501    0  0.00000000000E+00  0.00000000000E+00 -0.25751987004E+04  0.25751987004E+04  0.50400001928E-02 0.  1.
    10030    2    1    2    0    0  0.00000000000E+00  0.00000000000E+00 -0.23573145379E+04  0.27930828629E+04  0.14981255116E+04 0.  0.
        5    1    3    3  502    0 -0.63734337620E+03 -0.10249287103E+03 -0.18870292834E+04  0.19943953906E+04  0.46999998093E+01 0.  1.
       -5    1    3    3    0  502  0.63734337620E+03  0.10249287103E+03 -0.47028525458E+03  0.79868747234E+03  0.46999998093E+01 0. -1.
</event>
<event>
 5   0  0.3093600E-05  0.1499506E+04  0.7818609E-02  0.8884781E-01
        2   -1    0    0  501    0  0.00000000000E+00  0.00000000000E+00  0.24356832457E+04  0.24356832457E+04  0.25500000920E-02 0.  1.
       -2   -1    0    0    0  501  0.00000000000E+00  0.00000000000E+00 -0.23078937603E+03  0.23078937604E+03  0.25500000920E-02 0. -1.
    10030    2    1    2    0    0  0.00000000000E+00  0.00000000000E+00  0.22048938697E+04  0.26664726217E+04  0.14995063408E+04 0.  0.
        1    1    3    3  502    0 -0.40613721398E+02 -0.66485626185E+03  0.17144448264E+04  0.18392945349E+04  0.50400001928E-02 0.  1.
       -1    1    3    3    0  502  0.40613721398E+02  0.66485626185E+03  0.49044904325E+03  0.82717808684E+03  0.50400001928E-02 0. -1.
</event>
<event>
 5   0  0.1116613E-05  0.1500589E+04  0.7818609E-02  0.8884061E-01
       -3   -1    0    0    0  501  0.00000000000E+00  0.00000000000E+00  0.40594086325E+03  0.40594087581E+03  0.10100000352E+00 0.  1.
        3   -1    0    0  501    0  0.00000000000E+00  0.00000000000E+00 -0.13867582232E+04  0.13867582269E+04  0.10100000352E+00 0. -1.
    10030    2    1    2    0    0  0.00000000000E+00  0.00000000000E+00 -0.98081735996E+03  0.17926991027E+04  0.15005890108E+04 0.  0.
        5    1    3    3  502    0 -0.70148701995E+02 -0.24109003405E+03 -0.13350574133E+04  0.13584718001E+04  0.46999998093E+01 0. -1.
       -5    1    3    3    0  502  0.70148701995E+02  0.24109003405E+03  0.35424005335E+03  0.43422730258E+03  0.46999998093E+01 0.  1.
</event>
<event>
 5   0  0.1533777E-05  0.1500501E+04  0.7818609E-02  0.8884120E-01
       -1   -1    0    0    0  501  0.00000000000E+00  0.00000000000E+00  0.26629114270E+03  0.26629114275E+03  0.50400001928E-02 0. -1.
        1   -1    0    0  501    0  0.00000000000E+00  0.00000000000E+00 -0.21137598452E+04  0.21137598452E+04  0.50400001928E-02 0.  1.
    10030    2    1    2    0    0  0.00000000000E+00  0.00000000000E+00 -0.18474687025E+04  0.23800509880E+04  0.15005006160E+04 0.  0.
        5    1    3    3  502    0 -0.37645967771E+03  0.37835275841E+03 -0.87443331690E+02  0.54087071005E+03  0.46999998093E+01 0. -1.
       -5    1    3    3    0  502  0.37645967771E+03 -0.37835275841E+03 -0.17600253709E+04  0.18391802779E+04  0.46999998093E+01 0.  1.
</event>
<event>
 5   0  0.3018308E-05  0.1500525E+04  0.7818609E-02  0.8884104E-01
       -2   -1    0    0    0  501  0.00000000000E+00  0.00000000000E+00  0.11742157606E+04  0.11742157606E+04  0.25500000920E-02 0. -1.
        2   -1    0    0  501    0  0.00000000000E+00  0.00000000000E+00 -0.47937835075E+03  0.47937835076E+03  0.25500000920E-02 0.  1.
    10030    2    1    2    0    0  0.00000000000E+00  0.00000000000E+00  0.69483740984E+03  0.16535941114E+04  0.15005247279E+04 0.  0.
        2    1    3    3  502    0 -0.67639128332E+03  0.31700462505E+03  0.42453200215E+03  0.85919993093E+03  0.25500000920E-02 0. -1.
       -2    1    3    3    0  502  0.67639128332E+03 -0.31700462505E+03  0.27030540770E+03  0.79439418043E+03  0.25500000920E-02 0.  1.
</event>
<event>
 5   0  0.1580078E-05  0.1499744E+04  0.7818609E-02  0.8884623E-01
       -1   -1    0    0    0  501  0.00000000000E+00  0.00000000000E+00  0.56430827417E+03  0.56430827419E+03  0.50400001928E-02 0. -1.
        1   -1    0    0  501    0  0.00000000000E+00  0.00000000000E+00 -0.99645477688E+03  0.99645477689E+03  0.50400001928E-02 0.  1.
    10030    2    1    2    0    0  0.00000000000E+00  0.00000000000E+00 -0.43214650271E+03  0.15607630511E+04  0.14997435453E+04 0.  0.
        2    1    3    3  502    0 -0.62408305014E+03  0.11676022227E+02 -0.64854296292E+03  0.90012441236E+03  0.25500000920E-02 0.  1.
       -2    1    3    3    0  502  0.62408305014E+03 -0.11676022227E+02  0.21639646021E+03  0.66063863872E+03  0.25500000920E-02 0. -1.
</event>
<event>
 5   0  0.3030702E-05  0.1499149E+04  0.7818609E-02  0.8885019E-01
       -2   -1    0    0    0  501  0.00000000000E+00  0.00000000000E+00  0.39644404966E+03  0.39644404967E+03  0.25500000920E-02 0. -1.
        2   -1    0    0  501    0  0.00000000000E+00  0.00000000000E+00 -0.14172541063E+04  0.14172541063E+04  0.25500000920E-02 0.  1.
    10030    2    1    2    0    0  0.00000000000E+00  0.00000000000E+00 -0.10208100567E+04  0.18136981560E+04  0.14991490351E+04 0.  0.
        5    1    3    3  502    0  0.87665120809E+02 -0.21611655724E+03  0.35141407125E+03  0.42178842941E+03  0.46999998093E+01 0. -1.
       -5    1    3    3    0  502 -0.87665120809E+02  0.21611655724E+03 -0.13722241279E+04  0.13919097266E+04  0.46999998093E+01 0.  1.
</event>
<event>
 5   0  0.3070497E-05  0.1499984E+04  0.7818609E-02  0.8884463E-01
        2   -1    0    0  501    0  0.00000000000E+00  0.00000000000E+00  0.16477394105E+04  0.16477394105E+04  0.25500000920E-02 0.  1.
       -2   -1    0    0    0  501  0.00000000000E+00  0.00000000000E+00 -0.34136968531E+03  0.34136968531E+03  0.25500000920E-02 0. -1.
    10030    2    1    2    0    0  0.00000000000E+00  0.00000000000E+00  0.13063697252E+04  0.19891090958E+04  0.14999843786E+04 0.  0.
        4    1    3    3  502    0  0.60032497647E+03  0.36983762507E+03  0.31427510947E+03  0.77197176349E+03  0.12699999809E+01 0. -1.
       -4    1    3    3    0  502 -0.60032497647E+03 -0.36983762507E+03  0.99209461574E+03  0.12171373323E+04  0.12699999809E+01 0.  1.
</event>
<event>
 5   0  0.3070497E-05  0.1499728E+04  0.7818609E-02  0.8884634E-01
       -2   -1    0    0    0  501  0.00000000000E+00  0.00000000000E+00  0.13996800375E+04  0.13996800375E+04  0.25500000920E-02 0. -1.
        2   -1    0    0  501    0  0.00000000000E+00  0.00000000000E+00 -0.40173163319E+03  0.40173163319E+03  0.25500000920E-02 0.  1.
    10030    2    1    2    0    0  0.00000000000E+00  0.00000000000E+00  0.99794840432E+03  0.18014116707E+04  0.14997276385E+04 0.  0.
        4    1    3    3  502    0 -0.27397361674E+03  0.14076587146E+02 -0.33928902310E+03  0.43632367237E+03  0.12699999809E+01 0.  1.
       -4    1    3    3    0  502  0.27397361674E+03 -0.14076587146E+02  0.13372374274E+04  0.13650879983E+04  0.12699999809E+01 0. -1.
</event>
<event>
 5   0  0.1533777E-05  0.1499544E+04  0.7818609E-02  0.8884756E-01
        1   -1    0    0  501    0  0.00000000000E+00  0.00000000000E+00  0.64970613518E+03  0.64970613520E+03  0.50400001928E-02 0.  1.
       -1   -1    0    0    0  501  0.00000000000E+00  0.00000000000E+00 -0.86524939682E+03  0.86524939684E+03  0.50400001928E-02 0. -1.
    10030    2    1    2    0    0  0.00000000000E+00  0.00000000000E+00 -0.21554326164E+03  0.15149555320E+04  0.14995437194E+04 0.  0.
        5    1    3    3  502    0 -0.61795159822E+03  0.34999299772E+03 -0.35060942286E+03  0.79202798788E+03  0.46999998093E+01 0.  1.
       -5    1    3    3    0  502  0.61795159822E+03 -0.34999299772E+03  0.13506616122E+03  0.72292754416E+03  0.46999998093E+01 0. -1.
</event>
<event>
 5   0  0.1116613E-05  0.1499661E+04  0.7818609E-02  0.8884678E-01
       -3   -1    0    0    0  501  0.00000000000E+00  0.00000000000E+00  0.11276180670E+04  0.11276180715E+04  0.10100000352E+00 0. -1.
        3   -1    0    0  501    0  0.00000000000E+00  0.00000000000E+00 -0.49861378579E+03  0.49861379601E+03  0.10100000352E+00 0.  1.
    10030    2    1    2    0    0  0.00000000000E+00  0.00000000000E+00  0.62900428120E+03  0.16262318675E+04  0.14996611955E+04 0.  0.
        2    1    3    3  502    0  0.34570518913E+03 -0.59980565929E+03  0.62685253251E+03  0.93392880041E+03  0.25500000920E-02 0. -1.
       -2    1    3    3    0  502 -0.34570518913E+03  0.59980565929E+03  0.21517486894E+01  0.69230306712E+03  0.25500000920E-02 0.  1.
</event>
<event>
 5   0  0.1533777E-05  0.1500016E+04  0.7818609E-02  0.8884442E-01
        1   -1    0    0  501    0  0.00000000000E+00  0.00000000000E+00  0.76018092822E+03  0.76018092824E+03  0.50400001928E-02 0. -1.
       -1   -1    0    0    0  501  0.00000000000E+00  0.00000000000E+00 -0.73997129740E+03  0.73997129742E+03  0.50400001928E-02 0.  1.
    10030    2    1    2    0    0  0.00000000000E+00  0.00000000000E+00  0.20209630825E+02  0.15001522257E+04  0.15000160902E+04 0.  0.
        5    1    3    3  502    0 -0.87116236618E+01  0.34859304732E+03 -0.65395617909E+03  0.74113006901E+03  0.46999998093E+01 0.  1.
       -5    1    3    3    0  502  0.87116236618E+01 -0.34859304732E+03  0.67416580991E+03  0.75902215665E+03  0.46999998093E+01 0. -1.
</event>
<event>
 5   0  0.3093600E-05  0.1505660E+04  0.7818609E-02  0.8880698E-01
       -2   -1    0    0    0  501  0.00000000000E+00  0.00000000000E+00  0.32404546563E+03  0.32404546564E+03  0.25500000920E-02 0. -1.
        2   -1    0    0  501    0  0.00000000000E+00  0.00000000000E+00 -0.17489923814E+04  0.17489923814E+04  0.25500000920E-02 0.  1.
    10030    2    1    2    0    0  0.00000000000E+00  0.00000000000E+00 -0.14249469158E+04  0.20730378470E+04  0.15056600554E+04 0.  0.
        1    1    3    3  502    0  0.52306933812E+03 -0.48558573573E+03 -0.38272912148E+03  0.80986209918E+03  0.50400001928E-02 0. -1.
       -1    1    3    3    0  502 -0.52306933812E+03  0.48558573573E+03 -0.10422177943E+04  0.12631757479E+04  0.50400001928E-02 0.  1.
</event>
<event>
 5   0  0.3030702E-05  0.1499919E+04  0.7818609E-02  0.8884507E-01
        2   -1    0    0  501    0  0.00000000000E+00  0.00000000000E+00  0.72518536727E+03  0.72518536727E+03  0.25500000920E-02 0. -1.
       -2   -1    0    0    0  501  0.00000000000E+00  0.00000000000E+00 -0.77558021195E+03  0.77558021196E+03  0.25500000920E-02 0.  1.
    10030    2    1    2    0    0  0.00000000000E+00  0.00000000000E+00 -0.50394844688E+02  0.15007655792E+04  0.14999192256E+04 0.  0.
        5    1    3    3  502    0  0.63607243370E+03  0.17913621321E+03 -0.37999503800E+03  0.76229668942E+03  0.46999998093E+01 0.  1.
       -5    1    3    3    0  502 -0.63607243370E+03 -0.17913621321E+03  0.32960019331E+03  0.73846888981E+03  0.46999998093E+01 0. -1.
</event>
<event>
 5   0  0.1588657E-05  0.1504022E+04  0.7818609E-02  0.8881783E-01
        1   -1    0    0  501    0  0.00000000000E+00  0.00000000000E+00  0.20763458105E+04  0.20763458105E+04  0.50400001928E-02 0.  1.
       -1   -1    0    0    0  501  0.00000000000E+00  0.00000000000E+00 -0.27236344056E+03  0.27236344060E+03  0.50400001928E-02 0. -1.
    10030    2    1    2    0    0  0.00000000000E+00  0.00000000000E+00  0.18039823699E+04  0.23487092511E+04  0.15040221924E+04 0.  0.
        3    1    3    3  502    0  0.34431143509E+03  0.35257435238E+03  0.14939995555E+02  0.49303372294E+03  0.10100000352E+00 0. -1.
       -3    1    3    3    0  502 -0.34431143509E+03 -0.35257435238E+03  0.17890423744E+04  0.18556755281E+04  0.10100000352E+00 0.  1.
</event>
<event>
 5   0  0.3070497E-05  0.1499748E+04  0.7818609E-02  0.8884620E-01
       -2   -1    0    0    0  501  0.00000000000E+00  0.00000000000E+00  0.47441113310E+03  0.47441113310E+03  0.25500000920E-02 0.  1.
        2   -1    0    0  501    0  0.00000000000E+00  0.00000000000E+00 -0.11852826160E+04  0.11852826160E+04  0.25500000920E-02 0. -1.
    10030    2    1    2    0    0  0.00000000000E+00  0.00000000000E+00 -0.71087148293E+03  0.16596937491E+04  0.14997483374E+04 0.  0.
        4    1    3    3  502    0 -0.61986948342E+03  0.21818613878E+03  0.44286876227E+02  0.65863974063E+03  0.12699999809E+01 0.  1.
       -4    1    3    3    0  502  0.61986948342E+03 -0.21818613878E+03 -0.75515835916E+03  0.10010540085E+04  0.12699999809E+01 0. -1.
</event>
<event>
 5   0  0.3093600E-05  0.1499924E+04  0.7818609E-02  0.8884503E-01
       -2   -1    0    0    0  501  0.00000000000E+00  0.00000000000E+00  0.65337809638E+03  0.65337809639E+03  0.25500000920E-02 0. -1.
        2   -1    0    0  501    0  0.00000000000E+00  0.00000000000E+00 -0.86082362840E+03  0.86082362841E+03  0.25500000920E-02 0.  1.
    10030    2    1    2    0    0  0.00000000000E+00  0.00000000000E+00 -0.20744553202E+03  0.15142017248E+04  0.14999244030E+04 0.  0.
        1    1    3    3  502    0  0.20352774552E+02 -0.92906058891E+02  0.64726519471E+03  0.65421556350E+03  0.50400001928E-02 0. -1.
       -1    1    3    3    0  502 -0.20352774552E+02  0.92906058891E+02 -0.85471072673E+03  0.85998616130E+03  0.50400001928E-02 0.  1.
</event>
<event>
 5   0  0.1588657E-05  0.1498016E+04  0.7818609E-02  0.8885773E-01
        1   -1    0    0  501    0  0.00000000000E+00  0.00000000000E+00  0.13617507414E+04  0.13617507414E+04  0.50400001928E-02 0.  1.
       -1   -1    0    0    0  501  0.00000000000E+00  0.00000000000E+00 -0.41197937386E+03  0.41197937389E+03  0.50400001928E-02 0. -1.
    10030    2    1    2    0    0  0.00000000000E+00  0.00000000000E+00  0.94977136756E+03  0.17737301153E+04  0.14980163121E+04 0.  0.
        3    1    3    3  502    0  0.36304021865E+03 -0.67125140971E+02 -0.29675806683E+03  0.47367641416E+03  0.10100000352E+00 0. -1.
       -3    1    3    3    0  502 -0.36304021865E+03  0.67125140971E+02  0.12465294344E+04  0.13000537012E+04  0.10100000352E+00 0.  1.
</event>
<event>
 5   0  0.2969498E-05  0.1504019E+04  0.7818609E-02  0.8881785E-01
       -2   -1    0    0    0  501  0.00000000000E+00  0.00000000000E+00  0.10504315212E+04  0.10504315212E+04  0.25500000920E-02 0. -1.
        2   -1    0    0  501    0  0.00000000000E+00  0.00000000000E+00 -0.53836740073E+03  0.53836740074E+03  0.25500000920E-02 0.  1.
    10030    2    1    2    0    0  0.00000000000E+00  0.00000000000E+00  0.51206412045E+03  0.15887989219E+04  0.15040187335E+04 0.  0.
        3    1    3    3  502    0  0.67131149256E+03  0.46787203188E+02  0.61061650057E+03  0.90868073789E+03  0.10100000352E+00 0. -1.
       -3    1    3    3    0  502 -0.67131149256E+03 -0.46787203188E+02 -0.98552380123E+02  0.68011818404E+03  0.10100000352E+00 0.  1.
</event>
<event>
 5   0  0.1588657E-05  0.1499743E+04  0.7818609E-02  0.8884624E-01
       -1   -1    0    0    0  501  0.00000000000E+00  0.00000000000E+00  0.85052694971E+03  0.85052694973E+03  0.50400001928E-02 0. -1.
        1   -1    0    0  501    0  0.00000000000E+00  0.00000000000E+00 -0.66112844721E+03  0.66112844723E+03  0.50400001928E-02 0.  1.
    10030    2    1    2    0    0  0.00000000000E+00  0.00000000000E+00  0.18939850250E+03  0.15116553970E+04  0.14997433935E+04 0.  0.
        3    1    3    3  502    0  0.21522210356E+03  0.33053149580E+03  0.73752329068E+03  0.83636848223E+03  0.10100000352E+00 0. -1.
       -3    1    3    3    0  502 -0.21522210356E+03 -0.33053149580E+03 -0.54812478818E+03  0.67528691472E+03  0.10100000352E+00 0.  1.
</event>
<event>
 5   0  0.1533777E-05  0.1499828E+04  0.7818609E-02  0.8884568E-01
       -1   -1    0    0    0  501  0.00000000000E+00  0.00000000000E+00  0.61992416180E+03  0.61992416182E+03  0.50400001928E-02 0.  1.
        1   -1    0    0  501    0  0.00000000000E+00  0.00000000000E+00 -0.90716053277E+03  0.90716053279E+03  0.50400001928E-02 0. -1.
    10030    2    1    2    0    0  0.00000000000E+00  0.00000000000E+00 -0.28723637097E+03  0.15270846946E+04  0.14998276340E+04 0.  0.
        5    1    3    3  502    0  0.20344652978E+03  0.35490324342E+03 -0.78353177441E+03  0.88390663205E+03  0.46999998093E+01 0. -1.
       -5    1    3    3    0  502 -0.20344652978E+03 -0.35490324342E+03  0.49629540344E+03  0.64317806255E+03  0.46999998093E+01 0.  1.
</event>
<event>
 5   0  0.1576214E-05  0.1509530E+04  0.7818609E-02  0.8878140E-01
        1   -1    0    0  501    0  0.00000000000E+00  0.00000000000E+00  0.10809356228E+04  0.10809356228E+04  0.50400001928E-02 0. -1.
       -1   -1    0    0    0  501  0.00000000000E+00  0.00000000000E+00 -0.52701613691E+03  0.52701613694E+03  0.50400001928E-02 0.  1.
    10030    2    1    2    0    0  0.00000000000E+00  0.00000000000E+00  0.55391948587E+03  0.16079517597E+04  0.15095304120E+04 0.  0.
        1    1    3    3  502    0  0.27793399787E+03  0.21676162292E+02  0.10240844709E+04  0.10613511044E+04  0.50400001928E-02 0. -1.
       -1    1    3    3    0  502 -0.27793399787E+03 -0.21676162292E+02 -0.47016498507E+03  0.54660065532E+03  0.50400001928E-02 0.  1.
</event>
<event>
 5   0  0.1576214E-05  0.1499786E+04  0.7818609E-02  0.8884595E-01
        1   -1    0    0  501    0  0.00000000000E+00  0.00000000000E+00  0.13254479638E+04  0.13254479639E+04  0.50400001928E-02 0.  1.
       -1   -1    0    0    0  501  0.00000000000E+00  0.00000000000E+00 -0.42426377834E+03  0.42426377837E+03  0.50400001928E-02 0. -1.
    10030    2    1    2    0    0  0.00000000000E+00  0.00000000000E+00  0.90118418550E+03  0.17497117422E+04  0.14997860663E+04 0.  0.
        1    1    3    3  502    0  0.28652596419E+03  0.61879704764E+03  0.81456282185E+03  0.10623179868E+04  0.50400001928E-02 0.  1.
       -1    1    3    3    0  502 -0.28652596419E+03 -0.61879704764E+03  0.86621363652E+02  0.68739375542E+03  0.50400001928E-02 0. -1.
</event>
<event>
 5   0  0.2969498E-05  0.1500310E+04  0.7818609E-02  0.8884246E-01
        2   -1    0    0  501    0  0.00000000000E+00  0.00000000000E+00  0.10290259154E+04  0.10290259154E+04  0.25500000920E-02 0.  1.
       -2   -1    0    0    0  501  0.00000000000E+00  0.00000000000E+00 -0.54685978790E+03  0.54685978791E+03  0.25500000920E-02 0. -1.
    10030    2    1    2    0    0  0.00000000000E+00  0.00000000000E+00  0.48216612750E+03  0.15758857033E+04  0.15003104930E+04 0.  0.
        3    1    3    3  502    0  0.10542064241E+03  0.16211493612E+03 -0.52022955163E+03  0.55500771251E+03  0.10100000352E+00 0. -1.
       -3    1    3    3    0  502 -0.10542064241E+03 -0.16211493612E+03  0.10023956791E+04  0.10208779908E+04  0.10100000352E+00 0.  1.
</event>
<event>
 5   0  0.1576214E-05  0.1499762E+04  0.7818609E-02  0.8884612E-01
        1   -1    0    0  501    0  0.00000000000E+00  0.00000000000E+00  0.15661905211E+04  0.15661905211E+04  0.50400001928E-02 0. -1.
       -1   -1    0    0    0  501  0.00000000000E+00  0.00000000000E+00 -0.35903750724E+03  0.35903750728E+03  0.50400001928E-02 0.  1.
    10030    2    1    2    0    0  0.00000000000E+00  0.00000000000E+00  0.12071530138E+04  0.19252280284E+04  0.14997615018E+04 0.  0.
        1    1    3    3  502    0  0.18447302523E+03 -0.72301309806E+03  0.69914805827E+03  0.10225391163E+04  0.50400001928E-02 0.  1.
       -1    1    3    3    0  502 -0.18447302523E+03  0.72301309806E+03  0.50800495556E+03  0.90268891203E+03  0.50400001928E-02 0. -1.
</event>
<event>
 5   0  0.1580078E-05  0.1500200E+04  0.7818609E-02  0.8884320E-01
        1   -1    0    0  501    0  0.00000000000E+00  0.00000000000E+00  0.22425245020E+03  0.22425245026E+03  0.50400001928E-02 0.  1.
       -1   -1    0    0    0  501  0.00000000000E+00  0.00000000000E+00 -0.25090038969E+04  0.25090038969E+04  0.50400001928E-02 0. -1.
    10030    2    1    2    0    0  0.00000000000E+00  0.00000000000E+00 -0.22847514467E+04  0.27332563472E+04  0.15002003487E+04 0.  0.
        2    1    3    3  502    0  0.52317574937E+03  0.45631814708E+03 -0.16599800352E+04  0.17992978723E+04  0.25500000920E-02 0. -1.
       -2    1    3    3    0  502 -0.52317574937E+03 -0.45631814708E+03 -0.62477141147E+03  0.93395847481E+03  0.25500000920E-02 0.  1.
</event>
<event>
 5   0  0.1533777E-05  0.1500148E+04  0.7818609E-02  0.8884354E-01
        1   -1    0    0  501    0  0.00000000000E+00  0.00000000000E+00  0.12190274627E+04  0.12190274627E+04  0.50400001928E-02 0. -1.
       -1   -1    0    0    0  501  0.00000000000E+00  0.00000000000E+00 -0.46152456026E+03  0.46152456028E+03  0.50400001928E-02 0.  1.
    10030    2    1    2    0    0  0.00000000000E+00  0.00000000000E+00  0.75750290242E+03  0.16805520230E+04  0.15001481443E+04 0.  0.
        5    1    3    3  502    0 -0.73583636995E+03 -0.10339721423E+03  0.26427190967E+03  0.78867476154E+03  0.46999998093E+01 0.  1.
       -5    1    3    3    0  502  0.73583636995E+03  0.10339721423E+03  0.49323099274E+03  0.89187726143E+03  0.46999998093E+01 0. -1.
</event>
<event>
 5   0  0.3093600E-05  0.1494379E+04  0.7818609E-02  0.8888199E-01
       -2   -1    0    0    0  501  0.00000000000E+00  0.00000000000E+00  0.83876087256E+03  0.83876087256E+03  0.25500000920E-02 0.  1.
        2   -1    0    0  501    0  0.00000000000E+00  0.00000000000E+00 -0.66561569097E+03  0.66561569098E+03  0.25500000920E-02 0. -1.
    10030    2    1    2    0    0  0.00000000000E+00  0.00000000000E+00  0.17314518159E+03  0.15043765635E+04  0.14943793330E+04 0.  0.
        1    1    3    3  502    0 -0.10429532980E+02  0.28667756060E+03 -0.60797018693E+03  0.67225036045E+03  0.50400001928E-02 0. -1.
       -1    1    3    3    0  502  0.10429532980E+02 -0.28667756060E+03  0.78111536852E+03  0.83212620309E+03  0.50400001928E-02 0.  1.
</event>
<event>
 5   0  0.2969498E-05  0.1500182E+04  0.7818609E-02  0.8884332E-01
       -2   -1    0    0    0  501  0.00000000000E+00  0.00000000000E+00  0.38595151099E+03  0.38595151100E+03  0.25500000920E-02 0.  1.
        2   -1    0    0  501    0  0.00000000000E+00  0.00000000000E+00 -0.14577909232E+04  0.14577909232E+04  0.25500000920E-02 0. -1.
    10030    2    1    2    0    0  0.00000000000E+00  0.00000000000E+00 -0.10718394122E+04  0.18437424342E+04  0.15001821350E+04 0.  0.
        3    1    3    3  502    0  0.45663386405E+02  0.23851411514E+03 -0.14081397405E+04  0.14289267535E+04  0.10100000352E+00 0. -1.
       -3    1    3    3    0  502 -0.45663386405E+02 -0.23851411514E+03  0.33630032825E+03  0.41481568071E+03  0.10100000352E+00 0.  1.
</event>
<event>
 5   0  0.1643498E-05  0.1497981E+04  0.7818609E-02  0.8885797E-01
        1   -1    0    0  501    0  0.00000000000E+00  0.00000000000E+00  0.43431876749E+03  0.43431876752E+03  0.50400001928E-02 0.  1.
       -1   -1    0    0    0  501  0.00000000000E+00  0.00000000000E+00 -0.12916473830E+04  0.12916473830E+04  0.50400001928E-02 0. -1.
    10030    2    1    2    0    0  0.00000000000E+00  0.00000000000E+00 -0.85732861546E+03  0.17259661505E+04  0.14979809070E+04 0.  0.
        4    1    3    3  502    0 -0.53103380021E+03 -0.26460925215E+03 -0.95537011405E+03  0.11246104308E+04  0.12699999809E+01 0. -1.
       -4    1    3    3    0  502  0.53103380021E+03  0.26460925215E+03  0.98041498589E+02  0.60135571971E+03  0.12699999809E+01 0.  1.
</event>
<event>
 5   0  0.1580078E-05  0.1503201E+04  0.7818609E-02  0.8882327E-01
        1   -1    0    0  501    0  0.00000000000E+00  0.00000000000E+00  0.16741506559E+04  0.16741506560E+04  0.50400001928E-02 0.  1.
       -1   -1    0    0    0  501  0.00000000000E+00  0.00000000000E+00 -0.33742702828E+03  0.33742702831E+03  0.50400001928E-02 0. -1.
    10030    2    1    2    0    0  0.00000000000E+00  0.00000000000E+00  0.13367236277E+04  0.20115776843E+04  0.15032014912E+04 0.  0.
        2    1    3    3  502    0  0.74034670365E+01  0.63069766575E+03  0.12153374331E+04  0.13692623683E+04  0.25500000920E-02 0.  1.
       -2    1    3    3    0  502 -0.74034670365E+01 -0.63069766575E+03  0.12138619458E+03  0.64231531599E+03  0.25500000920E-02 0. -1.
</event>
<event>
 5   0  0.1643498E-05  0.1499093E+04  0.7818609E-02  0.8885056E-01
       -1   -1    0    0    0  501  0.00000000000E+00  0.00000000000E+00  0.47035798410E+03  0.47035798413E+03  0.50400001928E-02 0. -1.
        1   -1    0    0  501    0  0.00000000000E+00  0.00000000000E+00 -0.11944519387E+04  0.11944519387E+04  0.50400001928E-02 0.  1.
    10030    2    1    2    0    0  0.00000000000E+00  0.00000000000E+00 -0.72409395457E+03  0.16648099228E+04  0.14990930672E+04 0.  0.
        4    1    3    3  502    0  0.21137500112E+03 -0.63377436738E+03  0.15324318056E+02  0.66827074413E+03  0.12699999809E+01 0. -1.
       -4    1    3    3    0  502 -0.21137500112E+03  0.63377436738E+03 -0.73941827262E+03  0.99653917867E+03  0.12699999809E+01 0.  1.
</event>
<event>
 5   0  0.1576214E-05  0.1499864E+04  0.7818609E-02  0.8884543E-01
       -1   -1    0    0    0  501  0.00000000000E+00  0.00000000000E+00  0.57183896506E+03  0.57183896508E+03  0.50400001928E-02 0.  1.
        1   -1    0    0  501    0  0.00000000000E+00  0.00000000000E+00 -0.98349013369E+03  0.98349013370E+03  0.50400001928E-02 0. -1.
    10030    2    1    2    0    0  0.00000000000E+00  0.00000000000E+00 -0.41165116863E+03  0.15553290988E+04  0.14998639675E+04 0.  0.
        1    1    3    3  502    0  0.11541861844E+03  0.46596818775E+03 -0.80328288676E+03  0.93579442489E+03  0.50400001928E-02 0. -1.
       -1    1    3    3    0  502 -0.11541861844E+03 -0.46596818775E+03  0.39163171813E+03  0.61953467389E+03  0.50400001928E-02 0.  1.
</event>
<event>
 5   0  0.1116613E-05  0.1500793E+04  0.7818609E-02  0.8883926E-01
       -3   -1    0    0    0  501  0.00000000000E+00  0.00000000000E+00  0.16501335605E+04  0.16501335636E+04  0.10100000352E+00 0.  1.
        3   -1    0    0  501    0  0.00000000000E+00  0.00000000000E+00 -0.34124198035E+03  0.34124199530E+03  0.10100000352E+00 0. -1.
    10030    2    1    2    0    0  0.00000000000E+00  0.00000000000E+00  0.13088915801E+04  0.19913755589E+04  0.15007929397E+04 0.  0.
        1    1    3    3  502    0 -0.36821362955E+03 -0.37455458411E+02  0.15205967699E+04  0.15649916054E+04  0.50400001928E-02 0.  1.
       -1    1    3    3    0  502  0.36821362955E+03  0.37455458411E+02 -0.21170518978E+03  0.42638395345E+03  0.50400001928E-02 0. -1.
</event>
<event>
 5   0  0.1576214E-05  0.1500497E+04  0.7818609E-02  0.8884123E-01
       -1   -1    0    0    0  501  0.00000000000E+00  0.00000000000E+00  0.60411560389E+03  0.60411560391E+03  0.50400001928E-02 0. -1.
        1   -1    0    0  501    0  0.00000000000E+00  0.00000000000E+00 -0.93173012902E+03  0.93173012904E+03  0.50400001928E-02 0.  1.
    10030    2    1    2    0    0  0.00000000000E+00  0.00000000000E+00 -0.32761452513E+03  0.15358457329E+04  0.15004968638E+04 0.  0.
        1    1    3    3  502    0  0.27402448116E+03 -0.59232243325E+03  0.21496100474E+03  0.68712700048E+03  0.50400001928E-02 0. -1.
       -1    1    3    3    0  502 -0.27402448116E+03  0.59232243325E+03 -0.54257552987E+03  0.84871873247E+03  0.50400001928E-02 0.  1.
</event>
<event>
 5   0  0.3070497E-05  0.1506835E+04  0.7818609E-02  0.8879921E-01
        2   -1    0    0  501    0  0.00000000000E+00  0.00000000000E+00  0.11521691027E+04  0.11521691027E+04  0.25500000920E-02 0. -1.
       -2   -1    0    0    0  501  0.00000000000E+00  0.00000000000E+00 -0.49266876097E+03  0.49266876097E+03  0.25500000920E-02 0.  1.
    10030    2    1    2    0    0  0.00000000000E+00  0.00000000000E+00  0.65950034174E+03  0.16448378637E+04  0.15068347278E+04 0.  0.
        4    1    3    3  502    0 -0.48000249677E+03 -0.37477101204E+03 -0.15447615479E+03  0.62826762106E+03  0.12699999809E+01 0. -1.
       -4    1    3    3    0  502  0.48000249677E+03  0.37477101204E+03  0.81397649653E+03  0.10165702426E+04  0.12699999809E+01 0.  1.
</event>
<event>
 5   0  0.3070497E-05  0.1499881E+04  0.7818609E-02  0.8884532E-01
       -2   -1    0    0    0  501  0.00000000000E+00  0.00000000000E+00  0.26622985376E+03  0.26622985377E+03  0.25500000920E-02 0. -1.
        2   -1    0    0  501    0  0.00000000000E+00  0.00000000000E+00 -0.21125015247E+04  0.21125015247E+04  0.25500000920E-02 0.  1.
    10030    2    1    2    0    0  0.00000000000E+00  0.00000000000E+00 -0.18462716710E+04  0.23787313785E+04  0.14998812913E+04 0.  0.
        4    1    3    3  502    0 -0.30404585605E+03  0.32556596491E+03 -0.18799391421E+04  0.19319963434E+04  0.12699999809E+01 0.  1.
       -4    1    3    3    0  502  0.30404585605E+03 -0.32556596491E+03  0.33667471088E+02  0.44673503511E+03  0.12699999809E+01 0. -1.
</event>
<event>
 5   0  0.1576214E-05  0.1498362E+04  0.7818609E-02  0.8885543E-01
        1   -1    0    0  501    0  0.00000000000E+00  0.00000000000E+00  0.11766508707E+04  0.11766508707E+04  0.50400001928E-02 0.  1.
       -1   -1    0    0    0  501  0.00000000000E+00  0.00000000000E+00 -0.47700809397E+03  0.47700809400E+03  0.50400001928E-02 0. -1.
    10030    2    1    2    0    0  0.00000000000E+00  0.00000000000E+00  0.69964277668E+03  0.16536589647E+04  0.14983617575E+04 0.  0.
        1    1    3    3  502    0  0.42905518701E+03 -0.59186295996E+03  0.16887120574E+03  0.75027168481E+03  0.50400001928E-02 0.  1.
       -1    1    3    3    0  502 -0.42905518701E+03  0.59186295996E+03  0.53077157094E+03  0.90338727986E+03  0.50400001928E-02 0. -1.
</event>
<event>
 5   0  0.1643498E-05  0.1497440E+04  0.7818609E-02  0.8886157E-01
        1   -1    0    0  501    0  0.00000000000E+00  0.00000000000E+00  0.71541097479E+03  0.71541097480E+03  0.50400001928E-02 0.  1.
       -1   -1    0    0    0  501  0.00000000000E+00  0.00000000000E+00 -0.78358017828E+03  0.78358017830E+03  0.50400001928E-02 0. -1.
    10030    2    1    2    0    0  0.00000000000E+00  0.00000000000E+00 -0.68169203497E+02  0.14989911531E+04  0.14974402949E+04 0.  0.
        4    1    3    3  502    0  0.65935016958E+03  0.28083790860E+03  0.18286010529E+03  0.73962964249E+03  0.12699999809E+01 0. -1.
       -4    1    3    3    0  502 -0.65935016958E+03 -0.28083790860E+03 -0.25102930879E+03  0.75936151062E+03  0.12699999809E+01 0.  1.
</event>
<event>
 5   0  0.3070497E-05  0.1500015E+04  0.7818609E-02  0.8884443E-01
        2   -1    0    0  501    0  0.00000000000E+00  0.00000000000E+00  0.13368160290E+04  0.13368160290E+04  0.25500000920E-02 0. -1.
       -2   -1    0    0    0  501  0.00000000000E+00  0.00000000000E+00 -0.42078417735E+03  0.42078417736E+03  0.25500000920E-02 0.  1.
    10030    2    1    2    0    0  0.00000000000E+00  0.00000000000E+00  0.91603185160E+03  0.17576002063E+04  0.15000147106E+04 0.  0.
        4    1    3    3  502    0  0.12286009867E+03  0.65506652755E+03  0.86103150329E+03  0.10888450863E+04  0.12699999809E+01 0. -1.
       -4    1    3    3    0  502 -0.12286009867E+03 -0.65506652755E+03  0.55000348309E+02  0.66875512004E+03  0.12699999809E+01 0.  1.
</event>
<event>
 5   0  0.3070497E-05  0.1500168E+04  0.7818609E-02  0.8884341E-01
        2   -1    0    0  501    0  0.00000000000E+00  0.00000000000E+00  0.77677891515E+03  0.77677891516E+03  0.25500000920E-02 0.  1.
       -2   -1    0    0    0  501  0.00000000000E+00  0.00000000000E+00 -0.72430641491E+03  0.72430641491E+03  0.25500000920E-02 0. -1.
    10030    2    1    2    0    0  0.00000000000E+00  0.00000000000E+00  0.52472500241E+02  0.15010853301E+04  0.15001679256E+04 0.  0.
        4    1    3    3  502    0 -0.66903059258E+03 -0.20484531776E+03  0.29669916076E+03  0.75999706770E+03  0.12699999809E+01 0.  1.
       -4    1    3    3    0  502  0.66903059258E+03  0.20484531776E+03 -0.24422666052E+03  0.74108826237E+03  0.12699999809E+01 0. -1.
</event>
<event>
 5   0  0.3030702E-05  0.1499755E+04  0.7818609E-02  0.8884616E-01
       -2   -1    0    0    0  501  0.00000000000E+00  0.00000000000E+00  0.53435476468E+03  0.53435476468E+03  0.25500000920E-02 0.  1.
        2   -1    0    0  501    0  0.00000000000E+00  0.00000000000E+00 -0.10523281199E+04  0.10523281199E+04  0.25500000920E-02 0. -1.
    10030    2    1    2    0    0  0.00000000000E+00  0.00000000000E+00 -0.51797335526E+03  0.15866828846E+04  0.14997553733E+04 0.  0.
        5    1    3    3  502    0 -0.35212297360E+03 -0.55655127280E+03  0.12034003896E+03  0.66951006174E+03  0.46999998093E+01 0.  1.
       -5    1    3    3    0  502  0.35212297360E+03  0.55655127280E+03 -0.63831339422E+03  0.91717282289E+03  0.46999998093E+01 0. -1.
</event>
<event>
 5   0  0.3093600E-05  0.1500191E+04  0.7818609E-02  0.8884326E-01
       -2   -1    0    0    0  501  0.00000000000E+00  0.00000000000E+00  0.92310848272E+03  0.92310848272E+03  0.25500000920E-02 0. -1.
        2   -1    0    0  501    0  0.00000000000E+00  0.00000000000E+00 -0.60950922422E+03  0.60950922423E+03  0.25500000920E-02 0.  1.
    10030    2    1    2    0    0  0.00000000000E+00  0.00000000000E+00  0.31359925850E+03  0.15326177069E+04  0.15001908348E+04 0.  0.
        1    1    3    3  502    0 -0.44494224578E+03  0.40617100369E+03  0.61333091487E+03  0.85972280269E+03  0.50400001928E-02 0. -1.
       -1    1    3    3    0  502  0.44494224578E+03 -0.40617100369E+03 -0.29973165637E+03  0.67289490425E+03  0.50400001928E-02 0.  1.
</event>
<event>
 5   0  0.1533777E-05  0.1498825E+04  0.7818609E-02  0.8885234E-01
       -1   -1    0    0    0  501  0.00000000000E+00  0.00000000000E+00  0.55590346429E+03  0.55590346431E+03  0.50400001928E-02 0. -1.
        1   -1    0    0  501    0  0.00000000000E+00  0.00000000000E+00 -0.10102820214E+04  0.10102820214E+04  0.50400001928E-02 0.  1.
    10030    2    1    2    0    0  0.00000000000E+00  0.00000000000E+00 -0.45437855707E+03  0.15661854857E+04  0.14988252408E+04 0.  0.
        5    1    3    3  502    0  0.21131728282E+03  0.70539334595E+03 -0.37259182236E+03  0.82527663400E+03  0.46999998093E+01 0.  1.
       -5    1    3    3    0  502 -0.21131728282E+03 -0.70539334595E+03 -0.81786734712E+02  0.74090885168E+03  0.46999998093E+01 0. -1.
</event>
<event>
 5   0  0.3030702E-05  0.1500630E+04  0.7818609E-02  0.8884034E-01
        2   -1    0    0  501    0  0.00000000000E+00  0.00000000000E+00  0.72230172771E+03  0.72230172772E+03  0.25500000920E-02 0.  1.
       -2   -1    0    0    0  501  0.00000000000E+00  0.00000000000E+00 -0.77941513318E+03  0.77941513319E+03  0.25500000920E-02 0. -1.
    10030    2    1    2    0    0  0.00000000000E+00  0.00000000000E+00 -0.57113405474E+02  0.15017168609E+04  0.15006303973E+04 0.  0.
        5    1    3    3  502    0 -0.28424477392E+03  0.31746910163E+03  0.58944128377E+03  0.72735468584E+03  0.46999998093E+01 0.  1.
       -5    1    3    3    0  502  0.28424477392E+03 -0.31746910163E+03 -0.64655468925E+03  0.77436217507E+03  0.46999998093E+01 0. -1.
</event>
<event>
 5   0  0.1580078E-05  0.1500423E+04  0.7818609E-02  0.8884171E-01
        1   -1    0    0  501    0  0.00000000000E+00  0.00000000000E+00  0.12911370470E+04  0.12911370470E+04  0.50400001928E-02 0. -1.
       -1   -1    0    0    0  501  0.00000000000E+00  0.00000000000E+00 -0.43590841747E+03  0.43590841750E+03  0.50400001928E-02 0.  1.
    10030    2    1    2    0    0  0.00000000000E+00  0.00000000000E+00  0.85522862952E+03  0.17270454645E+04  0.15004232828E+04 0.  0.
        2    1    3    3  502    0 -0.73782607114E+02 -0.33242703031E+03 -0.34183246261E+03  0.48249459696E+03  0.25500000920E-02 0.  1.
       -2    1    3    3    0  502  0.73782607114E+02  0.33242703031E+03  0.11970610921E+04  0.12445508675E+04  0.25500000920E-02 0. -1.
</event>
<event>
 5   0  0.3030702E-05  0.1499650E+04  0.7818609E-02  0.8884686E-01
       -2   -1    0    0    0  501  0.00000000000E+00  0.00000000000E+00  0.81252017217E+03  0.81252017218E+03  0.25500000920E-02 0. -1.
        2   -1    0    0  501    0  0.00000000000E+00  0.00000000000E+00 -0.69196759108E+03  0.69196759109E+03  0.25500000920E-02 0.  1.
    10030    2    1    2    0    0  0.00000000000E+00  0.00000000000E+00  0.12055258109E+03  0.15044877633E+04  0.14996501275E+04 0.  0.
        5    1    3    3  502    0 -0.73602971339E+03  0.42285290601E+02  0.19742042434E+03  0.76323305663E+03  0.46999998093E+01 0. -1.
       -5    1    3    3    0  502  0.73602971339E+03 -0.42285290601E+02 -0.76867843246E+02  0.74125470664E+03  0.46999998093E+01 0.  1.
</event>
<event>
 5   0  0.1588657E-05  0.1495723E+04  0.7818609E-02  0.8887302E-01
       -1   -1    0    0    0  501  0.00000000000E+00  0.00000000000E+00  0.77779361596E+03  0.77779361598E+03  0.50400001928E-02 0.  1.
        1   -1    0    0  501    0  0.00000000000E+00  0.00000000000E+00 -0.71908121045E+03  0.71908121047E+03  0.50400001928E-02 0. -1.
    10030    2    1    2    0    0  0.00000000000E+00  0.00000000000E+00  0.58712405513E+02  0.14968748264E+04  0.14957229354E+04 0.  0.
        3    1    3    3  502    0  0.66916798716E+03  0.60864433248E+02 -0.29923564576E+03  0.73554894886E+03  0.10100000352E+00 0. -1.
       -3    1    3    3    0  502 -0.66916798716E+03 -0.60864433248E+02  0.35794805127E+03  0.76132587759E+03  0.10100000352E+00 0.  1.
</event>
<event>
 5   0  0.1643498E-05  0.1500482E+04  0.7818609E-02  0.8884133E-01
        1   -1    0    0  501    0  0.00000000000E+00  0.00000000000E+00  0.14130648119E+04  0.14130648119E+04  0.50400001928E-02 0. -1.
       -1   -1    0    0    0  501  0.00000000000E+00  0.00000000000E+00 -0.39832665004E+03  0.39832665007E+03  0.50400001928E-02 0.  1.
    10030    2    1    2    0    0  0.00000000000E+00  0.00000000000E+00  0.10147381619E+04  0.18113914620E+04  0.15004817531E+04 0.  0.
        4    1    3    3  502    0 -0.82585122772E+02 -0.48693153211E+03 -0.17439504626E+03  0.52377272220E+03  0.12699999809E+01 0.  1.
       -4    1    3    3    0  502  0.82585122772E+02  0.48693153211E+03  0.11891332081E+04  0.12876187398E+04  0.12699999809E+01 0. -1.
</event>
<event>
 5   0  0.1588657E-05  0.1499887E+04  0.7818609E-02  0.8884528E-01
       -1   -1    0    0    0  501  0.00000000000E+00  0.00000000000E+00  0.42617576510E+03  0.42617576513E+03  0.50400001928E-02 0. -1.
        1   -1    0    0  501    0  0.00000000000E+00  0.00000000000E+00 -0.13196795744E+04  0.13196795744E+04  0.50400001928E-02 0.  1.
    10030    2    1    2    0    0  0.00000000000E+00  0.00000000000E+00 -0.89350380929E+03  0.17458553395E+04  0.14998872656E+04 0.  0.
        3    1    3    3  502    0  0.35886964639E+03 -0.61062318786E+03 -0.15981609210E+03  0.72607802208E+03  0.10100000352E+00 0. -1.
       -3    1    3    3    0  502 -0.35886964639E+03  0.61062318786E+03 -0.73368771719E+03  0.10197773175E+04  0.10100000352E+00 0.  1.
</event>
<event>
 5   0  0.1588657E-05  0.1499876E+04  0.7818609E-02  0.8884535E-01
       -1   -1    0    0    0  501  0.00000000000E+00  0.00000000000E+00  0.39934005944E+03  0.39934005947E+03  0.50400001928E-02 0. -1.
        1   -1    0    0  501    0  0.00000000000E+00  0.00000000000E+00 -0.14083411296E+04  0.14083411296E+04  0.50400001928E-02 0.  1.
    10030    2    1    2    0    0  0.00000000000E+00  0.00000000000E+00 -0.10090010702E+04  0.18076811891E+04  0.14998760355E+04 0.  0.
        3    1    3    3  502    0  0.68678505711E+03 -0.27245208597E+03 -0.65932875196E+03  0.99026171651E+03  0.10100000352E+00 0. -1.
       -3    1    3    3    0  502 -0.68678505711E+03  0.27245208597E+03 -0.34967231821E+03  0.81741947258E+03  0.10100000352E+00 0.  1.
</event>
<event>
 5   0  0.3018308E-05  0.1501392E+04  0.7818609E-02  0.8883528E-01
       -2   -1    0    0    0  501  0.00000000000E+00  0.00000000000E+00  0.35976767984E+03  0.35976767985E+03  0.25500000920E-02 0.  1.
        2   -1    0    0  501    0  0.00000000000E+00  0.00000000000E+00 -0.15664120558E+04  0.15664120558E+04  0.25500000920E-02 0. -1.
    10030    2    1    2    0    0  0.00000000000E+00  0.00000000000E+00 -0.12066443759E+04  0.19261797356E+04  0.15013919288E+04 0.  0.
        2    1    3    3  502    0 -0.35272024701E+03 -0.50377980631E+03 -0.11556359506E+04  0.13090836934E+04  0.25500000920E-02 0. -1.
       -2    1    3    3    0  502  0.35272024701E+03  0.50377980631E+03 -0.51008425301E+02  0.61709604224E+03  0.25500000920E-02 0.  1.
</event>
<event>
 5   0  0.1533777E-05  0.1499824E+04  0.7818609E-02  0.8884570E-01
       -1   -1    0    0    0  501  0.00000000000E+00  0.00000000000E+00  0.54355483940E+03  0.54355483942E+03  0.50400001928E-02 0.  1.
        1   -1    0    0  501    0  0.00000000000E+00  0.00000000000E+00 -0.10346117696E+04  0.10346117696E+04  0.50400001928E-02 0. -1.
    10030    2    1    2    0    0  0.00000000000E+00  0.00000000000E+00 -0.49105693018E+03  0.15781666090E+04  0.14998243021E+04 0.  0.
        5    1    3    3  502    0  0.73575537046E+02 -0.43534347183E+03 -0.88333250874E+03  0.98754023164E+03  0.46999998093E+01 0. -1.
       -5    1    3    3    0  502 -0.73575537046E+02  0.43534347183E+03  0.39227557855E+03  0.59062637737E+03  0.46999998093E+01 0.  1.
</event>
<event>
 5   0  0.1580078E-05  0.1500064E+04  0.7818609E-02  0.8884411E-01
       -1   -1    0    0    0  501  0.00000000000E+00  0.00000000000E+00  0.50002919433E+03  0.50002919436E+03  0.50400001928E-02 0.  1.
        1   -1    0    0  501    0  0.00000000000E+00  0.00000000000E+00 -0.11250298381E+04  0.11250298381E+04  0.50400001928E-02 0. -1.
    10030    2    1    2    0    0  0.00000000000E+00  0.00000000000E+00 -0.62500064374E+03  0.16250590324E+04  0.15000636834E+04 0.  0.
        2    1    3    3  502    0 -0.52609470673E+03 -0.39881069446E+03  0.73142912538E+02  0.66421043061E+03  0.25500000920E-02 0.  1.
       -2    1    3    3    0  502  0.52609470673E+03  0.39881069446E+03 -0.69814355628E+03  0.96084860183E+03  0.25500000920E-02 0. -1.
</event>
<event>
 5   0  0.1588657E-05  0.1500203E+04  0.7818609E-02  0.8884318E-01
        1   -1    0    0  501    0  0.00000000000E+00  0.00000000000E+00  0.11713839249E+04  0.11713839249E+04  0.50400001928E-02 0. -1.
       -1   -1    0    0    0  501  0.00000000000E+00  0.00000000000E+00 -0.48033090547E+03  0.48033090549E+03  0.50400001928E-02 0.  1.
    10030    2    1    2    0    0  0.00000000000E+00  0.00000000000E+00  0.69105301940E+03  0.16517148304E+04  0.15002025214E+04 0.  0.
        3    1    3    3  502    0 -0.54320236487E+03 -0.27898350135E+03  0.82512470841E+03  0.10265141976E+04  0.10100000352E+00 0. -1.
       -3    1    3    3    0  502  0.54320236487E+03  0.27898350135E+03 -0.13407168901E+03  0.62520063277E+03  0.10100000352E+00 0.  1.
</event>
<event>
 5   0  0.3093600E-05  0.1500703E+04  0.7818609E-02  0.8883986E-01
       -2   -1    0    0    0  501  0.00000000000E+00  0.00000000000E+00  0.97922808307E+03  0.97922808307E+03  0.25500000920E-02 0.  1.
        2   -1    0    0  501    0  0.00000000000E+00  0.00000000000E+00 -0.57497051426E+03  0.57497051427E+03  0.25500000920E-02 0. -1.
    10030    2    1    2    0    0  0.00000000000E+00  0.00000000000E+00  0.40425756881E+03  0.15541985973E+04  0.15007028680E+04 0.  0.
        1    1    3    3  502    0  0.74647021044E+03  0.74805372146E+02  0.21726680348E+03  0.78103679984E+03  0.50400001928E-02 0. -1.
       -1    1    3    3    0  502 -0.74647021044E+03 -0.74805372146E+02  0.18699076532E+03  0.77316179751E+03  0.50400001928E-02 0.  1.
</event>
<event>
 5   0  0.3018308E-05  0.1497710E+04  0.7818609E-02  0.8885977E-01
       -2   -1    0    0    0  501  0.00000000000E+00  0.00000000000E+00  0.13906418101E+04  0.13906418101E+04  0.25500000920E-02 0.  1.
        2   -1    0    0  501    0  0.00000000000E+00  0.00000000000E+00 -0.40325525059E+03  0.40325525060E+03  0.25500000920E-02 0. -1.
    10030    2    1    2    0    0  0.00000000000E+00  0.00000000000E+00  0.98738655955E+03  0.17938970607E+04  0.14977097337E+04 0.  0.
        2    1    3    3  502    0 -0.48637597335E+02 -0.69195730553E+03  0.15573578097E+03  0.71093189690E+03  0.25500000920E-02 0. -1.
       -2    1    3    3    0  502  0.48637597335E+02  0.69195730553E+03  0.83165077858E+03  0.10829651638E+04  0.25500000920E-02 0.  1.
</event>
<event>
 5   0  0.1588657E-05  0.1500053E+04  0.7818609E-02  0.8884417E-01
       -1   -1    0    0    0  501  0.00000000000E+00  0.00000000000E+00  0.41015122707E+03  0.41015122710E+03  0.50400001928E-02 0. -1.
        1   -1    0    0  501    0  0.00000000000E+00  0.00000000000E+00 -0.13715431516E+04  0.13715431516E+04  0.50400001928E-02 0.  1.
    10030    2    1    2    0    0  0.00000000000E+00  0.00000000000E+00 -0.96139192457E+03  0.17816943788E+04  0.15000534746E+04 0.  0.
        3    1    3    3  502    0 -0.23743994628E+03  0.37651679756E+03 -0.11976876896E+04  0.12777317554E+04  0.10100000352E+00 0.  1.
       -3    1    3    3    0  502  0.23743994628E+03 -0.37651679756E+03  0.23629576499E+03  0.50396262331E+03  0.10100000352E+00 0. -1.
</event>
<event>
 5   0  0.3093600E-05  0.1494907E+04  0.7818609E-02  0.8887847E-01
        2   -1    0    0  501    0  0.00000000000E+00  0.00000000000E+00  0.63346507444E+03  0.63346507444E+03  0.25500000920E-02 0. -1.
       -2   -1    0    0    0  501  0.00000000000E+00  0.00000000000E+00 -0.88195395259E+03  0.88195395259E+03  0.25500000920E-02 0.  1.
    10030    2    1    2    0    0  0.00000000000E+00  0.00000000000E+00 -0.24848887815E+03  0.15154190270E+04  0.14949073901E+04 0.  0.
        1    1    3    3  502    0  0.50764625880E+03 -0.13050486601E+03  0.41593740304E+03  0.66913389348E+03  0.50400001928E-02 0. -1.
       -1    1    3    3    0  502 -0.50764625880E+03  0.13050486601E+03 -0.66442628119E+03  0.84628513356E+03  0.50400001928E-02 0.  1.
</event>
<event>
 5   0  0.1576214E-05  0.1506330E+04  0.7818609E-02  0.8880254E-01
       -1   -1    0    0    0  501  0.00000000000E+00  0.00000000000E+00  0.54517020490E+03  0.54517020492E+03  0.50400001928E-02 0. -1.
        1   -1    0    0  501    0  0.00000000000E+00  0.00000000000E+00 -0.10405143955E+04  0.10405143956E+04  0.50400001928E-02 0.  1.
    10030    2    1    2    0    0  0.00000000000E+00  0.00000000000E+00 -0.49534419064E+03  0.15856846005E+04  0.15063299058E+04 0.  0.
        1    1    3    3  502    0  0.55963366510E+03 -0.38886444325E+03 -0.58527268011E+03  0.89830368164E+03  0.50400001928E-02 0.  1.
       -1    1    3    3    0  502 -0.55963366510E+03  0.38886444325E+03  0.89928489465E+02  0.68738091884E+03  0.50400001928E-02 0. -1.
</event>
<event>
 5   0  0.1588657E-05  0.1500567E+04  0.7818609E-02  0.8884076E-01
        1   -1    0    0  501    0  0.00000000000E+00  0.00000000000E+00  0.22269911549E+04  0.22269911549E+04  0.50400001928E-02 0. -1.
       -1   -1    0    0    0  501  0.00000000000E+00  0.00000000000E+00 -0.25277404028E+03  0.25277404033E+03  0.50400001928E-02 0.  1.
    10030    2    1    2    0    0  0.00000000000E+00  0.00000000000E+00  0.19742171146E+04  0.24797651953E+04  0.15005672954E+04 0.  0.
        3    1    3    3  502    0 -0.25816925397E+03 -0.59957028513E+03  0.37591086683E+03  0.75328937369E+03  0.10100000352E+00 0.  1.
       -3    1    3    3    0  502  0.25816925397E+03  0.59957028513E+03  0.15983062478E+04  0.17264758216E+04  0.10100000352E+00 0. -1.
</event>
<event>
 5   0  0.3070497E-05  0.1502448E+04  0.7818609E-02  0.8882827E-01
        2   -1    0    0  501    0  0.00000000000E+00  0.00000000000E+00  0.11318504897E+04  0.11318504897E+04  0.25500000920E-02 0. -1.
       -2   -1    0    0    0  501  0.00000000000E+00  0.00000000000E+00 -0.49859708621E+03  0.49859708622E+03  0.25500000920E-02 0.  1.
    10030    2    1    2    0    0  0.00000000000E+00  0.00000000000E+00  0.63325340344E+03  0.16304475759E+04  0.15024478110E+04 0.  0.
        4    1    3    3  502    0  0.39777526710E+02 -0.73702652355E+01 -0.49741299107E+03  0.49905697974E+03  0.12699999809E+01 0.  1.
       -4    1    3    3    0  502 -0.39777526710E+02  0.73702652355E+01  0.11306663945E+04  0.11313905961E+04  0.12699999809E+01 0. -1.
</event>
<event>
 5   0  0.1116613E-05  0.1499650E+04  0.7818609E-02  0.8884686E-01
       -4   -1    0    0    0  501  0.00000000000E+00  0.00000000000E+00  0.60058266362E+03  0.60058400640E+03  0.12699999809E+01 0. -1.
        4   -1    0    0  501    0  0.00000000000E+00  0.00000000000E+00 -0.93615096049E+03  0.93615182194E+03  0.12699999809E+01 0.  1.
    10030    2    1    2    0    0  0.00000000000E+00  0.00000000000E+00 -0.33556829687E+03  0.15367358283E+04  0.14996502673E+04 0.  0.
        1    1    3    3  502    0 -0.69720558922E+03 -0.27167310175E+03 -0.21730968728E+03  0.77918252552E+03  0.50400001928E-02 0.  1.
       -1    1    3    3    0  502  0.69720558922E+03  0.27167310175E+03 -0.11825860959E+03  0.75755330283E+03  0.50400001928E-02 0. -1.
</event>
<event>
 5   0  0.1116613E-05  0.1498874E+04  0.7818609E-02  0.8885202E-01
        3   -1    0    0  501    0  0.00000000000E+00  0.00000000000E+00  0.30002378251E+03  0.30002379951E+03  0.10100000352E+00 0. -1.
       -3   -1    0    0    0  501  0.00000000000E+00  0.00000000000E+00 -0.18720366982E+04  0.18720367009E+04  0.10100000352E+00 0.  1.
    10030    2    1    2    0    0  0.00000000000E+00  0.00000000000E+00 -0.15720129157E+04  0.21720605005E+04  0.14988736473E+04 0.  0.
        3    1    3    3  502    0 -0.66057526819E+03 -0.74267259792E+00 -0.12989555840E+04  0.14572734321E+04  0.10100000352E+00 0. -1.
       -3    1    3    3    0  502  0.66057526819E+03  0.74267259792E+00 -0.27305733172E+03  0.71478706837E+03  0.10100000352E+00 0.  1.
</event>
<event>
 5   0  0.3093600E-05  0.1499779E+04  0.7818609E-02  0.8884600E-01
       -2   -1    0    0    0  501  0.00000000000E+00  0.00000000000E+00  0.51340383429E+03  0.51340383430E+03  0.25500000920E-02 0.  1.
        2   -1    0    0  501    0  0.00000000000E+00  0.00000000000E+00 -0.10953059522E+04  0.10953059522E+04  0.25500000920E-02 0. -1.
    10030    2    1    2    0    0  0.00000000000E+00  0.00000000000E+00 -0.58190211794E+03  0.16087097865E+04  0.14997790179E+04 0.  0.
        1    1    3    3  502    0  0.48039704098E+03 -0.13996465571E+03  0.30815246290E+03  0.58764731110E+03  0.50400001928E-02 0.  1.
       -1    1    3    3    0  502 -0.48039704098E+03  0.13996465571E+03 -0.89005458083E+03  0.10210624754E+04  0.50400001928E-02 0. -1.
</event>
<event>
 5   0  0.3030702E-05  0.1499818E+04  0.7818609E-02  0.8884574E-01
        2   -1    0    0  501    0  0.00000000000E+00  0.00000000000E+00  0.90176606100E+03  0.90176606100E+03  0.25500000920E-02 0.  1.
       -2   -1    0    0    0  501  0.00000000000E+00  0.00000000000E+00 -0.62362431752E+03  0.62362431752E+03  0.25500000920E-02 0. -1.
    10030    2    1    2    0    0  0.00000000000E+00  0.00000000000E+00  0.27814174348E+03  0.15253903785E+04  0.14998176481E+04 0.  0.
        5    1    3    3  502    0 -0.38980373364E+03 -0.63301066860E+03  0.38945888140E+02  0.74443826441E+03  0.46999998093E+01 0. -1.
       -5    1    3    3    0  502  0.38980373364E+03  0.63301066860E+03  0.23919585534E+03  0.78095211411E+03  0.46999998093E+01 0.  1.
</event>
<event>
 5   0  0.3070497E-05  0.1500191E+04  0.7818609E-02  0.8884326E-01
        2   -1    0    0  501    0  0.00000000000E+00  0.00000000000E+00  0.75330659315E+03  0.75330659316E+03  0.25500000920E-02 0.  1.
       -2   -1    0    0    0  501  0.00000000000E+00  0.00000000000E+00 -0.74689794038E+03  0.74689794039E+03  0.25500000920E-02 0. -1.
    10030    2    1    2    0    0  0.00000000000E+00  0.00000000000E+00  0.64086527693E+01  0.15002045335E+04  0.15001908451E+04 0.  0.
        4    1    3    3  502    0  0.18383194208E+03  0.69299313434E+03  0.22367824750E+03  0.75104409889E+03  0.12699999809E+01 0.  1.
       -4    1    3    3    0  502 -0.18383194208E+03 -0.69299313434E+03 -0.21726959473E+03  0.74916043466E+03  0.12699999809E+01 0. -1.
</event>
<event>
 5   0  0.1588657E-05  0.1500151E+04  0.7818609E-02  0.8884353E-01
        1   -1    0    0  501    0  0.00000000000E+00  0.00000000000E+00  0.12079718687E+04  0.12079718687E+04  0.50400001928E-02 0. -1.
       -1   -1    0    0    0  501  0.00000000000E+00  0.00000000000E+00 -0.46575004105E+03  0.46575004108E+03  0.50400001928E-02 0.  1.
    10030    2    1    2    0    0  0.00000000000E+00  0.00000000000E+00  0.74222182761E+03  0.16737219098E+04  0.15001505890E+04 0.  0.
        3    1    3    3  502    0 -0.57642406354E+02  0.72252460575E+03  0.58644002472E+03  0.93234991592E+03  0.10100000352E+00 0. -1.
       -3    1    3    3    0  502  0.57642406354E+02 -0.72252460575E+03  0.15578180289E+03  0.74137199383E+03  0.10100000352E+00 0.  1.
</event>
<event>
 5   0  0.1588657E-05  0.1498275E+04  0.7818609E-02  0.8885601E-01
        1   -1    0    0  501    0  0.00000000000E+00  0.00000000000E+00  0.87159860757E+03  0.87159860759E+03  0.50400001928E-02 0. -1.
       -1   -1    0    0    0  501  0.00000000000E+00  0.00000000000E+00 -0.64388242574E+03  0.64388242576E+03  0.50400001928E-02 0.  1.
    10030    2    1    2    0    0  0.00000000000E+00  0.00000000000E+00  0.22771618183E+03  0.15154810334E+04  0.14982750425E+04 0.  0.
        3    1    3    3  502    0  0.74845210499E+02 -0.86396717785E+02 -0.63500949263E+03  0.64521567270E+03  0.10100000352E+00 0.  1.
       -3    1    3    3    0  502 -0.74845210499E+02  0.86396717785E+02  0.86272567445E+03  0.87026536065E+03  0.10100000352E+00 0. -1.
</event>
<event>
 5   0  0.2969498E-05  0.1499873E+04  0.7818609E-02  0.8884538E-01
       -2   -1    0    0    0  501  0.00000000000E+00  0.00000000000E+00  0.24547771759E+03  0.24547771760E+03  0.25500000920E-02 0.  1.
        2   -1    0    0  501    0  0.00000000000E+00  0.00000000000E+00 -0.22910611136E+04  0.22910611136E+04  0.25500000920E-02 0. -1.
    10030    2    1    2    0    0  0.00000000000E+00  0.00000000000E+00 -0.20455833960E+04  0.25365388312E+04  0.14998725986E+04 0.  0.
        3    1    3    3  502    0  0.59444372475E+03  0.31781772098E+02 -0.25144221404E+03  0.64621716175E+03  0.10100000352E+00 0.  1.
       -3    1    3    3    0  502 -0.59444372475E+03 -0.31781772098E+02 -0.17941411819E+04  0.18903216694E+04  0.10100000352E+00 0. -1.
</event>
<event>
 5   0  0.3070497E-05  0.1500050E+04  0.7818609E-02  0.8884419E-01
        2   -1    0    0  501    0  0.00000000000E+00  0.00000000000E+00  0.15458737713E+04  0.15458737713E+04  0.25500000920E-02 0.  1.
       -2   -1    0    0    0  501  0.00000000000E+00  0.00000000000E+00 -0.36389635808E+03  0.36389635809E+03  0.25500000920E-02 0. -1.
    10030    2    1    2    0    0  0.00000000000E+00  0.00000000000E+00  0.11819774133E+04  0.19097701294E+04  0.15000504464E+04 0.  0.
        4    1    3    3  502    0 -0.61484357069E+03 -0.41763375126E+03  0.46313088345E+03  0.87575247343E+03  0.12699999809E+01 0. -1.
       -4    1    3    3    0  502  0.61484357069E+03  0.41763375126E+03  0.71884652981E+03  0.10340176560E+04  0.12699999809E+01 0.  1.
</event>
<event>
 5   0  0.1580078E-05  0.1499621E+04  0.7818609E-02  0.8884705E-01
       -1   -1    0    0    0  501  0.00000000000E+00  0.00000000000E+00  0.57709965205E+03  0.57709965207E+03  0.50400001928E-02 0. -1.
        1   -1    0    0  501    0  0.00000000000E+00  0.00000000000E+00 -0.97420969883E+03  0.97420969884E+03  0.50400001928E-02 0.  1.
    10030    2    1    2    0    0  0.00000000000E+00  0.00000000000E+00 -0.39711004678E+03  0.15513093509E+04  0.14996213899E+04 0.  0.
        2    1    3    3  502    0  0.16167394337E+03 -0.66061989113E+03  0.12801400130E+03  0.69205829889E+03  0.25500000920E-02 0.  1.
       -2    1    3    3    0  502 -0.16167394337E+03  0.66061989113E+03 -0.52512404808E+03  0.85925105202E+03  0.25500000920E-02 0. -1.
</event>
<event>
 5   0  0.1576214E-05  0.1499443E+04  0.7818609E-02  0.8884823E-01
        1   -1    0    0  501    0  0.00000000000E+00  0.00000000000E+00  0.11263973891E+04  0.11263973891E+04  0.50400001928E-02 0. -1.
       -1   -1    0    0    0  501  0.00000000000E+00  0.00000000000E+00 -0.49900892847E+03  0.49900892849E+03  0.50400001928E-02 0.  1.
    10030    2    1    2    0    0  0.00000000000E+00  0.00000000000E+00  0.62738846065E+03  0.16254063176E+04  0.14994430355E+04 0.  0.
        1    1    3    3  502    0 -0.60871139816E+03 -0.20379039950E+03 -0.10617091661E+03  0.65063995938E+03  0.50400001928E-02 0. -1.
       -1    1    3    3    0  502  0.60871139816E+03  0.20379039950E+03  0.73355937726E+03  0.97476635825E+03  0.50400001928E-02 0.  1.
</event>
<event>
 5   0  0.1580078E-05  0.1500295E+04  0.7818609E-02  0.8884257E-01
        1   -1    0    0  501    0  0.00000000000E+00  0.00000000000E+00  0.12344122826E+04  0.12344122827E+04  0.50400001928E-02 0.  1.
       -1   -1    0    0    0  501  0.00000000000E+00  0.00000000000E+00 -0.45586165507E+03  0.45586165510E+03  0.50400001928E-02 0. -1.
    10030    2    1    2    0    0  0.00000000000E+00  0.00000000000E+00  0.77855062757E+03  0.16902739378E+04  0.15002949393E+04 0.  0.
        2    1    3    3  502    0 -0.55833353268E+03 -0.33305719943E+03 -0.32357198640E+02  0.65093042648E+03  0.25500000920E-02 0. -1.
       -2    1    3    3    0  502  0.55833353268E+03  0.33305719943E+03  0.81090782621E+03  0.10393435113E+04  0.25500000920E-02 0.  1.
</event>
<event>
 5   0  0.3070497E-05  0.1500395E+04  0.7818609E-02  0.8884190E-01
       -2   -1    0    0    0  501  0.00000000000E+00  0.00000000000E+00  0.48090031434E+03  0.48090031435E+03  0.25500000920E-02 0. -1.
        2   -1    0    0  501    0  0.00000000000E+00  0.00000000000E+00 -0.11702979264E+04  0.11702979264E+04  0.25500000920E-02 0.  1.
    10030    2    1    2    0    0  0.00000000000E+00  0.00000000000E+00 -0.68939761210E+03  0.16511982408E+04  0.15003954688E+04 0.  0.
        4    1    3    3  502    0  0.61767097289E+02  0.40775262697E+03 -0.10343566542E+04  0.11135406055E+04  0.12699999809E+01 0.  1.
       -4    1    3    3    0  502 -0.61767097289E+02 -0.40775262697E+03  0.34495904213E+03  0.53765763526E+03  0.12699999809E+01 0. -1.
</event>
<event>
 5   0  0.3070497E-05  0.1499928E+04  0.7818609E-02  0.8884500E-01
       -2   -1    0    0    0  501  0.00000000000E+00  0.00000000000E+00  0.32752751084E+03  0.32752751085E+03  0.25500000920E-02 0.  1.
        2   -1    0    0  501    0  0.00000000000E+00  0.00000000000E+00 -0.17172492227E+04  0.17172492227E+04  0.25500000920E-02 0. -1.
    10030    2    1    2    0    0  0.00000000000E+00  0.00000000000E+00 -0.13897217119E+04  0.20447767336E+04  0.14999284829E+04 0.  0.
        4    1    3    3  502    0  0.68298048293E+03 -0.19800062682E+03 -0.10196982429E+04  0.12431623819E+04  0.12699999809E+01 0.  1.
       -4    1    3    3    0  502 -0.68298048293E+03  0.19800062682E+03 -0.37002346894E+03  0.80161435164E+03  0.12699999809E+01 0. -1.
</event>
<event>
 5   0  0.3030702E-05  0.1500072E+04  0.7818609E-02  0.8884405E-01
       -2   -1    0    0    0  501  0.00000000000E+00  0.00000000000E+00  0.59926923825E+03  0.59926923826E+03  0.25500000920E-02 0. -1.
        2   -1    0    0  501    0  0.00000000000E+00  0.00000000000E+00 -0.93873392397E+03  0.93873392397E+03  0.25500000920E-02 0.  1.
    10030    2    1    2    0    0  0.00000000000E+00  0.00000000000E+00 -0.33946468572E+03  0.15380031622E+04  0.15000724830E+04 0.  0.
        5    1    3    3  502    0 -0.22003513250E+03  0.13757614214E+03 -0.89122306340E+03  0.92824743100E+03  0.46999998093E+01 0.  1.
       -5    1    3    3    0  502  0.22003513250E+03 -0.13757614214E+03  0.55175837768E+03  0.60975573123E+03  0.46999998093E+01 0. -1.
</event>
<event>
 5   0  0.1588657E-05  0.1500595E+04  0.7818609E-02  0.8884057E-01
       -1   -1    0    0    0  501  0.00000000000E+00  0.00000000000E+00  0.33760773946E+03  0.33760773950E+03  0.50400001928E-02 0. -1.
        1   -1    0    0  501    0  0.00000000000E+00  0.00000000000E+00 -0.16674567135E+04  0.16674567135E+04  0.50400001928E-02 0.  1.
    10030    2    1    2    0    0  0.00000000000E+00  0.00000000000E+00 -0.13298489740E+04  0.20050644530E+04  0.15005949377E+04 0.  0.
        3    1    3    3  502    0 -0.96372367735E+02 -0.20586991001E+03 -0.16203408194E+04  0.16362073323E+04  0.10100000352E+00 0.  1.
       -3    1    3    3    0  502  0.96372367735E+02  0.20586991001E+03  0.29049184533E+03  0.36885712073E+03  0.10100000352E+00 0. -1.
</event>
<event>
 5   0  0.1580078E-05  0.1506973E+04  0.7818609E-02  0.8879829E-01
       -1   -1    0    0    0  501  0.00000000000E+00  0.00000000000E+00  0.35265714338E+03  0.35265714342E+03  0.50400001928E-02 0.  1.
        1   -1    0    0  501    0  0.00000000000E+00  0.00000000000E+00 -0.16098984249E+04  0.16098984249E+04  0.50400001928E-02 0. -1.
    10030    2    1    2    0    0  0.00000000000E+00  0.00000000000E+00 -0.12572412815E+04  0.19625555683E+04  0.15069733637E+04 0.  0.
        2    1    3    3  502    0  0.23541790358E+03 -0.24193780126E+03  0.24866750959E+03  0.41927439623E+03  0.25500000920E-02 0.  1.
       -2    1    3    3    0  502 -0.23541790358E+03  0.24193780126E+03 -0.15059087911E+04  0.15432811721E+04  0.25500000920E-02 0. -1.
</event>
<event>
 5   0  0.3093600E-05  0.1500260E+04  0.7818609E-02  0.8884280E-01
       -2   -1    0    0    0  501  0.00000000000E+00  0.00000000000E+00  0.37628692507E+03  0.37628692507E+03  0.25500000920E-02 0. -1.
        2   -1    0    0  501    0  0.00000000000E+00  0.00000000000E+00 -0.14953884029E+04  0.14953884029E+04  0.25500000920E-02 0.  1.
    10030    2    1    2    0    0  0.00000000000E+00  0.00000000000E+00 -0.11191014778E+04  0.18716753280E+04  0.15002601160E+04 0.  0.
        1    1    3    3  502    0 -0.82641910089E+02  0.61543107254E+03 -0.10845824198E+04  0.12497616236E+04  0.50400001928E-02 0.  1.
       -1    1    3    3    0  502  0.82641910089E+02 -0.61543107254E+03 -0.34519058028E+02  0.62191370442E+03  0.50400001928E-02 0. -1.
</event>
<event>
 5   0  0.1643498E-05  0.1500075E+04  0.7818609E-02  0.8884403E-01
        1   -1    0    0  501    0  0.00000000000E+00  0.00000000000E+00  0.76079177598E+03  0.76079177600E+03  0.50400001928E-02 0.  1.
       -1   -1    0    0    0  501  0.00000000000E+00  0.00000000000E+00 -0.73943486027E+03  0.73943486029E+03  0.50400001928E-02 0. -1.
    10030    2    1    2    0    0  0.00000000000E+00  0.00000000000E+00  0.21356915709E+02  0.15002266363E+04  0.15000746123E+04 0.  0.
        4    1    3    3  502    0  0.54108722411E+03  0.51770591987E+03 -0.31272713680E+02  0.74951610996E+03  0.12699999809E+01 0. -1.
       -4    1    3    3    0  502 -0.54108722411E+03 -0.51770591987E+03  0.52629629390E+02  0.75071052634E+03  0.12699999809E+01 0.  1.
</event>
<event>
 5   0  0.3093600E-05  0.1499865E+04  0.7818609E-02  0.8884543E-01
       -2   -1    0    0    0  501  0.00000000000E+00  0.00000000000E+00  0.96037344381E+03  0.96037344382E+03  0.25500000920E-02 0. -1.
        2   -1    0    0  501    0  0.00000000000E+00  0.00000000000E+00 -0.58560412810E+03  0.58560412810E+03  0.25500000920E-02 0.  1.
    10030    2    1    2    0    0  0.00000000000E+00  0.00000000000E+00  0.37476931572E+03  0.15459775719E+04  0.14998648649E+04 0.  0.
        1    1    3    3  502    0  0.60400309204E+03 -0.41236831222E+03  0.16357782131E+02  0.73152917726E+03  0.50400001928E-02 0.  1.
       -1    1    3    3    0  502 -0.60400309204E+03  0.41236831222E+03  0.35841153359E+03  0.81444839466E+03  0.50400001928E-02 0. -1.
</event>
<event>
 5   0  0.1116613E-05  0.1500270E+04  0.7818609E-02  0.8884273E-01
       -3   -1    0    0    0  501  0.00000000000E+00  0.00000000000E+00  0.27725357736E+03  0.27725359576E+03  0.10100000352E+00 0. -1.
        3   -1    0    0  501    0  0.00000000000E+00  0.00000000000E+00 -0.20295590266E+04  0.20295590291E+04  0.10100000352E+00 0.  1.
    10030    2    1    2    0    0  0.00000000000E+00  0.00000000000E+00 -0.17523054493E+04  0.23068126249E+04  0.15002700087E+04 0.  0.
        1    1    3    3  502    0  0.46199257474E+03 -0.17280333712E+03 -0.17451398338E+04  0.18135079741E+04  0.50400001928E-02 0.  1.
       -1    1    3    3    0  502 -0.46199257474E+03  0.17280333712E+03 -0.71656154324E+01  0.49330465081E+03  0.50400001928E-02 0. -1.
</event>
<event>
 5   0  0.3018308E-05  0.1499964E+04  0.7818609E-02  0.8884477E-01
       -2   -1    0    0    0  501  0.00000000000E+00  0.00000000000E+00  0.66400588404E+03  0.66400588404E+03  0.25500000920E-02 0. -1.
        2   -1    0    0  501    0  0.00000000000E+00  0.00000000000E+00 -0.84709091308E+03  0.84709091309E+03  0.25500000920E-02 0.  1.
    10030    2    1    2    0    0  0.00000000000E+00  0.00000000000E+00 -0.18308502904E+03  0.15110967971E+04  0.14999644671E+04 0.  0.
        2    1    3    3  502    0 -0.45762671746E+03 -0.89935274547E+02  0.50015185461E+03  0.68385849692E+03  0.25500000920E-02 0. -1.
       -2    1    3    3    0  502  0.45762671746E+03  0.89935274547E+02 -0.68323688365E+03  0.82723830021E+03  0.25500000920E-02 0.  1.
</event>
<event>
 5   0  0.1643498E-05  0.1499862E+04  0.7818609E-02  0.8884545E-01
        1   -1    0    0  501    0  0.00000000000E+00  0.00000000000E+00  0.10954529839E+04  0.10954529839E+04  0.50400001928E-02 0. -1.
       -1   -1    0    0    0  501  0.00000000000E+00  0.00000000000E+00 -0.51339174233E+03  0.51339174236E+03  0.50400001928E-02 0.  1.
    10030    2    1    2    0    0  0.00000000000E+00  0.00000000000E+00  0.58206124160E+03  0.16088447263E+04  0.14998620151E+04 0.  0.
        4    1    3    3  502    0 -0.20645240134E+02  0.67200857977E+03 -0.65333962170E+02  0.67549381695E+03  0.12699999809E+01 0.  1.
       -4    1    3    3    0  502  0.20645240134E+02 -0.67200857977E+03  0.64739520377E+03  0.93335090935E+03  0.12699999809E+01 0. -1.
</event>
<event>
 5   0  0.3070497E-05  0.1499094E+04  0.7818609E-02  0.8885056E-01
        2   -1    0    0  501    0  0.00000000000E+00  0.00000000000E+00  0.61469861000E+03  0.61469861000E+03  0.25500000920E-02 0.  1.
       -2   -1    0    0    0  501  0.00000000000E+00  0.00000000000E+00 -0.91397714481E+03  0.91397714481E+03  0.25500000920E-02 0. -1.
    10030    2    1    2    0    0  0.00000000000E+00  0.00000000000E+00 -0.29927853481E+03  0.15286757548E+04  0.14990937002E+04 0.  0.
        4    1    3    3  502    0 -0.94185964092E+01  0.74091539645E+03 -0.34384442896E+02  0.74177371041E+03  0.12699999809E+01 0.  1.
       -4    1    3    3    0  502  0.94185964092E+01 -0.74091539645E+03 -0.26489409191E+03  0.78690204440E+03  0.12699999809E+01 0. -1.
</event>
<event>
 5   0  0.1588657E-05  0.1500915E+04  0.7818609E-02  0.8883845E-01
       -1   -1    0    0    0  501  0.00000000000E+00  0.00000000000E+00  0.86260859975E+03  0.86260859977E+03  0.50400001928E-02 0.  1.
        1   -1    0    0  501    0  0.00000000000E+00  0.00000000000E+00 -0.65288776158E+03  0.65288776160E+03  0.50400001928E-02 0. -1.
    10030    2    1    2    0    0  0.00000000000E+00  0.00000000000E+00  0.20972083817E+03  0.15154963614E+04  0.15009151846E+04 0.  0.
        3    1    3    3  502    0  0.75002739196E+02 -0.43963653420E+03  0.71428075727E+03  0.84208236147E+03  0.10100000352E+00 0.  1.
       -3    1    3    3    0  502 -0.75002739196E+02  0.43963653420E+03 -0.50455991910E+03  0.67341399989E+03  0.10100000352E+00 0. -1.
</event>
<event>
 5   0  0.3030702E-05  0.1501118E+04  0.7818609E-02  0.8883710E-01
       -2   -1    0    0    0  501  0.00000000000E+00  0.00000000000E+00  0.98600092107E+03  0.98600092107E+03  0.25500000920E-02 0. -1.
        2   -1    0    0  501    0  0.00000000000E+00  0.00000000000E+00 -0.57133686890E+03  0.57133686890E+03  0.25500000920E-02 0.  1.
    10030    2    1    2    0    0  0.00000000000E+00  0.00000000000E+00  0.41466405217E+03  0.15573377900E+04  0.15011178221E+04 0.  0.
        5    1    3    3  502    0 -0.56424260866E+03 -0.49255898301E+03  0.15722711002E+03  0.76532772542E+03  0.46999998093E+01 0. -1.
       -5    1    3    3    0  502  0.56424260866E+03  0.49255898301E+03  0.25743694215E+03  0.79201006455E+03  0.46999998093E+01 0.  1.
</event>
<event>
 5   0  0.3030702E-05  0.1499554E+04  0.7818609E-02  0.8884750E-01
       -2   -1    0    0    0  501  0.00000000000E+00  0.00000000000E+00  0.29206523072E+03  0.29206523073E+03  0.25500000920E-02 0. -1.
        2   -1    0    0  501    0  0.00000000000E+00  0.00000000000E+00 -0.19247945134E+04  0.19247945134E+04  0.25500000920E-02 0.  1.
    10030    2    1    2    0    0  0.00000000000E+00  0.00000000000E+00 -0.16327292827E+04  0.22168597442E+04  0.14995540053E+04 0.  0.
        5    1    3    3  502    0  0.37992903817E+03  0.14786262125E+03  0.11385932356E+03  0.42331485252E+03  0.46999998093E+01 0. -1.
       -5    1    3    3    0  502 -0.37992903817E+03 -0.14786262125E+03 -0.17465886063E+04  0.17935448916E+04  0.46999998093E+01 0.  1.
</event>
<event>
 5   0  0.3093600E-05  0.1505183E+04  0.7818609E-02  0.8881014E-01
        2   -1    0    0  501    0  0.00000000000E+00  0.00000000000E+00  0.11565178504E+04  0.11565178504E+04  0.25500000920E-02 0. -1.
       -2   -1    0    0    0  501  0.00000000000E+00  0.00000000000E+00 -0.48974055972E+03  0.48974055973E+03  0.25500000920E-02 0.  1.
    10030    2    1    2    0    0  0.00000000000E+00  0.00000000000E+00  0.66677729071E+03  0.16462584102E+04  0.15051826459E+04 0.  0.
        1    1    3    3  502    0 -0.63912209003E+03 -0.11268753525E+03 -0.83403271874E+02  0.65431768458E+03  0.50400001928E-02 0.  1.
       -1    1    3    3    0  502  0.63912209003E+03  0.11268753525E+03  0.75018056259E+03  0.99194072559E+03  0.50400001928E-02 0. -1.
</event>
<event>
 5   0  0.1643498E-05  0.1500041E+04  0.7818609E-02  0.8884425E-01
       -1   -1    0    0    0  501  0.00000000000E+00  0.00000000000E+00  0.33076748103E+03  0.33076748107E+03  0.50400001928E-02 0.  1.
        1   -1    0    0  501    0  0.00000000000E+00  0.00000000000E+00 -0.17006840288E+04  0.17006840288E+04  0.50400001928E-02 0. -1.
    10030    2    1    2    0    0  0.00000000000E+00  0.00000000000E+00 -0.13699165478E+04  0.20314515099E+04  0.15000412958E+04 0.  0.
        4    1    3    3  502    0  0.37515539367E+03  0.64312065935E+03 -0.56244711697E+03  0.93310992073E+03  0.12699999809E+01 0.  1.
       -4    1    3    3    0  502 -0.37515539367E+03 -0.64312065935E+03 -0.80746943085E+03  0.10983415892E+04  0.12699999809E+01 0. -1.
</event>
<event>
 5   0  0.1588657E-05  0.1497187E+04  0.7818609E-02  0.8886326E-01
        1   -1    0    0  501    0  0.00000000000E+00  0.00000000000E+00  0.80796615311E+03  0.80796615313E+03  0.50400001928E-02 0. -1.
       -1   -1    0    0    0  501  0.00000000000E+00  0.00000000000E+00 -0.69358358620E+03  0.69358358622E+03  0.50400001928E-02 0.  1.
    10030    2    1    2    0    0  0.00000000000E+00  0.00000000000E+00  0.11438256691E+03  0.15015497393E+04  0.14971867780E+04 0.  0.
        3    1    3    3  502    0 -0.18859841405E+03 -0.21898886502E+03 -0.63537632791E+03  0.69801760225E+03  0.10100000352E+00 0.  1.
       -3    1    3    3    0  502  0.18859841405E+03  0.21898886502E+03  0.74975889482E+03  0.80353213710E+03  0.10100000352E+00 0. -1.
</event>
<event>
 5   0  0.1588657E-05  0.1501178E+04  0.7818609E-02  0.8883670E-01
       -1   -1    0    0    0  501  0.00000000000E+00  0.00000000000E+00  0.49845636239E+03  0.49845636241E+03  0.50400001928E-02 0. -1.
        1   -1    0    0  501    0  0.00000000000E+00  0.00000000000E+00 -0.11302577552E+04  0.11302577552E+04  0.50400001928E-02 0.  1.
    10030    2    1    2    0    0  0.00000000000E+00  0.00000000000E+00 -0.63180139281E+03  0.16287141176E+04  0.15011784294E+04 0.  0.
        3    1    3    3  502    0 -0.34065957923E+03  0.28596512311E+03  0.34008048391E+03  0.55989262033E+03  0.10100000352E+00 0. -1.
       -3    1    3    3    0  502  0.34065957923E+03 -0.28596512311E+03 -0.97188187672E+03  0.10688214973E+04  0.10100000352E+00 0.  1.
</event>
<event>
 5   0  0.3070497E-05  0.1503254E+04  0.7818609E-02  0.8882292E-01
        2   -1    0    0  501    0  0.00000000000E+00  0.00000000000E+00  0.13335784985E+04  0.13335784985E+04  0.25500000920E-02 0. -1.
       -2   -1    0    0    0  501  0.00000000000E+00  0.00000000000E+00 -0.42362966121E+03  0.42362966121E+03  0.25500000920E-02 0.  1.
    10030    2    1    2    0    0  0.00000000000E+00  0.00000000000E+00  0.90994883730E+03  0.17572081597E+04  0.15032543464E+04 0.  0.
        4    1    3    3  502    0  0.35838005155E+03 -0.17198657006E+03  0.12006476356E+04  0.12647418707E+04  0.12699999809E+01 0. -1.
       -4    1    3    3    0  502 -0.35838005155E+03  0.17198657006E+03 -0.29069879830E+03  0.49246628906E+03  0.12699999809E+01 0.  1.
</event>
<event>
 5   0  0.1533777E-05  0.1500352E+04  0.7818609E-02  0.8884219E-01
        1   -1    0    0  501    0  0.00000000000E+00  0.00000000000E+00  0.70039672312E+03  0.70039672314E+03  0.50400001928E-02 0.  1.
       -1   -1    0    0    0  501  0.00000000000E+00  0.00000000000E+00 -0.80349339019E+03  0.80349339021E+03  0.50400001928E-02 0. -1.
    10030    2    1    2    0    0  0.00000000000E+00  0.00000000000E+00 -0.10309666708E+03  0.15038901133E+04  0.15003521421E+04 0.  0.
        5    1    3    3  502    0 -0.66873095131E+03 -0.13585190875E+03  0.26077142762E+03  0.73053449871E+03  0.46999998093E+01 0.  1.
       -5    1    3    3    0  502  0.66873095131E+03  0.13585190875E+03 -0.36386809470E+03  0.77335561463E+03  0.46999998093E+01 0. -1.
</event>
<event>
 5   0  0.1643498E-05  0.1499493E+04  0.7818609E-02  0.8884790E-01
       -1   -1    0    0    0  501  0.00000000000E+00  0.00000000000E+00  0.50626280536E+03  0.50626280538E+03  0.50400001928E-02 0.  1.
        1   -1    0    0  501    0  0.00000000000E+00  0.00000000000E+00 -0.11103317021E+04  0.11103317021E+04  0.50400001928E-02 0. -1.
    10030    2    1    2    0    0  0.00000000000E+00  0.00000000000E+00 -0.60406889676E+03  0.16165945075E+04  0.14994927708E+04 0.  0.
        4    1    3    3  502    0  0.50030437445E+03  0.31720471966E+03  0.19341375656E+03  0.62316434060E+03  0.12699999809E+01 0.  1.
       -4    1    3    3    0  502 -0.50030437445E+03 -0.31720471966E+03 -0.79748265332E+03  0.99343016691E+03  0.12699999809E+01 0. -1.
</event>
<event>
 5   0  0.1580078E-05  0.1500298E+04  0.7818609E-02  0.8884255E-01
       -1   -1    0    0    0  501  0.00000000000E+00  0.00000000000E+00  0.42061603780E+03  0.42061603783E+03  0.50400001928E-02 0. -1.
        1   -1    0    0  501    0  0.00000000000E+00  0.00000000000E+00 -0.13378563157E+04  0.13378563157E+04  0.50400001928E-02 0.  1.
    10030    2    1    2    0    0  0.00000000000E+00  0.00000000000E+00 -0.91724027791E+03  0.17584723536E+04  0.15002984006E+04 0.  0.
        2    1    3    3  502    0  0.24663380825E+03  0.93846996288E+02  0.36441856743E+03  0.44992931264E+03  0.25500000920E-02 0. -1.
       -2    1    3    3    0  502 -0.24663380825E+03 -0.93846996288E+02 -0.12816588453E+04  0.13085430409E+04  0.25500000920E-02 0.  1.
</event>
<event>
 5   0  0.2969498E-05  0.1501460E+04  0.7818609E-02  0.8883483E-01
       -2   -1    0    0    0  501  0.00000000000E+00  0.00000000000E+00  0.40685003088E+03  0.40685003089E+03  0.25500000920E-02 0. -1.
        2   -1    0    0  501    0  0.00000000000E+00  0.00000000000E+00 -0.13852651429E+04  0.13852651429E+04  0.25500000920E-02 0.  1.
    10030    2    1    2    0    0  0.00000000000E+00  0.00000000000E+00 -0.97841511203E+03  0.17921151738E+04  0.15014595115E+04 0.  0.
        3    1    3    3  502    0  0.14341302922E+03  0.50489500863E+02  0.38828122155E+03  0.41698777423E+03  0.10100000352E+00 0. -1.
       -3    1    3    3    0  502 -0.14341302922E+03 -0.50489500863E+02 -0.13666963336E+04  0.13751273996E+04  0.10100000352E+00 0.  1.
</event>
<event>
 5   0  0.3070497E-05  0.1500387E+04  0.7818609E-02  0.8884196E-01
        2   -1    0    0  501    0  0.00000000000E+00  0.00000000000E+00  0.51323320231E+03  0.51323320232E+03  0.25500000920E-02 0.  1.
       -2   -1    0    0    0  501  0.00000000000E+00  0.00000000000E+00 -0.10965579925E+04  0.10965579925E+04  0.25500000920E-02 0. -1.
    10030    2    1    2    0    0  0.00000000000E+00  0.00000000000E+00 -0.58332479015E+03  0.16097911948E+04  0.15003865769E+04 0.  0.
        4    1    3    3  502    0 -0.22885016702E+03  0.63378589047E+03 -0.64545102696E+03  0.93309463347E+03  0.12699999809E+01 0. -1.
       -4    1    3    3    0  502  0.22885016702E+03 -0.63378589047E+03  0.62126236807E+02  0.67669656132E+03  0.12699999809E+01 0.  1.
</event>
<event>
 5   0  0.2969498E-05  0.1500280E+04  0.7818609E-02  0.8884267E-01
        2   -1    0    0  501    0  0.00000000000E+00  0.00000000000E+00  0.84371784606E+03  0.84371784606E+03  0.25500000920E-02 0. -1.
       -2   -1    0    0    0  501  0.00000000000E+00  0.00000000000E+00 -0.66694118680E+03  0.66694118681E+03  0.25500000920E-02 0.  1.
    10030    2    1    2    0    0  0.00000000000E+00  0.00000000000E+00  0.17677665925E+03  0.15106590329E+04  0.15002802159E+04 0.  0.
        3    1    3    3  502    0 -0.26105433836E+03 -0.38400959894E+03 -0.50483711384E+03  0.68591053452E+03  0.10100000352E+00 0.  1.
       -3    1    3    3    0  502  0.26105433836E+03  0.38400959894E+03  0.68161377309E+03  0.82474849835E+03  0.10100000352E+00 0. -1.
</event>
<event>
 5   0  0.2969498E-05  0.1496860E+04  0.7818609E-02  0.8886544E-01
        2   -1    0    0  501    0  0.00000000000E+00  0.00000000000E+00  0.12365323763E+04  0.12365323763E+04  0.25500000920E-02 0.  1.
       -2   -1    0    0    0  501  0.00000000000E+00  0.00000000000E+00 -0.45299854331E+03  0.45299854332E+03  0.25500000920E-02 0. -1.
    10030    2    1    2    0    0  0.00000000000E+00  0.00000000000E+00  0.78353383300E+03  0.16895309196E+04  0.14968598668E+04 0.  0.
        3    1    3    3  502    0 -0.56775135212E+03  0.48688419016E+03  0.42266867192E+03  0.85909640256E+03  0.10100000352E+00 0.  1.
       -3    1    3    3    0  502  0.56775135212E+03 -0.48688419016E+03  0.36086516107E+03  0.83043451707E+03  0.10100000352E+00 0. -1.
</event>
<event>
 5   0  0.1533777E-05  0.1500821E+04  0.7818609E-02  0.8883907E-01
       -1   -1    0    0    0  501  0.00000000000E+00  0.00000000000E+00  0.33777448408E+03  0.33777448412E+03  0.50400001928E-02 0.  1.
        1   -1    0    0  501    0  0.00000000000E+00  0.00000000000E+00 -0.16671361504E+04  0.16671361504E+04  0.50400001928E-02 0. -1.
    10030    2    1    2    0    0  0.00000000000E+00  0.00000000000E+00 -0.13293616663E+04  0.20049106345E+04  0.15008211794E+04 0.  0.
        5    1    3    3  502    0  0.14233673062E+03 -0.50443477519E+03 -0.13820595198E+04  0.14781152843E+04  0.46999998093E+01 0. -1.
       -5    1    3    3    0  502 -0.14233673062E+03  0.50443477519E+03  0.52697853473E+02  0.52679535027E+03  0.46999998093E+01 0.  1.
</event>
<event>
 5   0  0.1643498E-05  0.1497586E+04  0.7818609E-02  0.8886060E-01
        1   -1    0    0  501    0  0.00000000000E+00  0.00000000000E+00  0.18900109203E+04  0.18900109203E+04  0.50400001928E-02 0.  1.
       -1   -1    0    0    0  501  0.00000000000E+00  0.00000000000E+00 -0.29666031529E+03  0.29666031534E+03  0.50400001928E-02 0. -1.
    10030    2    1    2    0    0  0.00000000000E+00  0.00000000000E+00  0.15933506050E+04  0.21866712356E+04  0.14975863722E+04 0.  0.
        4    1    3    3  502    0  0.51054530460E+03 -0.53788748498E+03  0.94778410266E+03  0.12034432985E+04  0.12699999809E+01 0.  1.
       -4    1    3    3    0  502 -0.51054530460E+03  0.53788748498E+03  0.64556650235E+03  0.98322793715E+03  0.12699999809E+01 0. -1.
</event>
<event>
 5   0  0.1533777E-05  0.1500962E+04  0.7818609E-02  0.8883813E-01
       -1   -1    0    0    0  501  0.00000000000E+00  0.00000000000E+00  0.45996778230E+03  0.45996778233E+03  0.50400001928E-02 0. -1.
        1   -1    0    0  501    0  0.00000000000E+00  0.00000000000E+00 -0.12244808662E+04  0.12244808662E+04  0.50400001928E-02 0.  1.
    10030    2    1    2    0    0  0.00000000000E+00  0.00000000000E+00 -0.76451308388E+03  0.16844486485E+04  0.15009620229E+04 0.  0.
        5    1    3    3  502    0  0.21763083028E+03 -0.60841973530E+03 -0.81056935438E+03  0.10366207218E+04  0.46999998093E+01 0.  1.
       -5    1    3    3    0  502 -0.21763083028E+03  0.60841973530E+03  0.46056270501E+02  0.64782792672E+03  0.46999998093E+01 0. -1.
</event>
<event>
 5   0  0.1576214E-05  0.1500268E+04  0.7818609E-02  0.8884275E-01
       -1   -1    0    0    0  501  0.00000000000E+00  0.00000000000E+00  0.52343414487E+03  0.52343414489E+03  0.50400001928E-02 0.  1.
        1   -1    0    0  501    0  0.00000000000E+00  0.00000000000E+00 -0.10750176482E+04  0.10750176482E+04  0.50400001928E-02 0. -1.
    10030    2    1    2    0    0  0.00000000000E+00  0.00000000000E+00 -0.55158350331E+03  0.15984517931E+04  0.15002679006E+04 0.  0.
        1    1    3    3  502    0  0.47880081285E+03 -0.53201562495E+03 -0.36576148030E+02  0.71667890872E+03  0.50400001928E-02 0.  1.
       -1    1    3    3    0  502 -0.47880081285E+03  0.53201562495E+03 -0.51500735528E+03  0.88177288436E+03  0.50400001928E-02 0. -1.
</event>
<event>
 5   0  0.3070497E-05  0.1500121E+04  0.7818609E-02  0.8884373E-01
       -2   -1    0    0    0  501  0.00000000000E+00  0.00000000000E+00  0.64959979154E+03  0.64959979155E+03  0.25500000920E-02 0. -1.
        2   -1    0    0  501    0  0.00000000000E+00  0.00000000000E+00 -0.86605738560E+03  0.86605738560E+03  0.25500000920E-02 0.  1.
    10030    2    1    2    0    0  0.00000000000E+00  0.00000000000E+00 -0.21645759406E+03  0.15156571771E+04  0.15001209247E+04 0.  0.
        4    1    3    3  502    0  0.24036584591E+03  0.49703057901E+03 -0.62120146162E+03  0.83108844606E+03  0.12699999809E+01 0.  1.
       -4    1    3    3    0  502 -0.24036584591E+03 -0.49703057901E+03  0.40474386756E+03  0.68456873109E+03  0.12699999809E+01 0. -1.
</event>
<event>
 5   0  0.3093600E-05  0.1499813E+04  0.7818609E-02  0.8884578E-01
       -2   -1    0    0    0  501  0.00000000000E+00  0.00000000000E+00  0.46792025073E+03  0.46792025074E+03  0.25500000920E-02 0.  1.
        2   -1    0    0  501    0  0.00000000000E+00  0.00000000000E+00 -0.12018276838E+04  0.12018276838E+04  0.25500000920E-02 0. -1.
    10030    2    1    2    0    0  0.00000000000E+00  0.00000000000E+00 -0.73390743307E+03  0.16697479345E+04  0.14998126698E+04 0.  0.
        1    1    3    3  502    0  0.74946009792E+02 -0.31375482545E+03 -0.11206373250E+04  0.11661419335E+04  0.50400001928E-02 0. -1.
       -1    1    3    3    0  502 -0.74946009792E+02  0.31375482545E+03  0.38672989196E+03  0.50360600100E+03  0.50400001928E-02 0.  1.
</event>
<event>
 5   0  0.3018308E-05  0.1500436E+04  0.7818609E-02  0.8884163E-01
        2   -1    0    0  501    0  0.00000000000E+00  0.00000000000E+00  0.68220054980E+03  0.68220054981E+03  0.25500000920E-02 0. -1.
       -2   -1    0    0    0  501  0.00000000000E+00  0.00000000000E+00 -0.82501731785E+03  0.82501731786E+03  0.25500000920E-02 0.  1.
    10030    2    1    2    0    0  0.00000000000E+00  0.00000000000E+00 -0.14281676805E+03  0.15072178677E+04  0.15004362937E+04 0.  0.
        2    1    3    3  502    0 -0.60417587719E+03  0.40701433353E+03  0.10867292408E+03  0.73654528898E+03  0.25500000920E-02 0. -1.
       -2    1    3    3    0  502  0.60417587719E+03 -0.40701433353E+03 -0.25148969213E+03  0.77067257868E+03  0.25500000920E-02 0.  1.
</event>
<event>
 5   0  0.1588657E-05  0.1498750E+04  0.7818609E-02  0.8885285E-01
       -1   -1    0    0    0  501  0.00000000000E+00  0.00000000000E+00  0.81947074779E+03  0.81947074781E+03  0.50400001928E-02 0. -1.
        1   -1    0    0  501    0  0.00000000000E+00  0.00000000000E+00 -0.68527490286E+03  0.68527490288E+03  0.50400001928E-02 0.  1.
    10030    2    1    2    0    0  0.00000000000E+00  0.00000000000E+00  0.13419584493E+03  0.15047456507E+04  0.14987497952E+04 0.  0.
        3    1    3    3  502    0  0.29312527464E+03 -0.18266342297E+03 -0.60059972843E+03  0.69282638281E+03  0.10100000352E+00 0.  1.
       -3    1    3    3    0  502 -0.29312527464E+03  0.18266342297E+03  0.73479557336E+03  0.81191926788E+03  0.10100000352E+00 0. -1.
</event>
<event>
 5   0  0.2969498E-05  0.1498836E+04  0.7818609E-02  0.8885228E-01
        2   -1    0    0  501    0  0.00000000000E+00  0.00000000000E+00  0.98112469842E+03  0.98112469842E+03  0.25500000920E-02 0. -1.
       -2   -1    0    0    0  501  0.00000000000E+00  0.00000000000E+00 -0.57243196257E+03  0.57243196258E+03  0.25500000920E-02 0.  1.
    10030    2    1    2    0    0  0.00000000000E+00  0.00000000000E+00  0.40869273584E+03  0.15535566610E+04  0.14988357304E+04 0.  0.
        3    1    3    3  502    0 -0.34566562184E+03  0.62692090908E+03 -0.25358091194E+02  0.71635018765E+03  0.10100000352E+00 0.  1.
       -3    1    3    3    0  502  0.34566562184E+03 -0.62692090908E+03  0.43405082704E+03  0.83720647334E+03  0.10100000352E+00 0. -1.
</event>
<event>
 5   0  0.3030702E-05  0.1499622E+04  0.7818609E-02  0.8884704E-01
        2   -1    0    0  501    0  0.00000000000E+00  0.00000000000E+00  0.12255690085E+04  0.12255690085E+04  0.25500000920E-02 0.  1.
       -2   -1    0    0    0  501  0.00000000000E+00  0.00000000000E+00 -0.45873936267E+03  0.45873936268E+03  0.25500000920E-02 0. -1.
    10030    2    1    2    0    0  0.00000000000E+00  0.00000000000E+00  0.76682964581E+03  0.16843083712E+04  0.14996222803E+04 0.  0.
        5    1    3    3  502    0  0.13731540985E+03  0.55362974710E+03 -0.16317437998E+03  0.59330378975E+03  0.46999998093E+01 0. -1.
       -5    1    3    3    0  502 -0.13731540985E+03 -0.55362974710E+03  0.93000402579E+03  0.10910045814E+04  0.46999998093E+01 0.  1.
</event>
<event>
 5   0  0.3093600E-05  0.1500411E+04  0.7818609E-02  0.8884180E-01
       -2   -1    0    0    0  501  0.00000000000E+00  0.00000000000E+00  0.26827624130E+03  0.26827624132E+03  0.25500000920E-02 0.  1.
        2   -1    0    0  501    0  0.00000000000E+00  0.00000000000E+00 -0.20978677705E+04  0.20978677705E+04  0.25500000920E-02 0. -1.
    10030    2    1    2    0    0  0.00000000000E+00  0.00000000000E+00 -0.18295915292E+04  0.23661440118E+04  0.15004107174E+04 0.  0.
        1    1    3    3  502    0  0.71276238163E+03 -0.14620941031E+03 -0.12030054979E+04  0.14059266099E+04  0.50400001928E-02 0. -1.
       -1    1    3    3    0  502 -0.71276238163E+03  0.14620941031E+03 -0.62658603124E+03  0.96021740190E+03  0.50400001928E-02 0.  1.
</event>
<event>
 5   0  0.1588657E-05  0.1500850E+04  0.7818609E-02  0.8883888E-01
        1   -1    0    0  501    0  0.00000000000E+00  0.00000000000E+00  0.12015633501E+04  0.12015633501E+04  0.50400001928E-02 0. -1.
       -1   -1    0    0    0  501  0.00000000000E+00  0.00000000000E+00 -0.46867100106E+03  0.46867100108E+03  0.50400001928E-02 0.  1.
    10030    2    1    2    0    0  0.00000000000E+00  0.00000000000E+00  0.73289234900E+03  0.16702343512E+04  0.15008502899E+04 0.  0.
        3    1    3    3  502    0 -0.16706240668E+03 -0.14232429816E+03  0.11650507173E+04  0.11855417485E+04  0.10100000352E+00 0. -1.
       -3    1    3    3    0  502  0.16706240668E+03  0.14232429816E+03 -0.43215836825E+03  0.48469260261E+03  0.10100000352E+00 0.  1.
</event>
<event>
 5   0  0.1643498E-05  0.1499600E+04  0.7818609E-02  0.8884719E-01
       -1   -1    0    0    0  501  0.00000000000E+00  0.00000000000E+00  0.52369097810E+03  0.52369097813E+03  0.50400001928E-02 0. -1.
        1   -1    0    0  501    0  0.00000000000E+00  0.00000000000E+00 -0.10735333934E+04  0.10735333934E+04  0.50400001928E-02 0.  1.
    10030    2    1    2    0    0  0.00000000000E+00  0.00000000000E+00 -0.54984241531E+03  0.15972243716E+04  0.14995996170E+04 0.  0.
        4    1    3    3  502    0 -0.44525405339E+03 -0.24249305533E+03  0.31343872035E+03  0.59607004476E+03  0.12699999809E+01 0. -1.
       -4    1    3    3    0  502  0.44525405339E+03  0.24249305533E+03 -0.86328113567E+03  0.10011543268E+04  0.12699999809E+01 0.  1.
</event>
<event>
 5   0  0.1588657E-05  0.1500810E+04  0.7818609E-02  0.8883914E-01
       -1   -1    0    0    0  501  0.00000000000E+00  0.00000000000E+00  0.81831142982E+03  0.81831142984E+03  0.50400001928E-02 0.  1.
        1   -1    0    0  501    0  0.00000000000E+00  0.00000000000E+00 -0.68813364459E+03  0.68813364461E+03  0.50400001928E-02 0. -1.
    10030    2    1    2    0    0  0.00000000000E+00  0.00000000000E+00  0.13017778523E+03  0.15064450744E+04  0.15008099502E+04 0.  0.
        3    1    3    3  502    0 -0.21636294334E+03 -0.35585761249E+02  0.78543824136E+03  0.81547072961E+03  0.10100000352E+00 0.  1.
       -3    1    3    3    0  502  0.21636294334E+03  0.35585761249E+02 -0.65526045613E+03  0.69097434484E+03  0.10100000352E+00 0. -1.
</event>
<event>
 5   0  0.3093600E-05  0.1500213E+04  0.7818609E-02  0.8884311E-01
       -2   -1    0    0    0  501  0.00000000000E+00  0.00000000000E+00  0.94073743404E+03  0.94073743404E+03  0.25500000920E-02 0. -1.
        2   -1    0    0  501    0  0.00000000000E+00  0.00000000000E+00 -0.59810476867E+03  0.59810476867E+03  0.25500000920E-02 0.  1.
    10030    2    1    2    0    0  0.00000000000E+00  0.00000000000E+00  0.34263266537E+03  0.15388422027E+04  0.15002127121E+04 0.  0.
        1    1    3    3  502    0 -0.66045214357E+03 -0.25915120028E+03  0.42110929010E+03  0.82503903713E+03  0.50400001928E-02 0. -1.
       -1    1    3    3    0  502  0.66045214357E+03  0.25915120028E+03 -0.78476624733E+02  0.71380316559E+03  0.50400001928E-02 0.  1.
</event>
<event>
 5   0  0.3030702E-05  0.1500132E+04  0.7818609E-02  0.8884365E-01
       -2   -1    0    0    0  501  0.00000000000E+00  0.00000000000E+00  0.50572580307E+03  0.50572580308E+03  0.25500000920E-02 0. -1.
        2   -1    0    0  501    0  0.00000000000E+00  0.00000000000E+00 -0.11124588434E+04  0.11124588434E+04  0.25500000920E-02 0.  1.
    10030    2    1    2    0    0  0.00000000000E+00  0.00000000000E+00 -0.60673304037E+03  0.16181846465E+04  0.15001321835E+04 0.  0.
        5    1    3    3  502    0  0.72400641982E+03  0.18904515912E+03 -0.35893431221E+03  0.82992728513E+03  0.46999998093E+01 0.  1.
       -5    1    3    3    0  502 -0.72400641982E+03 -0.18904515912E+03 -0.24779872816E+03  0.78825736140E+03  0.46999998093E+01 0. -1.
</event>
<event>
 5   0  0.3018308E-05  0.1501267E+04  0.7818609E-02  0.8883611E-01
       -2   -1    0    0    0  501  0.00000000000E+00  0.00000000000E+00  0.53035451473E+03  0.53035451474E+03  0.25500000920E-02 0. -1.
        2   -1    0    0  501    0  0.00000000000E+00  0.00000000000E+00 -0.10624032896E+04  0.10624032896E+04  0.25500000920E-02 0.  1.
    10030    2    1    2    0    0  0.00000000000E+00  0.00000000000E+00 -0.53204877483E+03  0.15927578043E+04  0.15012666400E+04 0.  0.
        2    1    3    3  502    0 -0.61240418934E+03 -0.42198906589E+03 -0.15815871713E+03  0.76034718561E+03  0.25500000920E-02 0. -1.
       -2    1    3    3    0  502  0.61240418934E+03  0.42198906589E+03 -0.37389005769E+03  0.83241061869E+03  0.25500000920E-02 0.  1.
</event>
<event>
 5   0  0.2969498E-05  0.1500187E+04  0.7818609E-02  0.8884328E-01
        2   -1    0    0  501    0  0.00000000000E+00  0.00000000000E+00  0.62688195003E+03  0.62688195004E+03  0.25500000920E-02 0. -1.
       -2   -1    0    0    0  501  0.00000000000E+00  0.00000000000E+00 -0.89752220263E+03  0.89752220263E+03  0.25500000920E-02 0.  1.
    10030    2    1    2    0    0  0.00000000000E+00  0.00000000000E+00 -0.27064025260E+03  0.15244041527E+04  0.15001872798E+04 0.  0.
        3    1    3    3  502    0  0.74104698416E+02 -0.12394663890E+03 -0.88326330709E+03  0.89499070134E+03  0.10100000352E+00 0.  1.
       -3    1    3    3    0  502 -0.74104698416E+02  0.12394663890E+03  0.61262305449E+03  0.62941345133E+03  0.10100000352E+00 0. -1.
</event>
<event>
 5   0  0.3018308E-05  0.1500471E+04  0.7818609E-02  0.8884140E-01
        2   -1    0    0  501    0  0.00000000000E+00  0.00000000000E+00  0.86144405067E+03  0.86144405068E+03  0.25500000920E-02 0. -1.
       -2   -1    0    0    0  501  0.00000000000E+00  0.00000000000E+00 -0.65338368914E+03  0.65338368915E+03  0.25500000920E-02 0.  1.
    10030    2    1    2    0    0  0.00000000000E+00  0.00000000000E+00  0.20806036153E+03  0.15148277398E+04  0.15004712484E+04 0.  0.
        2    1    3    3  502    0 -0.30990870317E+03  0.53507685407E+03  0.53295146775E+03  0.81632586082E+03  0.25500000920E-02 0. -1.
       -2    1    3    3    0  502  0.30990870317E+03 -0.53507685407E+03 -0.32489110622E+03  0.69850187900E+03  0.25500000920E-02 0.  1.
</event>
<event>
 5   0  0.2969498E-05  0.1499971E+04  0.7818609E-02  0.8884472E-01
        2   -1    0    0  501    0  0.00000000000E+00  0.00000000000E+00  0.82925298467E+03  0.82925298467E+03  0.25500000920E-02 0.  1.
       -2   -1    0    0    0  501  0.00000000000E+00  0.00000000000E+00 -0.67829507683E+03  0.67829507683E+03  0.25500000920E-02 0. -1.
    10030    2    1    2    0    0  0.00000000000E+00  0.00000000000E+00  0.15095790784E+03  0.15075480615E+04  0.14999709557E+04 0.  0.
        3    1    3    3  502    0  0.42601567565E+03 -0.40405202009E+03 -0.39349450702E+03  0.70681350305E+03  0.10100000352E+00 0. -1.
       -3    1    3    3    0  502 -0.42601567565E+03  0.40405202009E+03  0.54445241487E+03  0.80073455845E+03  0.10100000352E+00 0.  1.
</event>
<event>
 5   0  0.2969498E-05  0.1500063E+04  0.7818609E-02  0.8884411E-01
       -2   -1    0    0    0  501  0.00000000000E+00  0.00000000000E+00  0.63691163419E+03  0.63691163419E+03  0.25500000920E-02 0.  1.
        2   -1    0    0  501    0  0.00000000000E+00  0.00000000000E+00 -0.88324172789E+03  0.88324172789E+03  0.25500000920E-02 0. -1.
    10030    2    1    2    0    0  0.00000000000E+00  0.00000000000E+00 -0.24633009370E+03  0.15201533621E+04  0.15000625751E+04 0.  0.
        3    1    3    3  502    0  0.33436742747E+03 -0.64968399421E+03 -0.29471326674E+03  0.78787485597E+03  0.10100000352E+00 0. -1.
       -3    1    3    3    0  502 -0.33436742747E+03  0.64968399421E+03  0.48383173039E+02  0.73227850611E+03  0.10100000352E+00 0.  1.
</event>
<event>
 5   0  0.3070497E-05  0.1500075E+04  0.7818609E-02  0.8884403E-01
        2   -1    0    0  501    0  0.00000000000E+00  0.00000000000E+00  0.88753358177E+03  0.88753358178E+03  0.25500000920E-02 0.  1.
       -2   -1    0    0    0  501  0.00000000000E+00  0.00000000000E+00 -0.63384192396E+03  0.63384192396E+03  0.25500000920E-02 0. -1.
    10030    2    1    2    0    0  0.00000000000E+00  0.00000000000E+00  0.25369165782E+03  0.15213755057E+04  0.15000746555E+04 0.  0.
        4    1    3    3  502    0  0.34035424263E+03  0.43730770063E+03  0.63946877608E+03  0.84616840167E+03  0.12699999809E+01 0.  1.
       -4    1    3    3    0  502 -0.34035424263E+03 -0.43730770063E+03 -0.38577711826E+03  0.67520710407E+03  0.12699999809E+01 0. -1.
</event>
<event>
 5   0  0.1533777E-05  0.1500173E+04  0.7818609E-02  0.8884338E-01
        1   -1    0    0  501    0  0.00000000000E+00  0.00000000000E+00  0.11276509759E+04  0.11276509759E+04  0.50400001928E-02 0. -1.
       -1   -1    0    0    0  501  0.00000000000E+00  0.00000000000E+00 -0.49893984787E+03  0.49893984789E+03  0.50400001928E-02 0.  1.
    10030    2    1    2    0    0  0.00000000000E+00  0.00000000000E+00  0.62871112801E+03  0.16265908238E+04  0.15001733318E+04 0.  0.
        5    1    3    3  502    0  0.20003265401E+03  0.65996378964E+03 -0.55361048009E+01  0.68965063965E+03  0.46999998093E+01 0.  1.
       -5    1    3    3    0  502 -0.20003265401E+03 -0.65996378964E+03  0.63424723281E+03  0.93694018413E+03  0.46999998093E+01 0. -1.
</event>
<event>
 5   0  0.1580078E-05  0.1494007E+04  0.7818609E-02  0.8888448E-01
        1   -1    0    0  501    0  0.00000000000E+00  0.00000000000E+00  0.11426077669E+04  0.11426077669E+04  0.50400001928E-02 0.  1.
       -1   -1    0    0    0  501  0.00000000000E+00  0.00000000000E+00 -0.48836914657E+03  0.48836914660E+03  0.50400001928E-02 0. -1.
    10030    2    1    2    0    0  0.00000000000E+00  0.00000000000E+00  0.65423862031E+03  0.16309769135E+04  0.14940072021E+04 0.  0.
        2    1    3    3  502    0 -0.49251719293E+03  0.19588309079E+03 -0.24751382613E+03  0.58498415766E+03  0.25500000920E-02 0. -1.
       -2    1    3    3    0  502  0.49251719293E+03 -0.19588309079E+03  0.90175244643E+03  0.10459927558E+04  0.25500000920E-02 0.  1.
</event>
<event>
 5   0  0.1580078E-05  0.1501086E+04  0.7818609E-02  0.8883731E-01
       -1   -1    0    0    0  501  0.00000000000E+00  0.00000000000E+00  0.39239986185E+03  0.39239986188E+03  0.50400001928E-02 0.  1.
        1   -1    0    0  501    0  0.00000000000E+00  0.00000000000E+00 -0.14355637833E+04  0.14355637833E+04  0.50400001928E-02 0. -1.
    10030    2    1    2    0    0  0.00000000000E+00  0.00000000000E+00 -0.10431639215E+04  0.18279636452E+04  0.15010863137E+04 0.  0.
        2    1    3    3  502    0 -0.58026264311E+02 -0.24903974806E+02 -0.14323233669E+04  0.14337145751E+04  0.25500000920E-02 0. -1.
       -2    1    3    3    0  502  0.58026264311E+02  0.24903974806E+02  0.38915944546E+03  0.39424907014E+03  0.25500000920E-02 0.  1.
</event>
<event>
 5   0  0.1588657E-05  0.1500041E+04  0.7818609E-02  0.8884426E-01
        1   -1    0    0  501    0  0.00000000000E+00  0.00000000000E+00  0.91645153251E+03  0.91645153252E+03  0.50400001928E-02 0. -1.
       -1   -1    0    0    0  501  0.00000000000E+00  0.00000000000E+00 -0.61381377871E+03  0.61381377873E+03  0.50400001928E-02 0.  1.
    10030    2    1    2    0    0  0.00000000000E+00  0.00000000000E+00  0.30263775380E+03  0.15302653113E+04  0.15000407704E+04 0.  0.
        3    1    3    3  502    0 -0.34357574991E+03  0.15890021558E+03 -0.50921252567E+03  0.63450057600E+03  0.10100000352E+00 0.  1.
       -3    1    3    3    0  502  0.34357574991E+03 -0.15890021558E+03  0.81185027948E+03  0.89576473525E+03  0.10100000352E+00 0. -1.
</event>
<event>
 5   0  0.3093600E-05  0.1501697E+04  0.7818609E-02  0.8883325E-01
        2   -1    0    0  501    0  0.00000000000E+00  0.00000000000E+00  0.72556403975E+03  0.72556403976E+03  0.25500000920E-02 0.  1.
       -2   -1    0    0    0  501  0.00000000000E+00  0.00000000000E+00 -0.77701431181E+03  0.77701431182E+03  0.25500000920E-02 0. -1.
    10030    2    1    2    0    0  0.00000000000E+00  0.00000000000E+00 -0.51450272058E+02  0.15025783516E+04  0.15016972305E+04 0.  0.
        1    1    3    3  502    0 -0.14426805881E+03  0.38294971827E+03  0.60417572100E+03  0.72972053650E+03  0.50400001928E-02 0.  1.
       -1    1    3    3    0  502  0.14426805881E+03 -0.38294971827E+03 -0.65562599306E+03  0.77285781507E+03  0.50400001928E-02 0. -1.
</event>
<event>
 5   0  0.1588657E-05  0.1500200E+04  0.7818609E-02  0.8884320E-01
        1   -1    0    0  501    0  0.00000000000E+00  0.00000000000E+00  0.16659346238E+04  0.16659346238E+04  0.50400001928E-02 0. -1.
       -1   -1    0    0    0  501  0.00000000000E+00  0.00000000000E+00 -0.33773826190E+03  0.33773826194E+03  0.50400001928E-02 0.  1.
    10030    2    1    2    0    0  0.00000000000E+00  0.00000000000E+00  0.13281963619E+04  0.20036728858E+04  0.15001998058E+04 0.  0.
        3    1    3    3  502    0  0.45518092524E+03 -0.50047740296E+03  0.23134898258E+03  0.71497529155E+03  0.10100000352E+00 0.  1.
       -3    1    3    3    0  502 -0.45518092524E+03  0.50047740296E+03  0.10968473793E+04  0.12886975942E+04  0.10100000352E+00 0. -1.
</event>
<event>
 5   0  0.2969498E-05  0.1495141E+04  0.7818609E-02  0.8887691E-01
        2   -1    0    0  501    0  0.00000000000E+00  0.00000000000E+00  0.19817674947E+04  0.19817674947E+04  0.25500000920E-02 0.  1.
       -2   -1    0    0    0  501  0.00000000000E+00  0.00000000000E+00 -0.28200154324E+03  0.28200154325E+03  0.25500000920E-02 0. -1.
    10030    2    1    2    0    0  0.00000000000E+00  0.00000000000E+00  0.16997659515E+04  0.22637690379E+04  0.14951407852E+04 0.  0.
        3    1    3    3  502    0  0.19458203433E+03 -0.61586066739E+03  0.27990527632E+03  0.70391299436E+03  0.10100000352E+00 0.  1.
       -3    1    3    3    0  502 -0.19458203433E+03  0.61586066739E+03  0.14198606751E+04  0.15598560436E+04  0.10100000352E+00 0. -1.
</event>
<event>
 5   0  0.1576214E-05  0.1499747E+04  0.7818609E-02  0.8884621E-01
       -1   -1    0    0    0  501  0.00000000000E+00  0.00000000000E+00  0.67415278831E+03  0.67415278833E+03  0.50400001928E-02 0. -1.
        1   -1    0    0  501    0  0.00000000000E+00  0.00000000000E+00 -0.83409893935E+03  0.83409893937E+03  0.50400001928E-02 0.  1.
    10030    2    1    2    0    0  0.00000000000E+00  0.00000000000E+00 -0.15994615104E+03  0.15082517277E+04  0.14997468129E+04 0.  0.
        1    1    3    3  502    0  0.23058810667E+03  0.60126056784E+03  0.30642576107E+03  0.71314927782E+03  0.50400001928E-02 0. -1.
       -1    1    3    3    0  502 -0.23058810667E+03 -0.60126056784E+03 -0.46637191211E+03  0.79510244988E+03  0.50400001928E-02 0.  1.
</event>
<event>
 5   0  0.3070497E-05  0.1499984E+04  0.7818609E-02  0.8884464E-01
       -2   -1    0    0    0  501  0.00000000000E+00  0.00000000000E+00  0.44564439135E+03  0.44564439136E+03  0.25500000920E-02 0.  1.
        2   -1    0    0  501    0  0.00000000000E+00  0.00000000000E+00 -0.12621899643E+04  0.12621899643E+04  0.25500000920E-02 0. -1.
    10030    2    1    2    0    0  0.00000000000E+00  0.00000000000E+00 -0.81654557292E+03  0.17078343556E+04  0.14999838378E+04 0.  0.
        4    1    3    3  502    0 -0.27427340262E+03  0.46641853697E+03  0.18303146738E+03  0.57120423840E+03  0.12699999809E+01 0.  1.
       -4    1    3    3    0  502  0.27427340262E+03 -0.46641853697E+03 -0.99957704030E+03  0.11366301172E+04  0.12699999809E+01 0. -1.
</event>
<event>
 5   0  0.3070497E-05  0.1503203E+04  0.7818609E-02  0.8882326E-01
       -2   -1    0    0    0  501  0.00000000000E+00  0.00000000000E+00  0.56144164474E+03  0.56144164474E+03  0.25500000920E-02 0.  1.
        2   -1    0    0  501    0  0.00000000000E+00  0.00000000000E+00 -0.10061678267E+04  0.10061678267E+04  0.25500000920E-02 0. -1.
    10030    2    1    2    0    0  0.00000000000E+00  0.00000000000E+00 -0.44472618194E+03  0.15676094714E+04  0.15032026071E+04 0.  0.
        4    1    3    3  502    0  0.16703248708E+03 -0.56092848843E+03 -0.71412051288E+03  0.92331486542E+03  0.12699999809E+01 0. -1.
       -4    1    3    3    0  502 -0.16703248708E+03  0.56092848843E+03  0.26939433094E+03  0.64429460600E+03  0.12699999809E+01 0.  1.
</event>
<event>
 5   0  0.1533777E-05  0.1499914E+04  0.7818609E-02  0.8884510E-01
       -1   -1    0    0    0  501  0.00000000000E+00  0.00000000000E+00  0.48984684807E+03  0.48984684810E+03  0.50400001928E-02 0.  1.
        1   -1    0    0  501    0  0.00000000000E+00  0.00000000000E+00 -0.11481871649E+04  0.11481871649E+04  0.50400001928E-02 0. -1.
    10030    2    1    2    0    0  0.00000000000E+00  0.00000000000E+00 -0.65834031682E+03  0.16380340130E+04  0.14999144826E+04 0.  0.
        5    1    3    3  502    0  0.42086896695E+03 -0.34728340048E+03  0.23267259822E+03  0.59320744731E+03  0.46999998093E+01 0.  1.
       -5    1    3    3    0  502 -0.42086896695E+03  0.34728340048E+03 -0.89101291504E+03  0.10448265657E+04  0.46999998093E+01 0. -1.
</event>
<event>
 5   0  0.1588657E-05  0.1500591E+04  0.7818609E-02  0.8884060E-01
        1   -1    0    0  501    0  0.00000000000E+00  0.00000000000E+00  0.11769972221E+04  0.11769972221E+04  0.50400001928E-02 0. -1.
       -1   -1    0    0    0  501  0.00000000000E+00  0.00000000000E+00 -0.47828764116E+03  0.47828764119E+03  0.50400001928E-02 0.  1.
    10030    2    1    2    0    0  0.00000000000E+00  0.00000000000E+00  0.69870958097E+03  0.16552848633E+04  0.15005908504E+04 0.  0.
        3    1    3    3  502    0 -0.56560023168E+03  0.25089478334E+03 -0.11876493027E+03  0.63004518350E+03  0.10100000352E+00 0.  1.
       -3    1    3    3    0  502  0.56560023168E+03 -0.25089478334E+03  0.81747451124E+03  0.10252396798E+04  0.10100000352E+00 0. -1.
</event>
<event>
 5   0  0.1580078E-05  0.1500476E+04  0.7818609E-02  0.8884137E-01
       -1   -1    0    0    0  501  0.00000000000E+00  0.00000000000E+00  0.78000311355E+03  0.78000311357E+03  0.50400001928E-02 0. -1.
        1   -1    0    0  501    0  0.00000000000E+00  0.00000000000E+00 -0.72160847046E+03  0.72160847048E+03  0.50400001928E-02 0.  1.
    10030    2    1    2    0    0  0.00000000000E+00  0.00000000000E+00  0.58394643093E+02  0.15016115840E+04  0.15004757296E+04 0.  0.
        2    1    3    3  502    0 -0.74752487390E+03 -0.56889059873E+02  0.57977594744E+02  0.75192499875E+03  0.25500000920E-02 0.  1.
       -2    1    3    3    0  502  0.74752487390E+03  0.56889059873E+02  0.41704834903E+00  0.74968658530E+03  0.25500000920E-02 0. -1.
</event>
<event>
 5   0  0.3070497E-05  0.1498433E+04  0.7818609E-02  0.8885496E-01
        2   -1    0    0  501    0  0.00000000000E+00  0.00000000000E+00  0.69560066301E+03  0.69560066301E+03  0.25500000920E-02 0. -1.
       -2   -1    0    0    0  501  0.00000000000E+00  0.00000000000E+00 -0.80696477068E+03  0.80696477068E+03  0.25500000920E-02 0.  1.
    10030    2    1    2    0    0  0.00000000000E+00  0.00000000000E+00 -0.11136410767E+03  0.15025654337E+04  0.14984328207E+04 0.  0.
        4    1    3    3  502    0 -0.16410981218E+03  0.51035044906E+03  0.46914847620E+03  0.71238438846E+03  0.12699999809E+01 0. -1.
       -4    1    3    3    0  502  0.16410981218E+03 -0.51035044906E+03 -0.58051258387E+03  0.79018104523E+03  0.12699999809E+01 0.  1.
</event>
<event>
 5   0  0.1588657E-05  0.1499905E+04  0.7818609E-02  0.8884516E-01
        1   -1    0    0  501    0  0.00000000000E+00  0.00000000000E+00  0.86469385384E+03  0.86469385385E+03  0.50400001928E-02 0. -1.
       -1   -1    0    0    0  501  0.00000000000E+00  0.00000000000E+00 -0.65043724787E+03  0.65043724789E+03  0.50400001928E-02 0.  1.
    10030    2    1    2    0    0  0.00000000000E+00  0.00000000000E+00  0.21425660597E+03  0.15151311017E+04  0.14999054511E+04 0.  0.
        3    1    3    3  502    0 -0.57416426524E+02  0.74532734322E+03  0.16790201533E+03  0.76615963842E+03  0.10100000352E+00 0.  1.
       -3    1    3    3    0  502  0.57416426524E+02 -0.74532734322E+03  0.46354590638E+02  0.74897146332E+03  0.10100000352E+00 0. -1.
</event>
<event>
 5   0  0.3018308E-05  0.1500126E+04  0.7818609E-02  0.8884369E-01
       -2   -1    0    0    0  501  0.00000000000E+00  0.00000000000E+00  0.50722773741E+03  0.50722773741E+03  0.25500000920E-02 0. -1.
        2   -1    0    0  501    0  0.00000000000E+00  0.00000000000E+00 -0.11091551938E+04  0.11091551938E+04  0.25500000920E-02 0.  1.
    10030    2    1    2    0    0  0.00000000000E+00  0.00000000000E+00 -0.60192745635E+03  0.16163829312E+04  0.15001257006E+04 0.  0.
        2    1    3    3  502    0 -0.29466487840E+03 -0.68757171906E+03 -0.36009885416E+03  0.83021289088E+03  0.25500000920E-02 0. -1.
       -2    1    3    3    0  502  0.29466487840E+03  0.68757171906E+03 -0.24182860219E+03  0.78617004029E+03  0.25500000920E-02 0.  1.
</event>
<event>
 5   0  0.3070497E-05  0.1500694E+04  0.7818609E-02  0.8883992E-01
       -2   -1    0    0    0  501  0.00000000000E+00  0.00000000000E+00  0.54192645287E+03  0.54192645288E+03  0.25500000920E-02 0. -1.
        2   -1    0    0  501    0  0.00000000000E+00  0.00000000000E+00 -0.10389238653E+04  0.10389238653E+04  0.25500000920E-02 0.  1.
    10030    2    1    2    0    0  0.00000000000E+00  0.00000000000E+00 -0.49699741245E+03  0.15808503182E+04  0.15006936065E+04 0.  0.
        4    1    3    3  502    0  0.15005446386E+03  0.29735803497E+03 -0.95678141448E+03  0.10130994182E+04  0.12699999809E+01 0.  1.
       -4    1    3    3    0  502 -0.15005446386E+03 -0.29735803497E+03  0.45978400203E+03  0.56775090005E+03  0.12699999809E+01 0. -1.
</event>
<event>
 5   0  0.1533777E-05  0.1500245E+04  0.7818609E-02  0.8884290E-01
        1   -1    0    0  501    0  0.00000000000E+00  0.00000000000E+00  0.14899775508E+04  0.14899775508E+04  0.50400001928E-02 0. -1.
       -1   -1    0    0    0  501  0.00000000000E+00  0.00000000000E+00 -0.37764579030E+03  0.37764579034E+03  0.50400001928E-02 0.  1.
    10030    2    1    2    0    0  0.00000000000E+00  0.00000000000E+00  0.11123317605E+04  0.18676233412E+04  0.15002449797E+04 0.  0.
        5    1    3    3  502    0  0.61173222053E+02  0.57639840580E+03 -0.36538181314E+02  0.58080497071E+03  0.46999998093E+01 0.  1.
       -5    1    3    3    0  502 -0.61173222053E+02 -0.57639840580E+03  0.11488699418E+04  0.12868183705E+04  0.46999998093E+01 0. -1.
</event>
<event>
 5   0  0.1580078E-05  0.1500566E+04  0.7818609E-02  0.8884077E-01
       -1   -1    0    0    0  501  0.00000000000E+00  0.00000000000E+00  0.52433312740E+03  0.52433312742E+03  0.50400001928E-02 0. -1.
        1   -1    0    0  501    0  0.00000000000E+00  0.00000000000E+00 -0.10736003475E+04  0.10736003475E+04  0.50400001928E-02 0.  1.
    10030    2    1    2    0    0  0.00000000000E+00  0.00000000000E+00 -0.54926722009E+03  0.15979334749E+04  0.15005655305E+04 0.  0.
        2    1    3    3  502    0 -0.17953346628E+03 -0.76913539104E+02  0.49678626310E+03  0.53380197567E+03  0.25500000920E-02 0. -1.
       -2    1    3    3    0  502  0.17953346628E+03  0.76913539104E+02 -0.10460534832E+04  0.10641314993E+04  0.25500000920E-02 0.  1.
</event>
<event>
 5   0  0.3018308E-05  0.1500129E+04  0.7818609E-02  0.8884367E-01
        2   -1    0    0  501    0  0.00000000000E+00  0.00000000000E+00  0.19340247624E+04  0.19340247624E+04  0.25500000920E-02 0.  1.
       -2   -1    0    0    0  501  0.00000000000E+00  0.00000000000E+00 -0.29089414817E+03  0.29089414818E+03  0.25500000920E-02 0. -1.
    10030    2    1    2    0    0  0.00000000000E+00  0.00000000000E+00  0.16431306142E+04  0.22249189105E+04  0.15001286422E+04 0.  0.
        2    1    3    3  502    0  0.10819639762E+03  0.38806873446E+02  0.19208842414E+04  0.19243203222E+04  0.25500000920E-02 0.  1.
       -2    1    3    3    0  502 -0.10819639762E+03 -0.38806873446E+02 -0.27775362716E+03  0.30059858830E+03  0.25500000920E-02 0. -1.
</event>
<event>
 5   0  0.2969498E-05  0.1497579E+04  0.7818609E-02  0.8886064E-01
        2   -1    0    0  501    0  0.00000000000E+00  0.00000000000E+00  0.12404304035E+04  0.12404304035E+04  0.25500000920E-02 0. -1.
       -2   -1    0    0    0  501  0.00000000000E+00  0.00000000000E+00 -0.45200925682E+03  0.45200925682E+03  0.25500000920E-02 0.  1.
    10030    2    1    2    0    0  0.00000000000E+00  0.00000000000E+00  0.78842114669E+03  0.16924396603E+04  0.14975794134E+04 0.  0.
        3    1    3    3  502    0 -0.11038133239E+02 -0.32626638202E+03 -0.36735267923E+03  0.49144643000E+03  0.10100000352E+00 0.  1.
       -3    1    3    3    0  502  0.11038133239E+02  0.32626638202E+03  0.11557738259E+04  0.12009932303E+04  0.10100000352E+00 0. -1.
</event>
<event>
 5   0  0.3030702E-05  0.1499486E+04  0.7818609E-02  0.8884795E-01
        2   -1    0    0  501    0  0.00000000000E+00  0.00000000000E+00  0.11343214694E+04  0.11343214694E+04  0.25500000920E-02 0.  1.
       -2   -1    0    0    0  501  0.00000000000E+00  0.00000000000E+00 -0.49555148511E+03  0.49555148511E+03  0.25500000920E-02 0. -1.
    10030    2    1    2    0    0  0.00000000000E+00  0.00000000000E+00  0.63876998430E+03  0.16298729545E+04  0.14994861637E+04 0.  0.
        5    1    3    3  502    0  0.19480947101E+03 -0.26952068510E+03  0.10497507328E+04  0.11011770161E+04  0.46999998093E+01 0.  1.
       -5    1    3    3    0  502 -0.19480947101E+03  0.26952068510E+03 -0.41098074851E+03  0.52869593845E+03  0.46999998093E+01 0. -1.
</event>
<event>
 5   0  0.1580078E-05  0.1500159E+04  0.7818609E-02  0.8884347E-01
        1   -1    0    0  501    0  0.00000000000E+00  0.00000000000E+00  0.68542155956E+03  0.68542155958E+03  0.50400001928E-02 0. -1.
       -1   -1    0    0    0  501  0.00000000000E+00  0.00000000000E+00 -0.82083710874E+03  0.82083710875E+03  0.50400001928E-02 0.  1.
    10030    2    1    2    0    0  0.00000000000E+00  0.00000000000E+00 -0.13541554917E+03  0.15062586683E+04  0.15001592599E+04 0.  0.
        2    1    3    3  502    0 -0.39394268176E+02  0.22749781501E+03  0.64885504310E+03  0.68870895969E+03  0.25500000920E-02 0. -1.
       -2    1    3    3    0  502  0.39394268176E+02 -0.22749781501E+03 -0.78427059227E+03  0.81754970865E+03  0.25500000920E-02 0.  1.
</event>
<event>
 5   0  0.3018308E-05  0.1501324E+04  0.7818609E-02  0.8883573E-01
        2   -1    0    0  501    0  0.00000000000E+00  0.00000000000E+00  0.10246699008E+04  0.10246699008E+04  0.25500000920E-02 0.  1.
       -2   -1    0    0    0  501  0.00000000000E+00  0.00000000000E+00 -0.54992655030E+03  0.54992655030E+03  0.25500000920E-02 0. -1.
    10030    2    1    2    0    0  0.00000000000E+00  0.00000000000E+00  0.47474335054E+03  0.15745964511E+04  0.15013236610E+04 0.  0.
        2    1    3    3  502    0  0.62743779451E+03  0.39879544283E+03  0.12849176348E+03  0.75447075788E+03  0.25500000920E-02 0.  1.
       -2    1    3    3    0  502 -0.62743779451E+03 -0.39879544283E+03  0.34625158706E+03  0.82012569326E+03  0.25500000920E-02 0. -1.
</event>
<event>
 5   0  0.1580078E-05  0.1499456E+04  0.7818609E-02  0.8884815E-01
        1   -1    0    0  501    0  0.00000000000E+00  0.00000000000E+00  0.83927362861E+03  0.83927362863E+03  0.50400001928E-02 0. -1.
       -1   -1    0    0    0  501  0.00000000000E+00  0.00000000000E+00 -0.66973650793E+03  0.66973650795E+03  0.50400001928E-02 0.  1.
    10030    2    1    2    0    0  0.00000000000E+00  0.00000000000E+00  0.16953712068E+03  0.15090101366E+04  0.14994561537E+04 0.  0.
        2    1    3    3  502    0  0.70223158628E+03  0.20888420239E+03  0.24493784117E+03  0.77250006914E+03  0.25500000920E-02 0. -1.
       -2    1    3    3    0  502 -0.70223158628E+03 -0.20888420239E+03 -0.75400720488E+02  0.73651006744E+03  0.25500000920E-02 0.  1.
</event>
<event>
 5   0  0.3030702E-05  0.1499460E+04  0.7818609E-02  0.8884812E-01
       -2   -1    0    0    0  501  0.00000000000E+00  0.00000000000E+00  0.37099303383E+03  0.37099303384E+03  0.25500000920E-02 0. -1.
        2   -1    0    0  501    0  0.00000000000E+00  0.00000000000E+00 -0.15151100996E+04  0.15151100996E+04  0.25500000920E-02 0.  1.
    10030    2    1    2    0    0  0.00000000000E+00  0.00000000000E+00 -0.11441170658E+04  0.18861031335E+04  0.14994602928E+04 0.  0.
        5    1    3    3  502    0  0.68081496945E+03 -0.28046451030E+03 -0.39459918380E+03  0.83540407589E+03  0.46999998093E+01 0. -1.
       -5    1    3    3    0  502 -0.68081496945E+03  0.28046451030E+03 -0.74951788200E+03  0.10506990576E+04  0.46999998093E+01 0.  1.
</event>
<event>
 5   0  0.1576214E-05  0.1499024E+04  0.7818609E-02  0.8885102E-01
       -1   -1    0    0    0  501  0.00000000000E+00  0.00000000000E+00  0.10289475134E+04  0.10289475134E+04  0.50400001928E-02 0.  1.
        1   -1    0    0  501    0  0.00000000000E+00  0.00000000000E+00 -0.54596368694E+03  0.54596368696E+03  0.50400001928E-02 0. -1.
    10030    2    1    2    0    0  0.00000000000E+00  0.00000000000E+00  0.48298382643E+03  0.15749112003E+04  0.14990236530E+04 0.  0.
        1    1    3    3  502    0  0.24470698541E+03 -0.45467711234E+03 -0.32929341366E+03  0.61241075880E+03  0.50400001928E-02 0. -1.
       -1    1    3    3    0  502 -0.24470698541E+03  0.45467711234E+03  0.81227724009E+03  0.96250044155E+03  0.50400001928E-02 0.  1.
</event>
<event>
 5   0  0.1580078E-05  0.1500272E+04  0.7818609E-02  0.8884272E-01
       -1   -1    0    0    0  501  0.00000000000E+00  0.00000000000E+00  0.41619137332E+03  0.41619137335E+03  0.50400001928E-02 0.  1.
        1   -1    0    0  501    0  0.00000000000E+00  0.00000000000E+00 -0.13520310540E+04  0.13520310540E+04  0.50400001928E-02 0. -1.
    10030    2    1    2    0    0  0.00000000000E+00  0.00000000000E+00 -0.93583968064E+03  0.17682224273E+04  0.15002715236E+04 0.  0.
        2    1    3    3  502    0 -0.32771201919E+03 -0.43039739256E+03 -0.10804147016E+04  0.12082768766E+04  0.25500000920E-02 0. -1.
       -2    1    3    3    0  502  0.32771201919E+03  0.43039739256E+03  0.14457502100E+03  0.55994555070E+03  0.25500000920E-02 0.  1.
</event>
<event>
 5   0  0.1576214E-05  0.1502471E+04  0.7818609E-02  0.8882811E-01
       -1   -1    0    0    0  501  0.00000000000E+00  0.00000000000E+00  0.49121848577E+03  0.49121848580E+03  0.50400001928E-02 0.  1.
        1   -1    0    0  501    0  0.00000000000E+00  0.00000000000E+00 -0.11488875904E+04  0.11488875905E+04  0.50400001928E-02 0. -1.
    10030    2    1    2    0    0  0.00000000000E+00  0.00000000000E+00 -0.65766910467E+03  0.16401060763E+04  0.15024710613E+04 0.  0.
        1    1    3    3  502    0  0.86753203303E+02  0.65866440709E+03 -0.71165978157E+03  0.97356281984E+03  0.50400001928E-02 0.  1.
       -1    1    3    3    0  502 -0.86753203303E+02 -0.65866440709E+03  0.53990676893E+02  0.66654325641E+03  0.50400001928E-02 0. -1.
</event>
<event>
 5   0  0.3030702E-05  0.1500341E+04  0.7818609E-02  0.8884226E-01
       -2   -1    0    0    0  501  0.00000000000E+00  0.00000000000E+00  0.61047936684E+03  0.61047936685E+03  0.25500000920E-02 0.  1.
        2   -1    0    0  501    0  0.00000000000E+00  0.00000000000E+00 -0.92182603572E+03  0.92182603572E+03  0.25500000920E-02 0. -1.
    10030    2    1    2    0    0  0.00000000000E+00  0.00000000000E+00 -0.31134666887E+03  0.15323054026E+04  0.15003409941E+04 0.  0.
        5    1    3    3  502    0  0.70549098970E+02  0.38140206677E+03  0.50010371992E+03  0.63290641692E+03  0.46999998093E+01 0.  1.
       -5    1    3    3    0  502 -0.70549098970E+02 -0.38140206677E+03 -0.81145038879E+03  0.89939898564E+03  0.46999998093E+01 0. -1.
</event>
<event>
 5   0  0.1533777E-05  0.1499729E+04  0.7818609E-02  0.8884633E-01
       -1   -1    0    0    0  501  0.00000000000E+00  0.00000000000E+00  0.39093605283E+03  0.39093605286E+03  0.50400001928E-02 0. -1.
        1   -1    0    0  501    0  0.00000000000E+00  0.00000000000E+00 -0.14383347644E+04  0.14383347644E+04  0.50400001928E-02 0.  1.
    10030    2    1    2    0    0  0.00000000000E+00  0.00000000000E+00 -0.10473987115E+04  0.18292708172E+04  0.14997291962E+04 0.  0.
        5    1    3    3  502    0 -0.39624384260E+03 -0.96764492667E+02  0.24376666934E+03  0.47520188228E+03  0.46999998093E+01 0. -1.
       -5    1    3    3    0  502  0.39624384260E+03  0.96764492667E+02 -0.12911653809E+04  0.13540689349E+04  0.46999998093E+01 0.  1.
</event>
<event>
 5   0  0.1588657E-05  0.1500188E+04  0.7818609E-02  0.8884328E-01
       -1   -1    0    0    0  501  0.00000000000E+00  0.00000000000E+00  0.30175453659E+03  0.30175453663E+03  0.50400001928E-02 0. -1.
        1   -1    0    0  501    0  0.00000000000E+00  0.00000000000E+00 -0.18645664198E+04  0.18645664198E+04  0.50400001928E-02 0.  1.
    10030    2    1    2    0    0  0.00000000000E+00  0.00000000000E+00 -0.15628118832E+04  0.21663209565E+04  0.15001884895E+04 0.  0.
        3    1    3    3  502    0 -0.42119762166E+03 -0.45920800807E+03 -0.13843858086E+04  0.15181579326E+04  0.10100000352E+00 0.  1.
       -3    1    3    3    0  502  0.42119762166E+03  0.45920800807E+03 -0.17842607466E+03  0.64816302385E+03  0.10100000352E+00 0. -1.
</event>
<event>
 5   0  0.3093600E-05  0.1500810E+04  0.7818609E-02  0.8883915E-01
       -2   -1    0    0    0  501  0.00000000000E+00  0.00000000000E+00  0.58670769130E+03  0.58670769131E+03  0.25500000920E-02 0. -1.
        2   -1    0    0  501    0  0.00000000000E+00  0.00000000000E+00 -0.95977498094E+03  0.95977498095E+03  0.25500000920E-02 0.  1.
    10030    2    1    2    0    0  0.00000000000E+00  0.00000000000E+00 -0.37306728964E+03  0.15464826723E+04  0.15008095992E+04 0.  0.
        1    1    3    3  502    0 -0.46500075432E+03  0.38901987643E+03 -0.64219588041E+03  0.88316346993E+03  0.50400001928E-02 0.  1.
       -1    1    3    3    0  502  0.46500075432E+03 -0.38901987643E+03  0.26912859077E+03  0.66331920233E+03  0.50400001928E-02 0. -1.
</event>
<event>
 5   0  0.1588657E-05  0.1498694E+04  0.7818609E-02  0.8885322E-01
       -1   -1    0    0    0  501  0.00000000000E+00  0.00000000000E+00  0.33113871174E+03  0.33113871178E+03  0.50400001928E-02 0.  1.
        1   -1    0    0  501    0  0.00000000000E+00  0.00000000000E+00 -0.16957261913E+04  0.16957261913E+04  0.50400001928E-02 0. -1.
    10030    2    1    2    0    0  0.00000000000E+00  0.00000000000E+00 -0.13645874795E+04  0.20268649030E+04  0.14986935464E+04 0.  0.
        3    1    3    3  502    0 -0.37512107530E+03  0.64138880544E+03 -0.81359116972E+03  0.11018284905E+04  0.10100000352E+00 0. -1.
       -3    1    3    3    0  502  0.37512107530E+03 -0.64138880544E+03 -0.55099630980E+03  0.92503641252E+03  0.10100000352E+00 0.  1.
</event>
<event>
 5   0  0.2969498E-05  0.1499551E+04  0.7818609E-02  0.8884751E-01
        2   -1    0    0  501    0  0.00000000000E+00  0.00000000000E+00  0.86614187253E+03  0.86614187254E+03  0.25500000920E-02 0. -1.
       -2   -1    0    0    0  501  0.00000000000E+00  0.00000000000E+00 -0.64904331395E+03  0.64904331395E+03  0.25500000920E-02 0.  1.
    10030    2    1    2    0    0  0.00000000000E+00  0.00000000000E+00  0.21709855859E+03  0.15151851865E+04  0.14995513880E+04 0.  0.
        3    1    3    3  502    0  0.20845449827E+03 -0.71683349511E+03  0.38108452889E+02  0.74749970030E+03  0.10100000352E+00 0. -1.
       -3    1    3    3    0  502 -0.20845449827E+03  0.71683349511E+03  0.17899010570E+03  0.76768548619E+03  0.10100000352E+00 0.  1.
</event>
<event>
 5   0  0.1576214E-05  0.1499803E+04  0.7818609E-02  0.8884584E-01
        1   -1    0    0  501    0  0.00000000000E+00  0.00000000000E+00  0.14369273447E+04  0.14369273447E+04  0.50400001928E-02 0. -1.
       -1   -1    0    0    0  501  0.00000000000E+00  0.00000000000E+00 -0.39135754704E+03  0.39135754708E+03  0.50400001928E-02 0.  1.
    10030    2    1    2    0    0  0.00000000000E+00  0.00000000000E+00  0.10455697977E+04  0.18282848918E+04  0.14998031350E+04 0.  0.
        1    1    3    3  502    0 -0.22519792069E+02 -0.28978250393E+03 -0.31989977788E+03  0.43222321609E+03  0.50400001928E-02 0.  1.
       -1    1    3    3    0  502  0.22519792069E+02  0.28978250393E+03  0.13654695756E+04  0.13960616757E+04  0.50400001928E-02 0. -1.
</event>
<event>
 5   0  0.1576214E-05  0.1499997E+04  0.7818609E-02  0.8884455E-01
       -1   -1    0    0    0  501  0.00000000000E+00  0.00000000000E+00  0.25991824970E+03  0.25991824975E+03  0.50400001928E-02 0.  1.
        1   -1    0    0  501    0  0.00000000000E+00  0.00000000000E+00 -0.21641344592E+04  0.21641344592E+04  0.50400001928E-02 0. -1.
    10030    2    1    2    0    0  0.00000000000E+00  0.00000000000E+00 -0.19042162095E+04  0.24240527089E+04  0.14999973878E+04 0.  0.
        1    1    3    3  502    0  0.44227398628E+02  0.73612587086E+03 -0.11728655157E+04  0.13854424847E+04  0.50400001928E-02 0. -1.
       -1    1    3    3    0  502 -0.44227398628E+02 -0.73612587086E+03 -0.73135069381E+03  0.10386102242E+04  0.50400001928E-02 0.  1.
</event>
<event>
 5   0  0.3093600E-05  0.1500032E+04  0.7818609E-02  0.8884432E-01
       -2   -1    0    0    0  501  0.00000000000E+00  0.00000000000E+00  0.36822553956E+03  0.36822553957E+03  0.25500000920E-02 0. -1.
        2   -1    0    0  501    0  0.00000000000E+00  0.00000000000E+00 -0.15276614425E+04  0.15276614425E+04  0.25500000920E-02 0.  1.
    10030    2    1    2    0    0  0.00000000000E+00  0.00000000000E+00 -0.11594359029E+04  0.18958869821E+04  0.15000319449E+04 0.  0.
        1    1    3    3  502    0 -0.20714732856E+03 -0.89327776808E+02 -0.14837666885E+04  0.15008174617E+04  0.50400001928E-02 0.  1.
       -1    1    3    3    0  502  0.20714732856E+03  0.89327776808E+02  0.32433078556E+03  0.39506952037E+03  0.50400001928E-02 0. -1.
</event>
<event>
 5   0  0.1576214E-05  0.1500015E+04  0.7818609E-02  0.8884443E-01
        1   -1    0    0  501    0  0.00000000000E+00  0.00000000000E+00  0.12740470765E+04  0.12740470765E+04  0.50400001928E-02 0. -1.
       -1   -1    0    0    0  501  0.00000000000E+00  0.00000000000E+00 -0.44151542803E+03  0.44151542806E+03  0.50400001928E-02 0.  1.
    10030    2    1    2    0    0  0.00000000000E+00  0.00000000000E+00  0.83253164845E+03  0.17155625045E+04  0.15000152537E+04 0.  0.
        1    1    3    3  502    0 -0.31883983437E+03  0.41008937487E+03  0.10350039504E+04  0.11580437439E+04  0.50400001928E-02 0. -1.
       -1    1    3    3    0  502  0.31883983437E+03 -0.41008937487E+03 -0.20247230199E+03  0.55751876064E+03  0.50400001928E-02 0.  1.
</event>
<event>
 5   0  0.1576214E-05  0.1499982E+04  0.7818609E-02  0.8884465E-01
        1   -1    0    0  501    0  0.00000000000E+00  0.00000000000E+00  0.89093958608E+03  0.89093958609E+03  0.50400001928E-02 0. -1.
       -1   -1    0    0    0  501  0.00000000000E+00  0.00000000000E+00 -0.63134071473E+03  0.63134071475E+03  0.50400001928E-02 0.  1.
    10030    2    1    2    0    0  0.00000000000E+00  0.00000000000E+00  0.25959887134E+03  0.15222803008E+04  0.14999819133E+04 0.  0.
        1    1    3    3  502    0 -0.62104850897E+03 -0.79772000495E+02  0.54875787212E+03  0.83258634675E+03  0.50400001928E-02 0. -1.
       -1    1    3    3    0  502  0.62104850897E+03  0.79772000495E+02 -0.28915900078E+03  0.68969395409E+03  0.50400001928E-02 0.  1.
</event>
<event>
 5   0  0.2969498E-05  0.1500099E+04  0.7818609E-02  0.8884387E-01
       -2   -1    0    0    0  501  0.00000000000E+00  0.00000000000E+00  0.28740545370E+03  0.28740545371E+03  0.25500000920E-02 0. -1.
        2   -1    0    0  501    0  0.00000000000E+00  0.00000000000E+00 -0.19574239293E+04  0.19574239293E+04  0.25500000920E-02 0.  1.
    10030    2    1    2    0    0  0.00000000000E+00  0.00000000000E+00 -0.16700184756E+04  0.22448293830E+04  0.15000990801E+04 0.  0.
        3    1    3    3  502    0 -0.46879904806E+03 -0.45645605357E+03 -0.13837196392E+04  0.15306223330E+04  0.10100000352E+00 0.  1.
       -3    1    3    3    0  502  0.46879904806E+03  0.45645605357E+03 -0.28629883640E+03  0.71420704997E+03  0.10100000352E+00 0. -1.
</event>
<event>
 5   0  0.3030702E-05  0.1499330E+04  0.7818609E-02  0.8884898E-01
       -2   -1    0    0    0  501  0.00000000000E+00  0.00000000000E+00  0.27916361861E+03  0.27916361862E+03  0.25500000920E-02 0.  1.
        2   -1    0    0  501    0  0.00000000000E+00  0.00000000000E+00 -0.20131486638E+04  0.20131486639E+04  0.25500000920E-02 0. -1.
    10030    2    1    2    0    0  0.00000000000E+00  0.00000000000E+00 -0.17339850452E+04  0.22923122825E+04  0.14993303383E+04 0.  0.
        5    1    3    3  502    0  0.31080310151E+03  0.67698518690E+03 -0.99553091169E+03  0.12433870666E+04  0.46999998093E+01 0.  1.
       -5    1    3    3    0  502 -0.31080310151E+03 -0.67698518690E+03 -0.73845413355E+03  0.10489252159E+04  0.46999998093E+01 0. -1.
</event>
<event>
 5   0  0.3018308E-05  0.1500002E+04  0.7818609E-02  0.8884451E-01
       -2   -1    0    0    0  501  0.00000000000E+00  0.00000000000E+00  0.52786882416E+03  0.52786882417E+03  0.25500000920E-02 0. -1.
        2   -1    0    0  501    0  0.00000000000E+00  0.00000000000E+00 -0.10656087355E+04  0.10656087355E+04  0.25500000920E-02 0.  1.
    10030    2    1    2    0    0  0.00000000000E+00  0.00000000000E+00 -0.53773991132E+03  0.15934775597E+04  0.15000021736E+04 0.  0.
        2    1    3    3  502    0  0.12411614325E+03 -0.61079400752E+03 -0.71203244795E+03  0.94628977780E+03  0.25500000920E-02 0.  1.
       -2    1    3    3    0  502 -0.12411614325E+03  0.61079400752E+03  0.17429253663E+03  0.64718778185E+03  0.25500000920E-02 0. -1.
</event>
<event>
 5   0  0.3018308E-05  0.1499465E+04  0.7818609E-02  0.8884809E-01
       -2   -1    0    0    0  501  0.00000000000E+00  0.00000000000E+00  0.42621720536E+03  0.42621720537E+03  0.25500000920E-02 0.  1.
        2   -1    0    0  501    0  0.00000000000E+00  0.00000000000E+00 -0.13188085212E+04  0.13188085212E+04  0.25500000920E-02 0. -1.
    10030    2    1    2    0    0  0.00000000000E+00  0.00000000000E+00 -0.89259131581E+03  0.17450257266E+04  0.14994650810E+04 0.  0.
        2    1    3    3  502    0 -0.24740841802E+03  0.50053198428E+02  0.37527879860E+03  0.45227251151E+03  0.25500000920E-02 0.  1.
       -2    1    3    3    0  502  0.24740841802E+03 -0.50053198428E+02 -0.12678701144E+04  0.12927532150E+04  0.25500000920E-02 0. -1.
</event>
<event>
 5   0  0.2969498E-05  0.1499490E+04  0.7818609E-02  0.8884792E-01
        2   -1    0    0  501    0  0.00000000000E+00  0.00000000000E+00  0.11879668418E+04  0.11879668418E+04  0.25500000920E-02 0.  1.
       -2   -1    0    0    0  501  0.00000000000E+00  0.00000000000E+00 -0.47317604292E+03  0.47317604293E+03  0.25500000920E-02 0. -1.
    10030    2    1    2    0    0  0.00000000000E+00  0.00000000000E+00  0.71479079890E+03  0.16611428847E+04  0.14994898457E+04 0.  0.
        3    1    3    3  502    0 -0.62985688980E+03  0.81494097853E+02 -0.84001369730E+02  0.64063814274E+03  0.10100000352E+00 0. -1.
       -3    1    3    3    0  502  0.62985688980E+03 -0.81494097853E+02  0.79879216863E+03  0.10205047420E+04  0.10100000352E+00 0.  1.
</event>
<event>
 5   0  0.1580078E-05  0.1499775E+04  0.7818609E-02  0.8884602E-01
       -1   -1    0    0    0  501  0.00000000000E+00  0.00000000000E+00  0.72820517235E+03  0.72820517237E+03  0.50400001928E-02 0.  1.
        1   -1    0    0  501    0  0.00000000000E+00  0.00000000000E+00 -0.77221557753E+03  0.77221557755E+03  0.50400001928E-02 0. -1.
    10030    2    1    2    0    0  0.00000000000E+00  0.00000000000E+00 -0.44010405184E+02  0.15004207499E+04  0.14997751535E+04 0.  0.
        2    1    3    3  502    0 -0.68729774640E+03  0.23319319435E+03 -0.21069741989E+03  0.75574510309E+03  0.25500000920E-02 0.  1.
       -2    1    3    3    0  502  0.68729774640E+03 -0.23319319435E+03  0.16668701471E+03  0.74467564682E+03  0.25500000920E-02 0. -1.
</event>
<event>
 5   0  0.3093600E-05  0.1499602E+04  0.7818609E-02  0.8884718E-01
       -2   -1    0    0    0  501  0.00000000000E+00  0.00000000000E+00  0.23966070286E+03  0.23966070288E+03  0.25500000920E-02 0.  1.
        2   -1    0    0  501    0  0.00000000000E+00  0.00000000000E+00 -0.23458227684E+04  0.23458227684E+04  0.25500000920E-02 0. -1.
    10030    2    1    2    0    0  0.00000000000E+00  0.00000000000E+00 -0.21061620655E+04  0.25854834713E+04  0.14996019918E+04 0.  0.
        1    1    3    3  502    0  0.18492317504E+03 -0.12019172884E+03  0.18247056761E+03  0.28624838937E+03  0.50400001928E-02 0.  1.
       -1    1    3    3    0  502 -0.18492317504E+03  0.12019172884E+03 -0.22886326331E+04  0.22992350819E+04  0.50400001928E-02 0. -1.
</event>
<event>
 5   0  0.1588657E-05  0.1501034E+04  0.7818609E-02  0.8883765E-01
        1   -1    0    0  501    0  0.00000000000E+00  0.00000000000E+00  0.20371355180E+04  0.20371355180E+04  0.50400001928E-02 0.  1.
       -1   -1    0    0    0  501  0.00000000000E+00  0.00000000000E+00 -0.27650398382E+03  0.27650398387E+03  0.50400001928E-02 0. -1.
    10030    2    1    2    0    0  0.00000000000E+00  0.00000000000E+00  0.17606315341E+04  0.23136395018E+04  0.15010344251E+04 0.  0.
        3    1    3    3  502    0 -0.30560393865E+03 -0.67147129453E+03  0.10928261785E+04  0.13185357535E+04  0.10100000352E+00 0. -1.
       -3    1    3    3    0  502  0.30560393865E+03  0.67147129453E+03  0.66780535565E+03  0.99510374833E+03  0.10100000352E+00 0.  1.
</event>
<event>
 5   0  0.1588657E-05  0.1499761E+04  0.7818609E-02  0.8884612E-01
       -1   -1    0    0    0  501  0.00000000000E+00  0.00000000000E+00  0.40143762604E+03  0.40143762607E+03  0.50400001928E-02 0.  1.
        1   -1    0    0  501    0  0.00000000000E+00  0.00000000000E+00 -0.14007667374E+04  0.14007667374E+04  0.50400001928E-02 0. -1.
    10030    2    1    2    0    0  0.00000000000E+00  0.00000000000E+00 -0.99932911136E+03  0.18022043635E+04  0.14997606125E+04 0.  0.
        3    1    3    3  502    0  0.54491799816E+03 -0.10000731634E+03  0.10760065892E+03  0.56437133170E+03  0.10100000352E+00 0.  1.
       -3    1    3    3    0  502 -0.54491799816E+03  0.10000731634E+03 -0.11069297703E+04  0.12378330318E+04  0.10100000352E+00 0. -1.
</event>
<event>
 5   0  0.1643498E-05  0.1499642E+04  0.7818609E-02  0.8884691E-01
       -1   -1    0    0    0  501  0.00000000000E+00  0.00000000000E+00  0.99657840214E+03  0.99657840216E+03  0.50400001928E-02 0. -1.
        1   -1    0    0  501    0  0.00000000000E+00  0.00000000000E+00 -0.56416155475E+03  0.56416155477E+03  0.50400001928E-02 0.  1.
    10030    2    1    2    0    0  0.00000000000E+00  0.00000000000E+00  0.43241684739E+03  0.15607399569E+04  0.14996415849E+04 0.  0.
        4    1    3    3  502    0  0.17074062104E+03 -0.46678120847E+03  0.80050191318E+03  0.94225367187E+03  0.12699999809E+01 0. -1.
       -4    1    3    3    0  502 -0.17074062104E+03  0.46678120847E+03 -0.36808506579E+03  0.61848628506E+03  0.12699999809E+01 0.  1.
</event>
<event>
 5   0  0.3070497E-05  0.1499986E+04  0.7818609E-02  0.8884462E-01
       -2   -1    0    0    0  501  0.00000000000E+00  0.00000000000E+00  0.35739509610E+03  0.35739509611E+03  0.25500000920E-02 0. -1.
        2   -1    0    0  501    0  0.00000000000E+00  0.00000000000E+00 -0.15738599415E+04  0.15738599415E+04  0.25500000920E-02 0.  1.
    10030    2    1    2    0    0  0.00000000000E+00  0.00000000000E+00 -0.12164648454E+04  0.19312550376E+04  0.14999864333E+04 0.  0.
        4    1    3    3  502    0 -0.60209911574E+03 -0.17010830190E+03 -0.75773696998E+02  0.63024078384E+03  0.12699999809E+01 0. -1.
       -4    1    3    3    0  502  0.60209911574E+03  0.17010830190E+03 -0.11406911484E+04  0.13010142537E+04  0.12699999809E+01 0.  1.
</event>
<event>
 5   0  0.1588657E-05  0.1500505E+04  0.7818609E-02  0.8884117E-01
       -1   -1    0    0    0  501  0.00000000000E+00  0.00000000000E+00  0.77425989574E+03  0.77425989576E+03  0.50400001928E-02 0.  1.
        1   -1    0    0  501    0  0.00000000000E+00  0.00000000000E+00 -0.72698970149E+03  0.72698970151E+03  0.50400001928E-02 0. -1.
    10030    2    1    2    0    0  0.00000000000E+00  0.00000000000E+00  0.47270194250E+02  0.15012495973E+04  0.15005052089E+04 0.  0.
        3    1    3    3  502    0 -0.34527320157E+03  0.30408084715E+03  0.61655056877E+03  0.76929406560E+03  0.10100000352E+00 0.  1.
       -3    1    3    3    0  502  0.34527320157E+03 -0.30408084715E+03 -0.56928037451E+03  0.73195553166E+03  0.10100000352E+00 0. -1.
</event>
<event>
 5   0  0.3030702E-05  0.1498790E+04  0.7818609E-02  0.8885258E-01
       -2   -1    0    0    0  501  0.00000000000E+00  0.00000000000E+00  0.10583967235E+04  0.10583967235E+04  0.25500000920E-02 0. -1.
        2   -1    0    0  501    0  0.00000000000E+00  0.00000000000E+00 -0.53060739706E+03  0.53060739707E+03  0.25500000920E-02 0.  1.
    10030    2    1    2    0    0  0.00000000000E+00  0.00000000000E+00  0.52778932647E+03  0.15890041206E+04  0.14987903530E+04 0.  0.
        5    1    3    3  502    0  0.70292509024E+02 -0.70332555918E+03 -0.12342087801E-01  0.70684508145E+03  0.46999998093E+01 0.  1.
       -5    1    3    3    0  502 -0.70292509024E+02  0.70332555918E+03  0.52780166856E+03  0.88215903915E+03  0.46999998093E+01 0. -1.
</event>
<event>
 5   0  0.1588657E-05  0.1499780E+04  0.7818609E-02  0.8884599E-01
       -1   -1    0    0    0  501  0.00000000000E+00  0.00000000000E+00  0.26659885523E+03  0.26659885528E+03  0.50400001928E-02 0. -1.
        1   -1    0    0  501    0  0.00000000000E+00  0.00000000000E+00 -0.21092932937E+04  0.21092932938E+04  0.50400001928E-02 0.  1.
    10030    2    1    2    0    0  0.00000000000E+00  0.00000000000E+00 -0.18426944385E+04  0.23758921490E+04  0.14997802206E+04 0.  0.
        3    1    3    3  502    0  0.43409524103E+03 -0.33016063573E+03 -0.17366750107E+04  0.18202980049E+04  0.10100000352E+00 0.  1.
       -3    1    3    3    0  502 -0.43409524103E+03  0.33016063573E+03 -0.10601942777E+03  0.55559414408E+03  0.10100000352E+00 0. -1.
</event>
<event>
 5   0  0.3093600E-05  0.1500552E+04  0.7818609E-02  0.8884086E-01
       -2   -1    0    0    0  501  0.00000000000E+00  0.00000000000E+00  0.29431812757E+03  0.29431812758E+03  0.25500000920E-02 0. -1.
        2   -1    0    0  501    0  0.00000000000E+00  0.00000000000E+00 -0.19126032137E+04  0.19126032137E+04  0.25500000920E-02 0.  1.
    10030    2    1    2    0    0  0.00000000000E+00  0.00000000000E+00 -0.16182850861E+04  0.22069213413E+04  0.15005516274E+04 0.  0.
        1    1    3    3  502    0  0.72541010750E+03  0.11865859793E+03 -0.10303122587E+04  0.12656393789E+04  0.50400001928E-02 0.  1.
       -1    1    3    3    0  502 -0.72541010750E+03 -0.11865859793E+03 -0.58797282744E+03  0.94128196241E+03  0.50400001928E-02 0. -1.
</event>
<event>
 5   0  0.1588657E-05  0.1499801E+04  0.7818609E-02  0.8884585E-01
       -1   -1    0    0    0  501  0.00000000000E+00  0.00000000000E+00  0.49122823813E+03  0.49122823815E+03  0.50400001928E-02 0. -1.
        1   -1    0    0  501    0  0.00000000000E+00  0.00000000000E+00 -0.11447848599E+04  0.11447848599E+04  0.50400001928E-02 0.  1.
    10030    2    1    2    0    0  0.00000000000E+00  0.00000000000E+00 -0.65355662172E+03  0.16360130980E+04  0.14998008531E+04 0.  0.
        3    1    3    3  502    0  0.23746596470E+03  0.66628248210E+03 -0.55104483256E+02  0.70947793808E+03  0.10100000352E+00 0.  1.
       -3    1    3    3    0  502 -0.23746596470E+03 -0.66628248210E+03 -0.59845213847E+03  0.92653515993E+03  0.10100000352E+00 0. -1.
</event>
<event>
 5   0  0.3030702E-05  0.1499753E+04  0.7818609E-02  0.8884617E-01
       -2   -1    0    0    0  501  0.00000000000E+00  0.00000000000E+00  0.64944624672E+03  0.64944624672E+03  0.25500000920E-02 0. -1.
        2   -1    0    0  501    0  0.00000000000E+00  0.00000000000E+00 -0.86583782864E+03  0.86583782864E+03  0.25500000920E-02 0.  1.
    10030    2    1    2    0    0  0.00000000000E+00  0.00000000000E+00 -0.21639158192E+03  0.15152840754E+04  0.14997534839E+04 0.  0.
        5    1    3    3  502    0  0.26852524121E+03 -0.61942544786E+03 -0.43791758411E+03  0.80472827159E+03  0.46999998093E+01 0.  1.
       -5    1    3    3    0  502 -0.26852524121E+03  0.61942544786E+03  0.22152600219E+03  0.71055580377E+03  0.46999998093E+01 0. -1.
</event>
<event>
 5   0  0.2969498E-05  0.1500154E+04  0.7818609E-02  0.8884351E-01
        2   -1    0    0  501    0  0.00000000000E+00  0.00000000000E+00  0.40508708770E+03  0.40508708771E+03  0.25500000920E-02 0.  1.
       -2   -1    0    0    0  501  0.00000000000E+00  0.00000000000E+00 -0.13888748263E+04  0.13888748263E+04  0.25500000920E-02 0. -1.
    10030    2    1    2    0    0  0.00000000000E+00  0.00000000000E+00 -0.98378773864E+03  0.17939619141E+04  0.15001536703E+04 0.  0.
        3    1    3    3  502    0 -0.23020464420E+03  0.19961965693E+03  0.32774307389E+03  0.44750164058E+03  0.10100000352E+00 0.  1.
       -3    1    3    3    0  502  0.23020464420E+03 -0.19961965693E+03 -0.13115308125E+04  0.13464602735E+04  0.10100000352E+00 0. -1.
</event>
<event>
 5   0  0.2969498E-05  0.1503413E+04  0.7818609E-02  0.8882186E-01
       -2   -1    0    0    0  501  0.00000000000E+00  0.00000000000E+00  0.38506228830E+03  0.38506228831E+03  0.25500000920E-02 0. -1.
        2   -1    0    0  501    0  0.00000000000E+00  0.00000000000E+00 -0.14674583833E+04  0.14674583833E+04  0.25500000920E-02 0.  1.
    10030    2    1    2    0    0  0.00000000000E+00  0.00000000000E+00 -0.10823960950E+04  0.18525206716E+04  0.15034132939E+04 0.  0.
        3    1    3    3  502    0  0.32261307040E+03 -0.27054937519E+03  0.22613011883E+03  0.47792363244E+03  0.10100000352E+00 0. -1.
       -3    1    3    3    0  502 -0.32261307040E+03  0.27054937519E+03 -0.13085262138E+04  0.13745970392E+04  0.10100000352E+00 0.  1.
</event>
<event>
 5   0  0.1576214E-05  0.1500870E+04  0.7818609E-02  0.8883875E-01
       -1   -1    0    0    0  501  0.00000000000E+00  0.00000000000E+00  0.45566324571E+03  0.45566324574E+03  0.50400001928E-02 0. -1.
        1   -1    0    0  501    0  0.00000000000E+00  0.00000000000E+00 -0.12358965206E+04  0.12358965206E+04  0.50400001928E-02 0.  1.
    10030    2    1    2    0    0  0.00000000000E+00  0.00000000000E+00 -0.78023327485E+03  0.16915597663E+04  0.15008699077E+04 0.  0.
        1    1    3    3  502    0  0.69210637579E+03  0.22119376673E+03 -0.60161465745E+03  0.94333351151E+03  0.50400001928E-02 0.  1.
       -1    1    3    3    0  502 -0.69210637579E+03 -0.22119376673E+03 -0.17861861740E+03  0.74822625479E+03  0.50400001928E-02 0. -1.
</event>
<event>
 5   0  0.1643498E-05  0.1500259E+04  0.7818609E-02  0.8884281E-01
       -1   -1    0    0    0  501  0.00000000000E+00  0.00000000000E+00  0.71664037150E+03  0.71664037152E+03  0.50400001928E-02 0.  1.
        1   -1    0    0  501    0  0.00000000000E+00  0.00000000000E+00 -0.78518340428E+03  0.78518340429E+03  0.50400001928E-02 0. -1.
    10030    2    1    2    0    0  0.00000000000E+00  0.00000000000E+00 -0.68543032775E+02  0.15018237758E+04  0.15002588131E+04 0.  0.
        4    1    3    3  502    0 -0.94543883951E+02 -0.48994445282E+02  0.70903486530E+03  0.71698748579E+03  0.12699999809E+01 0.  1.
       -4    1    3    3    0  502  0.94543883951E+02  0.48994445282E+02 -0.77757789808E+03  0.78483629002E+03  0.12699999809E+01 0. -1.
</event>
<event>
 5   0  0.1576214E-05  0.1500133E+04  0.7818609E-02  0.8884365E-01
        1   -1    0    0  501    0  0.00000000000E+00  0.00000000000E+00  0.10616160882E+04  0.10616160882E+04  0.50400001928E-02 0.  1.
       -1   -1    0    0    0  501  0.00000000000E+00  0.00000000000E+00 -0.52994649447E+03  0.52994649450E+03  0.50400001928E-02 0. -1.
    10030    2    1    2    0    0  0.00000000000E+00  0.00000000000E+00  0.53166959373E+03  0.15915625827E+04  0.15001329600E+04 0.  0.
        1    1    3    3  502    0 -0.13533707809E+03  0.42898858087E+02 -0.51556111900E+03  0.53475200250E+03  0.50400001928E-02 0. -1.
       -1    1    3    3    0  502  0.13533707809E+03 -0.42898858087E+02  0.10472307127E+04  0.10568105802E+04  0.50400001928E-02 0.  1.
</event>
<event>
 5   0  0.1116613E-05  0.1499783E+04  0.7818609E-02  0.8884597E-01
        3   -1    0    0  501    0  0.00000000000E+00  0.00000000000E+00  0.45805584082E+03  0.45805585195E+03  0.10100000352E+00 0.  1.
       -3   -1    0    0    0  501  0.00000000000E+00  0.00000000000E+00 -0.12276609582E+04  0.12276609623E+04  0.10100000352E+00 0. -1.
    10030    2    1    2    0    0  0.00000000000E+00  0.00000000000E+00 -0.76960511736E+03  0.16857168143E+04  0.14997830314E+04 0.  0.
        2    1    3    3  502    0 -0.32414764472E+03 -0.67531065327E+03 -0.42407915194E+03  0.86078992856E+03  0.25500000920E-02 0.  1.
       -2    1    3    3    0  502  0.32414764472E+03  0.67531065327E+03 -0.34552596542E+03  0.82492688572E+03  0.25500000920E-02 0. -1.
</event>
<event>
 5   0  0.1588657E-05  0.1496759E+04  0.7818609E-02  0.8886611E-01
        1   -1    0    0  501    0  0.00000000000E+00  0.00000000000E+00  0.59002737654E+03  0.59002737657E+03  0.50400001928E-02 0. -1.
       -1   -1    0    0    0  501  0.00000000000E+00  0.00000000000E+00 -0.94923032362E+03  0.94923032364E+03  0.50400001928E-02 0.  1.
    10030    2    1    2    0    0  0.00000000000E+00  0.00000000000E+00 -0.35920294708E+03  0.15392577002E+04  0.14967590021E+04 0.  0.
        3    1    3    3  502    0 -0.24801772706E+03 -0.27585913250E+03  0.48882350608E+03  0.61364442816E+03  0.10100000352E+00 0. -1.
       -3    1    3    3    0  502  0.24801772706E+03  0.27585913250E+03 -0.84802645316E+03  0.92561327204E+03  0.10100000352E+00 0.  1.
</event>
<event>
 5   0  0.1643498E-05  0.1499637E+04  0.7818609E-02  0.8884695E-01
       -1   -1    0    0    0  501  0.00000000000E+00  0.00000000000E+00  0.67874949537E+03  0.67874949538E+03  0.50400001928E-02 0. -1.
        1   -1    0    0  501    0  0.00000000000E+00  0.00000000000E+00 -0.82832831270E+03  0.82832831272E+03  0.50400001928E-02 0.  1.
    10030    2    1    2    0    0  0.00000000000E+00  0.00000000000E+00 -0.14957881734E+03  0.15070778081E+04  0.14996365217E+04 0.  0.
        4    1    3    3  502    0 -0.91258157946E+02 -0.89015129405E+02 -0.81735645742E+03  0.82723934629E+03  0.12699999809E+01 0.  1.
       -4    1    3    3    0  502  0.91258157946E+02  0.89015129405E+02  0.66777764009E+03  0.67983846181E+03  0.12699999809E+01 0. -1.
</event>
<event>
 5   0  0.1580078E-05  0.1500100E+04  0.7818609E-02  0.8884387E-01
        1   -1    0    0  501    0  0.00000000000E+00  0.00000000000E+00  0.12222801581E+04  0.12222801582E+04  0.50400001928E-02 0.  1.
       -1   -1    0    0    0  501  0.00000000000E+00  0.00000000000E+00 -0.46026665928E+03  0.46026665931E+03  0.50400001928E-02 0. -1.
    10030    2    1    2    0    0  0.00000000000E+00  0.00000000000E+00  0.76201349886E+03  0.16825468175E+04  0.15000997369E+04 0.  0.
        2    1    3    3  502    0  0.64242317582E+03 -0.15785648910E+03 -0.15465426959E+02  0.66171397704E+03  0.25500000920E-02 0. -1.
       -2    1    3    3    0  502 -0.64242317582E+03  0.15785648910E+03  0.77747892582E+03  0.10208328404E+04  0.25500000920E-02 0.  1.
</event>
<event>
 5   0  0.3018308E-05  0.1499637E+04  0.7818609E-02  0.8884694E-01
       -2   -1    0    0    0  501  0.00000000000E+00  0.00000000000E+00  0.29279356567E+03  0.29279356568E+03  0.25500000920E-02 0.  1.
        2   -1    0    0  501    0  0.00000000000E+00  0.00000000000E+00 -0.19202201248E+04  0.19202201248E+04  0.25500000920E-02 0. -1.
    10030    2    1    2    0    0  0.00000000000E+00  0.00000000000E+00 -0.16274265592E+04  0.22130136905E+04  0.14996374192E+04 0.  0.
        2    1    3    3  502    0  0.77677628352E+02  0.67134151318E+03 -0.33440660815E+03  0.75402985408E+03  0.25500000920E-02 0.  1.
       -2    1    3    3    0  502 -0.77677628352E+02 -0.67134151318E+03 -0.12930199510E+04  0.14589838364E+04  0.25500000920E-02 0. -1.
</event>
<event>
 5   0  0.1533777E-05  0.1499955E+04  0.7818609E-02  0.8884483E-01
       -1   -1    0    0    0  501  0.00000000000E+00  0.00000000000E+00  0.52387165955E+03  0.52387165957E+03  0.50400001928E-02 0. -1.
        1   -1    0    0  501    0  0.00000000000E+00  0.00000000000E+00 -0.10736714251E+04  0.10736714251E+04  0.50400001928E-02 0.  1.
    10030    2    1    2    0    0  0.00000000000E+00  0.00000000000E+00 -0.54979976559E+03  0.15975430847E+04  0.14999547078E+04 0.  0.
        5    1    3    3  502    0  0.37368399151E+03  0.63624636428E+03 -0.13202769274E+03  0.74960160300E+03  0.46999998093E+01 0.  1.
       -5    1    3    3    0  502 -0.37368399151E+03 -0.63624636428E+03 -0.41777207285E+03  0.84794148172E+03  0.46999998093E+01 0. -1.
</event>
<event>
 5   0  0.1588657E-05  0.1500059E+04  0.7818609E-02  0.8884414E-01
       -1   -1    0    0    0  501  0.00000000000E+00  0.00000000000E+00  0.33033401151E+03  0.33033401155E+03  0.50400001928E-02 0.  1.
        1   -1    0    0  501    0  0.00000000000E+00  0.00000000000E+00 -0.17029549815E+04  0.17029549815E+04  0.50400001928E-02 0. -1.
    10030    2    1    2    0    0  0.00000000000E+00  0.00000000000E+00 -0.13726209700E+04  0.20332889930E+04  0.15000585995E+04 0.  0.
        3    1    3    3  502    0  0.31280718013E+03  0.17797902937E+03  0.20564750020E+03  0.41450666024E+03  0.10100000352E+00 0.  1.
       -3    1    3    3    0  502 -0.31280718013E+03 -0.17797902937E+03 -0.15782684702E+04  0.16187823328E+04  0.10100000352E+00 0. -1.
</event>
<event>
 5   0  0.3018308E-05  0.1501591E+04  0.7818609E-02  0.8883395E-01
       -2   -1    0    0    0  501  0.00000000000E+00  0.00000000000E+00  0.34294362002E+03  0.34294362003E+03  0.25500000920E-02 0. -1.
        2   -1    0    0  501    0  0.00000000000E+00  0.00000000000E+00 -0.16436933041E+04  0.16436933041E+04  0.25500000920E-02 0.  1.
    10030    2    1    2    0    0  0.00000000000E+00  0.00000000000E+00 -0.13007496840E+04  0.19866369241E+04  0.15015913318E+04 0.  0.
        2    1    3    3  502    0  0.16278532955E+03  0.61296546600E+03 -0.11874355782E+03  0.64523310405E+03  0.25500000920E-02 0. -1.
       -2    1    3    3    0  502 -0.16278532955E+03 -0.61296546600E+03 -0.11820061262E+04  0.13414038201E+04  0.25500000920E-02 0.  1.
</event>
<event>
 5   0  0.1580078E-05  0.1500189E+04  0.7818609E-02  0.8884327E-01
        1   -1    0    0  501    0  0.00000000000E+00  0.00000000000E+00  0.13270000317E+04  0.13270000317E+04  0.50400001928E-02 0.  1.
       -1   -1    0    0    0  501  0.00000000000E+00  0.00000000000E+00 -0.42399540154E+03  0.42399540157E+03  0.50400001928E-02 0. -1.
    10030    2    1    2    0    0  0.00000000000E+00  0.00000000000E+00  0.90300463013E+03  0.17509954333E+04  0.15001892031E+04 0.  0.
        2    1    3    3  502    0 -0.58187721826E+03 -0.47189678940E+03  0.49477056941E+03  0.89781155781E+03  0.25500000920E-02 0.  1.
       -2    1    3    3    0  502  0.58187721826E+03  0.47189678940E+03  0.40823406072E+03  0.85318387544E+03  0.25500000920E-02 0. -1.
</event>
<event>
 5   0  0.1533777E-05  0.1499688E+04  0.7818609E-02  0.8884661E-01
       -1   -1    0    0    0  501  0.00000000000E+00  0.00000000000E+00  0.57980256060E+03  0.57980256062E+03  0.50400001928E-02 0.  1.
        1   -1    0    0  501    0  0.00000000000E+00  0.00000000000E+00 -0.96975379663E+03  0.96975379664E+03  0.50400001928E-02 0. -1.
    10030    2    1    2    0    0  0.00000000000E+00  0.00000000000E+00 -0.38995123603E+03  0.15495563573E+04  0.14996876134E+04 0.  0.
        5    1    3    3  502    0 -0.38047138873E+03  0.57662183103E+03 -0.49620456030E+03  0.85058348756E+03  0.46999998093E+01 0.  1.
       -5    1    3    3    0  502  0.38047138873E+03 -0.57662183103E+03  0.10625332427E+03  0.69897286970E+03  0.46999998093E+01 0. -1.
</event>
<event>
 5   0  0.3093600E-05  0.1499086E+04  0.7818609E-02  0.8885061E-01
        2   -1    0    0  501    0  0.00000000000E+00  0.00000000000E+00  0.71992109279E+03  0.71992109279E+03  0.25500000920E-02 0. -1.
       -2   -1    0    0    0  501  0.00000000000E+00  0.00000000000E+00 -0.78038359750E+03  0.78038359750E+03  0.25500000920E-02 0.  1.
    10030    2    1    2    0    0  0.00000000000E+00  0.00000000000E+00 -0.60462504708E+02  0.15003046903E+04  0.14990858712E+04 0.  0.
        1    1    3    3  502    0 -0.38998667072E+03 -0.62848251208E+03 -0.15171668610E+03  0.75504822640E+03  0.50400001928E-02 0.  1.
       -1    1    3    3    0  502  0.38998667072E+03  0.62848251208E+03  0.91254181395E+02  0.74525646389E+03  0.50400001928E-02 0. -1.
</event>
<event>
 5   0  0.3018308E-05  0.1500123E+04  0.7818609E-02  0.8884371E-01
        2   -1    0    0  501    0  0.00000000000E+00  0.00000000000E+00  0.60891576300E+03  0.60891576301E+03  0.25500000920E-02 0.  1.
       -2   -1    0    0    0  501  0.00000000000E+00  0.00000000000E+00 -0.92392430216E+03  0.92392430217E+03  0.25500000920E-02 0. -1.
    10030    2    1    2    0    0  0.00000000000E+00  0.00000000000E+00 -0.31500853916E+03  0.15328400652E+04  0.15001227569E+04 0.  0.
        2    1    3    3  502    0  0.41202533821E+02  0.19045825183E+03  0.58259929762E+03  0.61432396671E+03  0.25500000920E-02 0.  1.
       -2    1    3    3    0  502 -0.41202533821E+02 -0.19045825183E+03 -0.89760783678E+03  0.91851609846E+03  0.25500000920E-02 0. -1.
</event>
<event>
 5   0  0.3070497E-05  0.1499843E+04  0.7818609E-02  0.8884557E-01
        2   -1    0    0  501    0  0.00000000000E+00  0.00000000000E+00  0.20513112941E+04  0.20513112941E+04  0.25500000920E-02 0.  1.
       -2   -1    0    0    0  501  0.00000000000E+00  0.00000000000E+00 -0.27415737103E+03  0.27415737105E+03  0.25500000920E-02 0. -1.
    10030    2    1    2    0    0  0.00000000000E+00  0.00000000000E+00  0.17771539231E+04  0.23254686652E+04  0.14998428072E+04 0.  0.
        4    1    3    3  502    0 -0.53219922241E+03 -0.15849952104E+03  0.16700261502E+04  0.17599281422E+04  0.12699999809E+01 0.  1.
       -4    1    3    3    0  502  0.53219922241E+03  0.15849952104E+03  0.10712777292E+03  0.56554052299E+03  0.12699999809E+01 0. -1.
</event>
<event>
 5   0  0.3030702E-05  0.1500041E+04  0.7818609E-02  0.8884425E-01
       -2   -1    0    0    0  501  0.00000000000E+00  0.00000000000E+00  0.36264695832E+03  0.36264695833E+03  0.25500000920E-02 0. -1.
        2   -1    0    0  501    0  0.00000000000E+00  0.00000000000E+00 -0.15511810747E+04  0.15511810747E+04  0.25500000920E-02 0.  1.
    10030    2    1    2    0    0  0.00000000000E+00  0.00000000000E+00 -0.11885341163E+04  0.19138280330E+04  0.15000414641E+04 0.  0.
        5    1    3    3  502    0 -0.38090970127E+02  0.42172773014E+03  0.19552826161E+03  0.46643176506E+03  0.46999998093E+01 0. -1.
       -5    1    3    3    0  502  0.38090970127E+02 -0.42172773014E+03 -0.13840623779E+04  0.14473962679E+04  0.46999998093E+01 0.  1.
</event>
<event>
 5   0  0.3070497E-05  0.1499709E+04  0.7818609E-02  0.8884646E-01
       -2   -1    0    0    0  501  0.00000000000E+00  0.00000000000E+00  0.81226650396E+03  0.81226650396E+03  0.25500000920E-02 0.  1.
        2   -1    0    0  501    0  0.00000000000E+00  0.00000000000E+00 -0.69223816102E+03  0.69223816102E+03  0.25500000920E-02 0. -1.
    10030    2    1    2    0    0  0.00000000000E+00  0.00000000000E+00  0.12002834294E+03  0.15045046650E+04  0.14997091331E+04 0.  0.
        4    1    3    3  502    0 -0.53541435027E+03 -0.27880654930E+03  0.50627211569E+03  0.78785448303E+03  0.12699999809E+01 0.  1.
       -4    1    3    3    0  502  0.53541435027E+03  0.27880654930E+03 -0.38624377275E+03  0.71665018195E+03  0.12699999809E+01 0. -1.
</event>
<event>
 5   0  0.3093600E-05  0.1496047E+04  0.7818609E-02  0.8887086E-01
        2   -1    0    0  501    0  0.00000000000E+00  0.00000000000E+00  0.10100312508E+04  0.10100312508E+04  0.25500000920E-02 0. -1.
       -2   -1    0    0    0  501  0.00000000000E+00  0.00000000000E+00 -0.55398214185E+03  0.55398214186E+03  0.25500000920E-02 0.  1.
    10030    2    1    2    0    0  0.00000000000E+00  0.00000000000E+00  0.45604910896E+03  0.15640133927E+04  0.14960471592E+04 0.  0.
        1    1    3    3  502    0  0.81351755779E+02  0.74263522310E+03  0.26733737046E+03  0.79346988123E+03  0.50400001928E-02 0. -1.
       -1    1    3    3    0  502 -0.81351755779E+02 -0.74263522310E+03  0.18871173850E+03  0.77054351144E+03  0.50400001928E-02 0.  1.
</event>
<event>
 5   0  0.1580078E-05  0.1500065E+04  0.7818609E-02  0.8884410E-01
        1   -1    0    0  501    0  0.00000000000E+00  0.00000000000E+00  0.65588678856E+03  0.65588678858E+03  0.50400001928E-02 0. -1.
       -1   -1    0    0    0  501  0.00000000000E+00  0.00000000000E+00 -0.85769167370E+03  0.85769167371E+03  0.50400001928E-02 0.  1.
    10030    2    1    2    0    0  0.00000000000E+00  0.00000000000E+00 -0.20180488513E+03  0.15135784623E+04  0.15000648486E+04 0.  0.
        2    1    3    3  502    0 -0.65647161164E+03  0.24811025231E+03  0.16612282421E+03  0.72118684605E+03  0.25500000920E-02 0. -1.
       -2    1    3    3    0  502  0.65647161164E+03 -0.24811025231E+03 -0.36792770934E+03  0.79239161625E+03  0.25500000920E-02 0.  1.
</event>
<event>
 5   0  0.3018308E-05  0.1499631E+04  0.7818609E-02  0.8884698E-01
       -2   -1    0    0    0  501  0.00000000000E+00  0.00000000000E+00  0.69847651825E+03  0.69847651825E+03  0.25500000920E-02 0.  1.
        2   -1    0    0  501    0  0.00000000000E+00  0.00000000000E+00 -0.80492814834E+03  0.80492814834E+03  0.25500000920E-02 0. -1.
    10030    2    1    2    0    0  0.00000000000E+00  0.00000000000E+00 -0.10645163009E+03  0.15034046666E+04  0.14996311687E+04 0.  0.
        2    1    3    3  502    0  0.20335350389E+03 -0.72168926575E+03 -0.59187766495E+02  0.75212448142E+03  0.25500000920E-02 0. -1.
       -2    1    3    3    0  502 -0.20335350389E+03  0.72168926575E+03 -0.47263863591E+02  0.75128018518E+03  0.25500000920E-02 0.  1.
</event>
<event>
 5   0  0.2969498E-05  0.1499737E+04  0.7818609E-02  0.8884628E-01
        2   -1    0    0  501    0  0.00000000000E+00  0.00000000000E+00  0.11724244056E+04  0.11724244056E+04  0.25500000920E-02 0.  1.
       -2   -1    0    0    0  501  0.00000000000E+00  0.00000000000E+00 -0.47960668582E+03  0.47960668582E+03  0.25500000920E-02 0. -1.
    10030    2    1    2    0    0  0.00000000000E+00  0.00000000000E+00  0.69281771974E+03  0.16520310914E+04  0.14997367549E+04 0.  0.
        3    1    3    3  502    0 -0.35648636314E+03  0.20865914652E+03  0.10358062888E+04  0.11151304160E+04  0.10100000352E+00 0.  1.
       -3    1    3    3    0  502  0.35648636314E+03 -0.20865914652E+03 -0.34298856906E+03  0.53690067540E+03  0.10100000352E+00 0. -1.
</event>
<event>
 5   0  0.1116613E-05  0.1499208E+04  0.7818609E-02  0.8884979E-01
       -4   -1    0    0    0  501  0.00000000000E+00  0.00000000000E+00  0.73388339903E+03  0.73388449791E+03  0.12699999809E+01 0. -1.
        4   -1    0    0  501    0  0.00000000000E+00  0.00000000000E+00 -0.76565965359E+03  0.76566070686E+03  0.12699999809E+01 0.  1.
    10030    2    1    2    0    0  0.00000000000E+00  0.00000000000E+00 -0.31776254551E+02  0.14995452048E+04  0.14992084881E+04 0.  0.
        4    1    3    3  502    0  0.18955330609E+03 -0.13289550767E+02 -0.74117017780E+03  0.76514176031E+03  0.12699999809E+01 0.  1.
       -4    1    3    3    0  502 -0.18955330609E+03  0.13289550767E+02  0.70939392324E+03  0.73440344447E+03  0.12699999809E+01 0. -1.
</event>
<event>
 5   0  0.3093600E-05  0.1498966E+04  0.7818609E-02  0.8885141E-01
        2   -1    0    0  501    0  0.00000000000E+00  0.00000000000E+00  0.12802414815E+04  0.12802414815E+04  0.25500000920E-02 0.  1.
       -2   -1    0    0    0  501  0.00000000000E+00  0.00000000000E+00 -0.43876454981E+03  0.43876454982E+03  0.25500000920E-02 0. -1.
    10030    2    1    2    0    0  0.00000000000E+00  0.00000000000E+00  0.84147693166E+03  0.17190060313E+04  0.14989657465E+04 0.  0.
        1    1    3    3  502    0 -0.33836485592E+03 -0.61758002302E+03  0.12650410658E+03  0.71547127794E+03  0.50400001928E-02 0. -1.
       -1    1    3    3    0  502  0.33836485592E+03  0.61758002302E+03  0.71497282509E+03  0.10035347534E+04  0.50400001928E-02 0.  1.
</event>
<event>
 5   0  0.1576214E-05  0.1499402E+04  0.7818609E-02  0.8884851E-01
        1   -1    0    0  501    0  0.00000000000E+00  0.00000000000E+00  0.91481238005E+03  0.91481238006E+03  0.50400001928E-02 0.  1.
       -1   -1    0    0    0  501  0.00000000000E+00  0.00000000000E+00 -0.61438987932E+03  0.61438987934E+03  0.50400001928E-02 0. -1.
    10030    2    1    2    0    0  0.00000000000E+00  0.00000000000E+00  0.30042250072E+03  0.15292022594E+04  0.14994018378E+04 0.  0.
        1    1    3    3  502    0 -0.14836200484E+03  0.69126611611E+03  0.40454960033E+03  0.81456768099E+03  0.50400001928E-02 0.  1.
       -1    1    3    3    0  502  0.14836200484E+03 -0.69126611611E+03 -0.10412709960E+03  0.71463457841E+03  0.50400001928E-02 0. -1.
</event>
<event>
 5   0  0.3018308E-05  0.1500162E+04  0.7818609E-02  0.8884345E-01
       -2   -1    0    0    0  501  0.00000000000E+00  0.00000000000E+00  0.34974898127E+03  0.34974898128E+03  0.25500000920E-02 0. -1.
        2   -1    0    0  501    0  0.00000000000E+00  0.00000000000E+00 -0.16086443070E+04  0.16086443070E+04  0.25500000920E-02 0.  1.
    10030    2    1    2    0    0  0.00000000000E+00  0.00000000000E+00 -0.12588953257E+04  0.19583932882E+04  0.15001622680E+04 0.  0.
        2    1    3    3  502    0  0.43242234361E+02 -0.26926503968E+03  0.28273534857E+03  0.39282671722E+03  0.25500000920E-02 0. -1.
       -2    1    3    3    0  502 -0.43242234361E+02  0.26926503968E+03 -0.15416306743E+04  0.15655665710E+04  0.25500000920E-02 0.  1.
</event>
<event>
 5   0  0.1533777E-05  0.1499037E+04  0.7818609E-02  0.8885094E-01
       -1   -1    0    0    0  501  0.00000000000E+00  0.00000000000E+00  0.95654523306E+03  0.95654523308E+03  0.50400001928E-02 0. -1.
        1   -1    0    0  501    0  0.00000000000E+00  0.00000000000E+00 -0.58729866515E+03  0.58729866517E+03  0.50400001928E-02 0.  1.
    10030    2    1    2    0    0  0.00000000000E+00  0.00000000000E+00  0.36924656791E+03  0.15438438983E+04  0.14990366754E+04 0.  0.
        5    1    3    3  502    0 -0.11147112531E+03 -0.42031804032E+03 -0.44408476652E+03  0.62155163635E+03  0.46999998093E+01 0.  1.
       -5    1    3    3    0  502  0.11147112531E+03  0.42031804032E+03  0.81333133443E+03  0.92229226190E+03  0.46999998093E+01 0. -1.
</event>
<event>
 5   0  0.3030702E-05  0.1496717E+04  0.7818609E-02  0.8886639E-01
       -2   -1    0    0    0  501  0.00000000000E+00  0.00000000000E+00  0.17563979226E+04  0.17563979226E+04  0.25500000920E-02 0. -1.
        2   -1    0    0  501    0  0.00000000000E+00  0.00000000000E+00 -0.31885732796E+03  0.31885732797E+03  0.25500000920E-02 0.  1.
    10030    2    1    2    0    0  0.00000000000E+00  0.00000000000E+00  0.14375405947E+04  0.20752552506E+04  0.14967168716E+04 0.  0.
        5    1    3    3  502    0  0.29934812579E+03 -0.41985454623E+03 -0.33202887421E+02  0.51673171196E+03  0.46999998093E+01 0.  1.
       -5    1    3    3    0  502 -0.29934812579E+03  0.41985454623E+03  0.14707434821E+04  0.15585235386E+04  0.46999998093E+01 0. -1.
</event>
<event>
 5   0  0.1643498E-05  0.1490013E+04  0.7818609E-02  0.8891121E-01
       -1   -1    0    0    0  501  0.00000000000E+00  0.00000000000E+00  0.92302884537E+03  0.92302884539E+03  0.50400001928E-02 0. -1.
        1   -1    0    0  501    0  0.00000000000E+00  0.00000000000E+00 -0.60131902876E+03  0.60131902878E+03  0.50400001928E-02 0.  1.
    10030    2    1    2    0    0  0.00000000000E+00  0.00000000000E+00  0.32170981662E+03  0.15243478742E+04  0.14900131662E+04 0.  0.
        4    1    3    3  502    0 -0.23256985660E+03  0.60909397557E+03 -0.20793619200E+03  0.68434149525E+03  0.12699999809E+01 0.  1.
       -4    1    3    3    0  502  0.23256985660E+03 -0.60909397557E+03  0.52964600862E+03  0.84000637892E+03  0.12699999809E+01 0. -1.
</event>
<event>
 5   0  0.3070497E-05  0.1500597E+04  0.7818609E-02  0.8884056E-01
       -2   -1    0    0    0  501  0.00000000000E+00  0.00000000000E+00  0.58133287638E+03  0.58133287639E+03  0.25500000920E-02 0. -1.
        2   -1    0    0  501    0  0.00000000000E+00  0.00000000000E+00 -0.96837392908E+03  0.96837392908E+03  0.25500000920E-02 0.  1.
    10030    2    1    2    0    0  0.00000000000E+00  0.00000000000E+00 -0.38704105270E+03  0.15497068055E+04  0.15005966835E+04 0.  0.
        4    1    3    3  502    0  0.40576989419E+03  0.52686740242E+02  0.45596618634E+03  0.61264335107E+03  0.12699999809E+01 0. -1.
       -4    1    3    3    0  502 -0.40576989419E+03 -0.52686740242E+02 -0.84300723903E+03  0.93706345441E+03  0.12699999809E+01 0.  1.
</event>
<event>
 5   0  0.1576214E-05  0.1496344E+04  0.7818609E-02  0.8886888E-01
       -1   -1    0    0    0  501  0.00000000000E+00  0.00000000000E+00  0.30279950260E+03  0.30279950264E+03  0.50400001928E-02 0. -1.
        1   -1    0    0  501    0  0.00000000000E+00  0.00000000000E+00 -0.18486203111E+04  0.18486203111E+04  0.50400001928E-02 0.  1.
    10030    2    1    2    0    0  0.00000000000E+00  0.00000000000E+00 -0.15458208085E+04  0.21514198138E+04  0.14963439588E+04 0.  0.
        1    1    3    3  502    0  0.14841673463E+03 -0.33226128096E+03 -0.17128037695E+04  0.17510345053E+04  0.50400001928E-02 0.  1.
       -1    1    3    3    0  502 -0.14841673463E+03  0.33226128096E+03  0.16698296098E+03  0.40038530846E+03  0.50400001928E-02 0. -1.
</event>
<event>
 5   0  0.3093600E-05  0.1492938E+04  0.7818609E-02  0.8889162E-01
       -2   -1    0    0    0  501  0.00000000000E+00  0.00000000000E+00  0.49798618595E+03  0.49798618596E+03  0.25500000920E-02 0. -1.
        2   -1    0    0  501    0  0.00000000000E+00  0.00000000000E+00 -0.11189390933E+04  0.11189390933E+04  0.25500000920E-02 0.  1.
    10030    2    1    2    0    0  0.00000000000E+00  0.00000000000E+00 -0.62095290737E+03  0.16169252793E+04  0.14929383261E+04 0.  0.
        1    1    3    3  502    0 -0.21270757018E+03  0.18810662704E+03 -0.10581628035E+04  0.10955989833E+04  0.50400001928E-02 0.  1.
       -1    1    3    3    0  502  0.21270757018E+03 -0.18810662704E+03  0.43720989613E+03  0.52132629595E+03  0.50400001928E-02 0. -1.
</event>
<event>
 5   0  0.1643498E-05  0.1500465E+04  0.7818609E-02  0.8884144E-01
        1   -1    0    0  501    0  0.00000000000E+00  0.00000000000E+00  0.82220429428E+03  0.82220429429E+03  0.50400001928E-02 0.  1.
       -1   -1    0    0    0  501  0.00000000000E+00  0.00000000000E+00 -0.68456041205E+03  0.68456041207E+03  0.50400001928E-02 0. -1.
    10030    2    1    2    0    0  0.00000000000E+00  0.00000000000E+00  0.13764388222E+03  0.15067647064E+04  0.15004646087E+04 0.  0.
        4    1    3    3  502    0  0.17629112503E+03  0.69609712508E+03  0.28702934001E+03  0.77331573322E+03  0.12699999809E+01 0.  1.
       -4    1    3    3    0  502 -0.17629112503E+03 -0.69609712508E+03 -0.14938545779E+03  0.73344897315E+03  0.12699999809E+01 0. -1.
</event>
<event>
 5   0  0.1116613E-05  0.1501705E+04  0.7818609E-02  0.8883320E-01
       -3   -1    0    0    0  501  0.00000000000E+00  0.00000000000E+00  0.10023018476E+04  0.10023018527E+04  0.10100000352E+00 0. -1.
        3   -1    0    0  501    0  0.00000000000E+00  0.00000000000E+00 -0.56248447792E+03  0.56248448699E+03  0.10100000352E+00 0.  1.
    10030    2    1    2    0    0  0.00000000000E+00  0.00000000000E+00  0.43981736967E+03  0.15647863397E+04  0.15017046881E+04 0.  0.
        5    1    3    3  502    0  0.25523776310E+03  0.58801875970E+03 -0.18746766093E+03  0.66789115233E+03  0.46999998093E+01 0.  1.
       -5    1    3    3    0  502 -0.25523776310E+03 -0.58801875970E+03  0.62728503061E+03  0.89689518735E+03  0.46999998093E+01 0. -1.
</event>
<event>
 5   0  0.2969498E-05  0.1500636E+04  0.7818609E-02  0.8884030E-01
        2   -1    0    0  501    0  0.00000000000E+00  0.00000000000E+00  0.17624778718E+04  0.17624778718E+04  0.25500000920E-02 0. -1.
       -2   -1    0    0    0  501  0.00000000000E+00  0.00000000000E+00 -0.31942366388E+03  0.31942366389E+03  0.25500000920E-02 0.  1.
    10030    2    1    2    0    0  0.00000000000E+00  0.00000000000E+00  0.14430542079E+04  0.20819015357E+04  0.15006360509E+04 0.  0.
        3    1    3    3  502    0 -0.59789082878E+03  0.45299651983E+03  0.69758426758E+03  0.10243549730E+04  0.10100000352E+00 0.  1.
       -3    1    3    3    0  502  0.59789082878E+03 -0.45299651983E+03  0.74546994030E+03  0.10575465627E+04  0.10100000352E+00 0. -1.
</event>
<event>
 5   0  0.1588657E-05  0.1500603E+04  0.7818609E-02  0.8884052E-01
       -1   -1    0    0    0  501  0.00000000000E+00  0.00000000000E+00  0.51172882617E+03  0.51172882620E+03  0.50400001928E-02 0.  1.
        1   -1    0    0  501    0  0.00000000000E+00  0.00000000000E+00 -0.11000993930E+04  0.11000993930E+04  0.50400001928E-02 0. -1.
    10030    2    1    2    0    0  0.00000000000E+00  0.00000000000E+00 -0.58837056685E+03  0.16118282192E+04  0.15006033068E+04 0.  0.
        3    1    3    3  502    0  0.20317163186E+03 -0.69480925667E+03 -0.50607285828E+03  0.88326007678E+03  0.10100000352E+00 0. -1.
       -3    1    3    3    0  502 -0.20317163186E+03  0.69480925667E+03 -0.82297708574E+02  0.72856814245E+03  0.10100000352E+00 0.  1.
</event>
<event>
 5   0  0.3093600E-05  0.1499884E+04  0.7818609E-02  0.8884530E-01
        2   -1    0    0  501    0  0.00000000000E+00  0.00000000000E+00  0.14595646089E+04  0.14595646089E+04  0.25500000920E-02 0. -1.
       -2   -1    0    0    0  501  0.00000000000E+00  0.00000000000E+00 -0.38532912116E+03  0.38532912117E+03  0.25500000920E-02 0.  1.
    10030    2    1    2    0    0  0.00000000000E+00  0.00000000000E+00  0.10742354877E+04  0.18448937301E+04  0.14998836595E+04 0.  0.
        1    1    3    3  502    0 -0.53482971626E+03 -0.51293971043E+03  0.67877244747E+03  0.10049288569E+04  0.50400001928E-02 0.  1.
       -1    1    3    3    0  502  0.53482971626E+03  0.51293971043E+03  0.39546304026E+03  0.83996487318E+03  0.50400001928E-02 0. -1.
</event>
<event>
 5   0  0.1643498E-05  0.1499779E+04  0.7818609E-02  0.8884600E-01
       -1   -1    0    0    0  501  0.00000000000E+00  0.00000000000E+00  0.60261955161E+03  0.60261955163E+03  0.50400001928E-02 0. -1.
        1   -1    0    0  501    0  0.00000000000E+00  0.00000000000E+00 -0.93314937192E+03  0.93314937193E+03  0.50400001928E-02 0.  1.
    10030    2    1    2    0    0  0.00000000000E+00  0.00000000000E+00 -0.33052982031E+03  0.15357689236E+04  0.14997787252E+04 0.  0.
        4    1    3    3  502    0 -0.33583522413E+03  0.65357209775E+03 -0.31849078852E+03  0.80086189821E+03  0.12699999809E+01 0. -1.
       -4    1    3    3    0  502  0.33583522413E+03 -0.65357209775E+03 -0.12039031780E+02  0.73490702535E+03  0.12699999809E+01 0.  1.
</event>
<event>
 5   0  0.2969498E-05  0.1500191E+04  0.7818609E-02  0.8884326E-01
        2   -1    0    0  501    0  0.00000000000E+00  0.00000000000E+00  0.93679339339E+03  0.93679339339E+03  0.25500000920E-02 0. -1.
       -2   -1    0    0    0  501  0.00000000000E+00  0.00000000000E+00 -0.60060542288E+03  0.60060542289E+03  0.25500000920E-02 0.  1.
    10030    2    1    2    0    0  0.00000000000E+00  0.00000000000E+00  0.33618797051E+03  0.15373988163E+04  0.15001909108E+04 0.  0.
        3    1    3    3  502    0 -0.66496363268E+03  0.27536852305E+03  0.38461293246E+03  0.81604630646E+03  0.10100000352E+00 0. -1.
       -3    1    3    3    0  502  0.66496363268E+03 -0.27536852305E+03 -0.48424961952E+02  0.72135250982E+03  0.10100000352E+00 0.  1.
</event>
<event>
 5   0  0.1643498E-05  0.1499934E+04  0.7818609E-02  0.8884497E-01
       -1   -1    0    0    0  501  0.00000000000E+00  0.00000000000E+00  0.13098961958E+04  0.13098961958E+04  0.50400001928E-02 0.  1.
        1   -1    0    0  501    0  0.00000000000E+00  0.00000000000E+00 -0.42938560317E+03  0.42938560320E+03  0.50400001928E-02 0. -1.
    10030    2    1    2    0    0  0.00000000000E+00  0.00000000000E+00  0.88051059262E+03  0.17392817990E+04  0.14999340894E+04 0.  0.
        4    1    3    3  502    0  0.47268980417E+03 -0.55715017961E+03  0.63634639284E+03  0.96891192489E+03  0.12699999809E+01 0.  1.
       -4    1    3    3    0  502 -0.47268980417E+03  0.55715017961E+03  0.24416419978E+03  0.77036987412E+03  0.12699999809E+01 0. -1.
</event>
<event>
 5   0  0.1116613E-05  0.1499875E+04  0.7818609E-02  0.8884536E-01
       -3   -1    0    0    0  501  0.00000000000E+00  0.00000000000E+00  0.45019998600E+03  0.45019999733E+03  0.10100000352E+00 0.  1.
        3   -1    0    0  501    0  0.00000000000E+00  0.00000000000E+00 -0.12492367529E+04  0.12492367570E+04  0.10100000352E+00 0. -1.
    10030    2    1    2    0    0  0.00000000000E+00  0.00000000000E+00 -0.79903676689E+03  0.16994367543E+04  0.14998751705E+04 0.  0.
        2    1    3    3  502    0 -0.52088681396E+03 -0.47719638019E+03 -0.11429757781E+03  0.71561399827E+03  0.25500000920E-02 0.  1.
       -2    1    3    3    0  502  0.52088681396E+03  0.47719638019E+03 -0.68473918909E+03  0.98382275604E+03  0.25500000920E-02 0. -1.
</event>
<event>
 5   0  0.1643498E-05  0.1499355E+04  0.7818609E-02  0.8884882E-01
       -1   -1    0    0    0  501  0.00000000000E+00  0.00000000000E+00  0.83482003894E+03  0.83482003895E+03  0.50400001928E-02 0. -1.
        1   -1    0    0  501    0  0.00000000000E+00  0.00000000000E+00 -0.67321836414E+03  0.67321836416E+03  0.50400001928E-02 0.  1.
    10030    2    1    2    0    0  0.00000000000E+00  0.00000000000E+00  0.16160167480E+03  0.15080384031E+04  0.14993547692E+04 0.  0.
        4    1    3    3  502    0  0.51293737261E+03 -0.13754600820E+03  0.61300708214E+03  0.81105052139E+03  0.12699999809E+01 0. -1.
       -4    1    3    3    0  502 -0.51293737261E+03  0.13754600820E+03 -0.45140540734E+03  0.69698788172E+03  0.12699999809E+01 0.  1.
</event>
<event>
 5   0  0.1533777E-05  0.1500796E+04  0.7818609E-02  0.8883924E-01
       -1   -1    0    0    0  501  0.00000000000E+00  0.00000000000E+00  0.42625016949E+03  0.42625016952E+03  0.50400001928E-02 0.  1.
        1   -1    0    0  501    0  0.00000000000E+00  0.00000000000E+00 -0.13210483529E+04  0.13210483529E+04  0.50400001928E-02 0. -1.
    10030    2    1    2    0    0  0.00000000000E+00  0.00000000000E+00 -0.89479818339E+03  0.17472985224E+04  0.15007959013E+04 0.  0.
        5    1    3    3  502    0  0.63650768775E+03  0.19365054480E+03 -0.85143241810E+03  0.10805562561E+04  0.46999998093E+01 0. -1.
       -5    1    3    3    0  502 -0.63650768775E+03 -0.19365054480E+03 -0.43365765296E+02  0.66674226629E+03  0.46999998093E+01 0.  1.
</event>
<event>
 5   0  0.3018308E-05  0.1501733E+04  0.7818609E-02  0.8883301E-01
        2   -1    0    0  501    0  0.00000000000E+00  0.00000000000E+00  0.73035559759E+03  0.73035559760E+03  0.25500000920E-02 0. -1.
       -2   -1    0    0    0  501  0.00000000000E+00  0.00000000000E+00 -0.77195381861E+03  0.77195381861E+03  0.25500000920E-02 0.  1.
    10030    2    1    2    0    0  0.00000000000E+00  0.00000000000E+00 -0.41598221017E+02  0.15023094162E+04  0.15017333885E+04 0.  0.
        2    1    3    3  502    0 -0.56006153933E+03  0.43111242555E+03 -0.27441941420E+03  0.75817733163E+03  0.25500000920E-02 0. -1.
       -2    1    3    3    0  502  0.56006153933E+03 -0.43111242555E+03  0.23282119319E+03  0.74413208458E+03  0.25500000920E-02 0.  1.
</event>
<event>
 5   0  0.3070497E-05  0.1499964E+04  0.7818609E-02  0.8884477E-01
       -2   -1    0    0    0  501  0.00000000000E+00  0.00000000000E+00  0.18307475136E+03  0.18307475138E+03  0.25500000920E-02 0.  1.
        2   -1    0    0  501    0  0.00000000000E+00  0.00000000000E+00 -0.30723682868E+04  0.30723682868E+04  0.25500000920E-02 0. -1.
    10030    2    1    2    0    0  0.00000000000E+00  0.00000000000E+00 -0.28892935354E+04  0.32554430381E+04  0.14999640798E+04 0.  0.
        4    1    3    3  502    0  0.48226712714E+03 -0.44260899469E+03 -0.22390862239E+04  0.23328079722E+04  0.12699999809E+01 0. -1.
       -4    1    3    3    0  502 -0.48226712714E+03  0.44260899469E+03 -0.65020731151E+03  0.92263506596E+03  0.12699999809E+01 0.  1.
</event>
<event>
 5   0  0.3030702E-05  0.1499764E+04  0.7818609E-02  0.8884610E-01
       -2   -1    0    0    0  501  0.00000000000E+00  0.00000000000E+00  0.42201759647E+03  0.42201759648E+03  0.25500000920E-02 0.  1.
        2   -1    0    0  501    0  0.00000000000E+00  0.00000000000E+00 -0.13324642072E+04  0.13324642072E+04  0.25500000920E-02 0. -1.
    10030    2    1    2    0    0  0.00000000000E+00  0.00000000000E+00 -0.91044661076E+03  0.17544818037E+04  0.14997644377E+04 0.  0.
        5    1    3    3  502    0 -0.35422674397E+03 -0.13591823195E+03 -0.12118752819E+04  0.12698874520E+04  0.46999998093E+01 0. -1.
       -5    1    3    3    0  502  0.35422674397E+03  0.13591823195E+03  0.30142867113E+03  0.48459435170E+03  0.46999998093E+01 0.  1.
</event>
<event>
 5   0  0.1116613E-05  0.1500339E+04  0.7818609E-02  0.8884227E-01
        4   -1    0    0  501    0  0.00000000000E+00  0.00000000000E+00  0.73446228002E+03  0.73446337803E+03  0.12699999809E+01 0.  1.
       -4   -1    0    0    0  501  0.00000000000E+00  0.00000000000E+00 -0.76621060925E+03  0.76621166176E+03  0.12699999809E+01 0. -1.
    10030    2    1    2    0    0  0.00000000000E+00  0.00000000000E+00 -0.31748329230E+02  0.15006750398E+04  0.15003391679E+04 0.  0.
        4    1    3    3  502    0  0.73416731042E+02 -0.17867319065E+03  0.70915959063E+03  0.73499868254E+03  0.12699999809E+01 0.  1.
       -4    1    3    3    0  502 -0.73416731042E+02  0.17867319065E+03 -0.74090791986E+03  0.76567635725E+03  0.12699999809E+01 0. -1.
</event>
<event>
 5   0  0.1643498E-05  0.1500461E+04  0.7818609E-02  0.8884147E-01
       -1   -1    0    0    0  501  0.00000000000E+00  0.00000000000E+00  0.32383175970E+03  0.32383175974E+03  0.50400001928E-02 0.  1.
        1   -1    0    0  501    0  0.00000000000E+00  0.00000000000E+00 -0.17380804242E+04  0.17380804242E+04  0.50400001928E-02 0. -1.
    10030    2    1    2    0    0  0.00000000000E+00  0.00000000000E+00 -0.14142486645E+04  0.20619121839E+04  0.15004607856E+04 0.  0.
        4    1    3    3  502    0 -0.48854357872E+03  0.15990294877E+03 -0.14580390168E+04  0.15460023185E+04  0.12699999809E+01 0. -1.
       -4    1    3    3    0  502  0.48854357872E+03 -0.15990294877E+03  0.43790352393E+02  0.51590986538E+03  0.12699999809E+01 0.  1.
</event>
<event>
 5   0  0.1576214E-05  0.1499947E+04  0.7818609E-02  0.8884488E-01
        1   -1    0    0  501    0  0.00000000000E+00  0.00000000000E+00  0.12530399279E+04  0.12530399279E+04  0.50400001928E-02 0. -1.
       -1   -1    0    0    0  501  0.00000000000E+00  0.00000000000E+00 -0.44887653166E+03  0.44887653169E+03  0.50400001928E-02 0.  1.
    10030    2    1    2    0    0  0.00000000000E+00  0.00000000000E+00  0.80416339627E+03  0.17019164596E+04  0.14999469549E+04 0.  0.
        1    1    3    3  502    0  0.42542771538E+03 -0.57843150942E+03  0.15638724919E+03  0.73486646668E+03  0.50400001928E-02 0.  1.
       -1    1    3    3    0  502 -0.42542771538E+03  0.57843150942E+03  0.64777614708E+03  0.96704999295E+03  0.50400001928E-02 0. -1.
</event>
<event>
 5   0  0.2969498E-05  0.1500398E+04  0.7818609E-02  0.8884189E-01
        2   -1    0    0  501    0  0.00000000000E+00  0.00000000000E+00  0.57221473943E+03  0.57221473944E+03  0.25500000920E-02 0. -1.
       -2   -1    0    0    0  501  0.00000000000E+00  0.00000000000E+00 -0.98354384851E+03  0.98354384851E+03  0.25500000920E-02 0.  1.
    10030    2    1    2    0    0  0.00000000000E+00  0.00000000000E+00 -0.41132910908E+03  0.15557585879E+04  0.15003976633E+04 0.  0.
        3    1    3    3  502    0 -0.83922167121E+02 -0.28332129371E+03 -0.92066112772E+03  0.96691820124E+03  0.10100000352E+00 0.  1.
       -3    1    3    3    0  502  0.83922167121E+02  0.28332129371E+03  0.50933201864E+03  0.58884038671E+03  0.10100000352E+00 0. -1.
</event>
<event>
 5   0  0.3093600E-05  0.1495842E+04  0.7818609E-02  0.8887223E-01
       -2   -1    0    0    0  501  0.00000000000E+00  0.00000000000E+00  0.35430168072E+03  0.35430168073E+03  0.25500000920E-02 0. -1.
        2   -1    0    0  501    0  0.00000000000E+00  0.00000000000E+00 -0.15788402480E+04  0.15788402480E+04  0.25500000920E-02 0.  1.
    10030    2    1    2    0    0  0.00000000000E+00  0.00000000000E+00 -0.12245385673E+04  0.19331419287E+04  0.14958419080E+04 0.  0.
        1    1    3    3  502    0  0.43255742646E+03 -0.57620845441E+03 -0.87158842751E+03  0.11308353095E+04  0.50400001928E-02 0.  1.
       -1    1    3    3    0  502 -0.43255742646E+03  0.57620845441E+03 -0.35295013975E+03  0.80230661926E+03  0.50400001928E-02 0. -1.
</event>
<event>
 5   0  0.1116613E-05  0.1499204E+04  0.7818609E-02  0.8884982E-01
        3   -1    0    0  501    0  0.00000000000E+00  0.00000000000E+00  0.43621287260E+03  0.43621288429E+03  0.10100000352E+00 0. -1.
       -3   -1    0    0    0  501  0.00000000000E+00  0.00000000000E+00 -0.12881396738E+04  0.12881396778E+04  0.10100000352E+00 0.  1.
    10030    2    1    2    0    0  0.00000000000E+00  0.00000000000E+00 -0.85192680124E+03  0.17243525621E+04  0.14992039500E+04 0.  0.
        3    1    3    3  502    0  0.20964896405E+03  0.36929513005E+03 -0.11364458108E+04  0.12131944083E+04  0.10100000352E+00 0.  1.
       -3    1    3    3    0  502 -0.20964896405E+03 -0.36929513005E+03  0.28451900956E+03  0.51115815381E+03  0.10100000352E+00 0. -1.
</event>
<event>
 5   0  0.3030702E-05  0.1497896E+04  0.7818609E-02  0.8885853E-01
        2   -1    0    0  501    0  0.00000000000E+00  0.00000000000E+00  0.18448804140E+04  0.18448804140E+04  0.25500000920E-02 0.  1.
       -2   -1    0    0    0  501  0.00000000000E+00  0.00000000000E+00 -0.30404307981E+03  0.30404307982E+03  0.25500000920E-02 0. -1.
    10030    2    1    2    0    0  0.00000000000E+00  0.00000000000E+00  0.15408373342E+04  0.21489234938E+04  0.14978960217E+04 0.  0.
        5    1    3    3  502    0  0.49211986839E+03  0.53082286840E+03  0.49466335714E+03  0.87673759437E+03  0.46999998093E+01 0. -1.
       -5    1    3    3    0  502 -0.49211986839E+03 -0.53082286840E+03  0.10461739770E+04  0.12721858994E+04  0.46999998093E+01 0.  1.
</event>
<event>
 5   0  0.1588657E-05  0.1499291E+04  0.7818609E-02  0.8884925E-01
        1   -1    0    0  501    0  0.00000000000E+00  0.00000000000E+00  0.76329119267E+03  0.76329119268E+03  0.50400001928E-02 0.  1.
       -1   -1    0    0    0  501  0.00000000000E+00  0.00000000000E+00 -0.73624357443E+03  0.73624357444E+03  0.50400001928E-02 0. -1.
    10030    2    1    2    0    0  0.00000000000E+00  0.00000000000E+00  0.27047618240E+02  0.14995347671E+04  0.14992908137E+04 0.  0.
        3    1    3    3  502    0  0.37368459280E+03  0.10854854864E+01  0.66349636207E+03  0.76149115941E+03  0.10100000352E+00 0.  1.
       -3    1    3    3    0  502 -0.37368459280E+03 -0.10854854864E+01 -0.63644874383E+03  0.73804360772E+03  0.10100000352E+00 0. -1.
</event>
<event>
 5   0  0.3018308E-05  0.1498276E+04  0.7818609E-02  0.8885600E-01
        2   -1    0    0  501    0  0.00000000000E+00  0.00000000000E+00  0.16083704797E+04  0.16083704797E+04  0.25500000920E-02 0.  1.
       -2   -1    0    0    0  501  0.00000000000E+00  0.00000000000E+00 -0.34892954670E+03  0.34892954671E+03  0.25500000920E-02 0. -1.
    10030    2    1    2    0    0  0.00000000000E+00  0.00000000000E+00  0.12594409330E+04  0.19573000264E+04  0.14982763195E+04 0.  0.
        2    1    3    3  502    0 -0.35503145229E+03 -0.91584386232E+02  0.14831426532E+04  0.15277915962E+04  0.25500000920E-02 0.  1.
       -2    1    3    3    0  502  0.35503145229E+03  0.91584386232E+02 -0.22370172021E+03  0.42950843012E+03  0.25500000920E-02 0. -1.
</event>
<event>
 5   0  0.1576214E-05  0.1500410E+04  0.7818609E-02  0.8884180E-01
       -1   -1    0    0    0  501  0.00000000000E+00  0.00000000000E+00  0.34149125445E+03  0.34149125449E+03  0.50400001928E-02 0. -1.
        1   -1    0    0  501    0  0.00000000000E+00  0.00000000000E+00 -0.16480880989E+04  0.16480880989E+04  0.50400001928E-02 0.  1.
    10030    2    1    2    0    0  0.00000000000E+00  0.00000000000E+00 -0.13065968444E+04  0.19895793534E+04  0.15004101738E+04 0.  0.
        1    1    3    3  502    0  0.63919425172E+03  0.32176648130E+02 -0.13427738326E+03  0.65393810395E+03  0.50400001928E-02 0. -1.
       -1    1    3    3    0  502 -0.63919425172E+03 -0.32176648130E+02 -0.11723194612E+04  0.13356412494E+04  0.50400001928E-02 0.  1.
</event>
<event>
 5   0  0.2969498E-05  0.1498944E+04  0.7818609E-02  0.8885155E-01
       -2   -1    0    0    0  501  0.00000000000E+00  0.00000000000E+00  0.45249672754E+03  0.45249672754E+03  0.25500000920E-02 0.  1.
        2   -1    0    0  501    0  0.00000000000E+00  0.00000000000E+00 -0.12413540384E+04  0.12413540384E+04  0.25500000920E-02 0. -1.
    10030    2    1    2    0    0  0.00000000000E+00  0.00000000000E+00 -0.78885731089E+03  0.16938507660E+04  0.14989444821E+04 0.  0.
        3    1    3    3  502    0  0.97339707684E+02 -0.74174725666E+03 -0.34333161630E+03  0.82312855643E+03  0.10100000352E+00 0.  1.
       -3    1    3    3    0  502 -0.97339707684E+02  0.74174725666E+03 -0.44552569459E+03  0.87072220955E+03  0.10100000352E+00 0. -1.
</event>
<event>
 5   0  0.3018308E-05  0.1502273E+04  0.7818609E-02  0.8882943E-01
       -2   -1    0    0    0  501  0.00000000000E+00  0.00000000000E+00  0.68920917573E+03  0.68920917573E+03  0.25500000920E-02 0. -1.
        2   -1    0    0  501    0  0.00000000000E+00  0.00000000000E+00 -0.81862832689E+03  0.81862832689E+03  0.25500000920E-02 0.  1.
    10030    2    1    2    0    0  0.00000000000E+00  0.00000000000E+00 -0.12941915116E+03  0.15078375026E+04  0.15022731501E+04 0.  0.
        2    1    3    3  502    0 -0.32002127226E+03 -0.38604570138E+03  0.49661248383E+03  0.70573993607E+03  0.25500000920E-02 0. -1.
       -2    1    3    3    0  502  0.32002127226E+03  0.38604570138E+03 -0.62603163499E+03  0.80209756655E+03  0.25500000920E-02 0.  1.
</event>
<event>
 5   0  0.1576214E-05  0.1498761E+04  0.7818609E-02  0.8885277E-01
       -1   -1    0    0    0  501  0.00000000000E+00  0.00000000000E+00  0.40191801661E+03  0.40191801664E+03  0.50400001928E-02 0. -1.
        1   -1    0    0  501    0  0.00000000000E+00  0.00000000000E+00 -0.13972282364E+04  0.13972282364E+04  0.50400001928E-02 0.  1.
    10030    2    1    2    0    0  0.00000000000E+00  0.00000000000E+00 -0.99531021978E+03  0.17991462530E+04  0.14987610904E+04 0.  0.
        1    1    3    3  502    0 -0.65321509693E+03  0.36452973148E+03 -0.44397980585E+03  0.86987927669E+03  0.50400001928E-02 0. -1.
       -1    1    3    3    0  502  0.65321509693E+03 -0.36452973148E+03 -0.55133041392E+03  0.92926697635E+03  0.50400001928E-02 0.  1.
</event>
<event>
 5   0  0.3030702E-05  0.1501159E+04  0.7818609E-02  0.8883683E-01
       -2   -1    0    0    0  501  0.00000000000E+00  0.00000000000E+00  0.65554357707E+03  0.65554357708E+03  0.25500000920E-02 0.  1.
        2   -1    0    0  501    0  0.00000000000E+00  0.00000000000E+00 -0.85939296909E+03  0.85939296910E+03  0.25500000920E-02 0. -1.
    10030    2    1    2    0    0  0.00000000000E+00  0.00000000000E+00 -0.20384939202E+03  0.15149365462E+04  0.15011589404E+04 0.  0.
        5    1    3    3  502    0  0.84577556873E+02 -0.71523399397E+03  0.11128292396E+03  0.72877912184E+03  0.46999998093E+01 0. -1.
       -5    1    3    3    0  502 -0.84577556873E+02  0.71523399397E+03 -0.31513231598E+03  0.78615742433E+03  0.46999998093E+01 0.  1.
</event>
<event>
 5   0  0.3018308E-05  0.1500086E+04  0.7818609E-02  0.8884396E-01
       -2   -1    0    0    0  501  0.00000000000E+00  0.00000000000E+00  0.67322086666E+03  0.67322086667E+03  0.25500000920E-02 0.  1.
        2   -1    0    0  501    0  0.00000000000E+00  0.00000000000E+00 -0.83563088634E+03  0.83563088634E+03  0.25500000920E-02 0. -1.
    10030    2    1    2    0    0  0.00000000000E+00  0.00000000000E+00 -0.16241001967E+03  0.15088517530E+04  0.15000855302E+04 0.  0.
        2    1    3    3  502    0  0.20124242250E+03  0.30682536565E+03 -0.73918666705E+03  0.82524980846E+03  0.25500000920E-02 0. -1.
       -2    1    3    3    0  502 -0.20124242250E+03 -0.30682536565E+03  0.57677664737E+03  0.68360194454E+03  0.25500000920E-02 0.  1.
</event>
<event>
 5   0  0.1116613E-05  0.1499071E+04  0.7818609E-02  0.8885071E-01
        4   -1    0    0  501    0  0.00000000000E+00  0.00000000000E+00  0.12054115684E+04  0.12054122375E+04  0.12699999809E+01 0. -1.
       -4   -1    0    0    0  501  0.00000000000E+00  0.00000000000E+00 -0.46606613758E+03  0.46606786791E+03  0.12699999809E+01 0.  1.
    10030    2    1    2    0    0  0.00000000000E+00  0.00000000000E+00  0.73934543087E+03  0.16714801054E+04  0.14990710712E+04 0.  0.
        2    1    3    3  502    0  0.16609636622E+03  0.73088881648E+03  0.36506808554E+03  0.83370328775E+03  0.25500000920E-02 0. -1.
       -2    1    3    3    0  502 -0.16609636622E+03 -0.73088881648E+03  0.37427734533E+03  0.83777681763E+03  0.25500000920E-02 0.  1.
</event>
<event>
 5   0  0.1576214E-05  0.1501438E+04  0.7818609E-02  0.8883498E-01
       -1   -1    0    0    0  501  0.00000000000E+00  0.00000000000E+00  0.63393617042E+03  0.63393617044E+03  0.50400001928E-02 0.  1.
        1   -1    0    0  501    0  0.00000000000E+00  0.00000000000E+00 -0.88901484828E+03  0.88901484829E+03  0.50400001928E-02 0. -1.
    10030    2    1    2    0    0  0.00000000000E+00  0.00000000000E+00 -0.25507867786E+03  0.15229510187E+04  0.15014375357E+04 0.  0.
        1    1    3    3  502    0 -0.23618824541E+03  0.48836581192E+03 -0.65390904732E+03  0.84963703763E+03  0.50400001928E-02 0. -1.
       -1    1    3    3    0  502  0.23618824541E+03 -0.48836581192E+03  0.39883036946E+03  0.67331398110E+03  0.50400001928E-02 0.  1.
</event>
<event>
 5   0  0.3070497E-05  0.1500628E+04  0.7818609E-02  0.8884036E-01
       -2   -1    0    0    0  501  0.00000000000E+00  0.00000000000E+00  0.57235973528E+03  0.57235973528E+03  0.25500000920E-02 0. -1.
        2   -1    0    0  501    0  0.00000000000E+00  0.00000000000E+00 -0.98359622187E+03  0.98359622187E+03  0.25500000920E-02 0.  1.
    10030    2    1    2    0    0  0.00000000000E+00  0.00000000000E+00 -0.41123648659E+03  0.15559559572E+04  0.15006276996E+04 0.  0.
        4    1    3    3  502    0 -0.22525115713E+03  0.31357742197E+03  0.46145305048E+03  0.60167218155E+03  0.12699999809E+01 0. -1.
       -4    1    3    3    0  502  0.22525115713E+03 -0.31357742197E+03 -0.87268953707E+03  0.95428377560E+03  0.12699999809E+01 0.  1.
</event>
<event>
 5   0  0.2969498E-05  0.1499825E+04  0.7818609E-02  0.8884569E-01
       -2   -1    0    0    0  501  0.00000000000E+00  0.00000000000E+00  0.32067875205E+03  0.32067875206E+03  0.25500000920E-02 0.  1.
        2   -1    0    0  501    0  0.00000000000E+00  0.00000000000E+00 -0.17536837397E+04  0.17536837397E+04  0.25500000920E-02 0. -1.
    10030    2    1    2    0    0  0.00000000000E+00  0.00000000000E+00 -0.14330049876E+04  0.20743624917E+04  0.14998254740E+04 0.  0.
        3    1    3    3  502    0 -0.50159104229E+03 -0.49350168734E+03 -0.10751193454E+04  0.12849198832E+04  0.10100000352E+00 0. -1.
       -3    1    3    3    0  502  0.50159104229E+03  0.49350168734E+03 -0.35788564224E+03  0.78944260858E+03  0.10100000352E+00 0.  1.
</event>
<event>
 5   0  0.1116613E-05  0.1499269E+04  0.7818609E-02  0.8884939E-01
       -4   -1    0    0    0  501  0.00000000000E+00  0.00000000000E+00  0.55666727094E+03  0.55666871965E+03  0.12699999809E+01 0.  1.
        4   -1    0    0  501    0  0.00000000000E+00  0.00000000000E+00 -0.10094906874E+04  0.10094914862E+04  0.12699999809E+01 0. -1.
    10030    2    1    2    0    0  0.00000000000E+00  0.00000000000E+00 -0.45282341644E+03  0.15661602059E+04  0.14992694034E+04 0.  0.
        2    1    3    3  502    0 -0.50601104416E+03 -0.53968291360E+03 -0.35283765476E+03  0.81963359781E+03  0.25500000920E-02 0. -1.
       -2    1    3    3    0  502  0.50601104416E+03  0.53968291360E+03 -0.99985761680E+02  0.74652660809E+03  0.25500000920E-02 0.  1.
</event>
<event>
 5   0  0.2969498E-05  0.1497013E+04  0.7818609E-02  0.8886442E-01
       -2   -1    0    0    0  501  0.00000000000E+00  0.00000000000E+00  0.32595835826E+03  0.32595835827E+03  0.25500000920E-02 0. -1.
        2   -1    0    0  501    0  0.00000000000E+00  0.00000000000E+00 -0.17188150648E+04  0.17188150648E+04  0.25500000920E-02 0.  1.
    10030    2    1    2    0    0  0.00000000000E+00  0.00000000000E+00 -0.13928567065E+04  0.20447734231E+04  0.14970132086E+04 0.  0.
        3    1    3    3  502    0 -0.24910356405E+03 -0.70241631275E+03 -0.60159043345E+03  0.95778511257E+03  0.10100000352E+00 0. -1.
       -3    1    3    3    0  502  0.24910356405E+03  0.70241631275E+03 -0.79126627307E+03  0.10869883105E+04  0.10100000352E+00 0.  1.
</event>
<event>
 5   0  0.1588657E-05  0.1501121E+04  0.7818609E-02  0.8883708E-01
        1   -1    0    0  501    0  0.00000000000E+00  0.00000000000E+00  0.10835918059E+04  0.10835918059E+04  0.50400001928E-02 0. -1.
       -1   -1    0    0    0  501  0.00000000000E+00  0.00000000000E+00 -0.51988277779E+03  0.51988277782E+03  0.50400001928E-02 0.  1.
    10030    2    1    2    0    0  0.00000000000E+00  0.00000000000E+00  0.56370902813E+03  0.16034745838E+04  0.15011205389E+04 0.  0.
        3    1    3    3  502    0  0.45887091514E+03 -0.54414291078E+03  0.53617833443E+03  0.89114602655E+03  0.10100000352E+00 0.  1.
       -3    1    3    3    0  502 -0.45887091514E+03  0.54414291078E+03  0.27530693699E+02  0.71232855721E+03  0.10100000352E+00 0. -1.
</event>
<event>
 5   0  0.1588657E-05  0.1500115E+04  0.7818609E-02  0.8884377E-01
        1   -1    0    0  501    0  0.00000000000E+00  0.00000000000E+00  0.90255210259E+03  0.90255210260E+03  0.50400001928E-02 0. -1.
       -1   -1    0    0    0  501  0.00000000000E+00  0.00000000000E+00 -0.62332809649E+03  0.62332809651E+03  0.50400001928E-02 0.  1.
    10030    2    1    2    0    0  0.00000000000E+00  0.00000000000E+00  0.27922400610E+03  0.15258801991E+04  0.15001147744E+04 0.  0.
        3    1    3    3  502    0 -0.25769175921E+03 -0.22223155894E+03  0.81951928956E+03  0.88735775464E+03  0.10100000352E+00 0. -1.
       -3    1    3    3    0  502  0.25769175921E+03  0.22223155894E+03 -0.54029528346E+03  0.63852244447E+03  0.10100000352E+00 0.  1.
</event>
<event>
 5   0  0.3070497E-05  0.1500288E+04  0.7818609E-02  0.8884261E-01
       -2   -1    0    0    0  501  0.00000000000E+00  0.00000000000E+00  0.13082108004E+04  0.13082108004E+04  0.25500000920E-02 0. -1.
        2   -1    0    0  501    0  0.00000000000E+00  0.00000000000E+00 -0.43014175734E+03  0.43014175734E+03  0.25500000920E-02 0.  1.
    10030    2    1    2    0    0  0.00000000000E+00  0.00000000000E+00  0.87806904308E+03  0.17383525578E+04  0.15002880959E+04 0.  0.
        4    1    3    3  502    0 -0.61025456891E+03  0.34070261167E+03  0.12335967934E+03  0.70972398287E+03  0.12699999809E+01 0.  1.
       -4    1    3    3    0  502  0.61025456891E+03 -0.34070261167E+03  0.75470936374E+03  0.10286285749E+04  0.12699999809E+01 0. -1.
</event>
<event>
 5   0  0.1533777E-05  0.1498841E+04  0.7818609E-02  0.8885224E-01
        1   -1    0    0  501    0  0.00000000000E+00  0.00000000000E+00  0.62949102002E+03  0.62949102004E+03  0.50400001928E-02 0. -1.
       -1   -1    0    0    0  501  0.00000000000E+00  0.00000000000E+00 -0.89219888575E+03  0.89219888576E+03  0.50400001928E-02 0.  1.
    10030    2    1    2    0    0  0.00000000000E+00  0.00000000000E+00 -0.26270786573E+03  0.15216899058E+04  0.14988411346E+04 0.  0.
        5    1    3    3  502    0  0.66844504512E+03 -0.29138123789E+03  0.44160907538E+02  0.73054368787E+03  0.46999998093E+01 0. -1.
       -5    1    3    3    0  502 -0.66844504512E+03  0.29138123789E+03 -0.30686877327E+03  0.79114621793E+03  0.46999998093E+01 0.  1.
</event>
<event>
 5   0  0.1116613E-05  0.1499480E+04  0.7818609E-02  0.8884799E-01
        3   -1    0    0  501    0  0.00000000000E+00  0.00000000000E+00  0.50454647836E+03  0.50454648847E+03  0.10100000352E+00 0.  1.
       -3   -1    0    0    0  501  0.00000000000E+00  0.00000000000E+00 -0.11140895972E+04  0.11140896018E+04  0.10100000352E+00 0. -1.
    10030    2    1    2    0    0  0.00000000000E+00  0.00000000000E+00 -0.60954311887E+03  0.16186360903E+04  0.14994799028E+04 0.  0.
        1    1    3    3  502    0  0.17954582030E+03 -0.77686692660E+02 -0.10860522653E+04  0.11035313529E+04  0.50400001928E-02 0. -1.
       -1    1    3    3    0  502 -0.17954582030E+03  0.77686692660E+02  0.47650914645E+03  0.51510473738E+03  0.50400001928E-02 0.  1.
</event>
<event>
 5   0  0.1588657E-05  0.1499325E+04  0.7818609E-02  0.8884902E-01
        1   -1    0    0  501    0  0.00000000000E+00  0.00000000000E+00  0.11755464401E+04  0.11755464401E+04  0.50400001928E-02 0.  1.
       -1   -1    0    0    0  501  0.00000000000E+00  0.00000000000E+00 -0.47807038318E+03  0.47807038321E+03  0.50400001928E-02 0. -1.
    10030    2    1    2    0    0  0.00000000000E+00  0.00000000000E+00  0.69747605688E+03  0.16536168233E+04  0.14993250976E+04 0.  0.
        3    1    3    3  502    0  0.74105869608E+03 -0.80419190754E+02  0.26079065300E+03  0.78971324680E+03  0.10100000352E+00 0. -1.
       -3    1    3    3    0  502 -0.74105869608E+03  0.80419190754E+02  0.43668540388E+03  0.86390357647E+03  0.10100000352E+00 0.  1.
</event>
<event>
 5   0  0.1116613E-05  0.1500178E+04  0.7818609E-02  0.8884335E-01
       -3   -1    0    0    0  501  0.00000000000E+00  0.00000000000E+00  0.39918910127E+03  0.39918911405E+03  0.10100000352E+00 0.  1.
        3   -1    0    0  501    0  0.00000000000E+00  0.00000000000E+00 -0.14094403280E+04  0.14094403316E+04  0.10100000352E+00 0. -1.
    10030    2    1    2    0    0  0.00000000000E+00  0.00000000000E+00 -0.10102512267E+04  0.18086294456E+04  0.15001776330E+04 0.  0.
        4    1    3    3  502    0 -0.23419879932E+01  0.60441439923E+02  0.39624275581E+03  0.40083486251E+03  0.12699999809E+01 0.  1.
       -4    1    3    3    0  502  0.23419879932E+01 -0.60441439923E+02 -0.14064939825E+04  0.14077945831E+04  0.12699999809E+01 0. -1.
</event>
<event>
 5   0  0.1588657E-05  0.1500075E+04  0.7818609E-02  0.8884403E-01
       -1   -1    0    0    0  501  0.00000000000E+00  0.00000000000E+00  0.49630732901E+03  0.49630732903E+03  0.50400001928E-02 0.  1.
        1   -1    0    0  501    0  0.00000000000E+00  0.00000000000E+00 -0.11334838726E+04  0.11334838726E+04  0.50400001928E-02 0. -1.
    10030    2    1    2    0    0  0.00000000000E+00  0.00000000000E+00 -0.63717654363E+03  0.16297912017E+04  0.15000751359E+04 0.  0.
        3    1    3    3  502    0 -0.31605029518E+03 -0.67881658513E+03 -0.36565397572E+03  0.83329621713E+03  0.10100000352E+00 0.  1.
       -3    1    3    3    0  502  0.31605029518E+03  0.67881658513E+03 -0.27152256791E+03  0.79649498455E+03  0.10100000352E+00 0. -1.
</event>
<event>
 5   0  0.3093600E-05  0.1500034E+04  0.7818609E-02  0.8884430E-01
        2   -1    0    0  501    0  0.00000000000E+00  0.00000000000E+00  0.79529381019E+03  0.79529381019E+03  0.25500000920E-02 0. -1.
       -2   -1    0    0    0  501  0.00000000000E+00  0.00000000000E+00 -0.70731809425E+03  0.70731809426E+03  0.25500000920E-02 0.  1.
    10030    2    1    2    0    0  0.00000000000E+00  0.00000000000E+00  0.87975715934E+02  0.15026119044E+04  0.15000342692E+04 0.  0.
        1    1    3    3  502    0 -0.63650749252E+03 -0.29954961846E+03 -0.21656281064E+03  0.73605109397E+03  0.50400001928E-02 0.  1.
       -1    1    3    3    0  502  0.63650749252E+03  0.29954961846E+03  0.30453852658E+03  0.76656081047E+03  0.50400001928E-02 0. -1.
</event>
<event>
 5   0  0.1580078E-05  0.1498917E+04  0.7818609E-02  0.8885173E-01
        1   -1    0    0  501    0  0.00000000000E+00  0.00000000000E+00  0.10093090680E+04  0.10093090680E+04  0.50400001928E-02 0. -1.
       -1   -1    0    0    0  501  0.00000000000E+00  0.00000000000E+00 -0.55650745465E+03  0.55650745467E+03  0.50400001928E-02 0.  1.
    10030    2    1    2    0    0  0.00000000000E+00  0.00000000000E+00  0.45280161335E+03  0.15658165227E+04  0.14989169696E+04 0.  0.
        2    1    3    3  502    0  0.58334106485E+03  0.41990880380E+03  0.44819222723E+03  0.84704573313E+03  0.25500000920E-02 0.  1.
       -2    1    3    3    0  502 -0.58334106485E+03 -0.41990880380E+03  0.46093861189E+01  0.71877078954E+03  0.25500000920E-02 0. -1.
</event>
<event>
 5   0  0.1588657E-05  0.1499802E+04  0.7818609E-02  0.8884585E-01
        1   -1    0    0  501    0  0.00000000000E+00  0.00000000000E+00  0.12640978831E+04  0.12640978831E+04  0.50400001928E-02 0.  1.
       -1   -1    0    0    0  501  0.00000000000E+00  0.00000000000E+00 -0.44486374940E+03  0.44486374943E+03  0.50400001928E-02 0. -1.
    10030    2    1    2    0    0  0.00000000000E+00  0.00000000000E+00  0.81923413370E+03  0.17089616325E+04  0.14998017521E+04 0.  0.
        3    1    3    3  502    0 -0.44899210558E+03 -0.50568609847E+02  0.10915809566E+04  0.11813975157E+04  0.10100000352E+00 0.  1.
       -3    1    3    3    0  502  0.44899210558E+03  0.50568609847E+02 -0.27234682291E+03  0.52756411679E+03  0.10100000352E+00 0. -1.
</event>
<event>
 5   0  0.1580078E-05  0.1497632E+04  0.7818609E-02  0.8886029E-01
       -1   -1    0    0    0  501  0.00000000000E+00  0.00000000000E+00  0.58525049213E+03  0.58525049215E+03  0.50400001928E-02 0. -1.
        1   -1    0    0  501    0  0.00000000000E+00  0.00000000000E+00 -0.95809464637E+03  0.95809464639E+03  0.50400001928E-02 0.  1.
    10030    2    1    2    0    0  0.00000000000E+00  0.00000000000E+00 -0.37284415424E+03  0.15433451385E+04  0.14976319485E+04 0.  0.
        2    1    3    3  502    0  0.11631396196E+03 -0.26878510892E+03 -0.89662484590E+03  0.94324465905E+03  0.25500000920E-02 0.  1.
       -2    1    3    3    0  502 -0.11631396196E+03  0.26878510892E+03  0.52378069166E+03  0.60010047949E+03  0.25500000920E-02 0. -1.
</event>
<event>
 5   0  0.1588657E-05  0.1500026E+04  0.7818609E-02  0.8884435E-01
       -1   -1    0    0    0  501  0.00000000000E+00  0.00000000000E+00  0.33404722961E+03  0.33404722965E+03  0.50400001928E-02 0.  1.
        1   -1    0    0  501    0  0.00000000000E+00  0.00000000000E+00 -0.16839527846E+04  0.16839527846E+04  0.50400001928E-02 0. -1.
    10030    2    1    2    0    0  0.00000000000E+00  0.00000000000E+00 -0.13499055550E+04  0.20180000143E+04  0.15000263498E+04 0.  0.
        3    1    3    3  502    0  0.12941966622E+03 -0.73479466409E+03 -0.57208184302E+03  0.94018630797E+03  0.10100000352E+00 0.  1.
       -3    1    3    3    0  502 -0.12941966622E+03  0.73479466409E+03 -0.77782371200E+03  0.10778137063E+04  0.10100000352E+00 0. -1.
</event>
<event>
 5   0  0.3030702E-05  0.1500089E+04  0.7818609E-02  0.8884394E-01
       -2   -1    0    0    0  501  0.00000000000E+00  0.00000000000E+00  0.78991134194E+03  0.78991134194E+03  0.25500000920E-02 0. -1.
        2   -1    0    0  501    0  0.00000000000E+00  0.00000000000E+00 -0.71218950722E+03  0.71218950722E+03  0.25500000920E-02 0.  1.
    10030    2    1    2    0    0  0.00000000000E+00  0.00000000000E+00  0.77721834718E+02  0.15021008492E+04  0.15000887565E+04 0.  0.
        5    1    3    3  502    0  0.36367965297E+03  0.38809843551E+03  0.56840026887E+03  0.77844989645E+03  0.46999998093E+01 0.  1.
       -5    1    3    3    0  502 -0.36367965297E+03 -0.38809843551E+03 -0.49067843415E+03  0.72365095272E+03  0.46999998093E+01 0. -1.
</event>
<event>
 5   0  0.3093600E-05  0.1499925E+04  0.7818609E-02  0.8884503E-01
       -2   -1    0    0    0  501  0.00000000000E+00  0.00000000000E+00  0.77152016296E+03  0.77152016296E+03  0.25500000920E-02 0. -1.
        2   -1    0    0  501    0  0.00000000000E+00  0.00000000000E+00 -0.72900741839E+03  0.72900741840E+03  0.25500000920E-02 0.  1.
    10030    2    1    2    0    0  0.00000000000E+00  0.00000000000E+00  0.42512744569E+02  0.15005275814E+04  0.14999252278E+04 0.  0.
        1    1    3    3  502    0  0.48568405335E+03 -0.32805886363E+03 -0.44683355655E+03  0.73700193010E+03  0.50400001928E-02 0.  1.
       -1    1    3    3    0  502 -0.48568405335E+03  0.32805886363E+03  0.48934630112E+03  0.76352565126E+03  0.50400001928E-02 0. -1.
</event>
<event>
 5   0  0.1576214E-05  0.1499936E+04  0.7818609E-02  0.8884496E-01
        1   -1    0    0  501    0  0.00000000000E+00  0.00000000000E+00  0.71071732357E+03  0.71071732358E+03  0.50400001928E-02 0. -1.
       -1   -1    0    0    0  501  0.00000000000E+00  0.00000000000E+00 -0.79138599749E+03  0.79138599751E+03  0.50400001928E-02 0.  1.
    10030    2    1    2    0    0  0.00000000000E+00  0.00000000000E+00 -0.80668673928E+02  0.15021033211E+04  0.14999356494E+04 0.  0.
        1    1    3    3  502    0  0.35769283159E+03 -0.29763454410E+03  0.54866635185E+03  0.71942007846E+03  0.50400001928E-02 0. -1.
       -1    1    3    3    0  502 -0.35769283159E+03  0.29763454410E+03 -0.62933502578E+03  0.78268324264E+03  0.50400001928E-02 0.  1.
</event>
<event>
 5   0  0.3018308E-05  0.1500066E+04  0.7818609E-02  0.8884409E-01
       -2   -1    0    0    0  501  0.00000000000E+00  0.00000000000E+00  0.20278807147E+03  0.20278807148E+03  0.25500000920E-02 0. -1.
        2   -1    0    0  501    0  0.00000000000E+00  0.00000000000E+00 -0.27740746893E+04  0.27740746893E+04  0.25500000920E-02 0.  1.
    10030    2    1    2    0    0  0.00000000000E+00  0.00000000000E+00 -0.25712866178E+04  0.29768627608E+04  0.15000656737E+04 0.  0.
        2    1    3    3  502    0  0.52094044727E+03 -0.30568784567E+03 -0.40321465003E+03  0.72622728027E+03  0.25500000920E-02 0. -1.
       -2    1    3    3    0  502 -0.52094044727E+03  0.30568784567E+03 -0.21680719678E+04  0.22506354805E+04  0.25500000920E-02 0.  1.
</event>
<event>
 5   0  0.3030702E-05  0.1500881E+04  0.7818609E-02  0.8883867E-01
        2   -1    0    0  501    0  0.00000000000E+00  0.00000000000E+00  0.43286395578E+03  0.43286395579E+03  0.25500000920E-02 0. -1.
       -2   -1    0    0    0  501  0.00000000000E+00  0.00000000000E+00 -0.13010114473E+04  0.13010114473E+04  0.25500000920E-02 0.  1.
    10030    2    1    2    0    0  0.00000000000E+00  0.00000000000E+00 -0.86814749153E+03  0.17338754031E+04  0.15008810234E+04 0.  0.
        5    1    3    3  502    0 -0.46991178166E+03 -0.26328859145E+03 -0.10376799066E+04  0.11691619406E+04  0.46999998093E+01 0.  1.
       -5    1    3    3    0  502  0.46991178166E+03  0.26328859145E+03  0.16953241505E+03  0.56471346246E+03  0.46999998093E+01 0. -1.
</event>
<event>
 5   0  0.1580078E-05  0.1499455E+04  0.7818609E-02  0.8884815E-01
        1   -1    0    0  501    0  0.00000000000E+00  0.00000000000E+00  0.16001995984E+04  0.16001995984E+04  0.50400001928E-02 0. -1.
       -1   -1    0    0    0  501  0.00000000000E+00  0.00000000000E+00 -0.35126322693E+03  0.35126322696E+03  0.50400001928E-02 0.  1.
    10030    2    1    2    0    0  0.00000000000E+00  0.00000000000E+00  0.12489363715E+04  0.19514628254E+04  0.14994549339E+04 0.  0.
        2    1    3    3  502    0 -0.66352832661E+03 -0.23123736798E+03  0.96471838888E+03  0.11934915712E+04  0.25500000920E-02 0. -1.
       -2    1    3    3    0  502  0.66352832661E+03  0.23123736798E+03  0.28421798257E+03  0.75797125419E+03  0.25500000920E-02 0.  1.
</event>
<event>
 5   0  0.3018308E-05  0.1505243E+04  0.7818609E-02  0.8880974E-01
        2   -1    0    0  501    0  0.00000000000E+00  0.00000000000E+00  0.24115873202E+04  0.24115873202E+04  0.25500000920E-02 0. -1.
       -2   -1    0    0    0  501  0.00000000000E+00  0.00000000000E+00 -0.23488217537E+03  0.23488217538E+03  0.25500000920E-02 0.  1.
    10030    2    1    2    0    0  0.00000000000E+00  0.00000000000E+00  0.21767051449E+04  0.26464694956E+04  0.15052426726E+04 0.  0.
        2    1    3    3  502    0 -0.19234537074E+03  0.43724233002E+03  0.21109071897E+04  0.21642797324E+04  0.25500000920E-02 0. -1.
       -2    1    3    3    0  502  0.19234537074E+03 -0.43724233002E+03  0.65797955189E+02  0.48218976318E+03  0.25500000920E-02 0.  1.
</event>
<event>
 5   0  0.2969498E-05  0.1499278E+04  0.7818609E-02  0.8884934E-01
        2   -1    0    0  501    0  0.00000000000E+00  0.00000000000E+00  0.70835282657E+03  0.70835282658E+03  0.25500000920E-02 0.  1.
       -2   -1    0    0    0  501  0.00000000000E+00  0.00000000000E+00 -0.79333100719E+03  0.79333100719E+03  0.25500000920E-02 0. -1.
    10030    2    1    2    0    0  0.00000000000E+00  0.00000000000E+00 -0.84978180613E+02  0.15016838338E+04  0.14992775078E+04 0.  0.
        3    1    3    3  502    0  0.22250898526E+03  0.34843875419E+02  0.67366471643E+03  0.71031577805E+03  0.10100000352E+00 0.  1.
       -3    1    3    3    0  502 -0.22250898526E+03 -0.34843875419E+02 -0.75864289704E+03  0.79136805572E+03  0.10100000352E+00 0. -1.
</event>
<event>
 5   0  0.1533777E-05  0.1500556E+04  0.7818609E-02  0.8884084E-01
       -1   -1    0    0    0  501  0.00000000000E+00  0.00000000000E+00  0.66587258365E+03  0.66587258367E+03  0.50400001928E-02 0.  1.
        1   -1    0    0  501    0  0.00000000000E+00  0.00000000000E+00 -0.84538217112E+03  0.84538217113E+03  0.50400001928E-02 0. -1.
    10030    2    1    2    0    0  0.00000000000E+00  0.00000000000E+00 -0.17950958747E+03  0.15112547548E+04  0.15005556444E+04 0.  0.
        5    1    3    3  502    0 -0.35431681654E+03 -0.22145713217E+03 -0.71734397962E+03  0.83017356195E+03  0.46999998093E+01 0. -1.
       -5    1    3    3    0  502  0.35431681654E+03  0.22145713217E+03  0.53783439215E+03  0.68108119285E+03  0.46999998093E+01 0.  1.
</event>
<event>
 5   0  0.1533777E-05  0.1497086E+04  0.7818609E-02  0.8886393E-01
       -1   -1    0    0    0  501  0.00000000000E+00  0.00000000000E+00  0.84636601192E+03  0.84636601194E+03  0.50400001928E-02 0. -1.
        1   -1    0    0  501    0  0.00000000000E+00  0.00000000000E+00 -0.66202611993E+03  0.66202611995E+03  0.50400001928E-02 0.  1.
    10030    2    1    2    0    0  0.00000000000E+00  0.00000000000E+00  0.18433989199E+03  0.15083921319E+04  0.14970857116E+04 0.  0.
        5    1    3    3  502    0 -0.13879051851E+03  0.71547026522E+03  0.26414530453E+03  0.77521309351E+03  0.46999998093E+01 0. -1.
       -5    1    3    3    0  502  0.13879051851E+03 -0.71547026522E+03 -0.79805412542E+02  0.73317903838E+03  0.46999998093E+01 0.  1.
</event>
<event>
 5   0  0.3093600E-05  0.1500863E+04  0.7818609E-02  0.8883879E-01
       -2   -1    0    0    0  501  0.00000000000E+00  0.00000000000E+00  0.83880487962E+03  0.83880487962E+03  0.25500000920E-02 0.  1.
        2   -1    0    0  501    0  0.00000000000E+00  0.00000000000E+00 -0.67136851606E+03  0.67136851607E+03  0.25500000920E-02 0. -1.
    10030    2    1    2    0    0  0.00000000000E+00  0.00000000000E+00  0.16743636355E+03  0.15101733957E+04  0.15008626683E+04 0.  0.
        1    1    3    3  502    0  0.36353241342E+03  0.40664364918E+02 -0.57558536724E+03  0.68198821191E+03  0.50400001928E-02 0. -1.
       -1    1    3    3    0  502 -0.36353241342E+03 -0.40664364918E+02  0.74302173079E+03  0.82818518378E+03  0.50400001928E-02 0.  1.
</event>
<event>
 5   0  0.1643498E-05  0.1499691E+04  0.7818609E-02  0.8884659E-01
       -1   -1    0    0    0  501  0.00000000000E+00  0.00000000000E+00  0.13794506091E+04  0.13794506091E+04  0.50400001928E-02 0.  1.
        1   -1    0    0  501    0  0.00000000000E+00  0.00000000000E+00 -0.40760294575E+03  0.40760294578E+03  0.50400001928E-02 0. -1.
    10030    2    1    2    0    0  0.00000000000E+00  0.00000000000E+00  0.97184766330E+03  0.17870535548E+04  0.14996908105E+04 0.  0.
        4    1    3    3  502    0 -0.31539824821E+03 -0.25195875293E+03 -0.26706656185E+03  0.48403040143E+03  0.12699999809E+01 0. -1.
       -4    1    3    3    0  502  0.31539824821E+03  0.25195875293E+03  0.12389142251E+04  0.13030231534E+04  0.12699999809E+01 0.  1.
</event>
<event>
 5   0  0.1580078E-05  0.1500754E+04  0.7818609E-02  0.8883952E-01
       -1   -1    0    0    0  501  0.00000000000E+00  0.00000000000E+00  0.70215630170E+03  0.70215630172E+03  0.50400001928E-02 0. -1.
        1   -1    0    0  501    0  0.00000000000E+00  0.00000000000E+00 -0.80190884397E+03  0.80190884399E+03  0.50400001928E-02 0.  1.
    10030    2    1    2    0    0  0.00000000000E+00  0.00000000000E+00 -0.99752542268E+02  0.15040651457E+04  0.15007536083E+04 0.  0.
        2    1    3    3  502    0  0.38003683675E+03  0.40554134882E+03 -0.55514502440E+03  0.78554298483E+03  0.25500000920E-02 0.  1.
       -2    1    3    3    0  502 -0.38003683675E+03 -0.40554134882E+03  0.45539248213E+03  0.71852216088E+03  0.25500000920E-02 0. -1.
</event>
<event>
 5   0  0.3070497E-05  0.1500448E+04  0.7818609E-02  0.8884155E-01
        2   -1    0    0  501    0  0.00000000000E+00  0.00000000000E+00  0.18138916366E+04  0.18138916366E+04  0.25500000920E-02 0. -1.
       -2   -1    0    0    0  501  0.00000000000E+00  0.00000000000E+00 -0.31029218500E+03  0.31029218501E+03  0.25500000920E-02 0.  1.
    10030    2    1    2    0    0  0.00000000000E+00  0.00000000000E+00  0.15035994516E+04  0.21241838216E+04  0.15004484654E+04 0.  0.
        4    1    3    3  502    0  0.19225069508E+03  0.27491747699E+03 -0.19819128775E+03  0.38964259053E+03  0.12699999809E+01 0.  1.
       -4    1    3    3    0  502 -0.19225069508E+03 -0.27491747699E+03  0.17017907394E+04  0.17345412311E+04  0.12699999809E+01 0. -1.
</event>
<event>
 5   0  0.3018308E-05  0.1496950E+04  0.7818609E-02  0.8886484E-01
        2   -1    0    0  501    0  0.00000000000E+00  0.00000000000E+00  0.30225993480E+04  0.30225993480E+04  0.25500000920E-02 0. -1.
       -2   -1    0    0    0  501  0.00000000000E+00  0.00000000000E+00 -0.18534201366E+03  0.18534201368E+03  0.25500000920E-02 0.  1.
    10030    2    1    2    0    0  0.00000000000E+00  0.00000000000E+00  0.28372573344E+04  0.32079413617E+04  0.14969497649E+04 0.  0.
        2    1    3    3  502    0  0.43862866985E+03 -0.20256289208E+02  0.11967332173E+03  0.45511221826E+03  0.25500000920E-02 0.  1.
       -2    1    3    3    0  502 -0.43862866985E+03  0.20256289208E+02  0.27175840126E+04  0.27528291434E+04  0.25500000920E-02 0. -1.
</event>
<event>
 5   0  0.3030702E-05  0.1499731E+04  0.7818609E-02  0.8884632E-01
        2   -1    0    0  501    0  0.00000000000E+00  0.00000000000E+00  0.85906688631E+03  0.85906688631E+03  0.25500000920E-02 0.  1.
       -2   -1    0    0    0  501  0.00000000000E+00  0.00000000000E+00 -0.65454553585E+03  0.65454553585E+03  0.25500000920E-02 0. -1.
    10030    2    1    2    0    0  0.00000000000E+00  0.00000000000E+00  0.20452135046E+03  0.15136124222E+04  0.14997311698E+04 0.  0.
        5    1    3    3  502    0 -0.40170504241E+03 -0.48517629060E+03 -0.30833820020E+03  0.70132553765E+03  0.46999998093E+01 0. -1.
       -5    1    3    3    0  502  0.40170504241E+03  0.48517629060E+03  0.51285955065E+03  0.81228688451E+03  0.46999998093E+01 0.  1.
</event>
<event>
 5   0  0.1580078E-05  0.1499917E+04  0.7818609E-02  0.8884508E-01
       -1   -1    0    0    0  501  0.00000000000E+00  0.00000000000E+00  0.12404630016E+04  0.12404630016E+04  0.50400001928E-02 0. -1.
        1   -1    0    0  501    0  0.00000000000E+00  0.00000000000E+00 -0.45340937320E+03  0.45340937323E+03  0.50400001928E-02 0.  1.
    10030    2    1    2    0    0  0.00000000000E+00  0.00000000000E+00  0.78705362837E+03  0.16938723748E+04  0.14999167338E+04 0.  0.
        2    1    3    3  502    0  0.57882602733E+03 -0.25929875066E+03 -0.58426386543E+02  0.63693724547E+03  0.25500000920E-02 0.  1.
       -2    1    3    3    0  502 -0.57882602733E+03  0.25929875066E+03  0.84548001492E+03  0.10569351293E+04  0.25500000920E-02 0. -1.
</event>
<event>
 5   0  0.3070497E-05  0.1499961E+04  0.7818609E-02  0.8884479E-01
        2   -1    0    0  501    0  0.00000000000E+00  0.00000000000E+00  0.14945983450E+04  0.14945983450E+04  0.25500000920E-02 0. -1.
       -2   -1    0    0    0  501  0.00000000000E+00  0.00000000000E+00 -0.37633593797E+03  0.37633593798E+03  0.25500000920E-02 0.  1.
    10030    2    1    2    0    0  0.00000000000E+00  0.00000000000E+00  0.11182624070E+04  0.18709342829E+04  0.14999614262E+04 0.  0.
        4    1    3    3  502    0 -0.54000872272E+03  0.36818351493E+03  0.10179369436E+04  0.12096965550E+04  0.12699999809E+01 0. -1.
       -4    1    3    3    0  502  0.54000872272E+03 -0.36818351493E+03  0.10032546340E+03  0.66123772789E+03  0.12699999809E+01 0.  1.
</event>
<event>
 5   0  0.2969498E-05  0.1499641E+04  0.7818609E-02  0.8884692E-01
        2   -1    0    0  501    0  0.00000000000E+00  0.00000000000E+00  0.64050549642E+03  0.64050549642E+03  0.25500000920E-02 0.  1.
       -2   -1    0    0    0  501  0.00000000000E+00  0.00000000000E+00 -0.87779206551E+03  0.87779206551E+03  0.25500000920E-02 0. -1.
    10030    2    1    2    0    0  0.00000000000E+00  0.00000000000E+00 -0.23728656909E+03  0.15182975619E+04  0.14996408139E+04 0.  0.
        3    1    3    3  502    0 -0.52867440926E+03 -0.52052319850E+03 -0.87125317357E+01  0.74196829420E+03  0.10100000352E+00 0. -1.
       -3    1    3    3    0  502  0.52867440926E+03  0.52052319850E+03 -0.22857403735E+03  0.77632926773E+03  0.10100000352E+00 0.  1.
</event>
<event>
 5   0  0.1588657E-05  0.1499791E+04  0.7818609E-02  0.8884592E-01
       -1   -1    0    0    0  501  0.00000000000E+00  0.00000000000E+00  0.26072421101E+03  0.26072421106E+03  0.50400001928E-02 0.  1.
        1   -1    0    0  501    0  0.00000000000E+00  0.00000000000E+00 -0.21568504041E+04  0.21568504041E+04  0.50400001928E-02 0. -1.
    10030    2    1    2    0    0  0.00000000000E+00  0.00000000000E+00 -0.18961261931E+04  0.24175746152E+04  0.14997908120E+04 0.  0.
        3    1    3    3  502    0  0.17458655076E+03  0.71836092541E+03 -0.74531557588E+03  0.10497705467E+04  0.10100000352E+00 0. -1.
       -3    1    3    3    0  502 -0.17458655076E+03 -0.71836092541E+03 -0.11508106172E+04  0.13678040685E+04  0.10100000352E+00 0.  1.
</event>
<event>
 5   0  0.2969498E-05  0.1499526E+04  0.7818609E-02  0.8884768E-01
       -2   -1    0    0    0  501  0.00000000000E+00  0.00000000000E+00  0.44674698414E+03  0.44674698415E+03  0.25500000920E-02 0.  1.
        2   -1    0    0  501    0  0.00000000000E+00  0.00000000000E+00 -0.12583056676E+04  0.12583056676E+04  0.25500000920E-02 0. -1.
    10030    2    1    2    0    0  0.00000000000E+00  0.00000000000E+00 -0.81155868346E+03  0.17050526517E+04  0.14995256078E+04 0.  0.
        3    1    3    3  502    0 -0.29065911600E+03 -0.60303362392E+03 -0.21843064838E+02  0.66978310144E+03  0.10100000352E+00 0.  1.
       -3    1    3    3    0  502  0.29065911600E+03  0.60303362392E+03 -0.78971561863E+03  0.10352695503E+04  0.10100000352E+00 0. -1.
</event>
<event>
 5   0  0.1580078E-05  0.1498783E+04  0.7818609E-02  0.8885262E-01
        1   -1    0    0  501    0  0.00000000000E+00  0.00000000000E+00  0.18742498702E+04  0.18742498702E+04  0.50400001928E-02 0.  1.
       -1   -1    0    0    0  501  0.00000000000E+00  0.00000000000E+00 -0.29963346911E+03  0.29963346915E+03  0.50400001928E-02 0. -1.
    10030    2    1    2    0    0  0.00000000000E+00  0.00000000000E+00  0.15746164011E+04  0.21738833394E+04  0.14987834942E+04 0.  0.
        2    1    3    3  502    0  0.69839784429E+03 -0.27077086974E+03  0.82011419378E+03  0.11107041477E+04  0.25500000920E-02 0. -1.
       -2    1    3    3    0  502 -0.69839784429E+03  0.27077086974E+03  0.75450220734E+03  0.10631791917E+04  0.25500000920E-02 0.  1.
</event>
<event>
 5   0  0.1576214E-05  0.1500955E+04  0.7818609E-02  0.8883818E-01
       -1   -1    0    0    0  501  0.00000000000E+00  0.00000000000E+00  0.12792285962E+04  0.12792285962E+04  0.50400001928E-02 0.  1.
        1   -1    0    0  501    0  0.00000000000E+00  0.00000000000E+00 -0.44027818313E+03  0.44027818316E+03  0.50400001928E-02 0. -1.
    10030    2    1    2    0    0  0.00000000000E+00  0.00000000000E+00  0.83895041310E+03  0.17195067794E+04  0.15009549523E+04 0.  0.
        1    1    3    3  502    0 -0.17067273324E+03 -0.63495106414E+03  0.49542027413E+01  0.65750785537E+03  0.50400001928E-02 0. -1.
       -1    1    3    3    0  502  0.17067273324E+03  0.63495106414E+03  0.83399621036E+03  0.10619989240E+04  0.50400001928E-02 0.  1.
</event>
<event>
 5   0  0.3070497E-05  0.1500081E+04  0.7818609E-02  0.8884399E-01
        2   -1    0    0  501    0  0.00000000000E+00  0.00000000000E+00  0.12106440470E+04  0.12106440471E+04  0.25500000920E-02 0. -1.
       -2   -1    0    0    0  501  0.00000000000E+00  0.00000000000E+00 -0.46467920083E+03  0.46467920084E+03  0.25500000920E-02 0.  1.
    10030    2    1    2    0    0  0.00000000000E+00  0.00000000000E+00  0.74596484622E+03  0.16753232479E+04  0.15000814755E+04 0.  0.
        4    1    3    3  502    0 -0.50779146491E+02  0.44281776534E+03 -0.30072426182E+03  0.53768279642E+03  0.12699999809E+01 0.  1.
       -4    1    3    3    0  502  0.50779146491E+02 -0.44281776534E+03  0.10466891080E+04  0.11376404515E+04  0.12699999809E+01 0. -1.
</event>
<event>
 5   0  0.3070497E-05  0.1502338E+04  0.7818609E-02  0.8882899E-01
       -2   -1    0    0    0  501  0.00000000000E+00  0.00000000000E+00  0.65772621331E+03  0.65772621332E+03  0.25500000920E-02 0. -1.
        2   -1    0    0  501    0  0.00000000000E+00  0.00000000000E+00 -0.85788745732E+03  0.85788745733E+03  0.25500000920E-02 0.  1.
    10030    2    1    2    0    0  0.00000000000E+00  0.00000000000E+00 -0.20016124401E+03  0.15156136706E+04  0.15023382692E+04 0.  0.
        4    1    3    3  502    0  0.69704036699E+02 -0.13018769602E+03  0.64293684950E+03  0.65967938748E+03  0.12699999809E+01 0. -1.
       -4    1    3    3    0  502 -0.69704036699E+02  0.13018769602E+03 -0.84309809350E+03  0.85593428316E+03  0.12699999809E+01 0.  1.
</event>
<event>
 5   0  0.3070497E-05  0.1500338E+04  0.7818609E-02  0.8884228E-01
        2   -1    0    0  501    0  0.00000000000E+00  0.00000000000E+00  0.15014329608E+04  0.15014329608E+04  0.25500000920E-02 0.  1.
       -2   -1    0    0    0  501  0.00000000000E+00  0.00000000000E+00 -0.37481119273E+03  0.37481119274E+03  0.25500000920E-02 0. -1.
    10030    2    1    2    0    0  0.00000000000E+00  0.00000000000E+00  0.11266217681E+04  0.18762441535E+04  0.15003384669E+04 0.  0.
        4    1    3    3  502    0 -0.55067492445E+02  0.16198042012E+03 -0.35008713765E+03  0.38965715966E+03  0.12699999809E+01 0. -1.
       -4    1    3    3    0  502  0.55067492445E+02 -0.16198042012E+03  0.14767089057E+04  0.14865869939E+04  0.12699999809E+01 0.  1.
</event>
<event>
 5   0  0.1116613E-05  0.1500513E+04  0.7818609E-02  0.8884112E-01
        3   -1    0    0  501    0  0.00000000000E+00  0.00000000000E+00  0.38660720068E+03  0.38660721387E+03  0.10100000352E+00 0. -1.
       -3   -1    0    0    0  501  0.00000000000E+00  0.00000000000E+00 -0.14559609958E+04  0.14559609993E+04  0.10100000352E+00 0.  1.
    10030    2    1    2    0    0  0.00000000000E+00  0.00000000000E+00 -0.10693537952E+04  0.18425682132E+04  0.15005132726E+04 0.  0.
        3    1    3    3  502    0 -0.16342453831E+03  0.47905561696E+02  0.36255885566E+03  0.40056392322E+03  0.10100000352E+00 0. -1.
       -3    1    3    3    0  502  0.16342453831E+03 -0.47905561696E+02 -0.14319126508E+04  0.14420042900E+04  0.10100000352E+00 0.  1.
</event>
<event>
 5   0  0.1576214E-05  0.1499790E+04  0.7818609E-02  0.8884592E-01
        1   -1    0    0  501    0  0.00000000000E+00  0.00000000000E+00  0.99212117805E+03  0.99212117806E+03  0.50400001928E-02 0.  1.
       -1   -1    0    0    0  501  0.00000000000E+00  0.00000000000E+00 -0.56680856072E+03  0.56680856075E+03  0.50400001928E-02 0. -1.
    10030    2    1    2    0    0  0.00000000000E+00  0.00000000000E+00  0.42531261732E+03  0.15589297388E+04  0.14997903547E+04 0.  0.
        1    1    3    3  502    0 -0.21433560457E+03 -0.29292135256E+02  0.95898351536E+03  0.98308044601E+03  0.50400001928E-02 0.  1.
       -1    1    3    3    0  502  0.21433560457E+03  0.29292135256E+02 -0.53367089804E+03  0.57584929279E+03  0.50400001928E-02 0. -1.
</event>
<event>
 5   0  0.1116613E-05  0.1501035E+04  0.7818609E-02  0.8883765E-01
       -3   -1    0    0    0  501  0.00000000000E+00  0.00000000000E+00  0.79963795974E+03  0.79963796612E+03  0.10100000352E+00 0. -1.
        3   -1    0    0  501    0  0.00000000000E+00  0.00000000000E+00 -0.70441442074E+03  0.70441442798E+03  0.10100000352E+00 0.  1.
    10030    2    1    2    0    0  0.00000000000E+00  0.00000000000E+00  0.95223539005E+02  0.15040523941E+04  0.15010350035E+04 0.  0.
        5    1    3    3  502    0  0.18552513560E+03  0.41074154334E+03  0.64892329498E+03  0.79009602209E+03  0.46999998093E+01 0. -1.
       -5    1    3    3    0  502 -0.18552513560E+03 -0.41074154334E+03 -0.55369975598E+03  0.71395637201E+03  0.46999998093E+01 0.  1.
</event>
<event>
 5   0  0.2969498E-05  0.1498793E+04  0.7818609E-02  0.8885256E-01
       -2   -1    0    0    0  501  0.00000000000E+00  0.00000000000E+00  0.47670217433E+03  0.47670217434E+03  0.25500000920E-02 0.  1.
        2   -1    0    0  501    0  0.00000000000E+00  0.00000000000E+00 -0.11780834002E+04  0.11780834002E+04  0.25500000920E-02 0. -1.
    10030    2    1    2    0    0  0.00000000000E+00  0.00000000000E+00 -0.70138122587E+03  0.16547855745E+04  0.14987927387E+04 0.  0.
        3    1    3    3  502    0  0.25740821597E+03  0.33679642386E+03 -0.10329936418E+04  0.11165870745E+04  0.10100000352E+00 0. -1.
       -3    1    3    3    0  502 -0.25740821597E+03 -0.33679642386E+03  0.33161241596E+03  0.53819850000E+03  0.10100000352E+00 0.  1.
</event>
<event>
 5   0  0.2969498E-05  0.1500071E+04  0.7818609E-02  0.8884406E-01
        2   -1    0    0  501    0  0.00000000000E+00  0.00000000000E+00  0.68115321894E+03  0.68115321894E+03  0.25500000920E-02 0.  1.
       -2   -1    0    0    0  501  0.00000000000E+00  0.00000000000E+00 -0.82588364566E+03  0.82588364566E+03  0.25500000920E-02 0. -1.
    10030    2    1    2    0    0  0.00000000000E+00  0.00000000000E+00 -0.14473042672E+03  0.15070368646E+04  0.15000710699E+04 0.  0.
        3    1    3    3  502    0  0.22482026707E+03 -0.57659751556E+03 -0.49805970279E+03  0.79440060749E+03  0.10100000352E+00 0. -1.
       -3    1    3    3    0  502 -0.22482026707E+03  0.57659751556E+03  0.35332927607E+03  0.71263625712E+03  0.10100000352E+00 0.  1.
</event>
<event>
 5   0  0.1580078E-05  0.1498258E+04  0.7818609E-02  0.8885612E-01
        1   -1    0    0  501    0  0.00000000000E+00  0.00000000000E+00  0.13915649455E+04  0.13915649455E+04  0.50400001928E-02 0.  1.
       -1   -1    0    0    0  501  0.00000000000E+00  0.00000000000E+00 -0.40328291117E+03  0.40328291120E+03  0.50400001928E-02 0. -1.
    10030    2    1    2    0    0  0.00000000000E+00  0.00000000000E+00  0.98828203430E+03  0.17948478567E+04  0.14982581384E+04 0.  0.
        2    1    3    3  502    0 -0.13468894408E+03 -0.55348995779E+03 -0.88689209095E+02  0.57650500505E+03  0.25500000920E-02 0. -1.
       -2    1    3    3    0  502  0.13468894408E+03  0.55348995779E+03  0.10769712434E+04  0.12183428516E+04  0.25500000920E-02 0.  1.
</event>
<event>
 5   0  0.1576214E-05  0.1499810E+04  0.7818609E-02  0.8884580E-01
       -1   -1    0    0    0  501  0.00000000000E+00  0.00000000000E+00  0.96456850194E+03  0.96456850195E+03  0.50400001928E-02 0. -1.
        1   -1    0    0  501    0  0.00000000000E+00  0.00000000000E+00 -0.58301422760E+03  0.58301422762E+03  0.50400001928E-02 0.  1.
    10030    2    1    2    0    0  0.00000000000E+00  0.00000000000E+00  0.38155427434E+03  0.15475827296E+04  0.14998095348E+04 0.  0.
        1    1    3    3  502    0 -0.30601348797E+03 -0.10045332708E+03 -0.50801051547E+03  0.60150628392E+03  0.50400001928E-02 0.  1.
       -1    1    3    3    0  502  0.30601348797E+03  0.10045332708E+03  0.88956478981E+03  0.94607644566E+03  0.50400001928E-02 0. -1.
</event>
<event>
 5   0  0.1580078E-05  0.1500581E+04  0.7818609E-02  0.8884067E-01
        1   -1    0    0  501    0  0.00000000000E+00  0.00000000000E+00  0.17182730735E+04  0.17182730735E+04  0.50400001928E-02 0.  1.
       -1   -1    0    0    0  501  0.00000000000E+00  0.00000000000E+00 -0.32761718386E+03  0.32761718390E+03  0.50400001928E-02 0. -1.
    10030    2    1    2    0    0  0.00000000000E+00  0.00000000000E+00  0.13906558897E+04  0.20458902574E+04  0.15005809348E+04 0.  0.
        2    1    3    3  502    0  0.19220693123E+03  0.34705695686E+03 -0.17291600579E+03  0.43277243533E+03  0.25500000920E-02 0. -1.
       -2    1    3    3    0  502 -0.19220693123E+03 -0.34705695686E+03  0.15635718955E+04  0.16131178221E+04  0.25500000920E-02 0.  1.
</event>
<event>
 5   0  0.2969498E-05  0.1500155E+04  0.7818609E-02  0.8884350E-01
        2   -1    0    0  501    0  0.00000000000E+00  0.00000000000E+00  0.35259852719E+03  0.35259852720E+03  0.25500000920E-02 0.  1.
       -2   -1    0    0    0  501  0.00000000000E+00  0.00000000000E+00 -0.15956274944E+04  0.15956274944E+04  0.25500000920E-02 0. -1.
    10030    2    1    2    0    0  0.00000000000E+00  0.00000000000E+00 -0.12430289672E+04  0.19482260216E+04  0.15001545313E+04 0.  0.
        3    1    3    3  502    0 -0.66242348748E+03 -0.10537939127E+03 -0.10575052061E+04  0.12522886903E+04  0.10100000352E+00 0. -1.
       -3    1    3    3    0  502  0.66242348748E+03  0.10537939127E+03 -0.18552376110E+03  0.69593733123E+03  0.10100000352E+00 0.  1.
</event>
<event>
 5   0  0.1580078E-05  0.1500853E+04  0.7818609E-02  0.8883886E-01
        1   -1    0    0  501    0  0.00000000000E+00  0.00000000000E+00  0.80629672016E+03  0.80629672018E+03  0.50400001928E-02 0.  1.
       -1   -1    0    0    0  501  0.00000000000E+00  0.00000000000E+00 -0.69842719584E+03  0.69842719586E+03  0.50400001928E-02 0. -1.
    10030    2    1    2    0    0  0.00000000000E+00  0.00000000000E+00  0.10786952432E+03  0.15047239160E+04  0.15008525008E+04 0.  0.
        2    1    3    3  502    0 -0.22421917165E+03 -0.62977857780E+03  0.39576035465E+03  0.77686649581E+03  0.25500000920E-02 0.  1.
       -2    1    3    3    0  502  0.22421917165E+03  0.62977857780E+03 -0.28789083033E+03  0.72785742023E+03  0.25500000920E-02 0. -1.
</event>
<event>
 5   0  0.3070497E-05  0.1499797E+04  0.7818609E-02  0.8884588E-01
        2   -1    0    0  501    0  0.00000000000E+00  0.00000000000E+00  0.15159123376E+04  0.15159123376E+04  0.25500000920E-02 0. -1.
       -2   -1    0    0    0  501  0.00000000000E+00  0.00000000000E+00 -0.37096326728E+03  0.37096326729E+03  0.25500000920E-02 0.  1.
    10030    2    1    2    0    0  0.00000000000E+00  0.00000000000E+00  0.11449490703E+04  0.18868756049E+04  0.14997970445E+04 0.  0.
        4    1    3    3  502    0 -0.62086985151E+03  0.41280779170E+03  0.47138398894E+03  0.88209643653E+03  0.12699999809E+01 0.  1.
       -4    1    3    3    0  502  0.62086985151E+03 -0.41280779170E+03  0.67356508134E+03  0.10047791683E+04  0.12699999809E+01 0. -1.
</event>
<event>
 5   0  0.1588657E-05  0.1495263E+04  0.7818609E-02  0.8887609E-01
        1   -1    0    0  501    0  0.00000000000E+00  0.00000000000E+00  0.23556399184E+04  0.23556399184E+04  0.50400001928E-02 0. -1.
       -1   -1    0    0    0  501  0.00000000000E+00  0.00000000000E+00 -0.23728293697E+03  0.23728293702E+03  0.50400001928E-02 0.  1.
    10030    2    1    2    0    0  0.00000000000E+00  0.00000000000E+00  0.21183569815E+04  0.25929228555E+04  0.14952633994E+04 0.  0.
        3    1    3    3  502    0 -0.60673798913E+03 -0.33831102806E+02  0.30394726919E+03  0.67945528448E+03  0.10100000352E+00 0.  1.
       -3    1    3    3    0  502  0.60673798913E+03  0.33831102806E+02  0.18144097123E+04  0.19134675710E+04  0.10100000352E+00 0. -1.
</event>
<event>
 5   0  0.1576214E-05  0.1501037E+04  0.7818609E-02  0.8883764E-01
        1   -1    0    0  501    0  0.00000000000E+00  0.00000000000E+00  0.10304855958E+04  0.10304855958E+04  0.50400001928E-02 0. -1.
       -1   -1    0    0    0  501  0.00000000000E+00  0.00000000000E+00 -0.54661422963E+03  0.54661422965E+03  0.50400001928E-02 0.  1.
    10030    2    1    2    0    0  0.00000000000E+00  0.00000000000E+00  0.48387136613E+03  0.15770998254E+04  0.15010370949E+04 0.  0.
        1    1    3    3  502    0  0.14023762974E+03 -0.29955070427E+03  0.94978154792E+03  0.10057247168E+04  0.50400001928E-02 0. -1.
       -1    1    3    3    0  502 -0.14023762974E+03  0.29955070427E+03 -0.46591018179E+03  0.57137510861E+03  0.50400001928E-02 0.  1.
</event>
<event>
 5   0  0.3070497E-05  0.1500254E+04  0.7818609E-02  0.8884284E-01
        2   -1    0    0  501    0  0.00000000000E+00  0.00000000000E+00  0.42325282640E+03  0.42325282641E+03  0.25500000920E-02 0. -1.
       -2   -1    0    0    0  501  0.00000000000E+00  0.00000000000E+00 -0.13294434436E+04  0.13294434436E+04  0.25500000920E-02 0.  1.
    10030    2    1    2    0    0  0.00000000000E+00  0.00000000000E+00 -0.90619061721E+03  0.17526962700E+04  0.15002542385E+04 0.  0.
        4    1    3    3  502    0 -0.74953746391E+03  0.21266202968E+02 -0.47733284708E+03  0.88887958745E+03  0.12699999809E+01 0.  1.
       -4    1    3    3    0  502  0.74953746391E+03 -0.21266202968E+02 -0.42885777013E+03  0.86381668257E+03  0.12699999809E+01 0. -1.
</event>
<event>
 5   0  0.3030702E-05  0.1499981E+04  0.7818609E-02  0.8884465E-01
       -2   -1    0    0    0  501  0.00000000000E+00  0.00000000000E+00  0.47971415842E+03  0.47971415842E+03  0.25500000920E-02 0.  1.
        2   -1    0    0  501    0  0.00000000000E+00  0.00000000000E+00 -0.11725437337E+04  0.11725437337E+04  0.25500000920E-02 0. -1.
    10030    2    1    2    0    0  0.00000000000E+00  0.00000000000E+00 -0.69282957531E+03  0.16522578922E+04  0.14999811071E+04 0.  0.
        5    1    3    3  502    0 -0.37101645523E+03  0.42417346264E+03 -0.89151364254E+03  0.10547013802E+04  0.46999998093E+01 0.  1.
       -5    1    3    3    0  502  0.37101645523E+03 -0.42417346264E+03  0.19868406723E+03  0.59755651200E+03  0.46999998093E+01 0. -1.
</event>
<event>
 5   0  0.1580078E-05  0.1499495E+04  0.7818609E-02  0.8884788E-01
        1   -1    0    0  501    0  0.00000000000E+00  0.00000000000E+00  0.94041866170E+03  0.94041866172E+03  0.50400001928E-02 0.  1.
       -1   -1    0    0    0  501  0.00000000000E+00  0.00000000000E+00 -0.59773555066E+03  0.59773555068E+03  0.50400001928E-02 0. -1.
    10030    2    1    2    0    0  0.00000000000E+00  0.00000000000E+00  0.34268311105E+03  0.15381542124E+04  0.14994954707E+04 0.  0.
        2    1    3    3  502    0  0.42384766684E+03 -0.18873908979E+03  0.77546690451E+03  0.90366930273E+03  0.25500000920E-02 0.  1.
       -2    1    3    3    0  502 -0.42384766684E+03  0.18873908979E+03 -0.43278379346E+03  0.63448490967E+03  0.25500000920E-02 0. -1.
</event>
<event>
 5   0  0.1580078E-05  0.1499060E+04  0.7818609E-02  0.8885078E-01
        1   -1    0    0  501    0  0.00000000000E+00  0.00000000000E+00  0.14614677789E+04  0.14614677789E+04  0.50400001928E-02 0. -1.
       -1   -1    0    0    0  501  0.00000000000E+00  0.00000000000E+00 -0.38440490632E+03  0.38440490635E+03  0.50400001928E-02 0.  1.
    10030    2    1    2    0    0  0.00000000000E+00  0.00000000000E+00  0.10770628726E+04  0.18458726853E+04  0.14990602185E+04 0.  0.
        2    1    3    3  502    0 -0.27664043703E+03  0.48664783450E+03  0.11522833315E+04  0.12810592969E+04  0.25500000920E-02 0. -1.
       -2    1    3    3    0  502  0.27664043703E+03 -0.48664783450E+03 -0.75220458872E+02  0.56481338836E+03  0.25500000920E-02 0.  1.
</event>
<event>
 5   0  0.1576214E-05  0.1497760E+04  0.7818609E-02  0.8885944E-01
        1   -1    0    0  501    0  0.00000000000E+00  0.00000000000E+00  0.15956037464E+04  0.15956037465E+04  0.50400001928E-02 0. -1.
       -1   -1    0    0    0  501  0.00000000000E+00  0.00000000000E+00 -0.35147903450E+03  0.35147903453E+03  0.50400001928E-02 0.  1.
    10030    2    1    2    0    0  0.00000000000E+00  0.00000000000E+00  0.12441247120E+04  0.19470827810E+04  0.14977600132E+04 0.  0.
        1    1    3    3  502    0 -0.68086987620E+02 -0.56909459925E+03 -0.45262001082E+01  0.57317099306E+03  0.50400001928E-02 0.  1.
       -1    1    3    3    0  502  0.68086987620E+02  0.56909459925E+03  0.12486509121E+04  0.13739117879E+04  0.50400001928E-02 0. -1.
</event>
<event>
 5   0  0.1533777E-05  0.1500831E+04  0.7818609E-02  0.8883901E-01
        1   -1    0    0  501    0  0.00000000000E+00  0.00000000000E+00  0.12744434901E+04  0.12744434901E+04  0.50400001928E-02 0.  1.
       -1   -1    0    0    0  501  0.00000000000E+00  0.00000000000E+00 -0.44185824432E+03  0.44185824435E+03  0.50400001928E-02 0. -1.
    10030    2    1    2    0    0  0.00000000000E+00  0.00000000000E+00  0.83258524581E+03  0.17163017345E+04  0.15008309206E+04 0.  0.
        5    1    3    3  502    0  0.28829330860E+03  0.18564984454E+03 -0.34700978698E+03  0.48786963302E+03  0.46999998093E+01 0. -1.
       -5    1    3    3    0  502 -0.28829330860E+03 -0.18564984454E+03  0.11795950328E+04  0.12284321015E+04  0.46999998093E+01 0.  1.
</event>
<event>
 5   0  0.1588657E-05  0.1498695E+04  0.7818609E-02  0.8885321E-01
       -1   -1    0    0    0  501  0.00000000000E+00  0.00000000000E+00  0.38535964971E+03  0.38535964975E+03  0.50400001928E-02 0.  1.
        1   -1    0    0  501    0  0.00000000000E+00  0.00000000000E+00 -0.14571363160E+04  0.14571363160E+04  0.50400001928E-02 0. -1.
    10030    2    1    2    0    0  0.00000000000E+00  0.00000000000E+00 -0.10717766663E+04  0.18424959658E+04  0.14986948193E+04 0.  0.
        3    1    3    3  502    0  0.12213287377E+01  0.74601726617E+03 -0.44914564589E+03  0.87078991410E+03  0.10100000352E+00 0.  1.
       -3    1    3    3    0  502 -0.12213287377E+01 -0.74601726617E+03 -0.62263102042E+03  0.97170605168E+03  0.10100000352E+00 0. -1.
</event>
<event>
 5   0  0.3093600E-05  0.1499973E+04  0.7818609E-02  0.8884471E-01
        2   -1    0    0  501    0  0.00000000000E+00  0.00000000000E+00  0.88454182726E+03  0.88454182726E+03  0.25500000920E-02 0.  1.
       -2   -1    0    0    0  501  0.00000000000E+00  0.00000000000E+00 -0.63589985201E+03  0.63589985202E+03  0.25500000920E-02 0. -1.
    10030    2    1    2    0    0  0.00000000000E+00  0.00000000000E+00  0.24864197525E+03  0.15204416793E+04  0.14999733558E+04 0.  0.
        1    1    3    3  502    0 -0.17768065805E+02 -0.73219304153E+03 -0.39305629413E+02  0.73346253262E+03  0.50400001928E-02 0.  1.
       -1    1    3    3    0  502  0.17768065805E+02  0.73219304153E+03  0.28794760466E+03  0.78697914666E+03  0.50400001928E-02 0. -1.
</event>
<event>
 5   0  0.1533777E-05  0.1500132E+04  0.7818609E-02  0.8884365E-01
       -1   -1    0    0    0  501  0.00000000000E+00  0.00000000000E+00  0.10849093043E+04  0.10849093043E+04  0.50400001928E-02 0. -1.
        1   -1    0    0  501    0  0.00000000000E+00  0.00000000000E+00 -0.51856802542E+03  0.51856802545E+03  0.50400001928E-02 0.  1.
    10030    2    1    2    0    0  0.00000000000E+00  0.00000000000E+00  0.56634127883E+03  0.16034773297E+04  0.15001323618E+04 0.  0.
        5    1    3    3  502    0  0.52719379973E+03  0.53332788488E+03  0.29848416852E+03  0.80714733731E+03  0.46999998093E+01 0.  1.
       -5    1    3    3    0  502 -0.52719379973E+03 -0.53332788488E+03  0.26785711031E+03  0.79632999240E+03  0.46999998093E+01 0. -1.
</event>
<event>
 5   0  0.1576214E-05  0.1499827E+04  0.7818609E-02  0.8884568E-01
       -1   -1    0    0    0  501  0.00000000000E+00  0.00000000000E+00  0.43983128430E+03  0.43983128433E+03  0.50400001928E-02 0. -1.
        1   -1    0    0  501    0  0.00000000000E+00  0.00000000000E+00 -0.12786046452E+04  0.12786046452E+04  0.50400001928E-02 0.  1.
    10030    2    1    2    0    0  0.00000000000E+00  0.00000000000E+00 -0.83877336087E+03  0.17184359295E+04  0.14998270877E+04 0.  0.
        1    1    3    3  502    0 -0.16891524587E+03  0.13927197661E+03  0.40240181363E+03  0.45810071316E+03  0.50400001928E-02 0. -1.
       -1    1    3    3    0  502  0.16891524587E+03 -0.13927197661E+03 -0.12411751745E+04  0.12603352164E+04  0.50400001928E-02 0.  1.
</event>
<event>
 5   0  0.1576214E-05  0.1506359E+04  0.7818609E-02  0.8880235E-01
       -1   -1    0    0    0  501  0.00000000000E+00  0.00000000000E+00  0.69469738581E+03  0.69469738583E+03  0.50400001928E-02 0. -1.
        1   -1    0    0  501    0  0.00000000000E+00  0.00000000000E+00 -0.81658465592E+03  0.81658465594E+03  0.50400001928E-02 0.  1.
    10030    2    1    2    0    0  0.00000000000E+00  0.00000000000E+00 -0.12188727011E+03  0.15112820418E+04  0.15063588228E+04 0.  0.
        1    1    3    3  502    0  0.17164210228E+03 -0.63512354033E+03  0.30691026656E+03  0.72597302601E+03  0.50400001928E-02 0. -1.
       -1    1    3    3    0  502 -0.17164210228E+03  0.63512354033E+03 -0.42879753666E+03  0.78530901576E+03  0.50400001928E-02 0.  1.
</event>
<event>
 5   0  0.1643498E-05  0.1500160E+04  0.7818609E-02  0.8884346E-01
        1   -1    0    0  501    0  0.00000000000E+00  0.00000000000E+00  0.48953328349E+03  0.48953328351E+03  0.50400001928E-02 0.  1.
       -1   -1    0    0    0  501  0.00000000000E+00  0.00000000000E+00 -0.11492993315E+04  0.11492993316E+04  0.50400001928E-02 0. -1.
    10030    2    1    2    0    0  0.00000000000E+00  0.00000000000E+00 -0.65976604805E+03  0.16388326151E+04  0.15001603588E+04 0.  0.
        4    1    3    3  502    0 -0.72170418209E+03  0.14671839555E+03 -0.48528385305E+03  0.88197802975E+03  0.12699999809E+01 0. -1.
       -4    1    3    3    0  502  0.72170418209E+03 -0.14671839555E+03 -0.17448219500E+03  0.75685458531E+03  0.12699999809E+01 0.  1.
</event>
<event>
 5   0  0.1588657E-05  0.1500162E+04  0.7818609E-02  0.8884345E-01
        1   -1    0    0  501    0  0.00000000000E+00  0.00000000000E+00  0.43606038654E+03  0.43606038656E+03  0.50400001928E-02 0. -1.
       -1   -1    0    0    0  501  0.00000000000E+00  0.00000000000E+00 -0.12902370835E+04  0.12902370835E+04  0.50400001928E-02 0.  1.
    10030    2    1    2    0    0  0.00000000000E+00  0.00000000000E+00 -0.85417669697E+03  0.17262974701E+04  0.15001616998E+04 0.  0.
        3    1    3    3  502    0 -0.28549640634E+03 -0.13419094859E+03 -0.12101892069E+04  0.12506291758E+04  0.10100000352E+00 0.  1.
       -3    1    3    3    0  502  0.28549640634E+03  0.13419094859E+03  0.35601250994E+03  0.47566829425E+03  0.10100000352E+00 0. -1.
</event>
<event>
 5   0  0.3093600E-05  0.1507357E+04  0.7818609E-02  0.8879576E-01
       -2   -1    0    0    0  501  0.00000000000E+00  0.00000000000E+00  0.71446643270E+03  0.71446643270E+03  0.25500000920E-02 0. -1.
        2   -1    0    0  501    0  0.00000000000E+00  0.00000000000E+00 -0.79504225002E+03  0.79504225003E+03  0.25500000920E-02 0.  1.
    10030    2    1    2    0    0  0.00000000000E+00  0.00000000000E+00 -0.80575817329E+02  0.15095086827E+04  0.15073566270E+04 0.  0.
        1    1    3    3  502    0  0.27063016827E+03  0.46306661993E+03  0.48995800509E+03  0.72645043137E+03  0.50400001928E-02 0. -1.
       -1    1    3    3    0  502 -0.27063016827E+03 -0.46306661993E+03 -0.57053382242E+03  0.78305825136E+03  0.50400001928E-02 0.  1.
</event>
<event>
 5   0  0.3030702E-05  0.1500596E+04  0.7818609E-02  0.8884056E-01
        2   -1    0    0  501    0  0.00000000000E+00  0.00000000000E+00  0.61968486908E+03  0.61968486909E+03  0.25500000920E-02 0. -1.
       -2   -1    0    0    0  501  0.00000000000E+00  0.00000000000E+00 -0.90844146109E+03  0.90844146109E+03  0.25500000920E-02 0.  1.
    10030    2    1    2    0    0  0.00000000000E+00  0.00000000000E+00 -0.28875659200E+03  0.15281263302E+04  0.15005964519E+04 0.  0.
        5    1    3    3  502    0 -0.28448564591E+02  0.10051732142E+03  0.61222758932E+03  0.62109400565E+03  0.46999998093E+01 0. -1.
       -5    1    3    3    0  502  0.28448564591E+02 -0.10051732142E+03 -0.90098418133E+03  0.90703232452E+03  0.46999998093E+01 0.  1.
</event>
<event>
 5   0  0.1588657E-05  0.1501070E+04  0.7818609E-02  0.8883741E-01
       -1   -1    0    0    0  501  0.00000000000E+00  0.00000000000E+00  0.39455579661E+03  0.39455579664E+03  0.50400001928E-02 0. -1.
        1   -1    0    0  501    0  0.00000000000E+00  0.00000000000E+00 -0.14276892215E+04  0.14276892215E+04  0.50400001928E-02 0.  1.
    10030    2    1    2    0    0  0.00000000000E+00  0.00000000000E+00 -0.10331334249E+04  0.18222450182E+04  0.15010703623E+04 0.  0.
        3    1    3    3  502    0 -0.74975771088E+03 -0.34027041273E+02 -0.51301011270E+03  0.90910607219E+03  0.10100000352E+00 0.  1.
       -3    1    3    3    0  502  0.74975771088E+03  0.34027041273E+02 -0.52012331222E+03  0.91313894599E+03  0.10100000352E+00 0. -1.
</event>
<event>
 5   0  0.1116613E-05  0.1499895E+04  0.7818609E-02  0.8884523E-01
        4   -1    0    0  501    0  0.00000000000E+00  0.00000000000E+00  0.15284784505E+04  0.15284789781E+04  0.12699999809E+01 0. -1.
       -4   -1    0    0    0  501  0.00000000000E+00  0.00000000000E+00 -0.36795960311E+03  0.36796179478E+03  0.12699999809E+01 0.  1.
    10030    2    1    2    0    0  0.00000000000E+00  0.00000000000E+00  0.11605188474E+04  0.18964407729E+04  0.14998945330E+04 0.  0.
        1    1    3    3  502    0  0.60513104911E+03  0.39975177770E+03  0.33891186628E+03  0.80052877743E+03  0.50400001928E-02 0.  1.
       -1    1    3    3    0  502 -0.60513104911E+03 -0.39975177770E+03  0.82160698113E+03  0.10959119955E+04  0.50400001928E-02 0. -1.
</event>
<event>
 5   0  0.1643498E-05  0.1500217E+04  0.7818609E-02  0.8884309E-01
        1   -1    0    0  501    0  0.00000000000E+00  0.00000000000E+00  0.70103946754E+03  0.70103946756E+03  0.50400001928E-02 0. -1.
       -1   -1    0    0    0  501  0.00000000000E+00  0.00000000000E+00 -0.80261174873E+03  0.80261174875E+03  0.50400001928E-02 0.  1.
    10030    2    1    2    0    0  0.00000000000E+00  0.00000000000E+00 -0.10157228119E+03  0.15036512163E+04  0.15002166683E+04 0.  0.
        4    1    3    3  502    0  0.27114345977E+03 -0.36952297856E+03 -0.64594257344E+03  0.79202867912E+03  0.12699999809E+01 0.  1.
       -4    1    3    3    0  502 -0.27114345977E+03  0.36952297856E+03  0.54437029225E+03  0.71162253719E+03  0.12699999809E+01 0. -1.
</event>
<event>
 5   0  0.1580078E-05  0.1501747E+04  0.7818609E-02  0.8883292E-01
        1   -1    0    0  501    0  0.00000000000E+00  0.00000000000E+00  0.12941247429E+04  0.12941247429E+04  0.50400001928E-02 0. -1.
       -1   -1    0    0    0  501  0.00000000000E+00  0.00000000000E+00 -0.43566988459E+03  0.43566988462E+03  0.50400001928E-02 0.  1.
    10030    2    1    2    0    0  0.00000000000E+00  0.00000000000E+00  0.85845485829E+03  0.17297946275E+04  0.15017472189E+04 0.  0.
        2    1    3    3  502    0 -0.64320696429E+02 -0.70590217539E+03  0.71459032808E+03  0.10065159563E+04  0.25500000920E-02 0.  1.
       -2    1    3    3    0  502  0.64320696429E+02  0.70590217539E+03  0.14386453020E+03  0.72327867124E+03  0.25500000920E-02 0. -1.
</event>
<event>
 5   0  0.1576214E-05  0.1499470E+04  0.7818609E-02  0.8884805E-01
        1   -1    0    0  501    0  0.00000000000E+00  0.00000000000E+00  0.88694741908E+03  0.88694741909E+03  0.50400001928E-02 0. -1.
       -1   -1    0    0    0  501  0.00000000000E+00  0.00000000000E+00 -0.63374983039E+03  0.63374983041E+03  0.50400001928E-02 0.  1.
    10030    2    1    2    0    0  0.00000000000E+00  0.00000000000E+00  0.25319758868E+03  0.15206972495E+04  0.14994702750E+04 0.  0.
        1    1    3    3  502    0  0.72744145330E+03 -0.70000398927E+02 -0.43197907627E+02  0.73207730676E+03  0.50400001928E-02 0.  1.
       -1    1    3    3    0  502 -0.72744145330E+03  0.70000398927E+02  0.29639549631E+03  0.78861994274E+03  0.50400001928E-02 0. -1.
</event>
<event>
 5   0  0.1533777E-05  0.1499770E+04  0.7818609E-02  0.8884606E-01
        1   -1    0    0  501    0  0.00000000000E+00  0.00000000000E+00  0.87894758931E+03  0.87894758933E+03  0.50400001928E-02 0.  1.
       -1   -1    0    0    0  501  0.00000000000E+00  0.00000000000E+00 -0.63977393873E+03  0.63977393875E+03  0.50400001928E-02 0. -1.
    10030    2    1    2    0    0  0.00000000000E+00  0.00000000000E+00  0.23917365058E+03  0.15187215281E+04  0.14997703307E+04 0.  0.
        5    1    3    3  502    0  0.13740971866E+03 -0.70011299668E+03  0.35329750864E+03  0.79616635103E+03  0.46999998093E+01 0.  1.
       -5    1    3    3    0  502 -0.13740971866E+03  0.70011299668E+03 -0.11412385805E+03  0.72255517705E+03  0.46999998093E+01 0. -1.
</event>
<event>
 5   0  0.3030702E-05  0.1499711E+04  0.7818609E-02  0.8884645E-01
        2   -1    0    0  501    0  0.00000000000E+00  0.00000000000E+00  0.22681373898E+04  0.22681373898E+04  0.25500000920E-02 0.  1.
       -2   -1    0    0    0  501  0.00000000000E+00  0.00000000000E+00 -0.24790529703E+03  0.24790529704E+03  0.25500000920E-02 0. -1.
    10030    2    1    2    0    0  0.00000000000E+00  0.00000000000E+00  0.20202320928E+04  0.25160426869E+04  0.14997110033E+04 0.  0.
        5    1    3    3  502    0 -0.10241128105E+03  0.15537601471E+03 -0.20852484434E+03  0.27952544990E+03  0.46999998093E+01 0. -1.
       -5    1    3    3    0  502  0.10241128105E+03 -0.15537601471E+03  0.22287569372E+04  0.22365172370E+04  0.46999998093E+01 0.  1.
</event>
<event>
 5   0  0.3070497E-05  0.1500156E+04  0.7818609E-02  0.8884349E-01
       -2   -1    0    0    0  501  0.00000000000E+00  0.00000000000E+00  0.18030034199E+03  0.18030034200E+03  0.25500000920E-02 0.  1.
        2   -1    0    0  501    0  0.00000000000E+00  0.00000000000E+00 -0.31204437349E+04  0.31204437349E+04  0.25500000920E-02 0. -1.
    10030    2    1    2    0    0  0.00000000000E+00  0.00000000000E+00 -0.29401433929E+04  0.33007440769E+04  0.15001560886E+04 0.  0.
        4    1    3    3  502    0 -0.35012854087E+03  0.28111823607E+03 -0.14808281457E+03  0.47280819647E+03  0.12699999809E+01 0.  1.
       -4    1    3    3    0  502  0.35012854087E+03 -0.28111823607E+03 -0.27920605783E+04  0.28279358804E+04  0.12699999809E+01 0. -1.
</event>
<event>
 5   0  0.1533777E-05  0.1504693E+04  0.7818609E-02  0.8881338E-01
       -1   -1    0    0    0  501  0.00000000000E+00  0.00000000000E+00  0.17601634397E+04  0.17601634397E+04  0.50400001928E-02 0.  1.
        1   -1    0    0  501    0  0.00000000000E+00  0.00000000000E+00 -0.32157545410E+03  0.32157545414E+03  0.50400001928E-02 0. -1.
    10030    2    1    2    0    0  0.00000000000E+00  0.00000000000E+00  0.14385879856E+04  0.20817388939E+04  0.15046931348E+04 0.  0.
        5    1    3    3  502    0  0.30998736166E+03  0.67228774776E+03  0.53398648575E+03  0.91281248739E+03  0.46999998093E+01 0. -1.
       -5    1    3    3    0  502 -0.30998736166E+03 -0.67228774776E+03  0.90460149986E+03  0.11689264065E+04  0.46999998093E+01 0.  1.
</event>
<event>
 5   0  0.1116613E-05  0.1500177E+04  0.7818609E-02  0.8884335E-01
       -3   -1    0    0    0  501  0.00000000000E+00  0.00000000000E+00  0.13894286144E+04  0.13894286181E+04  0.10100000352E+00 0.  1.
        3   -1    0    0  501    0  0.00000000000E+00  0.00000000000E+00 -0.40493836800E+03  0.40493838059E+03  0.10100000352E+00 0. -1.
    10030    2    1    2    0    0  0.00000000000E+00  0.00000000000E+00  0.98449024643E+03  0.17943669987E+04  0.15001772831E+04 0.  0.
        2    1    3    3  502    0 -0.40869729474E+03  0.62896109312E+03  0.49550651338E+03  0.89897288067E+03  0.25500000920E-02 0.  1.
       -2    1    3    3    0  502  0.40869729474E+03 -0.62896109312E+03  0.48898373305E+03  0.89539411801E+03  0.25500000920E-02 0. -1.
</event>
<event>
 5   0  0.2969498E-05  0.1499838E+04  0.7818609E-02  0.8884561E-01
        2   -1    0    0  501    0  0.00000000000E+00  0.00000000000E+00  0.10180580583E+04  0.10180580583E+04  0.25500000920E-02 0. -1.
       -2   -1    0    0    0  501  0.00000000000E+00  0.00000000000E+00 -0.55240285664E+03  0.55240285665E+03  0.25500000920E-02 0.  1.
    10030    2    1    2    0    0  0.00000000000E+00  0.00000000000E+00  0.46565520169E+03  0.15704609150E+04  0.14998375641E+04 0.  0.
        3    1    3    3  502    0  0.73687683864E+03  0.13045288884E+03  0.18182318338E+03  0.77010720795E+03  0.10100000352E+00 0.  1.
       -3    1    3    3    0  502 -0.73687683864E+03 -0.13045288884E+03  0.28383201831E+03  0.80035370702E+03  0.10100000352E+00 0. -1.
</event>
<event>
 5   0  0.3070497E-05  0.1500456E+04  0.7818609E-02  0.8884150E-01
       -2   -1    0    0    0  501  0.00000000000E+00  0.00000000000E+00  0.77829723066E+03  0.77829723066E+03  0.25500000920E-02 0. -1.
        2   -1    0    0  501    0  0.00000000000E+00  0.00000000000E+00 -0.72317072965E+03  0.72317072965E+03  0.25500000920E-02 0.  1.
    10030    2    1    2    0    0  0.00000000000E+00  0.00000000000E+00  0.55126501010E+02  0.15014679603E+04  0.15004556324E+04 0.  0.
        4    1    3    3  502    0 -0.44029815155E+03 -0.38018967495E+03 -0.44650051737E+03  0.73332869581E+03  0.12699999809E+01 0.  1.
       -4    1    3    3    0  502  0.44029815155E+03  0.38018967495E+03  0.50162701838E+03  0.76813926450E+03  0.12699999809E+01 0. -1.
</event>
<event>
 5   0  0.3070497E-05  0.1499569E+04  0.7818609E-02  0.8884740E-01
       -2   -1    0    0    0  501  0.00000000000E+00  0.00000000000E+00  0.73740518812E+03  0.73740518813E+03  0.25500000920E-02 0. -1.
        2   -1    0    0  501    0  0.00000000000E+00  0.00000000000E+00 -0.76237117372E+03  0.76237117372E+03  0.25500000920E-02 0.  1.
    10030    2    1    2    0    0  0.00000000000E+00  0.00000000000E+00 -0.24965985592E+02  0.14997763618E+04  0.14995685497E+04 0.  0.
        4    1    3    3  502    0 -0.10049587286E+03  0.39061840409E+03 -0.64462492300E+03  0.76041111402E+03  0.12699999809E+01 0.  1.
       -4    1    3    3    0  502  0.10049587286E+03 -0.39061840409E+03  0.61965893741E+03  0.73936524782E+03  0.12699999809E+01 0. -1.
</event>
<event>
 5   0  0.1576214E-05  0.1499772E+04  0.7818609E-02  0.8884604E-01
       -1   -1    0    0    0  501  0.00000000000E+00  0.00000000000E+00  0.10479924265E+04  0.10479924265E+04  0.50400001928E-02 0. -1.
        1   -1    0    0  501    0  0.00000000000E+00  0.00000000000E+00 -0.53657764226E+03  0.53657764229E+03  0.50400001928E-02 0.  1.
    10030    2    1    2    0    0  0.00000000000E+00  0.00000000000E+00  0.51141478424E+03  0.15845700688E+04  0.14997723899E+04 0.  0.
        1    1    3    3  502    0 -0.30218409578E+03  0.35732975734E+03  0.87478011452E+03  0.99208872184E+03  0.50400001928E-02 0. -1.
       -1    1    3    3    0  502  0.30218409578E+03 -0.35732975734E+03 -0.36336533027E+03  0.59248134696E+03  0.50400001928E-02 0.  1.
</event>
<event>
 5   0  0.1588657E-05  0.1500011E+04  0.7818609E-02  0.8884445E-01
        1   -1    0    0  501    0  0.00000000000E+00  0.00000000000E+00  0.12480168114E+04  0.12480168114E+04  0.50400001928E-02 0.  1.
       -1   -1    0    0    0  501  0.00000000000E+00  0.00000000000E+00 -0.45072186214E+03  0.45072186217E+03  0.50400001928E-02 0. -1.
    10030    2    1    2    0    0  0.00000000000E+00  0.00000000000E+00  0.79729494921E+03  0.16987386735E+04  0.15000112816E+04 0.  0.
        3    1    3    3  502    0  0.28900724427E+03 -0.39908337111E+03  0.10389925125E+04  0.11499122469E+04  0.10100000352E+00 0.  1.
       -3    1    3    3    0  502 -0.28900724427E+03  0.39908337111E+03 -0.24169756325E+03  0.54882642667E+03  0.10100000352E+00 0. -1.
</event>
<event>
 5   0  0.1588657E-05  0.1500045E+04  0.7818609E-02  0.8884423E-01
        1   -1    0    0  501    0  0.00000000000E+00  0.00000000000E+00  0.74045664124E+03  0.74045664126E+03  0.50400001928E-02 0. -1.
       -1   -1    0    0    0  501  0.00000000000E+00  0.00000000000E+00 -0.75971219093E+03  0.75971219095E+03  0.50400001928E-02 0.  1.
    10030    2    1    2    0    0  0.00000000000E+00  0.00000000000E+00 -0.19255549693E+02  0.15001688322E+04  0.15000452490E+04 0.  0.
        3    1    3    3  502    0 -0.25983696495E+03 -0.37584286400E+03 -0.60445473522E+03  0.75771937015E+03  0.10100000352E+00 0.  1.
       -3    1    3    3    0  502  0.25983696495E+03  0.37584286400E+03  0.58519918552E+03  0.74244946206E+03  0.10100000352E+00 0. -1.
</event>
<event>
 5   0  0.3093600E-05  0.1499832E+04  0.7818609E-02  0.8884565E-01
        2   -1    0    0  501    0  0.00000000000E+00  0.00000000000E+00  0.92781942904E+03  0.92781942905E+03  0.25500000920E-02 0. -1.
       -2   -1    0    0    0  501  0.00000000000E+00  0.00000000000E+00 -0.60612440494E+03  0.60612440495E+03  0.25500000920E-02 0.  1.
    10030    2    1    2    0    0  0.00000000000E+00  0.00000000000E+00  0.32169502410E+03  0.15339438340E+04  0.14998319897E+04 0.  0.
        1    1    3    3  502    0 -0.70548863668E+03 -0.13565714277E+03  0.38081333769E+03  0.81310262271E+03  0.50400001928E-02 0.  1.
       -1    1    3    3    0  502  0.70548863668E+03  0.13565714277E+03 -0.59118313593E+02  0.72084121129E+03  0.50400001928E-02 0. -1.
</event>
<event>
 5   0  0.1643498E-05  0.1499490E+04  0.7818609E-02  0.8884792E-01
       -1   -1    0    0    0  501  0.00000000000E+00  0.00000000000E+00  0.44645314532E+03  0.44645314535E+03  0.50400001928E-02 0. -1.
        1   -1    0    0  501    0  0.00000000000E+00  0.00000000000E+00 -0.12590741358E+04  0.12590741358E+04  0.50400001928E-02 0.  1.
    10030    2    1    2    0    0  0.00000000000E+00  0.00000000000E+00 -0.81262099045E+03  0.17055272811E+04  0.14994900575E+04 0.  0.
        4    1    3    3  502    0  0.49290757321E+03  0.48317642380E+03 -0.73927819307E+03  0.10114104962E+04  0.12699999809E+01 0.  1.
       -4    1    3    3    0  502 -0.49290757321E+03 -0.48317642380E+03 -0.73342797377E+02  0.69411678489E+03  0.12699999809E+01 0. -1.
</event>
<event>
 5   0  0.2969498E-05  0.1500894E+04  0.7818609E-02  0.8883858E-01
       -2   -1    0    0    0  501  0.00000000000E+00  0.00000000000E+00  0.79128991470E+03  0.79128991470E+03  0.25500000920E-02 0.  1.
        2   -1    0    0  501    0  0.00000000000E+00  0.00000000000E+00 -0.71171248686E+03  0.71171248687E+03  0.25500000920E-02 0. -1.
    10030    2    1    2    0    0  0.00000000000E+00  0.00000000000E+00  0.79577427834E+02  0.15030024016E+04  0.15008942841E+04 0.  0.
        3    1    3    3  502    0  0.32902603730E+03 -0.56982159905E+03  0.40115026161E+03  0.77063372010E+03  0.10100000352E+00 0.  1.
       -3    1    3    3    0  502 -0.32902603730E+03  0.56982159905E+03 -0.32157283378E+03  0.73236868146E+03  0.10100000352E+00 0. -1.
</event>
<event>
 5   0  0.1533777E-05  0.1500302E+04  0.7818609E-02  0.8884252E-01
        1   -1    0    0  501    0  0.00000000000E+00  0.00000000000E+00  0.92531867900E+03  0.92531867901E+03  0.50400001928E-02 0. -1.
       -1   -1    0    0    0  501  0.00000000000E+00  0.00000000000E+00 -0.60814385748E+03  0.60814385750E+03  0.50400001928E-02 0.  1.
    10030    2    1    2    0    0  0.00000000000E+00  0.00000000000E+00  0.31717482153E+03  0.15334625365E+04  0.15003024640E+04 0.  0.
        5    1    3    3  502    0 -0.27222922145E+03 -0.37468917197E+03  0.76171786872E+03  0.89148018830E+03  0.46999998093E+01 0. -1.
       -5    1    3    3    0  502  0.27222922145E+03  0.37468917197E+03 -0.44454304720E+03  0.64198234821E+03  0.46999998093E+01 0.  1.
</event>
<event>
 5   0  0.2969498E-05  0.1499149E+04  0.7818609E-02  0.8885019E-01
        2   -1    0    0  501    0  0.00000000000E+00  0.00000000000E+00  0.12575014485E+04  0.12575014485E+04  0.25500000920E-02 0.  1.
       -2   -1    0    0    0  501  0.00000000000E+00  0.00000000000E+00 -0.44680817442E+03  0.44680817443E+03  0.25500000920E-02 0. -1.
    10030    2    1    2    0    0  0.00000000000E+00  0.00000000000E+00  0.81069327409E+03  0.17043096229E+04  0.14991489940E+04 0.  0.
        3    1    3    3  502    0  0.17721331986E+03  0.18631924214E+03 -0.39509887294E+03  0.47140486880E+03  0.10100000352E+00 0. -1.
       -3    1    3    3    0  502 -0.17721331986E+03 -0.18631924214E+03  0.12057921470E+04  0.12329047541E+04  0.10100000352E+00 0.  1.
</event>
<event>
 5   0  0.3093600E-05  0.1500713E+04  0.7818609E-02  0.8883979E-01
       -2   -1    0    0    0  501  0.00000000000E+00  0.00000000000E+00  0.30482969698E+03  0.30482969699E+03  0.25500000920E-02 0.  1.
        2   -1    0    0  501    0  0.00000000000E+00  0.00000000000E+00 -0.18470485253E+04  0.18470485253E+04  0.25500000920E-02 0. -1.
    10030    2    1    2    0    0  0.00000000000E+00  0.00000000000E+00 -0.15422188283E+04  0.21518782223E+04  0.15007134867E+04 0.  0.
        1    1    3    3  502    0 -0.55446167063E+02  0.72238668980E+03 -0.10510639041E+04  0.12765782927E+04  0.50400001928E-02 0. -1.
       -1    1    3    3    0  502  0.55446167063E+02 -0.72238668980E+03 -0.49115492427E+03  0.87529992957E+03  0.50400001928E-02 0.  1.
</event>
<event>
 5   0  0.1533777E-05  0.1501247E+04  0.7818609E-02  0.8883624E-01
        1   -1    0    0  501    0  0.00000000000E+00  0.00000000000E+00  0.20242798764E+04  0.20242798764E+04  0.50400001928E-02 0.  1.
       -1   -1    0    0    0  501  0.00000000000E+00  0.00000000000E+00 -0.27833898092E+03  0.27833898097E+03  0.50400001928E-02 0. -1.
    10030    2    1    2    0    0  0.00000000000E+00  0.00000000000E+00  0.17459408955E+04  0.23026188574E+04  0.15012474785E+04 0.  0.
        5    1    3    3  502    0 -0.10385231467E+03 -0.67308873359E+03  0.13569825033E+04  0.15183073967E+04  0.46999998093E+01 0.  1.
       -5    1    3    3    0  502  0.10385231467E+03  0.67308873359E+03  0.38895839220E+03  0.78431146071E+03  0.46999998093E+01 0. -1.
</event>
<event>
 5   0  0.1580078E-05  0.1501381E+04  0.7818609E-02  0.8883535E-01
        1   -1    0    0  501    0  0.00000000000E+00  0.00000000000E+00  0.91291276358E+03  0.91291276359E+03  0.50400001928E-02 0. -1.
       -1   -1    0    0    0  501  0.00000000000E+00  0.00000000000E+00 -0.61729458566E+03  0.61729458568E+03  0.50400001928E-02 0.  1.
    10030    2    1    2    0    0  0.00000000000E+00  0.00000000000E+00  0.29561817791E+03  0.15302073493E+04  0.15013808393E+04 0.  0.
        2    1    3    3  502    0  0.20012355234E+03 -0.99351561950E+02  0.87823918620E+03  0.90621423364E+03  0.25500000920E-02 0. -1.
       -2    1    3    3    0  502 -0.20012355234E+03  0.99351561950E+02 -0.58262100828E+03  0.62399311564E+03  0.25500000920E-02 0.  1.
</event>
<event>
 5   0  0.3018308E-05  0.1500177E+04  0.7818609E-02  0.8884335E-01
        2   -1    0    0  501    0  0.00000000000E+00  0.00000000000E+00  0.90767466623E+03  0.90767466624E+03  0.25500000920E-02 0.  1.
       -2   -1    0    0    0  501  0.00000000000E+00  0.00000000000E+00 -0.61986136087E+03  0.61986136088E+03  0.25500000920E-02 0. -1.
    10030    2    1    2    0    0  0.00000000000E+00  0.00000000000E+00  0.28781330536E+03  0.15275360271E+04  0.15001765947E+04 0.  0.
        2    1    3    3  502    0  0.63113569958E+03 -0.22086548858E+03 -0.20217220589E+03  0.69856097527E+03  0.25500000920E-02 0. -1.
       -2    1    3    3    0  502 -0.63113569958E+03  0.22086548858E+03  0.48998551125E+03  0.82897505184E+03  0.25500000920E-02 0.  1.
</event>
<event>
 5   0  0.3018308E-05  0.1499795E+04  0.7818609E-02  0.8884589E-01
       -2   -1    0    0    0  501  0.00000000000E+00  0.00000000000E+00  0.26639874732E+03  0.26639874734E+03  0.25500000920E-02 0. -1.
        2   -1    0    0  501    0  0.00000000000E+00  0.00000000000E+00 -0.21109203232E+04  0.21109203232E+04  0.25500000920E-02 0.  1.
    10030    2    1    2    0    0  0.00000000000E+00  0.00000000000E+00 -0.18445215759E+04  0.23773190706E+04  0.14997953591E+04 0.  0.
        2    1    3    3  502    0  0.69192065485E+02  0.73049472499E+03 -0.11674973905E+04  0.13789344589E+04  0.25500000920E-02 0.  1.
       -2    1    3    3    0  502 -0.69192065485E+02 -0.73049472499E+03 -0.67702418543E+03  0.99838461167E+03  0.25500000920E-02 0. -1.
</event>
<event>
 5   0  0.1588657E-05  0.1499989E+04  0.7818609E-02  0.8884460E-01
       -1   -1    0    0    0  501  0.00000000000E+00  0.00000000000E+00  0.30213466920E+03  0.30213466925E+03  0.50400001928E-02 0.  1.
        1   -1    0    0  501    0  0.00000000000E+00  0.00000000000E+00 -0.18617248842E+04  0.18617248842E+04  0.50400001928E-02 0. -1.
    10030    2    1    2    0    0  0.00000000000E+00  0.00000000000E+00 -0.15595902150E+04  0.21638595535E+04  0.14999888428E+04 0.  0.
        3    1    3    3  502    0 -0.17560261201E+03  0.49376892406E+03 -0.58282880853E+01  0.52409732574E+03  0.10100000352E+00 0.  1.
       -3    1    3    3    0  502  0.17560261201E+03 -0.49376892406E+03 -0.15537619270E+04  0.16397622278E+04  0.10100000352E+00 0. -1.
</event>
<event>
 5   0  0.1580078E-05  0.1500117E+04  0.7818609E-02  0.8884375E-01
       -1   -1    0    0    0  501  0.00000000000E+00  0.00000000000E+00  0.13263892089E+04  0.13263892089E+04  0.50400001928E-02 0.  1.
        1   -1    0    0  501    0  0.00000000000E+00  0.00000000000E+00 -0.42414983103E+03  0.42414983106E+03  0.50400001928E-02 0. -1.
    10030    2    1    2    0    0  0.00000000000E+00  0.00000000000E+00  0.90223937784E+03  0.17505390399E+04  0.15001170072E+04 0.  0.
        2    1    3    3  502    0  0.37797004650E+03  0.64769230571E+03  0.46847056089E+03  0.88421227393E+03  0.25500000920E-02 0. -1.
       -2    1    3    3    0  502 -0.37797004650E+03 -0.64769230571E+03  0.43376881695E+03  0.86632676601E+03  0.25500000920E-02 0.  1.
</event>
<event>
 5   0  0.3093600E-05  0.1499841E+04  0.7818609E-02  0.8884559E-01
        2   -1    0    0  501    0  0.00000000000E+00  0.00000000000E+00  0.79050352868E+03  0.79050352869E+03  0.25500000920E-02 0. -1.
       -2   -1    0    0    0  501  0.00000000000E+00  0.00000000000E+00 -0.71142052816E+03  0.71142052817E+03  0.25500000920E-02 0.  1.
    10030    2    1    2    0    0  0.00000000000E+00  0.00000000000E+00  0.79083000520E+02  0.15019240569E+04  0.14998405754E+04 0.  0.
        1    1    3    3  502    0  0.14585611559E+03 -0.34440486324E+03  0.69043806131E+03  0.78523463551E+03  0.50400001928E-02 0. -1.
       -1    1    3    3    0  502 -0.14585611559E+03  0.34440486324E+03 -0.61135506079E+03  0.71668942134E+03  0.50400001928E-02 0.  1.
</event>
<event>
 5   0  0.1643498E-05  0.1498117E+04  0.7818609E-02  0.8885706E-01
       -1   -1    0    0    0  501  0.00000000000E+00  0.00000000000E+00  0.34022847780E+03  0.34022847784E+03  0.50400001928E-02 0.  1.
        1   -1    0    0  501    0  0.00000000000E+00  0.00000000000E+00 -0.16491517600E+04  0.16491517600E+04  0.50400001928E-02 0. -1.
    10030    2    1    2    0    0  0.00000000000E+00  0.00000000000E+00 -0.13089232822E+04  0.19893802378E+04  0.14981166750E+04 0.  0.
        4    1    3    3  502    0  0.33913583264E+03  0.43573192100E+03 -0.13266196108E+04  0.14369400212E+04  0.12699999809E+01 0. -1.
       -4    1    3    3    0  502 -0.33913583264E+03 -0.43573192100E+03  0.17696328624E+02  0.55244021659E+03  0.12699999809E+01 0.  1.
</event>
<event>
 5   0  0.3093600E-05  0.1500348E+04  0.7818609E-02  0.8884222E-01
       -2   -1    0    0    0  501  0.00000000000E+00  0.00000000000E+00  0.49406328245E+03  0.49406328246E+03  0.25500000920E-02 0. -1.
        2   -1    0    0  501    0  0.00000000000E+00  0.00000000000E+00 -0.11390459465E+04  0.11390459465E+04  0.25500000920E-02 0.  1.
    10030    2    1    2    0    0  0.00000000000E+00  0.00000000000E+00 -0.64498266402E+03  0.16331092289E+04  0.15003476653E+04 0.  0.
        1    1    3    3  502    0  0.94424771966E+01 -0.24894681034E+03 -0.10927043704E+04  0.11207437333E+04  0.50400001928E-02 0.  1.
       -1    1    3    3    0  502 -0.94424771966E+01  0.24894681034E+03  0.44772170633E+03  0.51236549562E+03  0.50400001928E-02 0. -1.
</event>
<event>
 5   0  0.1576214E-05  0.1497667E+04  0.7818609E-02  0.8886006E-01
       -1   -1    0    0    0  501  0.00000000000E+00  0.00000000000E+00  0.22166984703E+03  0.22166984708E+03  0.50400001928E-02 0. -1.
        1   -1    0    0  501    0  0.00000000000E+00  0.00000000000E+00 -0.25296692206E+04  0.25296692206E+04  0.50400001928E-02 0.  1.
    10030    2    1    2    0    0  0.00000000000E+00  0.00000000000E+00 -0.23079993736E+04  0.27513390677E+04  0.14976667042E+04 0.  0.
        1    1    3    3  502    0 -0.55879444935E+03  0.76233288658E+02 -0.24898909363E+03  0.61648870200E+03  0.50400001928E-02 0. -1.
       -1    1    3    3    0  502  0.55879444935E+03 -0.76233288658E+02 -0.20590102800E+04  0.21348503657E+04  0.50400001928E-02 0.  1.
</event>
<event>
 5   0  0.3070497E-05  0.1499937E+04  0.7818609E-02  0.8884495E-01
       -2   -1    0    0    0  501  0.00000000000E+00  0.00000000000E+00  0.38699662786E+03  0.38699662787E+03  0.25500000920E-02 0.  1.
        2   -1    0    0  501    0  0.00000000000E+00  0.00000000000E+00 -0.14533793509E+04  0.14533793509E+04  0.25500000920E-02 0. -1.
    10030    2    1    2    0    0  0.00000000000E+00  0.00000000000E+00 -0.10663827231E+04  0.18403759788E+04  0.14999372091E+04 0.  0.
        4    1    3    3  502    0 -0.36217748861E+03  0.60560663478E+03 -0.22153318787E+03  0.73960157894E+03  0.12699999809E+01 0.  1.
       -4    1    3    3    0  502  0.36217748861E+03 -0.60560663478E+03 -0.84484953520E+03  0.11007743999E+04  0.12699999809E+01 0. -1.
</event>
<event>
 5   0  0.1116613E-05  0.1500032E+04  0.7818609E-02  0.8884431E-01
       -3   -1    0    0    0  501  0.00000000000E+00  0.00000000000E+00  0.11638556321E+04  0.11638556364E+04  0.10100000352E+00 0. -1.
        3   -1    0    0  501    0  0.00000000000E+00  0.00000000000E+00 -0.48332816647E+03  0.48332817703E+03  0.10100000352E+00 0.  1.
    10030    2    1    2    0    0  0.00000000000E+00  0.00000000000E+00  0.68052746558E+03  0.16471838135E+04  0.15000322943E+04 0.  0.
        2    1    3    3  502    0  0.62340278956E+03 -0.38950979406E+03  0.50378575185E+03  0.89115038095E+03  0.25500000920E-02 0. -1.
       -2    1    3    3    0  502 -0.62340278956E+03  0.38950979406E+03  0.17674171373E+03  0.75603343251E+03  0.25500000920E-02 0.  1.
</event>
<event>
 5   0  0.2969498E-05  0.1502514E+04  0.7818609E-02  0.8882783E-01
        2   -1    0    0  501    0  0.00000000000E+00  0.00000000000E+00  0.80499150191E+03  0.80499150191E+03  0.25500000920E-02 0.  1.
       -2   -1    0    0    0  501  0.00000000000E+00  0.00000000000E+00 -0.70110891205E+03  0.70110891205E+03  0.25500000920E-02 0. -1.
    10030    2    1    2    0    0  0.00000000000E+00  0.00000000000E+00  0.10388258986E+03  0.15061004140E+04  0.15025135156E+04 0.  0.
        3    1    3    3  502    0 -0.60927645925E+03  0.43866733920E+03  0.79206737797E+02  0.75493082848E+03  0.10100000352E+00 0.  1.
       -3    1    3    3    0  502  0.60927645925E+03 -0.43866733920E+03  0.24675852067E+02  0.75116958548E+03  0.10100000352E+00 0. -1.
</event>
<event>
 5   0  0.3018308E-05  0.1500571E+04  0.7818609E-02  0.8884073E-01
       -2   -1    0    0    0  501  0.00000000000E+00  0.00000000000E+00  0.72505922093E+03  0.72505922093E+03  0.25500000920E-02 0. -1.
        2   -1    0    0  501    0  0.00000000000E+00  0.00000000000E+00 -0.77638958571E+03  0.77638958571E+03  0.25500000920E-02 0.  1.
    10030    2    1    2    0    0  0.00000000000E+00  0.00000000000E+00 -0.51330364785E+02  0.15014488066E+04  0.15005711288E+04 0.  0.
        2    1    3    3  502    0 -0.54765296768E+03 -0.27045293307E+03 -0.46164915868E+03  0.76562948463E+03  0.25500000920E-02 0.  1.
       -2    1    3    3    0  502  0.54765296768E+03  0.27045293307E+03  0.41031879390E+03  0.73581932201E+03  0.25500000920E-02 0. -1.
</event>
<event>
 5   0  0.3093600E-05  0.1499664E+04  0.7818609E-02  0.8884676E-01
       -2   -1    0    0    0  501  0.00000000000E+00  0.00000000000E+00  0.66054944760E+03  0.66054944760E+03  0.25500000920E-02 0. -1.
        2   -1    0    0  501    0  0.00000000000E+00  0.00000000000E+00 -0.85118243539E+03  0.85118243539E+03  0.25500000920E-02 0.  1.
    10030    2    1    2    0    0  0.00000000000E+00  0.00000000000E+00 -0.19063298779E+03  0.15117318830E+04  0.14996640791E+04 0.  0.
        1    1    3    3  502    0 -0.69072421778E+03  0.19783933057E+03  0.12090369470E+03  0.72860006119E+03  0.50400001928E-02 0. -1.
       -1    1    3    3    0  502  0.69072421778E+03 -0.19783933057E+03 -0.31153668249E+03  0.78313182180E+03  0.50400001928E-02 0.  1.
</event>
<event>
 5   0  0.1580078E-05  0.1499711E+04  0.7818609E-02  0.8884645E-01
        1   -1    0    0  501    0  0.00000000000E+00  0.00000000000E+00  0.19312432257E+04  0.19312432257E+04  0.50400001928E-02 0. -1.
       -1   -1    0    0    0  501  0.00000000000E+00  0.00000000000E+00 -0.29115079857E+03  0.29115079862E+03  0.50400001928E-02 0.  1.
    10030    2    1    2    0    0  0.00000000000E+00  0.00000000000E+00  0.16400924271E+04  0.22223940243E+04  0.14997106487E+04 0.  0.
        2    1    3    3  502    0 -0.69312760318E+03  0.14506360639E+03  0.45460776425E+03  0.84150908700E+03  0.25500000920E-02 0. -1.
       -2    1    3    3    0  502  0.69312760318E+03 -0.14506360639E+03  0.11854846628E+04  0.13808849373E+04  0.25500000920E-02 0.  1.
</event>
<event>
 5   0  0.3018308E-05  0.1499707E+04  0.7818609E-02  0.8884648E-01
        2   -1    0    0  501    0  0.00000000000E+00  0.00000000000E+00  0.32735085163E+03  0.32735085164E+03  0.25500000920E-02 0. -1.
       -2   -1    0    0    0  501  0.00000000000E+00  0.00000000000E+00 -0.17176684044E+04  0.17176684044E+04  0.25500000920E-02 0.  1.
    10030    2    1    2    0    0  0.00000000000E+00  0.00000000000E+00 -0.13903175528E+04  0.20450192560E+04  0.14997069247E+04 0.  0.
        2    1    3    3  502    0 -0.70523707971E+03 -0.88565670752E+02 -0.36938091508E+03  0.80102776298E+03  0.25500000920E-02 0.  1.
       -2    1    3    3    0  502  0.70523707971E+03  0.88565670752E+02 -0.10209366377E+04  0.12439914931E+04  0.25500000920E-02 0. -1.
</event>
<event>
 5   0  0.1588657E-05  0.1500810E+04  0.7818609E-02  0.8883915E-01
        1   -1    0    0  501    0  0.00000000000E+00  0.00000000000E+00  0.22264154906E+04  0.22264154906E+04  0.50400001928E-02 0. -1.
       -1   -1    0    0    0  501  0.00000000000E+00  0.00000000000E+00 -0.25292108772E+03  0.25292108777E+03  0.50400001928E-02 0.  1.
    10030    2    1    2    0    0  0.00000000000E+00  0.00000000000E+00  0.19734944029E+04  0.24793365784E+04  0.15008096850E+04 0.  0.
        3    1    3    3  502    0  0.46240853267E+03  0.12486997467E+03  0.32450157053E+02  0.48006997881E+03  0.10100000352E+00 0.  1.
       -3    1    3    3    0  502 -0.46240853267E+03 -0.12486997467E+03  0.19410442458E+04  0.19992665995E+04  0.10100000352E+00 0. -1.
</event>
<event>
 5   0  0.1643498E-05  0.1499634E+04  0.7818609E-02  0.8884696E-01
        1   -1    0    0  501    0  0.00000000000E+00  0.00000000000E+00  0.46533530899E+03  0.46533530902E+03  0.50400001928E-02 0. -1.
       -1   -1    0    0    0  501  0.00000000000E+00  0.00000000000E+00 -0.12082157787E+04  0.12082157787E+04  0.50400001928E-02 0.  1.
    10030    2    1    2    0    0  0.00000000000E+00  0.00000000000E+00 -0.74288046968E+03  0.16735510877E+04  0.14996339056E+04 0.  0.
        4    1    3    3  502    0  0.29433396740E+03 -0.53628813836E+03  0.11241666312E+03  0.62199402791E+03  0.12699999809E+01 0. -1.
       -4    1    3    3    0  502 -0.29433396740E+03  0.53628813836E+03 -0.85529713281E+03  0.10515570598E+04  0.12699999809E+01 0.  1.
</event>
<event>
 5   0  0.1580078E-05  0.1504786E+04  0.7818609E-02  0.8881276E-01
       -1   -1    0    0    0  501  0.00000000000E+00  0.00000000000E+00  0.10061497597E+04  0.10061497597E+04  0.50400001928E-02 0. -1.
        1   -1    0    0  501    0  0.00000000000E+00  0.00000000000E+00 -0.56263523735E+03  0.56263523737E+03  0.50400001928E-02 0.  1.
    10030    2    1    2    0    0  0.00000000000E+00  0.00000000000E+00  0.44351452237E+03  0.15687849971E+04  0.15047861096E+04 0.  0.
        2    1    3    3  502    0  0.84529587214E+02  0.43083586895E+03 -0.41523681934E+03  0.60430655567E+03  0.25500000920E-02 0.  1.
       -2    1    3    3    0  502 -0.84529587214E+02 -0.43083586895E+03  0.85875134171E+03  0.96447844143E+03  0.25500000920E-02 0. -1.
</event>
<event>
 5   0  0.1533777E-05  0.1500634E+04  0.7818609E-02  0.8884032E-01
        1   -1    0    0  501    0  0.00000000000E+00  0.00000000000E+00  0.10700927083E+04  0.10700927083E+04  0.50400001928E-02 0.  1.
       -1   -1    0    0    0  501  0.00000000000E+00  0.00000000000E+00 -0.52609954559E+03  0.52609954562E+03  0.50400001928E-02 0. -1.
    10030    2    1    2    0    0  0.00000000000E+00  0.00000000000E+00  0.54399316271E+03  0.15961922539E+04  0.15006335830E+04 0.  0.
        5    1    3    3  502    0 -0.60642940752E+03  0.43813013687E+03  0.33252873706E+03  0.81872589681E+03  0.46999998093E+01 0.  1.
       -5    1    3    3    0  502  0.60642940752E+03 -0.43813013687E+03  0.21146442565E+03  0.77746635712E+03  0.46999998093E+01 0. -1.
</event>
<event>
 5   0  0.2969498E-05  0.1504895E+04  0.7818609E-02  0.8881204E-01
        2   -1    0    0  501    0  0.00000000000E+00  0.00000000000E+00  0.90969808439E+03  0.90969808439E+03  0.25500000920E-02 0.  1.
       -2   -1    0    0    0  501  0.00000000000E+00  0.00000000000E+00 -0.62237924207E+03  0.62237924208E+03  0.25500000920E-02 0. -1.
    10030    2    1    2    0    0  0.00000000000E+00  0.00000000000E+00  0.28731884232E+03  0.15320773265E+04  0.15048949522E+04 0.  0.
        3    1    3    3  502    0 -0.30350436867E+03 -0.56420151000E+03  0.54542536350E+03  0.84138402828E+03  0.10100000352E+00 0.  1.
       -3    1    3    3    0  502  0.30350436867E+03  0.56420151000E+03 -0.25810652119E+03  0.69069329820E+03  0.10100000352E+00 0. -1.
</event>
<event>
 5   0  0.3070497E-05  0.1500362E+04  0.7818609E-02  0.8884212E-01
        2   -1    0    0  501    0  0.00000000000E+00  0.00000000000E+00  0.79973152546E+03  0.79973152546E+03  0.25500000920E-02 0. -1.
       -2   -1    0    0    0  501  0.00000000000E+00  0.00000000000E+00 -0.70370052187E+03  0.70370052187E+03  0.25500000920E-02 0.  1.
    10030    2    1    2    0    0  0.00000000000E+00  0.00000000000E+00  0.96031003595E+02  0.15034320473E+04  0.15003619454E+04 0.  0.
        4    1    3    3  502    0 -0.20447349333E+03 -0.68784980332E+03 -0.17111695356E+03  0.73771904280E+03  0.12699999809E+01 0. -1.
       -4    1    3    3    0  502  0.20447349333E+03  0.68784980332E+03  0.26714795716E+03  0.76571300454E+03  0.12699999809E+01 0.  1.
</event>
<event>
 5   0  0.3030702E-05  0.1500831E+04  0.7818609E-02  0.8883900E-01
       -2   -1    0    0    0  501  0.00000000000E+00  0.00000000000E+00  0.65024399241E+03  0.65024399241E+03  0.25500000920E-02 0.  1.
        2   -1    0    0  501    0  0.00000000000E+00  0.00000000000E+00 -0.86601899685E+03  0.86601899685E+03  0.25500000920E-02 0. -1.
    10030    2    1    2    0    0  0.00000000000E+00  0.00000000000E+00 -0.21577500444E+03  0.15162629893E+04  0.15008313030E+04 0.  0.
        5    1    3    3  502    0 -0.22192539334E+03  0.25422328885E+03 -0.78501862642E+03  0.85449206820E+03  0.46999998093E+01 0. -1.
       -5    1    3    3    0  502  0.22192539334E+03 -0.25422328885E+03  0.56924362198E+03  0.66177092106E+03  0.46999998093E+01 0.  1.
</event>
<event>
 5   0  0.1580078E-05  0.1498980E+04  0.7818609E-02  0.8885132E-01
        1   -1    0    0  501    0  0.00000000000E+00  0.00000000000E+00  0.90621713020E+03  0.90621713021E+03  0.50400001928E-02 0.  1.
       -1   -1    0    0    0  501  0.00000000000E+00  0.00000000000E+00 -0.61986792229E+03  0.61986792231E+03  0.50400001928E-02 0. -1.
    10030    2    1    2    0    0  0.00000000000E+00  0.00000000000E+00  0.28634920790E+03  0.15260850525E+04  0.14989795591E+04 0.  0.
        2    1    3    3  502    0 -0.47654803839E+03 -0.57630097744E+03  0.19422188201E+03  0.77262085718E+03  0.25500000920E-02 0. -1.
       -2    1    3    3    0  502  0.47654803839E+03  0.57630097744E+03  0.92127325891E+02  0.75346419535E+03  0.25500000920E-02 0.  1.
</event>
<event>
 5   0  0.1580078E-05  0.1499838E+04  0.7818609E-02  0.8884560E-01
       -1   -1    0    0    0  501  0.00000000000E+00  0.00000000000E+00  0.59489120939E+03  0.59489120941E+03  0.50400001928E-02 0.  1.
        1   -1    0    0  501    0  0.00000000000E+00  0.00000000000E+00 -0.94534716831E+03  0.94534716832E+03  0.50400001928E-02 0. -1.
    10030    2    1    2    0    0  0.00000000000E+00  0.00000000000E+00 -0.35045595892E+03  0.15402383777E+04  0.14998382850E+04 0.  0.
        2    1    3    3  502    0  0.70293278484E+02 -0.31816178552E+03  0.51839938226E+03  0.61229566902E+03  0.25500000920E-02 0.  1.
       -2    1    3    3    0  502 -0.70293278484E+02  0.31816178552E+03 -0.86885534118E+03  0.92794270872E+03  0.25500000920E-02 0. -1.
</event>
<event>
 5   0  0.1116613E-05  0.1500826E+04  0.7818609E-02  0.8883904E-01
       -3   -1    0    0    0  501  0.00000000000E+00  0.00000000000E+00  0.41777720190E+03  0.41777721411E+03  0.10100000352E+00 0. -1.
        3   -1    0    0  501    0  0.00000000000E+00  0.00000000000E+00 -0.13478942295E+04  0.13478942333E+04  0.10100000352E+00 0.  1.
    10030    2    1    2    0    0  0.00000000000E+00  0.00000000000E+00 -0.93011702759E+03  0.17656714474E+04  0.15008257644E+04 0.  0.
        4    1    3    3  502    0 -0.57099708577E+03 -0.59674246183E+01  0.10773046050E+03  0.58110304347E+03  0.12699999809E+01 0. -1.
       -4    1    3    3    0  502  0.57099708577E+03  0.59674246183E+01 -0.10378474881E+04  0.11845684039E+04  0.12699999809E+01 0.  1.
</event>
<event>
 5   0  0.1116613E-05  0.1501387E+04  0.7818609E-02  0.8883531E-01
       -3   -1    0    0    0  501  0.00000000000E+00  0.00000000000E+00  0.62391191326E+03  0.62391192143E+03  0.10100000352E+00 0. -1.
        3   -1    0    0  501    0  0.00000000000E+00  0.00000000000E+00 -0.90323703962E+03  0.90323704527E+03  0.10100000352E+00 0.  1.
    10030    2    1    2    0    0  0.00000000000E+00  0.00000000000E+00 -0.27932512636E+03  0.15271489667E+04  0.15013865060E+04 0.  0.
        2    1    3    3  502    0 -0.57093162684E+03  0.48254902905E+03 -0.69752779236E+02  0.75078754530E+03  0.25500000920E-02 0. -1.
       -2    1    3    3    0  502  0.57093162684E+03 -0.48254902905E+03 -0.20957234713E+03  0.77636142140E+03  0.25500000920E-02 0.  1.
</event>
<event>
 5   0  0.1643498E-05  0.1499916E+04  0.7818609E-02  0.8884509E-01
        1   -1    0    0  501    0  0.00000000000E+00  0.00000000000E+00  0.81474042509E+03  0.81474042511E+03  0.50400001928E-02 0. -1.
       -1   -1    0    0    0  501  0.00000000000E+00  0.00000000000E+00 -0.69032648018E+03  0.69032648019E+03  0.50400001928E-02 0.  1.
    10030    2    1    2    0    0  0.00000000000E+00  0.00000000000E+00  0.12441394492E+03  0.15050669053E+04  0.14999158509E+04 0.  0.
        4    1    3    3  502    0 -0.35828291750E+02  0.49057816811E+03  0.63026479237E+03  0.79949104242E+03  0.12699999809E+01 0. -1.
       -4    1    3    3    0  502  0.35828291750E+02 -0.49057816811E+03 -0.50585084745E+03  0.70557586288E+03  0.12699999809E+01 0.  1.
</event>
<event>
 5   0  0.1576214E-05  0.1500889E+04  0.7818609E-02  0.8883862E-01
        1   -1    0    0  501    0  0.00000000000E+00  0.00000000000E+00  0.17241564503E+04  0.17241564503E+04  0.50400001928E-02 0.  1.
       -1   -1    0    0    0  501  0.00000000000E+00  0.00000000000E+00 -0.32663311032E+03  0.32663311036E+03  0.50400001928E-02 0. -1.
    10030    2    1    2    0    0  0.00000000000E+00  0.00000000000E+00  0.13975233400E+04  0.20507895607E+04  0.15008885156E+04 0.  0.
        1    1    3    3  502    0  0.38025459870E+03 -0.56936061979E+03  0.11185807103E+04  0.13114830844E+04  0.50400001928E-02 0.  1.
       -1    1    3    3    0  502 -0.38025459870E+03  0.56936061979E+03  0.27894262973E+03  0.73930647631E+03  0.50400001928E-02 0. -1.
</event>
<event>
 5   0  0.3070497E-05  0.1498444E+04  0.7818609E-02  0.8885488E-01
       -2   -1    0    0    0  501  0.00000000000E+00  0.00000000000E+00  0.52200215372E+03  0.52200215372E+03  0.25500000920E-02 0.  1.
        2   -1    0    0  501    0  0.00000000000E+00  0.00000000000E+00 -0.10753474208E+04  0.10753474208E+04  0.25500000920E-02 0. -1.
    10030    2    1    2    0    0  0.00000000000E+00  0.00000000000E+00 -0.55334526712E+03  0.15973495746E+04  0.14984440860E+04 0.  0.
        4    1    3    3  502    0 -0.53369085782E+03 -0.28536790653E+03  0.19414866259E+03  0.63557540063E+03  0.12699999809E+01 0. -1.
       -4    1    3    3    0  502  0.53369085782E+03  0.28536790653E+03 -0.74749392971E+03  0.96177417394E+03  0.12699999809E+01 0.  1.
</event>
<event>
 5   0  0.3030702E-05  0.1500685E+04  0.7818609E-02  0.8883997E-01
        2   -1    0    0  501    0  0.00000000000E+00  0.00000000000E+00  0.17962591899E+04  0.17962591899E+04  0.25500000920E-02 0.  1.
       -2   -1    0    0    0  501  0.00000000000E+00  0.00000000000E+00 -0.31343702028E+03  0.31343702029E+03  0.25500000920E-02 0. -1.
    10030    2    1    2    0    0  0.00000000000E+00  0.00000000000E+00  0.14828221696E+04  0.21096962102E+04  0.15006853476E+04 0.  0.
        5    1    3    3  502    0 -0.16924803978E+03 -0.32681773170E+03  0.16606264822E+04  0.17009283148E+04  0.46999998093E+01 0.  1.
       -5    1    3    3    0  502  0.16924803978E+03  0.32681773170E+03 -0.17780431259E+03  0.40876789538E+03  0.46999998093E+01 0. -1.
</event>
<event>
 5   0  0.1533777E-05  0.1499789E+04  0.7818609E-02  0.8884593E-01
        1   -1    0    0  501    0  0.00000000000E+00  0.00000000000E+00  0.23392402954E+04  0.23392402954E+04  0.50400001928E-02 0. -1.
       -1   -1    0    0    0  501  0.00000000000E+00  0.00000000000E+00 -0.24039500111E+03  0.24039500117E+03  0.50400001928E-02 0.  1.
    10030    2    1    2    0    0  0.00000000000E+00  0.00000000000E+00  0.20988452943E+04  0.25796352965E+04  0.14997888831E+04 0.  0.
        5    1    3    3  502    0  0.31740921954E+03 -0.39022320615E+03  0.20059907787E+04  0.20681015104E+04  0.46999998093E+01 0. -1.
       -5    1    3    3    0  502 -0.31740921954E+03  0.39022320615E+03  0.92854515555E+02  0.51153378610E+03  0.46999998093E+01 0.  1.
</event>
<event>
 5   0  0.3093600E-05  0.1499853E+04  0.7818609E-02  0.8884550E-01
       -2   -1    0    0    0  501  0.00000000000E+00  0.00000000000E+00  0.25507112767E+03  0.25507112768E+03  0.25500000920E-02 0. -1.
        2   -1    0    0  501    0  0.00000000000E+00  0.00000000000E+00 -0.22048360072E+04  0.22048360072E+04  0.25500000920E-02 0.  1.
    10030    2    1    2    0    0  0.00000000000E+00  0.00000000000E+00 -0.19497648795E+04  0.24599071349E+04  0.14998533351E+04 0.  0.
        1    1    3    3  502    0 -0.68119016218E+03  0.39064275876E+02 -0.14852771572E+04  0.16345012354E+04  0.50400001928E-02 0.  1.
       -1    1    3    3    0  502  0.68119016218E+03 -0.39064275876E+02 -0.46448772228E+03  0.82540589947E+03  0.50400001928E-02 0. -1.
</event>
<event>
 5   0  0.3018308E-05  0.1500084E+04  0.7818609E-02  0.8884397E-01
       -2   -1    0    0    0  501  0.00000000000E+00  0.00000000000E+00  0.46981472152E+03  0.46981472153E+03  0.25500000920E-02 0.  1.
        2   -1    0    0  501    0  0.00000000000E+00  0.00000000000E+00 -0.11974148528E+04  0.11974148528E+04  0.25500000920E-02 0. -1.
    10030    2    1    2    0    0  0.00000000000E+00  0.00000000000E+00 -0.72760013126E+03  0.16672295743E+04  0.15000841651E+04 0.  0.
        2    1    3    3  502    0 -0.70589911218E+03  0.22741936011E+03 -0.23929079036E+03  0.77927736031E+03  0.25500000920E-02 0. -1.
       -2    1    3    3    0  502  0.70589911218E+03 -0.22741936011E+03 -0.48830934090E+03  0.88795221400E+03  0.25500000920E-02 0.  1.
</event>
<event>
 5   0  0.3018308E-05  0.1500313E+04  0.7818609E-02  0.8884245E-01
        2   -1    0    0  501    0  0.00000000000E+00  0.00000000000E+00  0.14814745547E+04  0.14814745547E+04  0.25500000920E-02 0. -1.
       -2   -1    0    0    0  501  0.00000000000E+00  0.00000000000E+00 -0.37984761859E+03  0.37984761860E+03  0.25500000920E-02 0.  1.
    10030    2    1    2    0    0  0.00000000000E+00  0.00000000000E+00  0.11016269361E+04  0.18613221733E+04  0.15003127429E+04 0.  0.
        2    1    3    3  502    0  0.15368202032E+03 -0.11653840628E+02 -0.35999345346E+03  0.39159834258E+03  0.25500000920E-02 0.  1.
       -2    1    3    3    0  502 -0.15368202032E+03  0.11653840628E+02  0.14616203896E+04  0.14697238307E+04  0.25500000920E-02 0. -1.
</event>
<event>
 5   0  0.1643498E-05  0.1500350E+04  0.7818609E-02  0.8884220E-01
       -1   -1    0    0    0  501  0.00000000000E+00  0.00000000000E+00  0.85941296448E+03  0.85941296449E+03  0.50400001928E-02 0.  1.
        1   -1    0    0  501    0  0.00000000000E+00  0.00000000000E+00 -0.65482240558E+03  0.65482240560E+03  0.50400001928E-02 0. -1.
    10030    2    1    2    0    0  0.00000000000E+00  0.00000000000E+00  0.20459055889E+03  0.15142353701E+04  0.15003504455E+04 0.  0.
        4    1    3    3  502    0 -0.25586063716E+02  0.19331897110E+03  0.83338459149E+03  0.85589623289E+03  0.12699999809E+01 0.  1.
       -4    1    3    3    0  502  0.25586063716E+02 -0.19331897110E+03 -0.62879403260E+03  0.65833913720E+03  0.12699999809E+01 0. -1.
</event>
<event>
 5   0  0.1576214E-05  0.1500708E+04  0.7818609E-02  0.8883982E-01
       -1   -1    0    0    0  501  0.00000000000E+00  0.00000000000E+00  0.87124227787E+03  0.87124227788E+03  0.50400001928E-02 0. -1.
        1   -1    0    0  501    0  0.00000000000E+00  0.00000000000E+00 -0.64623974434E+03  0.64623974436E+03  0.50400001928E-02 0.  1.
    10030    2    1    2    0    0  0.00000000000E+00  0.00000000000E+00  0.22500253353E+03  0.15174820222E+04  0.15007083487E+04 0.  0.
        1    1    3    3  502    0 -0.15865615537E+03  0.66231794012E+03 -0.20597067672E+03  0.71152002722E+03  0.50400001928E-02 0. -1.
       -1    1    3    3    0  502  0.15865615537E+03 -0.66231794012E+03  0.43097321025E+03  0.80596199502E+03  0.50400001928E-02 0.  1.
</event>
<event>
 5   0  0.3030702E-05  0.1500390E+04  0.7818609E-02  0.8884194E-01
        2   -1    0    0  501    0  0.00000000000E+00  0.00000000000E+00  0.12271923608E+04  0.12271923608E+04  0.25500000920E-02 0.  1.
       -2   -1    0    0    0  501  0.00000000000E+00  0.00000000000E+00 -0.45860148410E+03  0.45860148411E+03  0.25500000920E-02 0. -1.
    10030    2    1    2    0    0  0.00000000000E+00  0.00000000000E+00  0.76859087668E+03  0.16857938449E+04  0.15003896000E+04 0.  0.
        5    1    3    3  502    0  0.39998183173E+03 -0.12192727542E+03  0.10840900929E+04  0.11619488567E+04  0.46999998093E+01 0.  1.
       -5    1    3    3    0  502 -0.39998183173E+03  0.12192727542E+03 -0.31549921620E+03  0.52384498816E+03  0.46999998093E+01 0. -1.
</event>
<event>
 5   0  0.1533777E-05  0.1500410E+04  0.7818609E-02  0.8884180E-01
        1   -1    0    0  501    0  0.00000000000E+00  0.00000000000E+00  0.45456611010E+03  0.45456611013E+03  0.50400001928E-02 0.  1.
       -1   -1    0    0    0  501  0.00000000000E+00  0.00000000000E+00 -0.12381200739E+04  0.12381200739E+04  0.50400001928E-02 0. -1.
    10030    2    1    2    0    0  0.00000000000E+00  0.00000000000E+00 -0.78355396380E+03  0.16926861840E+04  0.15004098452E+04 0.  0.
        5    1    3    3  502    0  0.13365161054E+03  0.89453732376E+02  0.43487285195E+03  0.46368223020E+03  0.46999998093E+01 0.  1.
       -5    1    3    3    0  502 -0.13365161054E+03 -0.89453732376E+02 -0.12184268158E+04  0.12290039539E+04  0.46999998093E+01 0. -1.
</event>
<event>
 5   0  0.3018308E-05  0.1500225E+04  0.7818609E-02  0.8884303E-01
       -2   -1    0    0    0  501  0.00000000000E+00  0.00000000000E+00  0.25238081090E+03  0.25238081092E+03  0.25500000920E-02 0.  1.
        2   -1    0    0  501    0  0.00000000000E+00  0.00000000000E+00 -0.22294442893E+04  0.22294442893E+04  0.25500000920E-02 0. -1.
    10030    2    1    2    0    0  0.00000000000E+00  0.00000000000E+00 -0.19770634784E+04  0.24818251002E+04  0.15002252599E+04 0.  0.
        2    1    3    3  502    0 -0.21625534356E+03  0.71038436722E+03 -0.11640486584E+04  0.13807322702E+04  0.25500000920E-02 0.  1.
       -2    1    3    3    0  502  0.21625534356E+03 -0.71038436722E+03 -0.81301482000E+03  0.11010928300E+04  0.25500000920E-02 0. -1.
</event>
<event>
 5   0  0.3070497E-05  0.1499860E+04  0.7818609E-02  0.8884546E-01
       -2   -1    0    0    0  501  0.00000000000E+00  0.00000000000E+00  0.54143348422E+03  0.54143348423E+03  0.25500000920E-02 0. -1.
        2   -1    0    0  501    0  0.00000000000E+00  0.00000000000E+00 -0.10387147104E+04  0.10387147104E+04  0.25500000920E-02 0.  1.
    10030    2    1    2    0    0  0.00000000000E+00  0.00000000000E+00 -0.49728122614E+03  0.15801481946E+04  0.14998598931E+04 0.  0.
        4    1    3    3  502    0 -0.83848761388E+02  0.24595931093E+03 -0.98976524715E+03  0.10233100482E+04  0.12699999809E+01 0.  1.
       -4    1    3    3    0  502  0.83848761388E+02 -0.24595931093E+03  0.49248402101E+03  0.55683814638E+03  0.12699999809E+01 0. -1.
</event>
<event>
 5   0  0.1643498E-05  0.1505502E+04  0.7818609E-02  0.8880802E-01
        1   -1    0    0  501    0  0.00000000000E+00  0.00000000000E+00  0.73926446047E+03  0.73926446048E+03  0.50400001928E-02 0. -1.
       -1   -1    0    0    0  501  0.00000000000E+00  0.00000000000E+00 -0.76648395249E+03  0.76648395251E+03  0.50400001928E-02 0.  1.
    10030    2    1    2    0    0  0.00000000000E+00  0.00000000000E+00 -0.27219492026E+02  0.15057484130E+04  0.15055023688E+04 0.  0.
        4    1    3    3  502    0 -0.66178221686E+02  0.74928607149E+03  0.15092657509E+02  0.75235535166E+03  0.12699999809E+01 0. -1.
       -4    1    3    3    0  502  0.66178221686E+02 -0.74928607149E+03 -0.42312149534E+02  0.75339306133E+03  0.12699999809E+01 0.  1.
</event>
<event>
 5   0  0.3030702E-05  0.1500072E+04  0.7818609E-02  0.8884405E-01
       -2   -1    0    0    0  501  0.00000000000E+00  0.00000000000E+00  0.38215935892E+03  0.38215935893E+03  0.25500000920E-02 0.  1.
        2   -1    0    0  501    0  0.00000000000E+00  0.00000000000E+00 -0.14720412447E+04  0.14720412447E+04  0.25500000920E-02 0. -1.
    10030    2    1    2    0    0  0.00000000000E+00  0.00000000000E+00 -0.10898818858E+04  0.18542006036E+04  0.15000724494E+04 0.  0.
        5    1    3    3  502    0  0.53801628787E+03 -0.48354019345E+03 -0.78985710137E+03  0.10710597440E+04  0.46999998093E+01 0.  1.
       -5    1    3    3    0  502 -0.53801628787E+03  0.48354019345E+03 -0.30002478439E+03  0.78314085958E+03  0.46999998093E+01 0. -1.
</event>
<event>
 5   0  0.2969498E-05  0.1499626E+04  0.7818609E-02  0.8884702E-01
       -2   -1    0    0    0  501  0.00000000000E+00  0.00000000000E+00  0.40526218302E+03  0.40526218302E+03  0.25500000920E-02 0.  1.
        2   -1    0    0  501    0  0.00000000000E+00  0.00000000000E+00 -0.13872985604E+04  0.13872985604E+04  0.25500000920E-02 0. -1.
    10030    2    1    2    0    0  0.00000000000E+00  0.00000000000E+00 -0.98203637738E+03  0.17925607434E+04  0.14996261442E+04 0.  0.
        3    1    3    3  502    0  0.82836423847E+02 -0.24189189164E+03 -0.13335800729E+04  0.13578694272E+04  0.10100000352E+00 0. -1.
       -3    1    3    3    0  502 -0.82836423847E+02  0.24189189164E+03  0.35154369549E+03  0.43469131622E+03  0.10100000352E+00 0.  1.
</event>
<event>
 5   0  0.3070497E-05  0.1499251E+04  0.7818609E-02  0.8884951E-01
        2   -1    0    0  501    0  0.00000000000E+00  0.00000000000E+00  0.11498553427E+04  0.11498553427E+04  0.25500000920E-02 0.  1.
       -2   -1    0    0    0  501  0.00000000000E+00  0.00000000000E+00 -0.48870352674E+03  0.48870352675E+03  0.25500000920E-02 0. -1.
    10030    2    1    2    0    0  0.00000000000E+00  0.00000000000E+00  0.66115181597E+03  0.16385588695E+04  0.14992509613E+04 0.  0.
        4    1    3    3  502    0  0.79243251899E+02 -0.16926649611E+03  0.11239820128E+04  0.11394155597E+04  0.12699999809E+01 0.  1.
       -4    1    3    3    0  502 -0.79243251899E+02  0.16926649611E+03 -0.46283019684E+03  0.49914330976E+03  0.12699999809E+01 0. -1.
</event>
<event>
 5   0  0.1580078E-05  0.1500104E+04  0.7818609E-02  0.8884384E-01
        1   -1    0    0  501    0  0.00000000000E+00  0.00000000000E+00  0.16746546712E+04  0.16746546712E+04  0.50400001928E-02 0.  1.
       -1   -1    0    0    0  501  0.00000000000E+00  0.00000000000E+00 -0.33593651301E+03  0.33593651304E+03  0.50400001928E-02 0. -1.
    10030    2    1    2    0    0  0.00000000000E+00  0.00000000000E+00  0.13387181582E+04  0.20105911842E+04  0.15001035308E+04 0.  0.
        2    1    3    3  502    0  0.48578127681E+03 -0.90229206361E+02  0.14257131339E+04  0.15089011560E+04  0.25500000920E-02 0.  1.
       -2    1    3    3    0  502 -0.48578127681E+03  0.90229206361E+02 -0.86994975711E+02  0.50169002819E+03  0.25500000920E-02 0. -1.
</event>
<event>
 5   0  0.3030702E-05  0.1500426E+04  0.7818609E-02  0.8884170E-01
        2   -1    0    0  501    0  0.00000000000E+00  0.00000000000E+00  0.17030457512E+04  0.17030457512E+04  0.25500000920E-02 0. -1.
       -2   -1    0    0    0  501  0.00000000000E+00  0.00000000000E+00 -0.33047806362E+03  0.33047806363E+03  0.25500000920E-02 0.  1.
    10030    2    1    2    0    0  0.00000000000E+00  0.00000000000E+00  0.13725676876E+04  0.20335238148E+04  0.15004256225E+04 0.  0.
        5    1    3    3  502    0 -0.34725246748E+03 -0.40409757484E+03  0.14020531945E+04  0.14998847877E+04  0.46999998093E+01 0. -1.
       -5    1    3    3    0  502  0.34725246748E+03  0.40409757484E+03 -0.29485506926E+02  0.53363902713E+03  0.46999998093E+01 0.  1.
</event>
<event>
 5   0  0.1533777E-05  0.1499976E+04  0.7818609E-02  0.8884469E-01
        1   -1    0    0  501    0  0.00000000000E+00  0.00000000000E+00  0.12356598877E+04  0.12356598877E+04  0.50400001928E-02 0.  1.
       -1   -1    0    0    0  501  0.00000000000E+00  0.00000000000E+00 -0.45520792838E+03  0.45520792841E+03  0.50400001928E-02 0. -1.
    10030    2    1    2    0    0  0.00000000000E+00  0.00000000000E+00  0.78045195933E+03  0.16908678161E+04  0.14999762368E+04 0.  0.
        5    1    3    3  502    0 -0.47312810477E+02 -0.68014603126E+03  0.38016314946E+02  0.68286488860E+03  0.46999998093E+01 0. -1.
       -5    1    3    3    0  502  0.47312810477E+02  0.68014603126E+03  0.74243564438E+03  0.10080029275E+04  0.46999998093E+01 0.  1.
</event>
<event>
 5   0  0.3070497E-05  0.1499834E+04  0.7818609E-02  0.8884563E-01
       -2   -1    0    0    0  501  0.00000000000E+00  0.00000000000E+00  0.79212118488E+03  0.79212118489E+03  0.25500000920E-02 0. -1.
        2   -1    0    0  501    0  0.00000000000E+00  0.00000000000E+00 -0.70996171335E+03  0.70996171336E+03  0.25500000920E-02 0.  1.
    10030    2    1    2    0    0  0.00000000000E+00  0.00000000000E+00  0.82159471533E+02  0.15020828982E+04  0.14998342757E+04 0.  0.
        4    1    3    3  502    0  0.65595430918E+03  0.22539247521E+03 -0.24447275729E+03  0.73542257619E+03  0.12699999809E+01 0. -1.
       -4    1    3    3    0  502 -0.65595430918E+03 -0.22539247521E+03  0.32663222882E+03  0.76666032206E+03  0.12699999809E+01 0.  1.
</event>
<event>
 5   0  0.1576214E-05  0.1499250E+04  0.7818609E-02  0.8884952E-01
        1   -1    0    0  501    0  0.00000000000E+00  0.00000000000E+00  0.14864946376E+04  0.14864946376E+04  0.50400001928E-02 0. -1.
       -1   -1    0    0    0  501  0.00000000000E+00  0.00000000000E+00 -0.37802861062E+03  0.37802861066E+03  0.50400001928E-02 0.  1.
    10030    2    1    2    0    0  0.00000000000E+00  0.00000000000E+00  0.11084660269E+04  0.18645232482E+04  0.14992498158E+04 0.  0.
        1    1    3    3  502    0  0.71526497100E+03 -0.14750915837E+03  0.34400835008E+03  0.80728227746E+03  0.50400001928E-02 0.  1.
       -1    1    3    3    0  502 -0.71526497100E+03  0.14750915837E+03  0.76445767687E+03  0.10572409708E+04  0.50400001928E-02 0. -1.
</event>
<event>
 5   0  0.3030702E-05  0.1499613E+04  0.7818609E-02  0.8884710E-01
       -2   -1    0    0    0  501  0.00000000000E+00  0.00000000000E+00  0.43741705376E+03  0.43741705377E+03  0.25500000920E-02 0.  1.
        2   -1    0    0  501    0  0.00000000000E+00  0.00000000000E+00 -0.12852953116E+04  0.12852953116E+04  0.25500000920E-02 0. -1.
    10030    2    1    2    0    0  0.00000000000E+00  0.00000000000E+00 -0.84787825787E+03  0.17227123654E+04  0.14996134014E+04 0.  0.
        5    1    3    3  502    0  0.30793267032E+03 -0.51277534587E+03 -0.94333978531E+03  0.11169928940E+04  0.46999998093E+01 0. -1.
       -5    1    3    3    0  502 -0.30793267032E+03  0.51277534587E+03  0.95461527440E+02  0.60571947137E+03  0.46999998093E+01 0.  1.
</event>
<event>
 5   0  0.1533777E-05  0.1496772E+04  0.7818609E-02  0.8886602E-01
       -1   -1    0    0    0  501  0.00000000000E+00  0.00000000000E+00  0.10664680701E+04  0.10664680701E+04  0.50400001928E-02 0. -1.
        1   -1    0    0  501    0  0.00000000000E+00  0.00000000000E+00 -0.52517432129E+03  0.52517432131E+03  0.50400001928E-02 0.  1.
    10030    2    1    2    0    0  0.00000000000E+00  0.00000000000E+00  0.54129374877E+03  0.15916423914E+04  0.14967720533E+04 0.  0.
        5    1    3    3  502    0  0.72647360246E+03 -0.17896141686E+03  0.28807050289E+03  0.80174671089E+03  0.46999998093E+01 0.  1.
       -5    1    3    3    0  502 -0.72647360246E+03  0.17896141686E+03  0.25322324587E+03  0.78989568048E+03  0.46999998093E+01 0. -1.
</event>
<event>
 5   0  0.1533777E-05  0.1500408E+04  0.7818609E-02  0.8884182E-01
        1   -1    0    0  501    0  0.00000000000E+00  0.00000000000E+00  0.99552191132E+03  0.99552191134E+03  0.50400001928E-02 0.  1.
       -1   -1    0    0    0  501  0.00000000000E+00  0.00000000000E+00 -0.56533755948E+03  0.56533755951E+03  0.50400001928E-02 0. -1.
    10030    2    1    2    0    0  0.00000000000E+00  0.00000000000E+00  0.43018435184E+03  0.15608594708E+04  0.15004078483E+04 0.  0.
        5    1    3    3  502    0  0.68621779467E+03  0.30102583742E+03  0.25220038010E+03  0.79065702946E+03  0.46999998093E+01 0. -1.
       -5    1    3    3    0  502 -0.68621779467E+03 -0.30102583742E+03  0.17798397174E+03  0.77020244138E+03  0.46999998093E+01 0.  1.
</event>
<event>
 5   0  0.3030702E-05  0.1499853E+04  0.7818609E-02  0.8884551E-01
        2   -1    0    0  501    0  0.00000000000E+00  0.00000000000E+00  0.11427849939E+04  0.11427849939E+04  0.25500000920E-02 0. -1.
       -2   -1    0    0    0  501  0.00000000000E+00  0.00000000000E+00 -0.49212195832E+03  0.49212195833E+03  0.25500000920E-02 0.  1.
    10030    2    1    2    0    0  0.00000000000E+00  0.00000000000E+00  0.65066303560E+03  0.16349069523E+04  0.14998527783E+04 0.  0.
        5    1    3    3  502    0 -0.88341415503E+02  0.20268852108E+03  0.11064311850E+04  0.11283168435E+04  0.46999998093E+01 0. -1.
       -5    1    3    3    0  502  0.88341415503E+02 -0.20268852108E+03 -0.45576814939E+03  0.50659010873E+03  0.46999998093E+01 0.  1.
</event>
<event>
 5   0  0.1643498E-05  0.1500166E+04  0.7818609E-02  0.8884343E-01
       -1   -1    0    0    0  501  0.00000000000E+00  0.00000000000E+00  0.38459344396E+03  0.38459344399E+03  0.50400001928E-02 0. -1.
        1   -1    0    0  501    0  0.00000000000E+00  0.00000000000E+00 -0.14629065620E+04  0.14629065620E+04  0.50400001928E-02 0.  1.
    10030    2    1    2    0    0  0.00000000000E+00  0.00000000000E+00 -0.10783131180E+04  0.18475000060E+04  0.15001656881E+04 0.  0.
        4    1    3    3  502    0 -0.69336205045E+03  0.41318410781E+02 -0.19046911609E+03  0.72023485140E+03  0.12699999809E+01 0. -1.
       -4    1    3    3    0  502  0.69336205045E+03 -0.41318410781E+02 -0.88784400196E+03  0.11272651546E+04  0.12699999809E+01 0.  1.
</event>
<event>
 5   0  0.1643498E-05  0.1500460E+04  0.7818609E-02  0.8884147E-01
       -1   -1    0    0    0  501  0.00000000000E+00  0.00000000000E+00  0.92150175225E+03  0.92150175227E+03  0.50400001928E-02 0. -1.
        1   -1    0    0  501    0  0.00000000000E+00  0.00000000000E+00 -0.61079122427E+03  0.61079122429E+03  0.50400001928E-02 0.  1.
    10030    2    1    2    0    0  0.00000000000E+00  0.00000000000E+00  0.31071052799E+03  0.15322929766E+04  0.15004601740E+04 0.  0.
        4    1    3    3  502    0 -0.47360801242E+03  0.50247982992E+03  0.45492673439E+03  0.82689205793E+03  0.12699999809E+01 0. -1.
       -4    1    3    3    0  502  0.47360801242E+03 -0.50247982992E+03 -0.14421620640E+03  0.70540091862E+03  0.12699999809E+01 0.  1.
</event>
<event>
 5   0  0.1533777E-05  0.1499751E+04  0.7818609E-02  0.8884618E-01
        1   -1    0    0  501    0  0.00000000000E+00  0.00000000000E+00  0.11735856872E+04  0.11735856872E+04  0.50400001928E-02 0.  1.
       -1   -1    0    0    0  501  0.00000000000E+00  0.00000000000E+00 -0.47914142190E+03  0.47914142193E+03  0.50400001928E-02 0. -1.
    10030    2    1    2    0    0  0.00000000000E+00  0.00000000000E+00  0.69444426532E+03  0.16527271092E+04  0.14997513326E+04 0.  0.
        5    1    3    3  502    0  0.24454966221E+03  0.70220803016E+03  0.24043166295E+03  0.78149224530E+03  0.46999998093E+01 0. -1.
       -5    1    3    3    0  502 -0.24454966221E+03 -0.70220803016E+03  0.45401260237E+03  0.87123486387E+03  0.46999998093E+01 0.  1.
</event>
<event>
 5   0  0.1643498E-05  0.1504483E+04  0.7818609E-02  0.8881477E-01
        1   -1    0    0  501    0  0.00000000000E+00  0.00000000000E+00  0.15059868586E+04  0.15059868587E+04  0.50400001928E-02 0.  1.
       -1   -1    0    0    0  501  0.00000000000E+00  0.00000000000E+00 -0.37574537221E+03  0.37574537224E+03  0.50400001928E-02 0. -1.
    10030    2    1    2    0    0  0.00000000000E+00  0.00000000000E+00  0.11302414864E+04  0.18817322309E+04  0.15044834233E+04 0.  0.
        4    1    3    3  502    0  0.25773975141E+03  0.27085130942E+03  0.13815411185E+04  0.14312399122E+04  0.12699999809E+01 0.  1.
       -4    1    3    3    0  502 -0.25773975141E+03 -0.27085130942E+03 -0.25129963204E+03  0.45049231872E+03  0.12699999809E+01 0. -1.
</event>
<event>
 5   0  0.1643498E-05  0.1499509E+04  0.7818609E-02  0.8884780E-01
        1   -1    0    0  501    0  0.00000000000E+00  0.00000000000E+00  0.10518664512E+04  0.10518664512E+04  0.50400001928E-02 0.  1.
       -1   -1    0    0    0  501  0.00000000000E+00  0.00000000000E+00 -0.53441341884E+03  0.53441341886E+03  0.50400001928E-02 0. -1.
    10030    2    1    2    0    0  0.00000000000E+00  0.00000000000E+00  0.51745303234E+03  0.15862798701E+04  0.14995086480E+04 0.  0.
        4    1    3    3  502    0 -0.56943529408E+03 -0.28454233110E+03 -0.16031284838E+03  0.65644703868E+03  0.12699999809E+01 0.  1.
       -4    1    3    3    0  502  0.56943529408E+03  0.28454233110E+03  0.67776588072E+03  0.92983283137E+03  0.12699999809E+01 0. -1.
</event>
<event>
 5   0  0.1643498E-05  0.1500126E+04  0.7818609E-02  0.8884369E-01
        1   -1    0    0  501    0  0.00000000000E+00  0.00000000000E+00  0.88470143561E+03  0.88470143562E+03  0.50400001928E-02 0.  1.
       -1   -1    0    0    0  501  0.00000000000E+00  0.00000000000E+00 -0.63591470945E+03  0.63591470947E+03  0.50400001928E-02 0. -1.
    10030    2    1    2    0    0  0.00000000000E+00  0.00000000000E+00  0.24878672615E+03  0.15206161451E+04  0.15001262032E+04 0.  0.
        4    1    3    3  502    0  0.38354194145E+03 -0.63800415485E+03  0.21751391780E+03  0.77554344804E+03  0.12699999809E+01 0.  1.
       -4    1    3    3    0  502 -0.38354194145E+03  0.63800415485E+03  0.31272808350E+02  0.74507269706E+03  0.12699999809E+01 0. -1.
</event>
<event>
 5   0  0.1576214E-05  0.1501219E+04  0.7818609E-02  0.8883643E-01
        1   -1    0    0  501    0  0.00000000000E+00  0.00000000000E+00  0.64798945616E+03  0.64798945618E+03  0.50400001928E-02 0.  1.
       -1   -1    0    0    0  501  0.00000000000E+00  0.00000000000E+00 -0.86948093566E+03  0.86948093568E+03  0.50400001928E-02 0. -1.
    10030    2    1    2    0    0  0.00000000000E+00  0.00000000000E+00 -0.22149147950E+03  0.15174703919E+04  0.15012188097E+04 0.  0.
        1    1    3    3  502    0  0.22723531718E+02  0.15451862739E+03 -0.85287494023E+03  0.86705710816E+03  0.50400001928E-02 0. -1.
       -1    1    3    3    0  502 -0.22723531718E+02 -0.15451862739E+03  0.63138346073E+03  0.65041328370E+03  0.50400001928E-02 0.  1.
</event>
<event>
 5   0  0.3018308E-05  0.1498823E+04  0.7818609E-02  0.8885236E-01
        2   -1    0    0  501    0  0.00000000000E+00  0.00000000000E+00  0.38407364727E+03  0.38407364727E+03  0.25500000920E-02 0.  1.
       -2   -1    0    0    0  501  0.00000000000E+00  0.00000000000E+00 -0.14622644481E+04  0.14622644482E+04  0.25500000920E-02 0. -1.
    10030    2    1    2    0    0  0.00000000000E+00  0.00000000000E+00 -0.10781908009E+04  0.18463380954E+04  0.14988225244E+04 0.  0.
        2    1    3    3  502    0  0.52361341877E+03 -0.41308682354E+03 -0.11808514701E+03  0.67731516892E+03  0.25500000920E-02 0. -1.
       -2    1    3    3    0  502 -0.52361341877E+03  0.41308682354E+03 -0.96010565387E+03  0.11690229265E+04  0.25500000920E-02 0.  1.
</event>
<event>
 5   0  0.1576214E-05  0.1500182E+04  0.7818609E-02  0.8884332E-01
       -1   -1    0    0    0  501  0.00000000000E+00  0.00000000000E+00  0.37966640075E+03  0.37966640079E+03  0.50400001928E-02 0. -1.
        1   -1    0    0  501    0  0.00000000000E+00  0.00000000000E+00 -0.14819243249E+04  0.14819243249E+04  0.50400001928E-02 0.  1.
    10030    2    1    2    0    0  0.00000000000E+00  0.00000000000E+00 -0.11022579241E+04  0.18615907257E+04  0.15001824884E+04 0.  0.
        1    1    3    3  502    0 -0.64455752659E+03 -0.31413582170E+03 -0.82441418917E+03  0.10926090220E+04  0.50400001928E-02 0. -1.
       -1    1    3    3    0  502  0.64455752659E+03  0.31413582170E+03 -0.27784373497E+03  0.76898170372E+03  0.50400001928E-02 0.  1.
</event>
<event>
 5   0  0.1576214E-05  0.1499473E+04  0.7818609E-02  0.8884803E-01
        1   -1    0    0  501    0  0.00000000000E+00  0.00000000000E+00  0.16989913011E+04  0.16989913011E+04  0.50400001928E-02 0. -1.
       -1   -1    0    0    0  501  0.00000000000E+00  0.00000000000E+00 -0.33084621490E+03  0.33084621493E+03  0.50400001928E-02 0.  1.
    10030    2    1    2    0    0  0.00000000000E+00  0.00000000000E+00  0.13681450862E+04  0.20298375161E+04  0.14994730290E+04 0.  0.
        1    1    3    3  502    0  0.48757092283E+03 -0.55726056637E+03  0.52481786760E+03  0.90757839209E+03  0.50400001928E-02 0.  1.
       -1    1    3    3    0  502 -0.48757092283E+03  0.55726056637E+03  0.84332721862E+03  0.11222591240E+04  0.50400001928E-02 0. -1.
</event>
<event>
 5   0  0.3030702E-05  0.1500617E+04  0.7818609E-02  0.8884042E-01
       -2   -1    0    0    0  501  0.00000000000E+00  0.00000000000E+00  0.53652530604E+03  0.53652530605E+03  0.25500000920E-02 0.  1.
        2   -1    0    0  501    0  0.00000000000E+00  0.00000000000E+00 -0.10492759867E+04  0.10492759867E+04  0.25500000920E-02 0. -1.
    10030    2    1    2    0    0  0.00000000000E+00  0.00000000000E+00 -0.51275068065E+03  0.15858012927E+04  0.15006173661E+04 0.  0.
        5    1    3    3  502    0 -0.33236932049E+02 -0.27007824369E+03 -0.99527622755E+03  0.10318157832E+04  0.46999998093E+01 0. -1.
       -5    1    3    3    0  502  0.33236932049E+02  0.27007824369E+03  0.48252554690E+03  0.55398550953E+03  0.46999998093E+01 0.  1.
</event>
<event>
 5   0  0.1116613E-05  0.1500019E+04  0.7818609E-02  0.8884440E-01
       -4   -1    0    0    0  501  0.00000000000E+00  0.00000000000E+00  0.57448741201E+03  0.57448881578E+03  0.12699999809E+01 0. -1.
        4   -1    0    0  501    0  0.00000000000E+00  0.00000000000E+00 -0.97915536717E+03  0.97915619078E+03  0.12699999809E+01 0.  1.
    10030    2    1    2    0    0  0.00000000000E+00  0.00000000000E+00 -0.40466795516E+03  0.15536450066E+04  0.15000188840E+04 0.  0.
        3    1    3    3  502    0  0.18510080659E+03 -0.45775024113E+03 -0.78706667873E+03  0.92912408150E+03  0.10100000352E+00 0.  1.
       -3    1    3    3    0  502 -0.18510080659E+03  0.45775024113E+03  0.38239872357E+03  0.62452092506E+03  0.10100000352E+00 0. -1.
</event>
<event>
 5   0  0.1588657E-05  0.1500447E+04  0.7818609E-02  0.8884156E-01
        1   -1    0    0  501    0  0.00000000000E+00  0.00000000000E+00  0.10401878046E+04  0.10401878046E+04  0.50400001928E-02 0. -1.
       -1   -1    0    0    0  501  0.00000000000E+00  0.00000000000E+00 -0.54108994416E+03  0.54108994418E+03  0.50400001928E-02 0.  1.
    10030    2    1    2    0    0  0.00000000000E+00  0.00000000000E+00  0.49909786043E+03  0.15812777488E+04  0.15004468150E+04 0.  0.
        3    1    3    3  502    0  0.93114527833E+02  0.73687417947E+03  0.13811093228E+03  0.75546575798E+03  0.10100000352E+00 0. -1.
       -3    1    3    3    0  502 -0.93114527833E+02 -0.73687417947E+03  0.36098692815E+03  0.82581199081E+03  0.10100000352E+00 0.  1.
</event>
<event>
 5   0  0.1643498E-05  0.1505501E+04  0.7818609E-02  0.8880803E-01
        1   -1    0    0  501    0  0.00000000000E+00  0.00000000000E+00  0.10240729523E+04  0.10240729523E+04  0.50400001928E-02 0.  1.
       -1   -1    0    0    0  501  0.00000000000E+00  0.00000000000E+00 -0.55331320792E+03  0.55331320795E+03  0.50400001928E-02 0. -1.
    10030    2    1    2    0    0  0.00000000000E+00  0.00000000000E+00  0.47075974436E+03  0.15773861602E+04  0.15055007013E+04 0.  0.
        4    1    3    3  502    0 -0.34488913496E+03 -0.29797463755E+03 -0.39230290122E+03  0.60136559533E+03  0.12699999809E+01 0.  1.
       -4    1    3    3    0  502  0.34488913496E+03  0.29797463755E+03  0.86306264559E+03  0.97602056492E+03  0.12699999809E+01 0. -1.
</event>
<event>
 5   0  0.1643498E-05  0.1498655E+04  0.7818609E-02  0.8885348E-01
       -1   -1    0    0    0  501  0.00000000000E+00  0.00000000000E+00  0.94592995338E+03  0.94592995339E+03  0.50400001928E-02 0. -1.
        1   -1    0    0  501    0  0.00000000000E+00  0.00000000000E+00 -0.59358698661E+03  0.59358698663E+03  0.50400001928E-02 0.  1.
    10030    2    1    2    0    0  0.00000000000E+00  0.00000000000E+00  0.35234296677E+03  0.15395169400E+04  0.14986550111E+04 0.  0.
        4    1    3    3  502    0 -0.91663474577E+02  0.64179418651E+03 -0.20982370473E+03  0.68141732468E+03  0.12699999809E+01 0.  1.
       -4    1    3    3    0  502  0.91663474577E+02 -0.64179418651E+03  0.56216667150E+03  0.85809961534E+03  0.12699999809E+01 0. -1.
</event>
<event>
 5   0  0.3070497E-05  0.1499849E+04  0.7818609E-02  0.8884553E-01
        2   -1    0    0  501    0  0.00000000000E+00  0.00000000000E+00  0.10207541456E+04  0.10207541456E+04  0.25500000920E-02 0. -1.
       -2   -1    0    0    0  501  0.00000000000E+00  0.00000000000E+00 -0.55095256373E+03  0.55095256374E+03  0.25500000920E-02 0.  1.
    10030    2    1    2    0    0  0.00000000000E+00  0.00000000000E+00  0.46980158190E+03  0.15717067094E+04  0.14998494771E+04 0.  0.
        4    1    3    3  502    0 -0.13313313830E+03  0.91312886250E+02 -0.53252616914E+03  0.55646042934E+03  0.12699999809E+01 0.  1.
       -4    1    3    3    0  502  0.13313313830E+03 -0.91312886250E+02  0.10023277510E+04  0.10152462800E+04  0.12699999809E+01 0. -1.
</event>
<event>
 5   0  0.1116613E-05  0.1499966E+04  0.7818609E-02  0.8884476E-01
       -3   -1    0    0    0  501  0.00000000000E+00  0.00000000000E+00  0.80901664747E+03  0.80901665377E+03  0.10100000352E+00 0.  1.
        3   -1    0    0  501    0  0.00000000000E+00  0.00000000000E+00 -0.69525681215E+03  0.69525681949E+03  0.10100000352E+00 0. -1.
    10030    2    1    2    0    0  0.00000000000E+00  0.00000000000E+00  0.11375983532E+03  0.15042734733E+04  0.14999657937E+04 0.  0.
        4    1    3    3  502    0  0.45121558480E+03  0.15643072850E+03  0.63681969614E+03  0.79599435618E+03  0.12699999809E+01 0.  1.
       -4    1    3    3    0  502 -0.45121558480E+03 -0.15643072850E+03 -0.52305986083E+03  0.70827911708E+03  0.12699999809E+01 0. -1.
</event>
<event>
 5   0  0.1588657E-05  0.1501987E+04  0.7818609E-02  0.8883133E-01
        1   -1    0    0  501    0  0.00000000000E+00  0.00000000000E+00  0.18035532368E+04  0.18035532368E+04  0.50400001928E-02 0.  1.
       -1   -1    0    0    0  501  0.00000000000E+00  0.00000000000E+00 -0.31271117485E+03  0.31271117489E+03  0.50400001928E-02 0. -1.
    10030    2    1    2    0    0  0.00000000000E+00  0.00000000000E+00  0.14908420620E+04  0.21162644117E+04  0.15019870194E+04 0.  0.
        3    1    3    3  502    0 -0.14938349516E+02  0.39612323503E+03  0.16441387310E+04  0.16912507054E+04  0.10100000352E+00 0.  1.
       -3    1    3    3    0  502  0.14938349516E+02 -0.39612323503E+03 -0.15329666902E+03  0.42501370631E+03  0.10100000352E+00 0. -1.
</event>
<event>
 5   0  0.3018308E-05  0.1499858E+04  0.7818609E-02  0.8884547E-01
       -2   -1    0    0    0  501  0.00000000000E+00  0.00000000000E+00  0.68919692305E+03  0.68919692305E+03  0.25500000920E-02 0. -1.
        2   -1    0    0  501    0  0.00000000000E+00  0.00000000000E+00 -0.81601278841E+03  0.81601278842E+03  0.25500000920E-02 0.  1.
    10030    2    1    2    0    0  0.00000000000E+00  0.00000000000E+00 -0.12681586536E+03  0.15052097115E+04  0.14998579972E+04 0.  0.
        2    1    3    3  502    0  0.16052907649E+03 -0.80893381624E+02 -0.79407183386E+03  0.81416423461E+03  0.25500000920E-02 0.  1.
       -2    1    3    3    0  502 -0.16052907649E+03  0.80893381624E+02  0.66725596849E+03  0.69104547686E+03  0.25500000920E-02 0. -1.
</event>
<event>
 5   0  0.3030702E-05  0.1500054E+04  0.7818609E-02  0.8884417E-01
       -2   -1    0    0    0  501  0.00000000000E+00  0.00000000000E+00  0.58970409059E+03  0.58970409059E+03  0.25500000920E-02 0.  1.
        2   -1    0    0  501    0  0.00000000000E+00  0.00000000000E+00 -0.95393657436E+03  0.95393657437E+03  0.25500000920E-02 0. -1.
    10030    2    1    2    0    0  0.00000000000E+00  0.00000000000E+00 -0.36423248378E+03  0.15436406650E+04  0.15000537325E+04 0.  0.
        5    1    3    3  502    0 -0.66425130436E+03 -0.88501225251E+02 -0.52873577202E+03  0.85360756137E+03  0.46999998093E+01 0. -1.
       -5    1    3    3    0  502  0.66425130436E+03  0.88501225251E+02  0.16450328824E+03  0.69003310359E+03  0.46999998093E+01 0.  1.
</event>
<event>
 5   0  0.2969498E-05  0.1499882E+04  0.7818609E-02  0.8884531E-01
        2   -1    0    0  501    0  0.00000000000E+00  0.00000000000E+00  0.18469240707E+04  0.18469240707E+04  0.25500000920E-02 0.  1.
       -2   -1    0    0    0  501  0.00000000000E+00  0.00000000000E+00 -0.30451263892E+03  0.30451263893E+03  0.25500000920E-02 0. -1.
    10030    2    1    2    0    0  0.00000000000E+00  0.00000000000E+00  0.15424114318E+04  0.21514367096E+04  0.14998822923E+04 0.  0.
        3    1    3    3  502    0 -0.50349834686E+03 -0.29392685111E+03  0.94586477423E+02  0.59063541293E+03  0.10100000352E+00 0. -1.
       -3    1    3    3    0  502  0.50349834686E+03  0.29392685111E+03  0.14478249544E+04  0.15608012967E+04  0.10100000352E+00 0.  1.
</event>
<event>
 5   0  0.1580078E-05  0.1500310E+04  0.7818609E-02  0.8884247E-01
        1   -1    0    0  501    0  0.00000000000E+00  0.00000000000E+00  0.92453197599E+03  0.92453197601E+03  0.50400001928E-02 0.  1.
       -1   -1    0    0    0  501  0.00000000000E+00  0.00000000000E+00 -0.60866774762E+03  0.60866774764E+03  0.50400001928E-02 0. -1.
    10030    2    1    2    0    0  0.00000000000E+00  0.00000000000E+00  0.31586422837E+03  0.15331997236E+04  0.15003103618E+04 0.  0.
        2    1    3    3  502    0  0.45528929778E+03 -0.12917829600E+03 -0.43685565719E+03  0.64406384936E+03  0.25500000920E-02 0. -1.
       -2    1    3    3    0  502 -0.45528929778E+03  0.12917829600E+03  0.75271988556E+03  0.88913587429E+03  0.25500000920E-02 0.  1.
</event>
<event>
 5   0  0.2969498E-05  0.1500930E+04  0.7818609E-02  0.8883834E-01
       -2   -1    0    0    0  501  0.00000000000E+00  0.00000000000E+00  0.40475505227E+03  0.40475505227E+03  0.25500000920E-02 0.  1.
        2   -1    0    0  501    0  0.00000000000E+00  0.00000000000E+00 -0.13914539005E+04  0.13914539005E+04  0.25500000920E-02 0. -1.
    10030    2    1    2    0    0  0.00000000000E+00  0.00000000000E+00 -0.98669884822E+03  0.17962089528E+04  0.15009303731E+04 0.  0.
        3    1    3    3  502    0  0.35251695408E+03 -0.65205144600E+03 -0.63372286005E+03  0.97521483002E+03  0.10100000352E+00 0. -1.
       -3    1    3    3    0  502 -0.35251695408E+03  0.65205144600E+03 -0.35297598817E+03  0.82099412273E+03  0.10100000352E+00 0.  1.
</event>
<event>
 5   0  0.1533777E-05  0.1500513E+04  0.7818609E-02  0.8884112E-01
       -1   -1    0    0    0  501  0.00000000000E+00  0.00000000000E+00  0.54570552924E+03  0.54570552926E+03  0.50400001928E-02 0.  1.
        1   -1    0    0  501    0  0.00000000000E+00  0.00000000000E+00 -0.10314814223E+04  0.10314814223E+04  0.50400001928E-02 0. -1.
    10030    2    1    2    0    0  0.00000000000E+00  0.00000000000E+00 -0.48577589304E+03  0.15771869515E+04  0.15005133994E+04 0.  0.
        5    1    3    3  502    0 -0.24029801499E+03  0.21858046566E+03  0.46793929571E+03  0.56965764319E+03  0.46999998093E+01 0.  1.
       -5    1    3    3    0  502  0.24029801499E+03 -0.21858046566E+03 -0.95371518874E+03  0.10075293084E+04  0.46999998093E+01 0. -1.
</event>
<event>
 5   0  0.1588657E-05  0.1504475E+04  0.7818609E-02  0.8881483E-01
        1   -1    0    0  501    0  0.00000000000E+00  0.00000000000E+00  0.14611384364E+04  0.14611384365E+04  0.50400001928E-02 0. -1.
       -1   -1    0    0    0  501  0.00000000000E+00  0.00000000000E+00 -0.38727405092E+03  0.38727405095E+03  0.50400001928E-02 0.  1.
    10030    2    1    2    0    0  0.00000000000E+00  0.00000000000E+00  0.10738643855E+04  0.18484124874E+04  0.15044746608E+04 0.  0.
        3    1    3    3  502    0  0.13392251988E+03  0.73136684224E+03  0.39669676126E+03  0.84273425815E+03  0.10100000352E+00 0. -1.
       -3    1    3    3    0  502 -0.13392251988E+03 -0.73136684224E+03  0.67716762426E+03  0.10056782293E+04  0.10100000352E+00 0.  1.
</event>
<event>
 5   0  0.1643498E-05  0.1499324E+04  0.7818609E-02  0.8884903E-01
       -1   -1    0    0    0  501  0.00000000000E+00  0.00000000000E+00  0.15151923880E+04  0.15151923880E+04  0.50400001928E-02 0.  1.
        1   -1    0    0  501    0  0.00000000000E+00  0.00000000000E+00 -0.37090548516E+03  0.37090548519E+03  0.50400001928E-02 0. -1.
    10030    2    1    2    0    0  0.00000000000E+00  0.00000000000E+00  0.11442869028E+04  0.18860978732E+04  0.14993240714E+04 0.  0.
        4    1    3    3  502    0  0.53171332416E+03 -0.27869219328E+02 -0.91718898090E+02  0.54028670319E+03  0.12699999809E+01 0. -1.
       -4    1    3    3    0  502 -0.53171332416E+03  0.27869219328E+02  0.12360058009E+04  0.13458111700E+04  0.12699999809E+01 0.  1.
</event>
<event>
 5   0  0.3070497E-05  0.1499163E+04  0.7818609E-02  0.8885010E-01
       -2   -1    0    0    0  501  0.00000000000E+00  0.00000000000E+00  0.27852871263E+03  0.27852871264E+03  0.25500000920E-02 0. -1.
        2   -1    0    0  501    0  0.00000000000E+00  0.00000000000E+00 -0.20172875815E+04  0.20172875815E+04  0.25500000920E-02 0.  1.
    10030    2    1    2    0    0  0.00000000000E+00  0.00000000000E+00 -0.17387588688E+04  0.22958162941E+04  0.14991631173E+04 0.  0.
        4    1    3    3  502    0 -0.24860900806E+03 -0.29741137730E+03 -0.18518774823E+04  0.18920126291E+04  0.12699999809E+01 0.  1.
       -4    1    3    3    0  502  0.24860900806E+03  0.29741137730E+03  0.11311861351E+03  0.40380366499E+03  0.12699999809E+01 0. -1.
</event>
<event>
 5   0  0.1643498E-05  0.1500453E+04  0.7818609E-02  0.8884152E-01
       -1   -1    0    0    0  501  0.00000000000E+00  0.00000000000E+00  0.58771284457E+03  0.58771284459E+03  0.50400001928E-02 0.  1.
        1   -1    0    0  501    0  0.00000000000E+00  0.00000000000E+00 -0.95767822888E+03  0.95767822889E+03  0.50400001928E-02 0. -1.
    10030    2    1    2    0    0  0.00000000000E+00  0.00000000000E+00 -0.36996538431E+03  0.15453910735E+04  0.15004529931E+04 0.  0.
        4    1    3    3  502    0  0.69476725438E+03 -0.10753001845E+03  0.84726382197E+02  0.70812740052E+03  0.12699999809E+01 0.  1.
       -4    1    3    3    0  502 -0.69476725438E+03  0.10753001845E+03 -0.45469176651E+03  0.83726367296E+03  0.12699999809E+01 0. -1.
</event>
<event>
 5   0  0.1116613E-05  0.1500036E+04  0.7818609E-02  0.8884429E-01
        4   -1    0    0  501    0  0.00000000000E+00  0.00000000000E+00  0.50292399349E+03  0.50292559701E+03  0.12699999809E+01 0. -1.
       -4   -1    0    0    0  501  0.00000000000E+00  0.00000000000E+00 -0.11185092755E+04  0.11185099965E+04  0.12699999809E+01 0.  1.
    10030    2    1    2    0    0  0.00000000000E+00  0.00000000000E+00 -0.61558528199E+03  0.16214355935E+04  0.15000360477E+04 0.  0.
        4    1    3    3  502    0 -0.73219750077E+02 -0.52296450217E+03 -0.88350634065E+03  0.10292900802E+04  0.12699999809E+01 0.  1.
       -4    1    3    3    0  502  0.73219750077E+02  0.52296450217E+03  0.26792105866E+03  0.59214551329E+03  0.12699999809E+01 0. -1.
</event>
<event>
 5   0  0.1588657E-05  0.1500726E+04  0.7818609E-02  0.8883970E-01
        1   -1    0    0  501    0  0.00000000000E+00  0.00000000000E+00  0.67728115679E+03  0.67728115681E+03  0.50400001928E-02 0. -1.
       -1   -1    0    0    0  501  0.00000000000E+00  0.00000000000E+00 -0.83133074108E+03  0.83133074109E+03  0.50400001928E-02 0.  1.
    10030    2    1    2    0    0  0.00000000000E+00  0.00000000000E+00 -0.15404958429E+03  0.15086118979E+04  0.15007260190E+04 0.  0.
        3    1    3    3  502    0 -0.40216511883E+03  0.42857446844E+03  0.39193679552E+03  0.70641865751E+03  0.10100000352E+00 0. -1.
       -3    1    3    3    0  502  0.40216511883E+03 -0.42857446844E+03 -0.54598637980E+03  0.80219324039E+03  0.10100000352E+00 0.  1.
</event>
<event>
 5   0  0.3018308E-05  0.1499762E+04  0.7818609E-02  0.8884611E-01
       -2   -1    0    0    0  501  0.00000000000E+00  0.00000000000E+00  0.77379284881E+03  0.77379284882E+03  0.25500000920E-02 0.  1.
        2   -1    0    0  501    0  0.00000000000E+00  0.00000000000E+00 -0.72670788939E+03  0.72670788939E+03  0.25500000920E-02 0. -1.
    10030    2    1    2    0    0  0.00000000000E+00  0.00000000000E+00  0.47084959423E+02  0.15005007382E+04  0.14997618051E+04 0.  0.
        2    1    3    3  502    0  0.57078832630E+03  0.23059335952E+03  0.45194588023E+03  0.76369345261E+03  0.25500000920E-02 0.  1.
       -2    1    3    3    0  502 -0.57078832630E+03 -0.23059335952E+03 -0.40486092081E+03  0.73680728559E+03  0.25500000920E-02 0. -1.
</event>
<event>
 5   0  0.3070497E-05  0.1501894E+04  0.7818609E-02  0.8883194E-01
        2   -1    0    0  501    0  0.00000000000E+00  0.00000000000E+00  0.12150588841E+04  0.12150588841E+04  0.25500000920E-02 0.  1.
       -2   -1    0    0    0  501  0.00000000000E+00  0.00000000000E+00 -0.46411040672E+03  0.46411040672E+03  0.25500000920E-02 0. -1.
    10030    2    1    2    0    0  0.00000000000E+00  0.00000000000E+00  0.75094847736E+03  0.16791692908E+04  0.15018941013E+04 0.  0.
        4    1    3    3  502    0 -0.46979233545E+03 -0.58582623198E+03  0.37015358556E+03  0.83720517337E+03  0.12699999809E+01 0.  1.
       -4    1    3    3    0  502  0.46979233545E+03  0.58582623198E+03  0.38079489180E+03  0.84196411743E+03  0.12699999809E+01 0. -1.
</event>
<event>
 5   0  0.3018308E-05  0.1500142E+04  0.7818609E-02  0.8884359E-01
        2   -1    0    0  501    0  0.00000000000E+00  0.00000000000E+00  0.23922596100E+04  0.23922596100E+04  0.25500000920E-02 0.  1.
       -2   -1    0    0    0  501  0.00000000000E+00  0.00000000000E+00 -0.23517772344E+03  0.23517772346E+03  0.25500000920E-02 0. -1.
    10030    2    1    2    0    0  0.00000000000E+00  0.00000000000E+00  0.21570818866E+04  0.26274373335E+04  0.15001415520E+04 0.  0.
        2    1    3    3  502    0 -0.11485364482E+03  0.45548259718E+02  0.23743135230E+04  0.23775261742E+04  0.25500000920E-02 0.  1.
       -2    1    3    3    0  502  0.11485364482E+03 -0.45548259718E+02 -0.21723163637E+03  0.24991115929E+03  0.25500000920E-02 0. -1.
</event>
<event>
 5   0  0.1643498E-05  0.1500833E+04  0.7818609E-02  0.8883899E-01
        1   -1    0    0  501    0  0.00000000000E+00  0.00000000000E+00  0.71173263018E+03  0.71173263020E+03  0.50400001928E-02 0. -1.
       -1   -1    0    0    0  501  0.00000000000E+00  0.00000000000E+00 -0.79120337912E+03  0.79120337914E+03  0.50400001928E-02 0.  1.
    10030    2    1    2    0    0  0.00000000000E+00  0.00000000000E+00 -0.79470748941E+02  0.15029360093E+04  0.15008334512E+04 0.  0.
        4    1    3    3  502    0 -0.56969882932E+03 -0.27047911218E+03  0.36753814105E+03  0.72993260256E+03  0.12699999809E+01 0. -1.
       -4    1    3    3    0  502  0.56969882932E+03  0.27047911218E+03 -0.44700888999E+03  0.77300340678E+03  0.12699999809E+01 0.  1.
</event>
<event>
 5   0  0.3030702E-05  0.1507056E+04  0.7818609E-02  0.8879774E-01
        2   -1    0    0  501    0  0.00000000000E+00  0.00000000000E+00  0.13447772295E+04  0.13447772295E+04  0.25500000920E-02 0. -1.
       -2   -1    0    0    0  501  0.00000000000E+00  0.00000000000E+00 -0.42222934173E+03  0.42222934174E+03  0.25500000920E-02 0.  1.
    10030    2    1    2    0    0  0.00000000000E+00  0.00000000000E+00  0.92254788773E+03  0.17670065712E+04  0.15070559437E+04 0.  0.
        5    1    3    3  502    0 -0.35242223699E+03 -0.27173383239E+03  0.11742221027E+04  0.12557310004E+04  0.46999998093E+01 0. -1.
       -5    1    3    3    0  502  0.35242223699E+03  0.27173383239E+03 -0.25167421502E+03  0.51127557080E+03  0.46999998093E+01 0.  1.
</event>
<event>
 5   0  0.1580078E-05  0.1502326E+04  0.7818609E-02  0.8882908E-01
       -1   -1    0    0    0  501  0.00000000000E+00  0.00000000000E+00  0.47929287403E+03  0.47929287405E+03  0.50400001928E-02 0. -1.
        1   -1    0    0  501    0  0.00000000000E+00  0.00000000000E+00 -0.11772463607E+04  0.11772463607E+04  0.50400001928E-02 0.  1.
    10030    2    1    2    0    0  0.00000000000E+00  0.00000000000E+00 -0.69795348665E+03  0.16565392347E+04  0.15023259189E+04 0.  0.
        2    1    3    3  502    0  0.34391510337E+03 -0.17754660502E+03  0.36088084041E+03  0.52918368858E+03  0.25500000920E-02 0. -1.
       -2    1    3    3    0  502 -0.34391510337E+03  0.17754660502E+03 -0.10588343271E+04  0.11273555462E+04  0.25500000920E-02 0.  1.
</event>
<event>
 5   0  0.1576214E-05  0.1499138E+04  0.7818609E-02  0.8885026E-01
        1   -1    0    0  501    0  0.00000000000E+00  0.00000000000E+00  0.86375027899E+03  0.86375027900E+03  0.50400001928E-02 0. -1.
       -1   -1    0    0    0  501  0.00000000000E+00  0.00000000000E+00 -0.65048189814E+03  0.65048189816E+03  0.50400001928E-02 0.  1.
    10030    2    1    2    0    0  0.00000000000E+00  0.00000000000E+00  0.21326838085E+03  0.15142321772E+04  0.14991383139E+04 0.  0.
        1    1    3    3  502    0  0.41256586389E+03 -0.61627143544E+03  0.21660112090E+03  0.77260411582E+03  0.50400001928E-02 0.  1.
       -1    1    3    3    0  502 -0.41256586389E+03  0.61627143544E+03 -0.33327400545E+01  0.74162806134E+03  0.50400001928E-02 0. -1.
</event>
<event>
 5   0  0.1533777E-05  0.1499829E+04  0.7818609E-02  0.8884567E-01
        1   -1    0    0  501    0  0.00000000000E+00  0.00000000000E+00  0.76645274644E+03  0.76645274646E+03  0.50400001928E-02 0. -1.
       -1   -1    0    0    0  501  0.00000000000E+00  0.00000000000E+00 -0.73373288395E+03  0.73373288397E+03  0.50400001928E-02 0.  1.
    10030    2    1    2    0    0  0.00000000000E+00  0.00000000000E+00  0.32719862493E+02  0.15001856304E+04  0.14998287690E+04 0.  0.
        5    1    3    3  502    0 -0.67791976429E+02  0.67128994347E+03 -0.31101529188E+03  0.74295258399E+03  0.46999998093E+01 0.  1.
       -5    1    3    3    0  502  0.67791976429E+02 -0.67128994347E+03  0.34373515437E+03  0.75723304644E+03  0.46999998093E+01 0. -1.
</event>
<event>
 5   0  0.1643498E-05  0.1500402E+04  0.7818609E-02  0.8884186E-01
       -1   -1    0    0    0  501  0.00000000000E+00  0.00000000000E+00  0.51282646616E+03  0.51282646619E+03  0.50400001928E-02 0. -1.
        1   -1    0    0  501    0  0.00000000000E+00  0.00000000000E+00 -0.10974499845E+04  0.10974499846E+04  0.50400001928E-02 0.  1.
    10030    2    1    2    0    0  0.00000000000E+00  0.00000000000E+00 -0.58462351838E+03  0.16102764507E+04  0.15004018094E+04 0.  0.
        4    1    3    3  502    0 -0.35344658391E+03 -0.64924909756E+03 -0.42954640797E+03  0.85496234295E+03  0.12699999809E+01 0.  1.
       -4    1    3    3    0  502  0.35344658391E+03  0.64924909756E+03 -0.15507711041E+03  0.75531410779E+03  0.12699999809E+01 0. -1.
</event>
<event>
 5   0  0.3093600E-05  0.1498019E+04  0.7818609E-02  0.8885771E-01
        2   -1    0    0  501    0  0.00000000000E+00  0.00000000000E+00  0.50970348818E+03  0.50970348818E+03  0.25500000920E-02 0. -1.
       -2   -1    0    0    0  501  0.00000000000E+00  0.00000000000E+00 -0.11006701727E+04  0.11006701727E+04  0.25500000920E-02 0.  1.
    10030    2    1    2    0    0  0.00000000000E+00  0.00000000000E+00 -0.59096668448E+03  0.16103736608E+04  0.14980192607E+04 0.  0.
        1    1    3    3  502    0 -0.72724842005E+03 -0.16835483652E+03 -0.36159212547E+03  0.82944709336E+03  0.50400001928E-02 0.  1.
       -1    1    3    3    0  502  0.72724842005E+03  0.16835483652E+03 -0.22937455901E+03  0.78092656748E+03  0.50400001928E-02 0. -1.
</event>
<event>
 5   0  0.1576214E-05  0.1499687E+04  0.7818609E-02  0.8884661E-01
       -1   -1    0    0    0  501  0.00000000000E+00  0.00000000000E+00  0.34997316925E+03  0.34997316929E+03  0.50400001928E-02 0. -1.
        1   -1    0    0  501    0  0.00000000000E+00  0.00000000000E+00 -0.16065956927E+04  0.16065956927E+04  0.50400001928E-02 0.  1.
    10030    2    1    2    0    0  0.00000000000E+00  0.00000000000E+00 -0.12566225235E+04  0.19565688620E+04  0.14996871491E+04 0.  0.
        1    1    3    3  502    0 -0.61793221036E+03  0.17031283839E+03 -0.12063806605E+03  0.65222712495E+03  0.50400001928E-02 0. -1.
       -1    1    3    3    0  502  0.61793221036E+03 -0.17031283839E+03 -0.11359844574E+04  0.13043417371E+04  0.50400001928E-02 0.  1.
</event>
<event>
 5   0  0.2969498E-05  0.1499871E+04  0.7818609E-02  0.8884539E-01
       -2   -1    0    0    0  501  0.00000000000E+00  0.00000000000E+00  0.83808888270E+03  0.83808888271E+03  0.25500000920E-02 0.  1.
        2   -1    0    0  501    0  0.00000000000E+00  0.00000000000E+00 -0.67105425029E+03  0.67105425030E+03  0.25500000920E-02 0. -1.
    10030    2    1    2    0    0  0.00000000000E+00  0.00000000000E+00  0.16703463241E+03  0.15091431330E+04  0.14998708036E+04 0.  0.
        3    1    3    3  502    0  0.48548646348E+02  0.74766102380E+03  0.11610766256E+03  0.75817872370E+03  0.10100000352E+00 0.  1.
       -3    1    3    3    0  502 -0.48548646348E+02 -0.74766102380E+03  0.50926969852E+02  0.75096440930E+03  0.10100000352E+00 0. -1.
</event>
<event>
 5   0  0.3093600E-05  0.1499758E+04  0.7818609E-02  0.8884614E-01
        2   -1    0    0  501    0  0.00000000000E+00  0.00000000000E+00  0.12158098233E+04  0.12158098233E+04  0.25500000920E-02 0.  1.
       -2   -1    0    0    0  501  0.00000000000E+00  0.00000000000E+00 -0.46250514869E+03  0.46250514869E+03  0.25500000920E-02 0. -1.
    10030    2    1    2    0    0  0.00000000000E+00  0.00000000000E+00  0.75330467460E+03  0.16783149720E+04  0.14997577179E+04 0.  0.
        1    1    3    3  502    0 -0.61018282735E+03 -0.57828482313E+02 -0.10681554122E+03  0.62215494536E+03  0.50400001928E-02 0. -1.
       -1    1    3    3    0  502  0.61018282735E+03  0.57828482313E+02  0.86012021582E+03  0.10561600266E+04  0.50400001928E-02 0.  1.
</event>
<event>
 5   0  0.3093600E-05  0.1499960E+04  0.7818609E-02  0.8884480E-01
       -2   -1    0    0    0  501  0.00000000000E+00  0.00000000000E+00  0.68695818429E+03  0.68695818430E+03  0.25500000920E-02 0.  1.
        2   -1    0    0  501    0  0.00000000000E+00  0.00000000000E+00 -0.81878318175E+03  0.81878318176E+03  0.25500000920E-02 0. -1.
    10030    2    1    2    0    0  0.00000000000E+00  0.00000000000E+00 -0.13182499746E+03  0.15057413661E+04  0.14999597433E+04 0.  0.
        1    1    3    3  502    0 -0.60064725613E+03  0.21511861481E+03  0.32983626632E+03  0.71822357754E+03  0.50400001928E-02 0.  1.
       -1    1    3    3    0  502  0.60064725613E+03 -0.21511861481E+03 -0.46166126378E+03  0.78751778852E+03  0.50400001928E-02 0. -1.
</event>
<event>
 5   0  0.3030702E-05  0.1499955E+04  0.7818609E-02  0.8884483E-01
       -2   -1    0    0    0  501  0.00000000000E+00  0.00000000000E+00  0.10035270786E+04  0.10035270786E+04  0.25500000920E-02 0.  1.
        2   -1    0    0  501    0  0.00000000000E+00  0.00000000000E+00 -0.56048945699E+03  0.56048945699E+03  0.25500000920E-02 0. -1.
    10030    2    1    2    0    0  0.00000000000E+00  0.00000000000E+00  0.44303762158E+03  0.15640165356E+04  0.14999551291E+04 0.  0.
        5    1    3    3  502    0 -0.56521754635E+02 -0.34177239576E+03 -0.47205205677E+03  0.58554104344E+03  0.46999998093E+01 0. -1.
       -5    1    3    3    0  502  0.56521754635E+02  0.34177239576E+03  0.91508967835E+03  0.97847549212E+03  0.46999998093E+01 0.  1.
</event>
<event>
 5   0  0.1533777E-05  0.1502206E+04  0.7818609E-02  0.8882988E-01
       -1   -1    0    0    0  501  0.00000000000E+00  0.00000000000E+00  0.10721308319E+04  0.10721308319E+04  0.50400001928E-02 0.  1.
        1   -1    0    0  501    0  0.00000000000E+00  0.00000000000E+00 -0.52620010052E+03  0.52620010054E+03  0.50400001928E-02 0. -1.
    10030    2    1    2    0    0  0.00000000000E+00  0.00000000000E+00  0.54593073142E+03  0.15983309325E+04  0.15022055140E+04 0.  0.
        5    1    3    3  502    0 -0.66794695302E+03  0.66175712148E+02 -0.85649466235E+02  0.67667590321E+03  0.46999998093E+01 0. -1.
       -5    1    3    3    0  502  0.66794695302E+03 -0.66175712148E+02  0.63158019765E+03  0.92165502928E+03  0.46999998093E+01 0.  1.
</event>
<event>
 5   0  0.2969498E-05  0.1499235E+04  0.7818609E-02  0.8884962E-01
       -2   -1    0    0    0  501  0.00000000000E+00  0.00000000000E+00  0.39995773764E+03  0.39995773764E+03  0.25500000920E-02 0.  1.
        2   -1    0    0  501    0  0.00000000000E+00  0.00000000000E+00 -0.14049650082E+04  0.14049650082E+04  0.25500000920E-02 0. -1.
    10030    2    1    2    0    0  0.00000000000E+00  0.00000000000E+00 -0.10050072706E+04  0.18049227459E+04  0.14992353066E+04 0.  0.
        3    1    3    3  502    0 -0.45657455380E+03 -0.57362416569E+03 -0.31436588068E+03  0.79770353125E+03  0.10100000352E+00 0.  1.
       -3    1    3    3    0  502  0.45657455380E+03  0.57362416569E+03 -0.69064138992E+03  0.10072192146E+04  0.10100000352E+00 0. -1.
</event>
<event>
 5   0  0.1580078E-05  0.1500044E+04  0.7818609E-02  0.8884424E-01
       -1   -1    0    0    0  501  0.00000000000E+00  0.00000000000E+00  0.36386390107E+03  0.36386390110E+03  0.50400001928E-02 0. -1.
        1   -1    0    0  501    0  0.00000000000E+00  0.00000000000E+00 -0.15459986025E+04  0.15459986025E+04  0.50400001928E-02 0.  1.
    10030    2    1    2    0    0  0.00000000000E+00  0.00000000000E+00 -0.11821347014E+04  0.19098625036E+04  0.15000441095E+04 0.  0.
        2    1    3    3  502    0 -0.52582825039E+02 -0.74059856009E+03 -0.72630239004E+03  0.10386367712E+04  0.25500000920E-02 0. -1.
       -2    1    3    3    0  502  0.52582825039E+02  0.74059856009E+03 -0.45583231140E+03  0.87122573242E+03  0.25500000920E-02 0.  1.
</event>
<event>
 5   0  0.1576214E-05  0.1499099E+04  0.7818609E-02  0.8885053E-01
       -1   -1    0    0    0  501  0.00000000000E+00  0.00000000000E+00  0.70100912745E+03  0.70100912747E+03  0.50400001928E-02 0. -1.
        1   -1    0    0  501    0  0.00000000000E+00  0.00000000000E+00 -0.80145060343E+03  0.80145060345E+03  0.50400001928E-02 0.  1.
    10030    2    1    2    0    0  0.00000000000E+00  0.00000000000E+00 -0.10044147598E+03  0.15024597309E+04  0.14990986468E+04 0.  0.
        1    1    3    3  502    0 -0.48678347131E+03  0.38424525113E+03  0.37170011324E+03  0.72302388284E+03  0.50400001928E-02 0. -1.
       -1    1    3    3    0  502  0.48678347131E+03 -0.38424525113E+03 -0.47214158922E+03  0.77943584807E+03  0.50400001928E-02 0.  1.
</event>
<event>
 5   0  0.1588657E-05  0.1499635E+04  0.7818609E-02  0.8884696E-01
        1   -1    0    0  501    0  0.00000000000E+00  0.00000000000E+00  0.46022304251E+03  0.46022304254E+03  0.50400001928E-02 0. -1.
       -1   -1    0    0    0  501  0.00000000000E+00  0.00000000000E+00 -0.12216385101E+04  0.12216385101E+04  0.50400001928E-02 0.  1.
    10030    2    1    2    0    0  0.00000000000E+00  0.00000000000E+00 -0.76141546755E+03  0.16818615526E+04  0.14996348782E+04 0.  0.
        3    1    3    3  502    0  0.27003421476E+03  0.47898733828E+03 -0.95243665950E+03  0.10997649512E+04  0.10100000352E+00 0.  1.
       -3    1    3    3    0  502 -0.27003421476E+03 -0.47898733828E+03  0.19102119195E+03  0.58209660138E+03  0.10100000352E+00 0. -1.
</event>
<event>
 5   0  0.1588657E-05  0.1499251E+04  0.7818609E-02  0.8884951E-01
        1   -1    0    0  501    0  0.00000000000E+00  0.00000000000E+00  0.14787338982E+04  0.14787338982E+04  0.50400001928E-02 0. -1.
       -1   -1    0    0    0  501  0.00000000000E+00  0.00000000000E+00 -0.38001297552E+03  0.38001297556E+03  0.50400001928E-02 0.  1.
    10030    2    1    2    0    0  0.00000000000E+00  0.00000000000E+00  0.10987209227E+04  0.18587468738E+04  0.14992505711E+04 0.  0.
        3    1    3    3  502    0  0.39106149236E+03  0.59691238239E+03  0.83398358968E+03  0.10976165638E+04  0.10100000352E+00 0. -1.
       -3    1    3    3    0  502 -0.39106149236E+03 -0.59691238239E+03  0.26473733298E+03  0.76113030996E+03  0.10100000352E+00 0.  1.
</event>
<event>
 5   0  0.3018308E-05  0.1500028E+04  0.7818609E-02  0.8884434E-01
       -2   -1    0    0    0  501  0.00000000000E+00  0.00000000000E+00  0.47836631052E+03  0.47836631053E+03  0.25500000920E-02 0.  1.
        2   -1    0    0  501    0  0.00000000000E+00  0.00000000000E+00 -0.11759211404E+04  0.11759211404E+04  0.25500000920E-02 0. -1.
    10030    2    1    2    0    0  0.00000000000E+00  0.00000000000E+00 -0.69755482983E+03  0.16542874509E+04  0.15000280762E+04 0.  0.
        2    1    3    3  502    0  0.72107910776E+03  0.20321741629E+03 -0.30949627199E+03  0.81058024915E+03  0.25500000920E-02 0. -1.
       -2    1    3    3    0  502 -0.72107910776E+03 -0.20321741629E+03 -0.38805855784E+03  0.84370720173E+03  0.25500000920E-02 0.  1.
</event>
<event>
 5   0  0.1533777E-05  0.1500340E+04  0.7818609E-02  0.8884227E-01
       -1   -1    0    0    0  501  0.00000000000E+00  0.00000000000E+00  0.71652619600E+03  0.71652619602E+03  0.50400001928E-02 0. -1.
        1   -1    0    0  501    0  0.00000000000E+00  0.00000000000E+00 -0.78539374765E+03  0.78539374767E+03  0.50400001928E-02 0.  1.
    10030    2    1    2    0    0  0.00000000000E+00  0.00000000000E+00 -0.68867551651E+02  0.15019199437E+04  0.15003402206E+04 0.  0.
        5    1    3    3  502    0 -0.20006729627E+03 -0.41608658974E+02 -0.75697966204E+03  0.78409087629E+03  0.46999998093E+01 0.  1.
       -5    1    3    3    0  502  0.20006729627E+03  0.41608658974E+02  0.68811211039E+03  0.71782906740E+03  0.46999998093E+01 0. -1.
</event>
<event>
 5   0  0.3030702E-05  0.1499835E+04  0.7818609E-02  0.8884563E-01
        2   -1    0    0  501    0  0.00000000000E+00  0.00000000000E+00  0.96763267630E+03  0.96763267630E+03  0.25500000920E-02 0.  1.
       -2   -1    0    0    0  501  0.00000000000E+00  0.00000000000E+00 -0.58118785621E+03  0.58118785621E+03  0.25500000920E-02 0. -1.
    10030    2    1    2    0    0  0.00000000000E+00  0.00000000000E+00  0.38644482009E+03  0.15488205325E+04  0.14998351386E+04 0.  0.
        5    1    3    3  502    0  0.30431702948E+03  0.13882736555E+03 -0.49987081987E+03  0.60147719692E+03  0.46999998093E+01 0. -1.
       -5    1    3    3    0  502 -0.30431702948E+03 -0.13882736555E+03  0.88631563996E+03  0.94734333560E+03  0.46999998093E+01 0.  1.
</event>
<event>
 5   0  0.1580078E-05  0.1499996E+04  0.7818609E-02  0.8884456E-01
       -1   -1    0    0    0  501  0.00000000000E+00  0.00000000000E+00  0.27456643877E+03  0.27456643882E+03  0.50400001928E-02 0.  1.
        1   -1    0    0  501    0  0.00000000000E+00  0.00000000000E+00 -0.20486737562E+04  0.20486737562E+04  0.50400001928E-02 0. -1.
    10030    2    1    2    0    0  0.00000000000E+00  0.00000000000E+00 -0.17741073175E+04  0.23232401951E+04  0.14999960767E+04 0.  0.
        2    1    3    3  502    0 -0.44732266520E+03 -0.59604665071E+03 -0.10178164572E+04  0.12614751354E+04  0.25500000920E-02 0.  1.
       -2    1    3    3    0  502  0.44732266520E+03  0.59604665071E+03 -0.75629086029E+03  0.10617650597E+04  0.25500000920E-02 0. -1.
</event>
<event>
 5   0  0.1116613E-05  0.1499901E+04  0.7818609E-02  0.8884519E-01
       -4   -1    0    0    0  501  0.00000000000E+00  0.00000000000E+00  0.43434674427E+03  0.43434860097E+03  0.12699999809E+01 0.  1.
        4   -1    0    0  501    0  0.00000000000E+00  0.00000000000E+00 -0.12948729529E+04  0.12948735757E+04  0.12699999809E+01 0. -1.
    10030    2    1    2    0    0  0.00000000000E+00  0.00000000000E+00 -0.86052620864E+03  0.17292221767E+04  0.14999013236E+04 0.  0.
        5    1    3    3  502    0 -0.19436398339E+03 -0.30216396132E+03  0.32865379409E+03  0.48694540138E+03  0.46999998093E+01 0.  1.
       -5    1    3    3    0  502  0.19436398339E+03  0.30216396132E+03 -0.11891800027E+04  0.12422767753E+04  0.46999998093E+01 0. -1.
</event>
<event>
 5   0  0.1576214E-05  0.1510396E+04  0.7818609E-02  0.8877569E-01
        1   -1    0    0  501    0  0.00000000000E+00  0.00000000000E+00  0.12527170904E+04  0.12527170904E+04  0.50400001928E-02 0.  1.
       -1   -1    0    0    0  501  0.00000000000E+00  0.00000000000E+00 -0.45526963825E+03  0.45526963828E+03  0.50400001928E-02 0. -1.
    10030    2    1    2    0    0  0.00000000000E+00  0.00000000000E+00  0.79744745216E+03  0.17079867287E+04  0.15103960495E+04 0.  0.
        1    1    3    3  502    0 -0.55224281273E+03 -0.31650919361E+03 -0.60859652417E+02  0.63941699318E+03  0.50400001928E-02 0. -1.
       -1    1    3    3    0  502  0.55224281273E+03  0.31650919361E+03  0.85830710458E+03  0.10685697355E+04  0.50400001928E-02 0.  1.
</event>
<event>
 5   0  0.1580078E-05  0.1500079E+04  0.7818609E-02  0.8884401E-01
        1   -1    0    0  501    0  0.00000000000E+00  0.00000000000E+00  0.14956673804E+04  0.14956673804E+04  0.50400001928E-02 0. -1.
       -1   -1    0    0    0  501  0.00000000000E+00  0.00000000000E+00 -0.37612577556E+03  0.37612577559E+03  0.50400001928E-02 0.  1.
    10030    2    1    2    0    0  0.00000000000E+00  0.00000000000E+00  0.11195416049E+04  0.18717931560E+04  0.15000787359E+04 0.  0.
        2    1    3    3  502    0  0.20482464479E+03  0.16983751915E+03 -0.31525508477E+03  0.41253325503E+03  0.25500000920E-02 0.  1.
       -2    1    3    3    0  502 -0.20482464479E+03 -0.16983751915E+03  0.14347966896E+04  0.14592599010E+04  0.25500000920E-02 0. -1.
</event>
<event>
 5   0  0.3093600E-05  0.1499879E+04  0.7818609E-02  0.8884534E-01
       -2   -1    0    0    0  501  0.00000000000E+00  0.00000000000E+00  0.64897185099E+03  0.64897185100E+03  0.25500000920E-02 0. -1.
        2   -1    0    0  501    0  0.00000000000E+00  0.00000000000E+00 -0.86661557420E+03  0.86661557421E+03  0.25500000920E-02 0.  1.
    10030    2    1    2    0    0  0.00000000000E+00  0.00000000000E+00 -0.21764372321E+03  0.15155874252E+04  0.14998788128E+04 0.  0.
        1    1    3    3  502    0  0.61939998635E+02  0.66404666160E+03 -0.45536348530E+03  0.80755831738E+03  0.50400001928E-02 0.  1.
       -1    1    3    3    0  502 -0.61939998635E+02 -0.66404666160E+03  0.23771976209E+03  0.70802910782E+03  0.50400001928E-02 0. -1.
</event>
<event>
 5   0  0.3093600E-05  0.1500037E+04  0.7818609E-02  0.8884428E-01
        2   -1    0    0  501    0  0.00000000000E+00  0.00000000000E+00  0.65798614883E+03  0.65798614883E+03  0.25500000920E-02 0.  1.
       -2   -1    0    0    0  501  0.00000000000E+00  0.00000000000E+00 -0.85492309914E+03  0.85492309914E+03  0.25500000920E-02 0. -1.
    10030    2    1    2    0    0  0.00000000000E+00  0.00000000000E+00 -0.19693695031E+03  0.15129092480E+04  0.15000367430E+04 0.  0.
        1    1    3    3  502    0  0.90193537901E+02  0.66617951535E+03  0.23694747225E+03  0.71279318570E+03  0.50400001928E-02 0.  1.
       -1    1    3    3    0  502 -0.90193537901E+02 -0.66617951535E+03 -0.43388442256E+03  0.80011606228E+03  0.50400001928E-02 0. -1.
</event>
<event>
 5   0  0.1116613E-05  0.1499645E+04  0.7818609E-02  0.8884689E-01
        3   -1    0    0  501    0  0.00000000000E+00  0.00000000000E+00  0.58395535577E+03  0.58395536451E+03  0.10100000352E+00 0.  1.
       -3   -1    0    0    0  501  0.00000000000E+00  0.00000000000E+00 -0.96280249267E+03  0.96280249796E+03  0.10100000352E+00 0. -1.
    10030    2    1    2    0    0  0.00000000000E+00  0.00000000000E+00 -0.37884713689E+03  0.15467578625E+04  0.14996448686E+04 0.  0.
        4    1    3    3  502    0 -0.47151635401E+03 -0.13746287507E+03 -0.77379916988E+03  0.91650994666E+03  0.12699999809E+01 0. -1.
       -4    1    3    3    0  502  0.47151635401E+03  0.13746287507E+03  0.39495203299E+03  0.63024791581E+03  0.12699999809E+01 0.  1.
</event>
<event>
 5   0  0.1643498E-05  0.1496632E+04  0.7818609E-02  0.8886695E-01
        1   -1    0    0  501    0  0.00000000000E+00  0.00000000000E+00  0.21726036970E+04  0.21726036970E+04  0.50400001928E-02 0.  1.
       -1   -1    0    0    0  501  0.00000000000E+00  0.00000000000E+00 -0.25774474184E+03  0.25774474189E+03  0.50400001928E-02 0. -1.
    10030    2    1    2    0    0  0.00000000000E+00  0.00000000000E+00  0.19148589552E+04  0.24303484389E+04  0.14966324586E+04 0.  0.
        4    1    3    3  502    0  0.32104965420E+03 -0.18650435130E+03  0.20124738781E+04  0.20464382416E+04  0.12699999809E+01 0.  1.
       -4    1    3    3    0  502 -0.32104965420E+03  0.18650435130E+03 -0.97614922975E+02  0.38391019731E+03  0.12699999809E+01 0. -1.
</event>
<event>
 5   0  0.3030702E-05  0.1500328E+04  0.7818609E-02  0.8884235E-01
       -2   -1    0    0    0  501  0.00000000000E+00  0.00000000000E+00  0.85072011364E+03  0.85072011364E+03  0.25500000920E-02 0. -1.
        2   -1    0    0  501    0  0.00000000000E+00  0.00000000000E+00 -0.66149366965E+03  0.66149366965E+03  0.25500000920E-02 0.  1.
    10030    2    1    2    0    0  0.00000000000E+00  0.00000000000E+00  0.18922644399E+03  0.15122137833E+04  0.15003279239E+04 0.  0.
        5    1    3    3  502    0 -0.42240714491E+03  0.12268734961E+03 -0.51785514545E+03  0.67946745580E+03  0.46999998093E+01 0.  1.
       -5    1    3    3    0  502  0.42240714491E+03 -0.12268734961E+03  0.70708158944E+03  0.83274632749E+03  0.46999998093E+01 0. -1.
</event>
<event>
 5   0  0.1533777E-05  0.1499361E+04  0.7818609E-02  0.8884878E-01
       -1   -1    0    0    0  501  0.00000000000E+00  0.00000000000E+00  0.40298503371E+03  0.40298503374E+03  0.50400001928E-02 0. -1.
        1   -1    0    0  501    0  0.00000000000E+00  0.00000000000E+00 -0.13946441788E+04  0.13946441788E+04  0.50400001928E-02 0.  1.
    10030    2    1    2    0    0  0.00000000000E+00  0.00000000000E+00 -0.99165914511E+03  0.17976292126E+04  0.14993608391E+04 0.  0.
        5    1    3    3  502    0  0.31973189306E+03 -0.67794849236E+03 -0.48085495112E+03  0.89055388144E+03  0.46999998093E+01 0.  1.
       -5    1    3    3    0  502 -0.31973189306E+03  0.67794849236E+03 -0.51080419398E+03  0.90707533112E+03  0.46999998093E+01 0. -1.
</event>
<event>
 5   0  0.1580078E-05  0.1499771E+04  0.7818609E-02  0.8884605E-01
       -1   -1    0    0    0  501  0.00000000000E+00  0.00000000000E+00  0.40206998316E+03  0.40206998319E+03  0.50400001928E-02 0. -1.
        1   -1    0    0  501    0  0.00000000000E+00  0.00000000000E+00 -0.13985834273E+04  0.13985834273E+04  0.50400001928E-02 0.  1.
    10030    2    1    2    0    0  0.00000000000E+00  0.00000000000E+00 -0.99651344411E+03  0.18006534105E+04  0.14997712027E+04 0.  0.
        2    1    3    3  502    0 -0.60821849761E+02 -0.58258453979E+03 -0.10604032525E+04  0.12114285374E+04  0.25500000920E-02 0.  1.
       -2    1    3    3    0  502  0.60821849761E+02  0.58258453979E+03  0.63889808343E+02  0.58922487306E+03  0.25500000920E-02 0. -1.
</event>
<event>
 5   0  0.3030702E-05  0.1500215E+04  0.7818609E-02  0.8884310E-01
       -2   -1    0    0    0  501  0.00000000000E+00  0.00000000000E+00  0.28519666555E+03  0.28519666557E+03  0.25500000920E-02 0.  1.
        2   -1    0    0  501    0  0.00000000000E+00  0.00000000000E+00 -0.19728874729E+04  0.19728874729E+04  0.25500000920E-02 0. -1.
    10030    2    1    2    0    0  0.00000000000E+00  0.00000000000E+00 -0.16876908074E+04  0.22580841385E+04  0.15002145564E+04 0.  0.
        5    1    3    3  502    0  0.24968602001E+03  0.17952890396E+03 -0.18736145527E+04  0.18986909485E+04  0.46999998093E+01 0. -1.
       -5    1    3    3    0  502 -0.24968602001E+03 -0.17952890396E+03  0.18592374530E+03  0.35939318999E+03  0.46999998093E+01 0.  1.
</event>
<event>
 5   0  0.3093600E-05  0.1499953E+04  0.7818609E-02  0.8884484E-01
        2   -1    0    0  501    0  0.00000000000E+00  0.00000000000E+00  0.77634386943E+03  0.77634386943E+03  0.25500000920E-02 0.  1.
       -2   -1    0    0    0  501  0.00000000000E+00  0.00000000000E+00 -0.72450427555E+03  0.72450427556E+03  0.25500000920E-02 0. -1.
    10030    2    1    2    0    0  0.00000000000E+00  0.00000000000E+00  0.51839593875E+02  0.15008481450E+04  0.14999526029E+04 0.  0.
        1    1    3    3  502    0 -0.48877582855E+02 -0.52628559977E+03  0.55830785995E+03  0.76881286223E+03  0.50400001928E-02 0.  1.
       -1    1    3    3    0  502  0.48877582855E+02  0.52628559977E+03 -0.50646826608E+03  0.73203528275E+03  0.50400001928E-02 0. -1.
</event>
<event>
 5   0  0.1580078E-05  0.1500011E+04  0.7818609E-02  0.8884445E-01
       -1   -1    0    0    0  501  0.00000000000E+00  0.00000000000E+00  0.38407413910E+03  0.38407413913E+03  0.50400001928E-02 0.  1.
        1   -1    0    0  501    0  0.00000000000E+00  0.00000000000E+00 -0.14645834040E+04  0.14645834040E+04  0.50400001928E-02 0. -1.
    10030    2    1    2    0    0  0.00000000000E+00  0.00000000000E+00 -0.10805092649E+04  0.18486575431E+04  0.15000114801E+04 0.  0.
        2    1    3    3  502    0 -0.45857663170E+03  0.52992649270E+03 -0.21095387674E+03  0.73185801418E+03  0.25500000920E-02 0. -1.
       -2    1    3    3    0  502  0.45857663170E+03 -0.52992649270E+03 -0.86955538815E+03  0.11167995290E+04  0.25500000920E-02 0.  1.
</event>
<event>
 5   0  0.1533777E-05  0.1500824E+04  0.7818609E-02  0.8883905E-01
       -1   -1    0    0    0  501  0.00000000000E+00  0.00000000000E+00  0.64125459673E+03  0.64125459675E+03  0.50400001928E-02 0. -1.
        1   -1    0    0  501    0  0.00000000000E+00  0.00000000000E+00 -0.87815086875E+03  0.87815086877E+03  0.50400001928E-02 0.  1.
    10030    2    1    2    0    0  0.00000000000E+00  0.00000000000E+00 -0.23689627202E+03  0.15194054655E+04  0.15008241486E+04 0.  0.
        5    1    3    3  502    0 -0.12754794780E+03 -0.55042616955E+03 -0.61838255970E+03  0.83764940593E+03  0.46999998093E+01 0.  1.
       -5    1    3    3    0  502  0.12754794780E+03  0.55042616955E+03  0.38148628768E+03  0.68175605960E+03  0.46999998093E+01 0. -1.
</event>
<event>
 5   0  0.1588657E-05  0.1500520E+04  0.7818609E-02  0.8884107E-01
        1   -1    0    0  501    0  0.00000000000E+00  0.00000000000E+00  0.53082957993E+03  0.53082957995E+03  0.50400001928E-02 0.  1.
       -1   -1    0    0    0  501  0.00000000000E+00  0.00000000000E+00 -0.10603965512E+04  0.10603965512E+04  0.50400001928E-02 0. -1.
    10030    2    1    2    0    0  0.00000000000E+00  0.00000000000E+00 -0.52956697126E+03  0.15912261312E+04  0.15005197178E+04 0.  0.
        3    1    3    3  502    0  0.11951767055E+02  0.12302921685E+03  0.51995726011E+03  0.53444793524E+03  0.10100000352E+00 0.  1.
       -3    1    3    3    0  502 -0.11951767055E+02 -0.12302921685E+03 -0.10495242314E+04  0.10567781959E+04  0.10100000352E+00 0. -1.
</event>
<event>
 5   0  0.1588657E-05  0.1499156E+04  0.7818609E-02  0.8885015E-01
       -1   -1    0    0    0  501  0.00000000000E+00  0.00000000000E+00  0.33162069208E+03  0.33162069212E+03  0.50400001928E-02 0. -1.
        1   -1    0    0  501    0  0.00000000000E+00  0.00000000000E+00 -0.16943058548E+04  0.16943058548E+04  0.50400001928E-02 0.  1.
    10030    2    1    2    0    0  0.00000000000E+00  0.00000000000E+00 -0.13626851627E+04  0.20259265469E+04  0.14991556026E+04 0.  0.
        3    1    3    3  502    0  0.41246130815E+03  0.56624103134E+03 -0.10417165549E+04  0.12553591626E+04  0.10100000352E+00 0.  1.
       -3    1    3    3    0  502 -0.41246130815E+03 -0.56624103134E+03 -0.32096860781E+03  0.77056738426E+03  0.10100000352E+00 0. -1.
</event>
<event>
 5   0  0.1533777E-05  0.1500150E+04  0.7818609E-02  0.8884353E-01
       -1   -1    0    0    0  501  0.00000000000E+00  0.00000000000E+00  0.88080097987E+03  0.88080097988E+03  0.50400001928E-02 0. -1.
        1   -1    0    0  501    0  0.00000000000E+00  0.00000000000E+00 -0.63875137941E+03  0.63875137943E+03  0.50400001928E-02 0.  1.
    10030    2    1    2    0    0  0.00000000000E+00  0.00000000000E+00  0.24204960046E+03  0.15195523593E+04  0.15001504470E+04 0.  0.
        5    1    3    3  502    0  0.18033729402E+03 -0.70139369722E+03 -0.76733645991E+02  0.72827522307E+03  0.46999998093E+01 0.  1.
       -5    1    3    3    0  502 -0.18033729402E+03  0.70139369722E+03  0.31878324645E+03  0.79127713624E+03  0.46999998093E+01 0. -1.
</event>
<event>
 5   0  0.1643498E-05  0.1499690E+04  0.7818609E-02  0.8884659E-01
        1   -1    0    0  501    0  0.00000000000E+00  0.00000000000E+00  0.58280277905E+03  0.58280277907E+03  0.50400001928E-02 0. -1.
       -1   -1    0    0    0  501  0.00000000000E+00  0.00000000000E+00 -0.96476410952E+03  0.96476410953E+03  0.50400001928E-02 0.  1.
    10030    2    1    2    0    0  0.00000000000E+00  0.00000000000E+00 -0.38196133047E+03  0.15475668886E+04  0.14996895735E+04 0.  0.
        4    1    3    3  502    0 -0.40363353767E+03  0.16055294910E+03 -0.82169553539E+03  0.92945276802E+03  0.12699999809E+01 0.  1.
       -4    1    3    3    0  502  0.40363353767E+03 -0.16055294910E+03  0.43973420492E+03  0.61811412059E+03  0.12699999809E+01 0. -1.
</event>
<event>
 5   0  0.1533777E-05  0.1501224E+04  0.7818609E-02  0.8883639E-01
        1   -1    0    0  501    0  0.00000000000E+00  0.00000000000E+00  0.62042322488E+03  0.62042322490E+03  0.50400001928E-02 0. -1.
       -1   -1    0    0    0  501  0.00000000000E+00  0.00000000000E+00 -0.90811969425E+03  0.90811969426E+03  0.50400001928E-02 0.  1.
    10030    2    1    2    0    0  0.00000000000E+00  0.00000000000E+00 -0.28769646937E+03  0.15285429192E+04  0.15012242328E+04 0.  0.
        5    1    3    3  502    0 -0.70809834454E+02  0.24802202500E+03 -0.86156380398E+03  0.89935712365E+03  0.46999998093E+01 0.  1.
       -5    1    3    3    0  502  0.70809834454E+02 -0.24802202500E+03  0.57386733461E+03  0.62918579551E+03  0.46999998093E+01 0. -1.
</event>
<event>
 5   0  0.3070497E-05  0.1499970E+04  0.7818609E-02  0.8884473E-01
       -2   -1    0    0    0  501  0.00000000000E+00  0.00000000000E+00  0.59135871915E+03  0.59135871916E+03  0.25500000920E-02 0. -1.
        2   -1    0    0  501    0  0.00000000000E+00  0.00000000000E+00 -0.95116102347E+03  0.95116102347E+03  0.25500000920E-02 0.  1.
    10030    2    1    2    0    0  0.00000000000E+00  0.00000000000E+00 -0.35980230432E+03  0.15425197426E+04  0.14999698191E+04 0.  0.
        4    1    3    3  502    0 -0.14569995811E+03 -0.13212890933E+03  0.56436195331E+03  0.59765588236E+03  0.12699999809E+01 0. -1.
       -4    1    3    3    0  502  0.14569995811E+03  0.13212890933E+03 -0.92416425763E+03  0.94486386027E+03  0.12699999809E+01 0.  1.
</event>
<event>
 5   0  0.1533777E-05  0.1498895E+04  0.7818609E-02  0.8885188E-01
       -1   -1    0    0    0  501  0.00000000000E+00  0.00000000000E+00  0.25147377933E+03  0.25147377938E+03  0.50400001928E-02 0.  1.
        1   -1    0    0  501    0  0.00000000000E+00  0.00000000000E+00 -0.22335188868E+04  0.22335188868E+04  0.50400001928E-02 0. -1.
    10030    2    1    2    0    0  0.00000000000E+00  0.00000000000E+00 -0.19820451075E+04  0.24849926662E+04  0.14988948405E+04 0.  0.
        5    1    3    3  502    0  0.16542436330E+03  0.73037424647E+03 -0.94304162879E+03  0.12042264586E+04  0.46999998093E+01 0. -1.
       -5    1    3    3    0  502 -0.16542436330E+03 -0.73037424647E+03 -0.10390034787E+04  0.12807662076E+04  0.46999998093E+01 0.  1.
</event>
<event>
 5   0  0.2969498E-05  0.1499643E+04  0.7818609E-02  0.8884690E-01
        2   -1    0    0  501    0  0.00000000000E+00  0.00000000000E+00  0.13746294936E+04  0.13746294936E+04  0.25500000920E-02 0.  1.
       -2   -1    0    0    0  501  0.00000000000E+00  0.00000000000E+00 -0.40900655491E+03  0.40900655492E+03  0.25500000920E-02 0. -1.
    10030    2    1    2    0    0  0.00000000000E+00  0.00000000000E+00  0.96562293869E+03  0.17836360485E+04  0.14996432555E+04 0.  0.
        3    1    3    3  502    0 -0.39573220191E+03 -0.26053976381E+03 -0.20840545989E+03  0.51760775696E+03  0.10100000352E+00 0. -1.
       -3    1    3    3    0  502  0.39573220191E+03  0.26053976381E+03  0.11740283986E+04  0.12660282916E+04  0.10100000352E+00 0.  1.
</event>
<event>
 5   0  0.2969498E-05  0.1499621E+04  0.7818609E-02  0.8884705E-01
       -2   -1    0    0    0  501  0.00000000000E+00  0.00000000000E+00  0.56848897998E+03  0.56848897998E+03  0.25500000920E-02 0. -1.
        2   -1    0    0  501    0  0.00000000000E+00  0.00000000000E+00 -0.98896454361E+03  0.98896454361E+03  0.25500000920E-02 0.  1.
    10030    2    1    2    0    0  0.00000000000E+00  0.00000000000E+00 -0.42047556363E+03  0.15574535236E+04  0.14996205449E+04 0.  0.
        3    1    3    3  502    0  0.17898800406E+02 -0.51412360092E+03  0.35630112330E+03  0.62577467569E+03  0.10100000352E+00 0. -1.
       -3    1    3    3    0  502 -0.17898800406E+02  0.51412360092E+03 -0.77677668693E+03  0.93167884790E+03  0.10100000352E+00 0.  1.
</event>
<event>
 5   0  0.1580078E-05  0.1499274E+04  0.7818609E-02  0.8884936E-01
        1   -1    0    0  501    0  0.00000000000E+00  0.00000000000E+00  0.47122487887E+03  0.47122487890E+03  0.50400001928E-02 0. -1.
       -1   -1    0    0    0  501  0.00000000000E+00  0.00000000000E+00 -0.11925429399E+04  0.11925429399E+04  0.50400001928E-02 0.  1.
    10030    2    1    2    0    0  0.00000000000E+00  0.00000000000E+00 -0.72131806106E+03  0.16637678188E+04  0.14992743611E+04 0.  0.
        2    1    3    3  502    0  0.52609364566E+03  0.52122628875E+03 -0.48961795803E+03  0.88779339540E+03  0.25500000920E-02 0. -1.
       -2    1    3    3    0  502 -0.52609364566E+03 -0.52122628875E+03 -0.23170010303E+03  0.77597442344E+03  0.25500000920E-02 0.  1.
</event>
<event>
 5   0  0.3030702E-05  0.1499673E+04  0.7818609E-02  0.8884670E-01
        2   -1    0    0  501    0  0.00000000000E+00  0.00000000000E+00  0.60829290375E+03  0.60829290376E+03  0.25500000920E-02 0.  1.
       -2   -1    0    0    0  501  0.00000000000E+00  0.00000000000E+00 -0.92431615795E+03  0.92431615796E+03  0.25500000920E-02 0. -1.
    10030    2    1    2    0    0  0.00000000000E+00  0.00000000000E+00 -0.31602325420E+03  0.15326090617E+04  0.14996732440E+04 0.  0.
        5    1    3    3  502    0 -0.64180451750E+03  0.36091657633E+02 -0.55251705159E+03  0.84765136037E+03  0.46999998093E+01 0. -1.
       -5    1    3    3    0  502  0.64180451750E+03 -0.36091657633E+02  0.23649379739E+03  0.68495770135E+03  0.46999998093E+01 0.  1.
</event>
<event>
 5   0  0.1533777E-05  0.1500082E+04  0.7818609E-02  0.8884398E-01
       -1   -1    0    0    0  501  0.00000000000E+00  0.00000000000E+00  0.77241429309E+03  0.77241429310E+03  0.50400001928E-02 0.  1.
        1   -1    0    0  501    0  0.00000000000E+00  0.00000000000E+00 -0.72831617423E+03  0.72831617425E+03  0.50400001928E-02 0. -1.
    10030    2    1    2    0    0  0.00000000000E+00  0.00000000000E+00  0.44098118855E+02  0.15007304674E+04  0.15000824283E+04 0.  0.
        5    1    3    3  502    0  0.18123064517E+03 -0.30660208046E+02  0.74951870372E+03  0.77174151912E+03  0.46999998093E+01 0.  1.
       -5    1    3    3    0  502 -0.18123064517E+03  0.30660208046E+02 -0.70542058486E+03  0.72898894824E+03  0.46999998093E+01 0. -1.
</event>
<event>
 5   0  0.1580078E-05  0.1499892E+04  0.7818609E-02  0.8884525E-01
       -1   -1    0    0    0  501  0.00000000000E+00  0.00000000000E+00  0.73415125759E+03  0.73415125761E+03  0.50400001928E-02 0. -1.
        1   -1    0    0  501    0  0.00000000000E+00  0.00000000000E+00 -0.76608014784E+03  0.76608014786E+03  0.50400001928E-02 0.  1.
    10030    2    1    2    0    0  0.00000000000E+00  0.00000000000E+00 -0.31928890250E+02  0.15002314055E+04  0.14998916014E+04 0.  0.
        2    1    3    3  502    0 -0.37358648324E+03  0.44907060514E+03 -0.48637667665E+03  0.76012731858E+03  0.25500000920E-02 0.  1.
       -2    1    3    3    0  502  0.37358648324E+03 -0.44907060514E+03  0.45444778640E+03  0.74010408689E+03  0.25500000920E-02 0. -1.
</event>
<event>
 5   0  0.3030702E-05  0.1499944E+04  0.7818609E-02  0.8884490E-01
       -2   -1    0    0    0  501  0.00000000000E+00  0.00000000000E+00  0.56582379115E+03  0.56582379115E+03  0.25500000920E-02 0.  1.
        2   -1    0    0  501    0  0.00000000000E+00  0.00000000000E+00 -0.99405156270E+03  0.99405156270E+03  0.25500000920E-02 0. -1.
    10030    2    1    2    0    0  0.00000000000E+00  0.00000000000E+00 -0.42822777155E+03  0.15598753539E+04  0.14999440307E+04 0.  0.
        5    1    3    3  502    0  0.34364089336E+03 -0.36755800092E+03  0.36420620826E+03  0.62117324456E+03  0.46999998093E+01 0.  1.
       -5    1    3    3    0  502 -0.34364089336E+03  0.36755800092E+03 -0.79243397981E+03  0.93870210929E+03  0.46999998093E+01 0. -1.
</event>
<event>
 5   0  0.3093600E-05  0.1499843E+04  0.7818609E-02  0.8884557E-01
       -2   -1    0    0    0  501  0.00000000000E+00  0.00000000000E+00  0.41633662411E+03  0.41633662412E+03  0.25500000920E-02 0.  1.
        2   -1    0    0  501    0  0.00000000000E+00  0.00000000000E+00 -0.13507873280E+04  0.13507873280E+04  0.25500000920E-02 0. -1.
    10030    2    1    2    0    0  0.00000000000E+00  0.00000000000E+00 -0.93445070385E+03  0.17671239521E+04  0.14998429732E+04 0.  0.
        1    1    3    3  502    0  0.17728255997E+03  0.19414861172E+03 -0.12947080586E+04  0.13211327513E+04  0.50400001928E-02 0. -1.
       -1    1    3    3    0  502 -0.17728255997E+03 -0.19414861172E+03  0.36025735476E+03  0.44599120079E+03  0.50400001928E-02 0.  1.
</event>
<event>
 5   0  0.1580078E-05  0.1496968E+04  0.7818609E-02  0.8886472E-01
       -1   -1    0    0    0  501  0.00000000000E+00  0.00000000000E+00  0.14912230425E+04  0.14912230425E+04  0.50400001928E-02 0. -1.
        1   -1    0    0  501    0  0.00000000000E+00  0.00000000000E+00 -0.37568378995E+03  0.37568378998E+03  0.50400001928E-02 0.  1.
    10030    2    1    2    0    0  0.00000000000E+00  0.00000000000E+00  0.11155392526E+04  0.18669068325E+04  0.14969680348E+04 0.  0.
        2    1    3    3  502    0 -0.21139740247E+03 -0.71662339006E+03  0.50213078885E+03  0.90020735060E+03  0.25500000920E-02 0.  1.
       -2    1    3    3    0  502  0.21139740247E+03  0.71662339006E+03  0.61340846371E+03  0.96669948191E+03  0.25500000920E-02 0. -1.
</event>
<event>
 5   0  0.3093600E-05  0.1499942E+04  0.7818609E-02  0.8884492E-01
       -2   -1    0    0    0  501  0.00000000000E+00  0.00000000000E+00  0.11541425915E+04  0.11541425915E+04  0.25500000920E-02 0.  1.
        2   -1    0    0  501    0  0.00000000000E+00  0.00000000000E+00 -0.48733705624E+03  0.48733705625E+03  0.25500000920E-02 0. -1.
    10030    2    1    2    0    0  0.00000000000E+00  0.00000000000E+00  0.66680553523E+03  0.16414796477E+04  0.14999419362E+04 0.  0.
        1    1    3    3  502    0  0.42002811451E+03 -0.38169058959E+03 -0.20310834031E+03  0.60279708118E+03  0.50400001928E-02 0. -1.
       -1    1    3    3    0  502 -0.42002811451E+03  0.38169058959E+03  0.86991387554E+03  0.10386825665E+04  0.50400001928E-02 0.  1.
</event>
<event>
 5   0  0.1643498E-05  0.1499390E+04  0.7818609E-02  0.8884858E-01
        1   -1    0    0  501    0  0.00000000000E+00  0.00000000000E+00  0.65922415614E+03  0.65922415615E+03  0.50400001928E-02 0. -1.
       -1   -1    0    0    0  501  0.00000000000E+00  0.00000000000E+00 -0.85258245306E+03  0.85258245307E+03  0.50400001928E-02 0.  1.
    10030    2    1    2    0    0  0.00000000000E+00  0.00000000000E+00 -0.19335829692E+03  0.15118066092E+04  0.14993904737E+04 0.  0.
        4    1    3    3  502    0  0.23488601389E+03  0.12018473527E+03  0.61086211170E+03  0.66540960507E+03  0.12699999809E+01 0. -1.
       -4    1    3    3    0  502 -0.23488601389E+03 -0.12018473527E+03 -0.80422040862E+03  0.84639700416E+03  0.12699999809E+01 0.  1.
</event>
<event>
 5   0  0.2969498E-05  0.1499324E+04  0.7818609E-02  0.8884903E-01
       -2   -1    0    0    0  501  0.00000000000E+00  0.00000000000E+00  0.47170875106E+03  0.47170875107E+03  0.25500000920E-02 0. -1.
        2   -1    0    0  501    0  0.00000000000E+00  0.00000000000E+00 -0.11913979718E+04  0.11913979718E+04  0.25500000920E-02 0.  1.
    10030    2    1    2    0    0  0.00000000000E+00  0.00000000000E+00 -0.71968922069E+03  0.16631067228E+04  0.14993236466E+04 0.  0.
        3    1    3    3  502    0  0.97352720579E+02 -0.64684166615E+03 -0.76606074107E+03  0.10073384548E+04  0.10100000352E+00 0. -1.
       -3    1    3    3    0  502 -0.97352720579E+02  0.64684166615E+03  0.46371520379E+02  0.65576826805E+03  0.10100000352E+00 0.  1.
</event>
<event>
 5   0  0.1643498E-05  0.1500590E+04  0.7818609E-02  0.8884061E-01
        1   -1    0    0  501    0  0.00000000000E+00  0.00000000000E+00  0.16734354271E+04  0.16734354271E+04  0.50400001928E-02 0.  1.
       -1   -1    0    0    0  501  0.00000000000E+00  0.00000000000E+00 -0.33639941115E+03  0.33639941119E+03  0.50400001928E-02 0. -1.
    10030    2    1    2    0    0  0.00000000000E+00  0.00000000000E+00  0.13370360160E+04  0.20098348383E+04  0.15005901403E+04 0.  0.
        4    1    3    3  502    0 -0.42975022330E+03 -0.21949787134E+03 -0.10097661671E+03  0.49301365090E+03  0.12699999809E+01 0. -1.
       -4    1    3    3    0  502  0.42975022330E+03  0.21949787134E+03  0.14380126327E+04  0.15168211874E+04  0.12699999809E+01 0.  1.
</event>
<event>
 5   0  0.2969498E-05  0.1499872E+04  0.7818609E-02  0.8884538E-01
        2   -1    0    0  501    0  0.00000000000E+00  0.00000000000E+00  0.47767460721E+03  0.47767460721E+03  0.25500000920E-02 0.  1.
       -2   -1    0    0    0  501  0.00000000000E+00  0.00000000000E+00 -0.11773783035E+04  0.11773783035E+04  0.25500000920E-02 0. -1.
    10030    2    1    2    0    0  0.00000000000E+00  0.00000000000E+00 -0.69970369627E+03  0.16550529107E+04  0.14998716194E+04 0.  0.
        3    1    3    3  502    0  0.31862583004E+03  0.15088014926E+02  0.39908474165E+03  0.51089990114E+03  0.10100000352E+00 0.  1.
       -3    1    3    3    0  502 -0.31862583004E+03 -0.15088014926E+02 -0.10987884379E+04  0.11441530096E+04  0.10100000352E+00 0. -1.
</event>
<event>
 5   0  0.3070497E-05  0.1500115E+04  0.7818609E-02  0.8884376E-01
       -2   -1    0    0    0  501  0.00000000000E+00  0.00000000000E+00  0.38040830976E+03  0.38040830976E+03  0.25500000920E-02 0.  1.
        2   -1    0    0  501    0  0.00000000000E+00  0.00000000000E+00 -0.14789010057E+04  0.14789010057E+04  0.25500000920E-02 0. -1.
    10030    2    1    2    0    0  0.00000000000E+00  0.00000000000E+00 -0.10984926959E+04  0.18593093154E+04  0.15001149714E+04 0.  0.
        4    1    3    3  502    0  0.30314927609E+03 -0.67822953483E+03 -0.42109813052E+03  0.85394381193E+03  0.12699999809E+01 0.  1.
       -4    1    3    3    0  502 -0.30314927609E+03  0.67822953483E+03 -0.67739456540E+03  0.10053655035E+04  0.12699999809E+01 0. -1.
</event>
<event>
 5   0  0.3018308E-05  0.1499948E+04  0.7818609E-02  0.8884487E-01
        2   -1    0    0  501    0  0.00000000000E+00  0.00000000000E+00  0.16882702508E+04  0.16882702508E+04  0.25500000920E-02 0. -1.
       -2   -1    0    0    0  501  0.00000000000E+00  0.00000000000E+00 -0.33315818837E+03  0.33315818838E+03  0.25500000920E-02 0.  1.
    10030    2    1    2    0    0  0.00000000000E+00  0.00000000000E+00  0.13551120624E+04  0.20214284392E+04  0.14999480768E+04 0.  0.
        2    1    3    3  502    0 -0.31841740838E+03 -0.15613481745E+03  0.15681308799E+04  0.16077320000E+04  0.25500000920E-02 0. -1.
       -2    1    3    3    0  502  0.31841740838E+03  0.15613481745E+03 -0.21301881750E+03  0.41369643919E+03  0.25500000920E-02 0.  1.
</event>
<event>
 5   0  0.3018308E-05  0.1500232E+04  0.7818609E-02  0.8884298E-01
       -2   -1    0    0    0  501  0.00000000000E+00  0.00000000000E+00  0.75535192275E+03  0.75535192275E+03  0.25500000920E-02 0.  1.
        2   -1    0    0  501    0  0.00000000000E+00  0.00000000000E+00 -0.74491669225E+03  0.74491669225E+03  0.25500000920E-02 0. -1.
    10030    2    1    2    0    0  0.00000000000E+00  0.00000000000E+00  0.10435230501E+02  0.15002686150E+04  0.15002323230E+04 0.  0.
        2    1    3    3  502    0 -0.65724320865E+03 -0.35919585218E+03  0.46254692504E+02  0.75041974396E+03  0.25500000920E-02 0.  1.
       -2    1    3    3    0  502  0.65724320865E+03  0.35919585218E+03 -0.35819462003E+02  0.74984887104E+03  0.25500000920E-02 0. -1.
</event>
<event>
 5   0  0.1643498E-05  0.1500159E+04  0.7818609E-02  0.8884347E-01
        1   -1    0    0  501    0  0.00000000000E+00  0.00000000000E+00  0.80223018873E+03  0.80223018874E+03  0.50400001928E-02 0. -1.
       -1   -1    0    0    0  501  0.00000000000E+00  0.00000000000E+00 -0.70131889165E+03  0.70131889167E+03  0.50400001928E-02 0.  1.
    10030    2    1    2    0    0  0.00000000000E+00  0.00000000000E+00  0.10091129708E+03  0.15035490804E+04  0.15001589074E+04 0.  0.
        4    1    3    3  502    0  0.69175142352E+03 -0.16653119956E+03 -0.18749380995E+03  0.73580446726E+03  0.12699999809E+01 0.  1.
       -4    1    3    3    0  502 -0.69175142352E+03  0.16653119956E+03  0.28840510703E+03  0.76774461315E+03  0.12699999809E+01 0. -1.
</event>
<event>
 5   0  0.3018308E-05  0.1499386E+04  0.7818609E-02  0.8884861E-01
       -2   -1    0    0    0  501  0.00000000000E+00  0.00000000000E+00  0.42486869760E+03  0.42486869761E+03  0.25500000920E-02 0.  1.
        2   -1    0    0  501    0  0.00000000000E+00  0.00000000000E+00 -0.13228544365E+04  0.13228544365E+04  0.25500000920E-02 0. -1.
    10030    2    1    2    0    0  0.00000000000E+00  0.00000000000E+00 -0.89798573887E+03  0.17477231341E+04  0.14993857963E+04 0.  0.
        2    1    3    3  502    0 -0.51165334215E+02 -0.21363272228E+03  0.38651191809E+03  0.44457653367E+03  0.25500000920E-02 0.  1.
       -2    1    3    3    0  502  0.51165334215E+02  0.21363272228E+03 -0.12844976570E+04  0.13031466004E+04  0.25500000920E-02 0. -1.
</event>
<event>
 5   0  0.3030702E-05  0.1499887E+04  0.7818609E-02  0.8884528E-01
        2   -1    0    0  501    0  0.00000000000E+00  0.00000000000E+00  0.99912982044E+03  0.99912982044E+03  0.25500000920E-02 0.  1.
       -2   -1    0    0    0  501  0.00000000000E+00  0.00000000000E+00 -0.56290525704E+03  0.56290525705E+03  0.25500000920E-02 0. -1.
    10030    2    1    2    0    0  0.00000000000E+00  0.00000000000E+00  0.43622456339E+03  0.15620350775E+04  0.14998872336E+04 0.  0.
        5    1    3    3  502    0 -0.68294337634E+03 -0.14468617503E+03  0.50341148575E+03  0.86069213922E+03  0.46999998093E+01 0. -1.
       -5    1    3    3    0  502  0.68294337634E+03  0.14468617503E+03 -0.67186922361E+02  0.70134293827E+03  0.46999998093E+01 0.  1.
</event>
<event>
 5   0  0.3030702E-05  0.1500447E+04  0.7818609E-02  0.8884156E-01
        2   -1    0    0  501    0  0.00000000000E+00  0.00000000000E+00  0.89739902705E+03  0.89739902705E+03  0.25500000920E-02 0.  1.
       -2   -1    0    0    0  501  0.00000000000E+00  0.00000000000E+00 -0.62718483023E+03  0.62718483024E+03  0.25500000920E-02 0. -1.
    10030    2    1    2    0    0  0.00000000000E+00  0.00000000000E+00  0.27021419682E+03  0.15245838573E+04  0.15004466754E+04 0.  0.
        5    1    3    3  502    0 -0.54717835918E+03  0.33171168388E+03  0.53303985794E+03  0.83282073589E+03  0.46999998093E+01 0.  1.
       -5    1    3    3    0  502  0.54717835918E+03 -0.33171168388E+03 -0.26282566112E+03  0.69176312139E+03  0.46999998093E+01 0. -1.
</event>
<event>
 5   0  0.2969498E-05  0.1499549E+04  0.7818609E-02  0.8884753E-01
        2   -1    0    0  501    0  0.00000000000E+00  0.00000000000E+00  0.87318954916E+03  0.87318954916E+03  0.25500000920E-02 0. -1.
       -2   -1    0    0    0  501  0.00000000000E+00  0.00000000000E+00 -0.64380280716E+03  0.64380280717E+03  0.25500000920E-02 0.  1.
    10030    2    1    2    0    0  0.00000000000E+00  0.00000000000E+00  0.22938674200E+03  0.15169923563E+04  0.14995491095E+04 0.  0.
        3    1    3    3  502    0  0.55654074001E+03 -0.49618011230E+02  0.62047142570E+03  0.83497565392E+03  0.10100000352E+00 0. -1.
       -3    1    3    3    0  502 -0.55654074001E+03  0.49618011230E+02 -0.39108468371E+03  0.68201670241E+03  0.10100000352E+00 0.  1.
</event>
<event>
 5   0  0.1533777E-05  0.1499458E+04  0.7818609E-02  0.8884813E-01
        1   -1    0    0  501    0  0.00000000000E+00  0.00000000000E+00  0.80165406641E+03  0.80165406642E+03  0.50400001928E-02 0.  1.
       -1   -1    0    0    0  501  0.00000000000E+00  0.00000000000E+00 -0.70116721821E+03  0.70116721822E+03  0.50400001928E-02 0. -1.
    10030    2    1    2    0    0  0.00000000000E+00  0.00000000000E+00  0.10048684820E+03  0.15028212846E+04  0.14994579710E+04 0.  0.
        5    1    3    3  502    0 -0.62655906413E+03 -0.36570469314E+03  0.23975821977E+03  0.76408263779E+03  0.46999998093E+01 0.  1.
       -5    1    3    3    0  502  0.62655906413E+03  0.36570469314E+03 -0.13927137157E+03  0.73873864686E+03  0.46999998093E+01 0. -1.
</event>
<event>
 5   0  0.1576214E-05  0.1499702E+04  0.7818609E-02  0.8884651E-01
        1   -1    0    0  501    0  0.00000000000E+00  0.00000000000E+00  0.94765222676E+03  0.94765222677E+03  0.50400001928E-02 0. -1.
       -1   -1    0    0    0  501  0.00000000000E+00  0.00000000000E+00 -0.59333619036E+03  0.59333619038E+03  0.50400001928E-02 0.  1.
    10030    2    1    2    0    0  0.00000000000E+00  0.00000000000E+00  0.35431603639E+03  0.15409884172E+04  0.14997017864E+04 0.  0.
        1    1    3    3  502    0 -0.67643075028E+03 -0.10360089470E+03  0.49216700606E+03  0.84292352392E+03  0.50400001928E-02 0. -1.
       -1    1    3    3    0  502  0.67643075028E+03  0.10360089470E+03 -0.13785096966E+03  0.69806489323E+03  0.50400001928E-02 0.  1.
</event>
<event>
 5   0  0.2969498E-05  0.1501663E+04  0.7818609E-02  0.8883348E-01
       -2   -1    0    0    0  501  0.00000000000E+00  0.00000000000E+00  0.64124280315E+03  0.64124280315E+03  0.25500000920E-02 0. -1.
        2   -1    0    0  501    0  0.00000000000E+00  0.00000000000E+00 -0.87914871734E+03  0.87914871734E+03  0.25500000920E-02 0.  1.
    10030    2    1    2    0    0  0.00000000000E+00  0.00000000000E+00 -0.23790591419E+03  0.15203915205E+04  0.15016627956E+04 0.  0.
        3    1    3    3  502    0 -0.18694777093E+03  0.66594003328E+03  0.17678971411E+03  0.71391891010E+03  0.10100000352E+00 0. -1.
       -3    1    3    3    0  502  0.18694777093E+03 -0.66594003328E+03 -0.41469562830E+03  0.80647261039E+03  0.10100000352E+00 0.  1.
</event>
<event>
 5   0  0.1580078E-05  0.1500878E+04  0.7818609E-02  0.8883870E-01
       -1   -1    0    0    0  501  0.00000000000E+00  0.00000000000E+00  0.24994107239E+04  0.24994107239E+04  0.50400001928E-02 0. -1.
        1   -1    0    0  501    0  0.00000000000E+00  0.00000000000E+00 -0.22531644770E+03  0.22531644776E+03  0.50400001928E-02 0.  1.
    10030    2    1    2    0    0  0.00000000000E+00  0.00000000000E+00  0.22740942762E+04  0.27247271717E+04  0.15008775376E+04 0.  0.
        2    1    3    3  502    0 -0.78588009805E+02  0.67662771680E+03  0.56538438133E+03  0.88524609069E+03  0.25500000920E-02 0.  1.
       -2    1    3    3    0  502  0.78588009805E+02 -0.67662771680E+03  0.17087098949E+04  0.18394810810E+04  0.25500000920E-02 0. -1.
</event>
<event>
 5   0  0.3070497E-05  0.1496350E+04  0.7818609E-02  0.8886884E-01
       -2   -1    0    0    0  501  0.00000000000E+00  0.00000000000E+00  0.90015834499E+03  0.90015834499E+03  0.25500000920E-02 0.  1.
        2   -1    0    0  501    0  0.00000000000E+00  0.00000000000E+00 -0.62185280961E+03  0.62185280962E+03  0.25500000920E-02 0. -1.
    10030    2    1    2    0    0  0.00000000000E+00  0.00000000000E+00  0.27830553537E+03  0.15220111546E+04  0.14963502209E+04 0.  0.
        4    1    3    3  502    0 -0.35047489938E+03  0.61481928754E+03  0.38606864342E+03  0.80615508543E+03  0.12699999809E+01 0.  1.
       -4    1    3    3    0  502  0.35047489938E+03 -0.61481928754E+03 -0.10776310805E+03  0.71585606918E+03  0.12699999809E+01 0. -1.
</event>
<event>
 5   0  0.1643498E-05  0.1500169E+04  0.7818609E-02  0.8884340E-01
       -1   -1    0    0    0  501  0.00000000000E+00  0.00000000000E+00  0.10871051513E+04  0.10871051513E+04  0.50400001928E-02 0.  1.
        1   -1    0    0  501    0  0.00000000000E+00  0.00000000000E+00 -0.51754599039E+03  0.51754599041E+03  0.50400001928E-02 0. -1.
    10030    2    1    2    0    0  0.00000000000E+00  0.00000000000E+00  0.56955916092E+03  0.16046511417E+04  0.15001692067E+04 0.  0.
        4    1    3    3  502    0  0.69843292910E+03 -0.20455350654E+03  0.47901578768E+03  0.87126828890E+03  0.12699999809E+01 0.  1.
       -4    1    3    3    0  502 -0.69843292910E+03  0.20455350654E+03  0.90543373239E+02  0.73338285283E+03  0.12699999809E+01 0. -1.
</event>
<event>
 5   0  0.3070497E-05  0.1499177E+04  0.7818609E-02  0.8885000E-01
        2   -1    0    0  501    0  0.00000000000E+00  0.00000000000E+00  0.11630846235E+04  0.11630846235E+04  0.25500000920E-02 0. -1.
       -2   -1    0    0    0  501  0.00000000000E+00  0.00000000000E+00 -0.48309742028E+03  0.48309742029E+03  0.25500000920E-02 0.  1.
    10030    2    1    2    0    0  0.00000000000E+00  0.00000000000E+00  0.67998720326E+03  0.16461820438E+04  0.14991773494E+04 0.  0.
        4    1    3    3  502    0 -0.50821412524E+03 -0.49487966160E+03  0.60601835029E+03  0.93297766873E+03  0.12699999809E+01 0. -1.
       -4    1    3    3    0  502  0.50821412524E+03  0.49487966160E+03  0.73968852978E+02  0.71320437511E+03  0.12699999809E+01 0.  1.
</event>
<event>
 5   0  0.3093600E-05  0.1499899E+04  0.7818609E-02  0.8884520E-01
        2   -1    0    0  501    0  0.00000000000E+00  0.00000000000E+00  0.15451914086E+04  0.15451914086E+04  0.25500000920E-02 0.  1.
       -2   -1    0    0    0  501  0.00000000000E+00  0.00000000000E+00 -0.36398340308E+03  0.36398340309E+03  0.25500000920E-02 0. -1.
    10030    2    1    2    0    0  0.00000000000E+00  0.00000000000E+00  0.11812080056E+04  0.19091748117E+04  0.14998986997E+04 0.  0.
        1    1    3    3  502    0 -0.23218246824E+03  0.71308367469E+03  0.59721822570E+03  0.95867963095E+03  0.50400001928E-02 0. -1.
       -1    1    3    3    0  502  0.23218246824E+03 -0.71308367469E+03  0.58398977986E+03  0.95049518078E+03  0.50400001928E-02 0.  1.
</event>
<event>
 5   0  0.3018308E-05  0.1504336E+04  0.7818609E-02  0.8881574E-01
       -2   -1    0    0    0  501  0.00000000000E+00  0.00000000000E+00  0.64477452399E+03  0.64477452399E+03  0.25500000920E-02 0. -1.
        2   -1    0    0  501    0  0.00000000000E+00  0.00000000000E+00 -0.87744938028E+03  0.87744938029E+03  0.25500000920E-02 0.  1.
    10030    2    1    2    0    0  0.00000000000E+00  0.00000000000E+00 -0.23267485630E+03  0.15222239043E+04  0.15043364072E+04 0.  0.
        2    1    3    3  502    0  0.25055677903E+02 -0.64828769368E+03 -0.50145758315E+03  0.81997830976E+03  0.25500000920E-02 0.  1.
       -2    1    3    3    0  502 -0.25055677903E+02  0.64828769368E+03  0.26878272685E+03  0.70224559452E+03  0.25500000920E-02 0. -1.
</event>
<event>
 5   0  0.1588657E-05  0.1500441E+04  0.7818609E-02  0.8884159E-01
        1   -1    0    0  501    0  0.00000000000E+00  0.00000000000E+00  0.40100075425E+03  0.40100075428E+03  0.50400001928E-02 0.  1.
       -1   -1    0    0    0  501  0.00000000000E+00  0.00000000000E+00 -0.14035663473E+04  0.14035663473E+04  0.50400001928E-02 0. -1.
    10030    2    1    2    0    0  0.00000000000E+00  0.00000000000E+00 -0.10025655931E+04  0.18045671016E+04  0.15004414870E+04 0.  0.
        3    1    3    3  502    0  0.36925645000E+03  0.48332302161E+03  0.26915766656E+02  0.60883161694E+03  0.10100000352E+00 0.  1.
       -3    1    3    3    0  502 -0.36925645000E+03 -0.48332302161E+03 -0.10294813597E+04  0.11957354847E+04  0.10100000352E+00 0. -1.
</event>
<event>
 5   0  0.1116613E-05  0.1500006E+04  0.7818609E-02  0.8884449E-01
       -3   -1    0    0    0  501  0.00000000000E+00  0.00000000000E+00  0.42649282026E+03  0.42649283222E+03  0.10100000352E+00 0.  1.
        3   -1    0    0  501    0  0.00000000000E+00  0.00000000000E+00 -0.13189073238E+04  0.13189073276E+04  0.10100000352E+00 0. -1.
    10030    2    1    2    0    0  0.00000000000E+00  0.00000000000E+00 -0.89241450351E+03  0.17454001599E+04  0.15000060240E+04 0.  0.
        5    1    3    3  502    0  0.58107918040E+03  0.34578066623E+03 -0.82373102469E+03  0.10657261253E+04  0.46999998093E+01 0. -1.
       -5    1    3    3    0  502 -0.58107918040E+03 -0.34578066623E+03 -0.68683478818E+02  0.67967403459E+03  0.46999998093E+01 0.  1.
</event>
<event>
 5   0  0.1576214E-05  0.1499039E+04  0.7818609E-02  0.8885092E-01
       -1   -1    0    0    0  501  0.00000000000E+00  0.00000000000E+00  0.19148499899E+03  0.19148499905E+03  0.50400001928E-02 0. -1.
        1   -1    0    0  501    0  0.00000000000E+00  0.00000000000E+00 -0.29338044232E+04  0.29338044232E+04  0.50400001928E-02 0.  1.
    10030    2    1    2    0    0  0.00000000000E+00  0.00000000000E+00 -0.27423194242E+04  0.31252894223E+04  0.14990390750E+04 0.  0.
        1    1    3    3  502    0  0.23530138785E+03 -0.30073137154E+03 -0.26507138968E+02  0.38276458743E+03  0.50400001928E-02 0. -1.
       -1    1    3    3    0  502 -0.23530138785E+03  0.30073137154E+03 -0.27158122853E+04  0.27425248348E+04  0.50400001928E-02 0.  1.
</event>
<event>
 5   0  0.1580078E-05  0.1499761E+04  0.7818609E-02  0.8884612E-01
        1   -1    0    0  501    0  0.00000000000E+00  0.00000000000E+00  0.23032914598E+04  0.23032914598E+04  0.50400001928E-02 0.  1.
       -1   -1    0    0    0  501  0.00000000000E+00  0.00000000000E+00 -0.24413783443E+03  0.24413783449E+03  0.50400001928E-02 0. -1.
    10030    2    1    2    0    0  0.00000000000E+00  0.00000000000E+00  0.20591536253E+04  0.25474292942E+04  0.14997607664E+04 0.  0.
        2    1    3    3  502    0 -0.29268542018E+03  0.10762535254E+03  0.21879287658E+04  0.22100407815E+04  0.25500000920E-02 0.  1.
       -2    1    3    3    0  502  0.29268542018E+03 -0.10762535254E+03 -0.12877514051E+03  0.33738851272E+03  0.25500000920E-02 0. -1.
</event>
<event>
 5   0  0.3018308E-05  0.1501548E+04  0.7818609E-02  0.8883424E-01
        2   -1    0    0  501    0  0.00000000000E+00  0.00000000000E+00  0.97035529882E+03  0.97035529882E+03  0.25500000920E-02 0.  1.
       -2   -1    0    0    0  501  0.00000000000E+00  0.00000000000E+00 -0.58088147012E+03  0.58088147013E+03  0.25500000920E-02 0. -1.
    10030    2    1    2    0    0  0.00000000000E+00  0.00000000000E+00  0.38947382870E+03  0.15512367689E+04  0.15015477515E+04 0.  0.
        2    1    3    3  502    0  0.67184576356E+03 -0.25922815471E+03 -0.24622929813E+02  0.72054302778E+03  0.25500000920E-02 0. -1.
       -2    1    3    3    0  502 -0.67184576356E+03  0.25922815471E+03  0.41409675851E+03  0.83069374117E+03  0.25500000920E-02 0.  1.
</event>
<event>
 5   0  0.3030702E-05  0.1501091E+04  0.7818609E-02  0.8883728E-01
       -2   -1    0    0    0  501  0.00000000000E+00  0.00000000000E+00  0.74398884527E+03  0.74398884528E+03  0.25500000920E-02 0.  1.
        2   -1    0    0  501    0  0.00000000000E+00  0.00000000000E+00 -0.75716028504E+03  0.75716028505E+03  0.25500000920E-02 0. -1.
    10030    2    1    2    0    0  0.00000000000E+00  0.00000000000E+00 -0.13171439772E+02  0.15011491303E+04  0.15010913445E+04 0.  0.
        5    1    3    3  502    0 -0.75962266461E+02  0.23339864886E+03  0.70270283387E+03  0.74435109857E+03  0.46999998093E+01 0.  1.
       -5    1    3    3    0  502  0.75962266461E+02 -0.23339864886E+03 -0.71587427364E+03  0.75679803176E+03  0.46999998093E+01 0. -1.
</event>
<event>
 5   0  0.1576214E-05  0.1500057E+04  0.7818609E-02  0.8884415E-01
        1   -1    0    0  501    0  0.00000000000E+00  0.00000000000E+00  0.13536507313E+04  0.13536507313E+04  0.50400001928E-02 0.  1.
       -1   -1    0    0    0  501  0.00000000000E+00  0.00000000000E+00 -0.41557459596E+03  0.41557459599E+03  0.50400001928E-02 0. -1.
    10030    2    1    2    0    0  0.00000000000E+00  0.00000000000E+00  0.93807613532E+03  0.17692253273E+04  0.15000571399E+04 0.  0.
        1    1    3    3  502    0  0.61968023745E+02 -0.59257808820E+03  0.10063678711E+04  0.11695149073E+04  0.50400001928E-02 0.  1.
       -1    1    3    3    0  502 -0.61968023745E+02  0.59257808820E+03 -0.68291735744E+02  0.59971041993E+03  0.50400001928E-02 0. -1.
</event>
<event>
 5   0  0.3093600E-05  0.1500005E+04  0.7818609E-02  0.8884449E-01
        2   -1    0    0  501    0  0.00000000000E+00  0.00000000000E+00  0.86470484199E+03  0.86470484200E+03  0.25500000920E-02 0.  1.
       -2   -1    0    0    0  501  0.00000000000E+00  0.00000000000E+00 -0.65051571294E+03  0.65051571294E+03  0.25500000920E-02 0. -1.
    10030    2    1    2    0    0  0.00000000000E+00  0.00000000000E+00  0.21418912906E+03  0.15152205549E+04  0.15000054490E+04 0.  0.
        1    1    3    3  502    0  0.37841876753E+03 -0.44188316789E+03  0.58522711182E+03  0.82519832169E+03  0.50400001928E-02 0.  1.
       -1    1    3    3    0  502 -0.37841876753E+03  0.44188316789E+03 -0.37103798277E+03  0.69002223324E+03  0.50400001928E-02 0. -1.
</event>
<event>
 5   0  0.1576214E-05  0.1500168E+04  0.7818609E-02  0.8884341E-01
       -1   -1    0    0    0  501  0.00000000000E+00  0.00000000000E+00  0.95854755327E+03  0.95854755328E+03  0.50400001928E-02 0. -1.
        1   -1    0    0  501    0  0.00000000000E+00  0.00000000000E+00 -0.58695652196E+03  0.58695652199E+03  0.50400001928E-02 0.  1.
    10030    2    1    2    0    0  0.00000000000E+00  0.00000000000E+00  0.37159103130E+03  0.15455040753E+04  0.15001676413E+04 0.  0.
        1    1    3    3  502    0  0.63034144377E+03 -0.40088537756E+03  0.25556449406E+03  0.78952684079E+03  0.50400001928E-02 0. -1.
       -1    1    3    3    0  502 -0.63034144377E+03  0.40088537756E+03  0.11602653724E+03  0.75597723447E+03  0.50400001928E-02 0.  1.
</event>
<event>
 5   0  0.3030702E-05  0.1500768E+04  0.7818609E-02  0.8883942E-01
       -2   -1    0    0    0  501  0.00000000000E+00  0.00000000000E+00  0.35881272968E+03  0.35881272969E+03  0.25500000920E-02 0. -1.
        2   -1    0    0  501    0  0.00000000000E+00  0.00000000000E+00 -0.15692763000E+04  0.15692763000E+04  0.25500000920E-02 0.  1.
    10030    2    1    2    0    0  0.00000000000E+00  0.00000000000E+00 -0.12104635703E+04  0.19280890297E+04  0.15007682204E+04 0.  0.
        5    1    3    3  502    0  0.59281006810E+03 -0.31723789396E+02 -0.11948453082E+04  0.13342067217E+04  0.46999998093E+01 0.  1.
       -5    1    3    3    0  502 -0.59281006810E+03  0.31723789396E+02 -0.15618262108E+02  0.59388230800E+03  0.46999998093E+01 0. -1.
</event>
<event>
 5   0  0.3093600E-05  0.1503422E+04  0.7818609E-02  0.8882180E-01
       -2   -1    0    0    0  501  0.00000000000E+00  0.00000000000E+00  0.10273670353E+04  0.10273670353E+04  0.25500000920E-02 0.  1.
        2   -1    0    0  501    0  0.00000000000E+00  0.00000000000E+00 -0.55001739432E+03  0.55001739433E+03  0.25500000920E-02 0. -1.
    10030    2    1    2    0    0  0.00000000000E+00  0.00000000000E+00  0.47734964095E+03  0.15773844296E+04  0.15034224154E+04 0.  0.
        1    1    3    3  502    0 -0.16970544544E+03 -0.41033035461E+03  0.87506096427E+03  0.98127602097E+03  0.50400001928E-02 0.  1.
       -1    1    3    3    0  502  0.16970544544E+03  0.41033035461E+03 -0.39771132332E+03  0.59610840863E+03  0.50400001928E-02 0. -1.
</event>
<event>
 5   0  0.3030702E-05  0.1499859E+04  0.7818609E-02  0.8884547E-01
       -2   -1    0    0    0  501  0.00000000000E+00  0.00000000000E+00  0.75342060167E+03  0.75342060168E+03  0.25500000920E-02 0. -1.
        2   -1    0    0  501    0  0.00000000000E+00  0.00000000000E+00 -0.74645485588E+03  0.74645485589E+03  0.25500000920E-02 0.  1.
    10030    2    1    2    0    0  0.00000000000E+00  0.00000000000E+00  0.69657457881E+01  0.14998754576E+04  0.14998592823E+04 0.  0.
        5    1    3    3  502    0  0.17455537769E+03  0.60270868523E+03  0.41415144372E+03  0.75184496238E+03  0.46999998093E+01 0. -1.
       -5    1    3    3    0  502 -0.17455537769E+03 -0.60270868523E+03 -0.40718569793E+03  0.74803049518E+03  0.46999998093E+01 0.  1.
</event>
<event>
 5   0  0.3030702E-05  0.1496045E+04  0.7818609E-02  0.8887087E-01
        2   -1    0    0  501    0  0.00000000000E+00  0.00000000000E+00  0.20474332151E+04  0.20474332151E+04  0.25500000920E-02 0.  1.
       -2   -1    0    0    0  501  0.00000000000E+00  0.00000000000E+00 -0.27328730314E+03  0.27328730315E+03  0.25500000920E-02 0. -1.
    10030    2    1    2    0    0  0.00000000000E+00  0.00000000000E+00  0.17741459119E+04  0.23207205182E+04  0.14960447877E+04 0.  0.
        5    1    3    3  502    0  0.27248981742E+03 -0.27745086827E+03 -0.10412488073E+03  0.40260870046E+03  0.46999998093E+01 0. -1.
       -5    1    3    3    0  502 -0.27248981742E+03  0.27745086827E+03  0.18782707927E+04  0.19181118178E+04  0.46999998093E+01 0.  1.
</event>
<event>
 5   0  0.1116613E-05  0.1499842E+04  0.7818609E-02  0.8884558E-01
       -4   -1    0    0    0  501  0.00000000000E+00  0.00000000000E+00  0.59574038319E+03  0.59574173688E+03  0.12699999809E+01 0.  1.
        4   -1    0    0  501    0  0.00000000000E+00  0.00000000000E+00 -0.94400202213E+03  0.94400287642E+03  0.12699999809E+01 0. -1.
    10030    2    1    2    0    0  0.00000000000E+00  0.00000000000E+00 -0.34826163895E+03  0.15397446133E+04  0.14998424267E+04 0.  0.
        5    1    3    3  502    0  0.62606879038E+02  0.18973390843E+03 -0.91616130981E+03  0.93770582429E+03  0.46999998093E+01 0. -1.
       -5    1    3    3    0  502 -0.62606879038E+02 -0.18973390843E+03  0.56789967086E+03  0.60203878901E+03  0.46999998093E+01 0.  1.
</event>
<event>
 5   0  0.2969498E-05  0.1499713E+04  0.7818609E-02  0.8884644E-01
       -2   -1    0    0    0  501  0.00000000000E+00  0.00000000000E+00  0.54958000650E+03  0.54958000651E+03  0.25500000920E-02 0. -1.
        2   -1    0    0  501    0  0.00000000000E+00  0.00000000000E+00 -0.10231170110E+04  0.10231170110E+04  0.25500000920E-02 0.  1.
    10030    2    1    2    0    0  0.00000000000E+00  0.00000000000E+00 -0.47353700449E+03  0.15726970175E+04  0.14997128439E+04 0.  0.
        3    1    3    3  502    0 -0.41990137401E+03 -0.16073640067E+03 -0.86608248287E+03  0.97583412101E+03  0.10100000352E+00 0.  1.
       -3    1    3    3    0  502  0.41990137401E+03  0.16073640067E+03  0.39254547839E+03  0.59686289648E+03  0.10100000352E+00 0. -1.
</event>
<event>
 5   0  0.1580078E-05  0.1500146E+04  0.7818609E-02  0.8884356E-01
        1   -1    0    0  501    0  0.00000000000E+00  0.00000000000E+00  0.56611935646E+03  0.56611935648E+03  0.50400001928E-02 0.  1.
       -1   -1    0    0    0  501  0.00000000000E+00  0.00000000000E+00 -0.99380044939E+03  0.99380044940E+03  0.50400001928E-02 0. -1.
    10030    2    1    2    0    0  0.00000000000E+00  0.00000000000E+00 -0.42768109292E+03  0.15599198059E+04  0.15001462207E+04 0.  0.
        2    1    3    3  502    0 -0.91980378195E+02  0.14015706396E+03 -0.97406997847E+03  0.98839097301E+03  0.25500000920E-02 0. -1.
       -2    1    3    3    0  502  0.91980378195E+02 -0.14015706396E+03  0.54638888555E+03  0.57152883288E+03  0.25500000920E-02 0.  1.
</event>
<event>
 5   0  0.3070497E-05  0.1500044E+04  0.7818609E-02  0.8884424E-01
        2   -1    0    0  501    0  0.00000000000E+00  0.00000000000E+00  0.29700986130E+03  0.29700986131E+03  0.25500000920E-02 0. -1.
       -2   -1    0    0    0  501  0.00000000000E+00  0.00000000000E+00 -0.18939863762E+04  0.18939863762E+04  0.25500000920E-02 0.  1.
    10030    2    1    2    0    0  0.00000000000E+00  0.00000000000E+00 -0.15969765149E+04  0.21909962375E+04  0.15000435072E+04 0.  0.
        4    1    3    3  502    0 -0.81072667297E+02  0.66450325271E+03 -0.30447481256E+03  0.73542088264E+03  0.12699999809E+01 0. -1.
       -4    1    3    3    0  502  0.81072667297E+02 -0.66450325271E+03 -0.12925017023E+04  0.14555753549E+04  0.12699999809E+01 0.  1.
</event>
<event>
 5   0  0.1588657E-05  0.1503006E+04  0.7818609E-02  0.8882457E-01
       -1   -1    0    0    0  501  0.00000000000E+00  0.00000000000E+00  0.45823572815E+03  0.45823572817E+03  0.50400001928E-02 0. -1.
        1   -1    0    0  501    0  0.00000000000E+00  0.00000000000E+00 -0.12324588115E+04  0.12324588115E+04  0.50400001928E-02 0.  1.
    10030    2    1    2    0    0  0.00000000000E+00  0.00000000000E+00 -0.77422308331E+03  0.16906945396E+04  0.15030058695E+04 0.  0.
        3    1    3    3  502    0 -0.20142353004E+01  0.25829105870E+03  0.40673371530E+03  0.48182014644E+03  0.10100000352E+00 0. -1.
       -3    1    3    3    0  502  0.20142353004E+01 -0.25829105870E+03 -0.11809567986E+04  0.12088743932E+04  0.10100000352E+00 0.  1.
</event>
<event>
 5   0  0.2969498E-05  0.1500166E+04  0.7818609E-02  0.8884342E-01
       -2   -1    0    0    0  501  0.00000000000E+00  0.00000000000E+00  0.34120260261E+03  0.34120260262E+03  0.25500000920E-02 0.  1.
        2   -1    0    0  501    0  0.00000000000E+00  0.00000000000E+00 -0.16489456747E+04  0.16489456747E+04  0.25500000920E-02 0. -1.
    10030    2    1    2    0    0  0.00000000000E+00  0.00000000000E+00 -0.13077430721E+04  0.19901482774E+04  0.15001660652E+04 0.  0.
        3    1    3    3  502    0 -0.89172633415E+02  0.73951568061E+03 -0.53678779989E+03  0.91813743673E+03  0.10100000352E+00 0. -1.
       -3    1    3    3    0  502  0.89172633415E+02 -0.73951568061E+03 -0.77095527225E+03  0.10720108406E+04  0.10100000352E+00 0.  1.
</event>
<event>
 5   0  0.1643498E-05  0.1500153E+04  0.7818609E-02  0.8884351E-01
        1   -1    0    0  501    0  0.00000000000E+00  0.00000000000E+00  0.74175332160E+03  0.74175332162E+03  0.50400001928E-02 0.  1.
       -1   -1    0    0    0  501  0.00000000000E+00  0.00000000000E+00 -0.75849317011E+03  0.75849317012E+03  0.50400001928E-02 0. -1.
    10030    2    1    2    0    0  0.00000000000E+00  0.00000000000E+00 -0.16739848508E+02  0.15002464917E+04  0.15001530967E+04 0.  0.
        4    1    3    3  502    0 -0.70257631294E+03 -0.21312425340E+03  0.14519025429E+03  0.74840981135E+03  0.12699999809E+01 0.  1.
       -4    1    3    3    0  502  0.70257631294E+03  0.21312425340E+03 -0.16193010280E+03  0.75183668039E+03  0.12699999809E+01 0. -1.
</event>
<event>
 5   0  0.3093600E-05  0.1500296E+04  0.7818609E-02  0.8884256E-01
       -2   -1    0    0    0  501  0.00000000000E+00  0.00000000000E+00  0.43561984993E+03  0.43561984994E+03  0.25500000920E-02 0. -1.
        2   -1    0    0  501    0  0.00000000000E+00  0.00000000000E+00 -0.12917732251E+04  0.12917732251E+04  0.25500000920E-02 0.  1.
    10030    2    1    2    0    0  0.00000000000E+00  0.00000000000E+00 -0.85615337513E+03  0.17273930750E+04  0.15002960487E+04 0.  0.
        1    1    3    3  502    0 -0.64759422588E+03 -0.36110471075E+03 -0.29706756184E+03  0.79876406394E+03  0.50400001928E-02 0.  1.
       -1    1    3    3    0  502  0.64759422588E+03  0.36110471075E+03 -0.55908581329E+03  0.92862901105E+03  0.50400001928E-02 0. -1.
</event>
<event>
 5   0  0.1533777E-05  0.1500562E+04  0.7818609E-02  0.8884079E-01
        1   -1    0    0  501    0  0.00000000000E+00  0.00000000000E+00  0.82624227825E+03  0.82624227826E+03  0.50400001928E-02 0. -1.
       -1   -1    0    0    0  501  0.00000000000E+00  0.00000000000E+00 -0.68130342155E+03  0.68130342157E+03  0.50400001928E-02 0.  1.
    10030    2    1    2    0    0  0.00000000000E+00  0.00000000000E+00  0.14493885670E+03  0.15075456998E+04  0.15005621496E+04 0.  0.
        5    1    3    3  502    0 -0.10835413683E+03  0.28638708858E+03 -0.61565723590E+03  0.68761479448E+03  0.46999998093E+01 0.  1.
       -5    1    3    3    0  502  0.10835413683E+03 -0.28638708858E+03  0.76059609259E+03  0.81993090535E+03  0.46999998093E+01 0. -1.
</event>
<event>
 5   0  0.1643498E-05  0.1499968E+04  0.7818609E-02  0.8884474E-01
       -1   -1    0    0    0  501  0.00000000000E+00  0.00000000000E+00  0.14569396966E+04  0.14569396966E+04  0.50400001928E-02 0.  1.
        1   -1    0    0  501    0  0.00000000000E+00  0.00000000000E+00 -0.38606700739E+03  0.38606700742E+03  0.50400001928E-02 0. -1.
    10030    2    1    2    0    0  0.00000000000E+00  0.00000000000E+00  0.10708726892E+04  0.18430067040E+04  0.14999684645E+04 0.  0.
        4    1    3    3  502    0 -0.11249105819E+03  0.88181391163E+02  0.14400481966E+04  0.14471249488E+04  0.12699999809E+01 0.  1.
       -4    1    3    3    0  502  0.11249105819E+03 -0.88181391163E+02 -0.36917550744E+03  0.39588175521E+03  0.12699999809E+01 0. -1.
</event>
<event>
 5   0  0.2969498E-05  0.1499493E+04  0.7818609E-02  0.8884790E-01
        2   -1    0    0  501    0  0.00000000000E+00  0.00000000000E+00  0.80355713295E+03  0.80355713295E+03  0.25500000920E-02 0. -1.
       -2   -1    0    0    0  501  0.00000000000E+00  0.00000000000E+00 -0.69953910714E+03  0.69953910715E+03  0.25500000920E-02 0.  1.
    10030    2    1    2    0    0  0.00000000000E+00  0.00000000000E+00  0.10401802581E+03  0.15030962401E+04  0.14994927667E+04 0.  0.
        3    1    3    3  502    0 -0.67764309930E+03 -0.93543888678E+02  0.35961613926E+03  0.77283530390E+03  0.10100000352E+00 0. -1.
       -3    1    3    3    0  502  0.67764309930E+03  0.93543888678E+02 -0.25559811345E+03  0.73026093620E+03  0.10100000352E+00 0.  1.
</event>
<event>
 5   0  0.1533777E-05  0.1497769E+04  0.7818609E-02  0.8885938E-01
        1   -1    0    0  501    0  0.00000000000E+00  0.00000000000E+00  0.14996845022E+04  0.14996845022E+04  0.50400001928E-02 0.  1.
       -1   -1    0    0    0  501  0.00000000000E+00  0.00000000000E+00 -0.37396404148E+03  0.37396404152E+03  0.50400001928E-02 0. -1.
    10030    2    1    2    0    0  0.00000000000E+00  0.00000000000E+00  0.11257204607E+04  0.18736485437E+04  0.14977691109E+04 0.  0.
        5    1    3    3  502    0  0.29238422403E+03 -0.64001789496E+03  0.24222744958E+03  0.74418254996E+03  0.46999998093E+01 0. -1.
       -5    1    3    3    0  502 -0.29238422403E+03  0.64001789496E+03  0.88349301112E+03  0.11294659937E+04  0.46999998093E+01 0.  1.
</event>
<event>
 5   0  0.1588657E-05  0.1499815E+04  0.7818609E-02  0.8884576E-01
        1   -1    0    0  501    0  0.00000000000E+00  0.00000000000E+00  0.20009725954E+04  0.20009725954E+04  0.50400001928E-02 0. -1.
       -1   -1    0    0    0  501  0.00000000000E+00  0.00000000000E+00 -0.28104411943E+03  0.28104411947E+03  0.50400001928E-02 0.  1.
    10030    2    1    2    0    0  0.00000000000E+00  0.00000000000E+00  0.17199284760E+04  0.22820167149E+04  0.14998154301E+04 0.  0.
        3    1    3    3  502    0 -0.52919763428E+03 -0.24469677228E+03  0.14236413535E+03  0.60016181462E+03  0.10100000352E+00 0.  1.
       -3    1    3    3    0  502  0.52919763428E+03  0.24469677228E+03  0.15775643406E+04  0.16818549002E+04  0.10100000352E+00 0. -1.
</event>
<event>
 5   0  0.1580078E-05  0.1500082E+04  0.7818609E-02  0.8884398E-01
        1   -1    0    0  501    0  0.00000000000E+00  0.00000000000E+00  0.77976347550E+03  0.77976347552E+03  0.50400001928E-02 0.  1.
       -1   -1    0    0    0  501  0.00000000000E+00  0.00000000000E+00 -0.72145166309E+03  0.72145166311E+03  0.50400001928E-02 0. -1.
    10030    2    1    2    0    0  0.00000000000E+00  0.00000000000E+00  0.58311812409E+02  0.15012151386E+04  0.15000822061E+04 0.  0.
        2    1    3    3  502    0  0.39801624373E+03 -0.47436196870E+03 -0.39439588365E+03  0.73415551532E+03  0.25500000920E-02 0. -1.
       -2    1    3    3    0  502 -0.39801624373E+03  0.47436196870E+03  0.45270769606E+03  0.76705962331E+03  0.25500000920E-02 0.  1.
</event>
<event>
 5   0  0.3018308E-05  0.1499999E+04  0.7818609E-02  0.8884454E-01
       -2   -1    0    0    0  501  0.00000000000E+00  0.00000000000E+00  0.37802368214E+03  0.37802368215E+03  0.25500000920E-02 0. -1.
        2   -1    0    0  501    0  0.00000000000E+00  0.00000000000E+00 -0.14880002121E+04  0.14880002121E+04  0.25500000920E-02 0.  1.
    10030    2    1    2    0    0  0.00000000000E+00  0.00000000000E+00 -0.11099765300E+04  0.18660238943E+04  0.14999990923E+04 0.  0.
        2    1    3    3  502    0  0.36933833598E+03  0.54267343602E+03 -0.10062664484E+04  0.12014480554E+04  0.25500000920E-02 0.  1.
       -2    1    3    3    0  502 -0.36933833598E+03 -0.54267343602E+03 -0.10371008156E+03  0.66457583887E+03  0.25500000920E-02 0. -1.
</event>
<event>
 5   0  0.1580078E-05  0.1499940E+04  0.7818609E-02  0.8884493E-01
       -1   -1    0    0    0  501  0.00000000000E+00  0.00000000000E+00  0.60915149756E+03  0.60915149758E+03  0.50400001928E-02 0. -1.
        1   -1    0    0  501    0  0.00000000000E+00  0.00000000000E+00 -0.92334137506E+03  0.92334137507E+03  0.50400001928E-02 0.  1.
    10030    2    1    2    0    0  0.00000000000E+00  0.00000000000E+00 -0.31418987750E+03  0.15324928726E+04  0.14999397073E+04 0.  0.
        2    1    3    3  502    0  0.13452480963E+03 -0.36568184760E+03 -0.81181018467E+03  0.90047538224E+03  0.25500000920E-02 0.  1.
       -2    1    3    3    0  502 -0.13452480963E+03  0.36568184760E+03  0.49762030717E+03  0.63201749041E+03  0.25500000920E-02 0. -1.
</event>
<event>
 5   0  0.1580078E-05  0.1500274E+04  0.7818609E-02  0.8884271E-01
       -1   -1    0    0    0  501  0.00000000000E+00  0.00000000000E+00  0.34850983093E+03  0.34850983096E+03  0.50400001928E-02 0.  1.
        1   -1    0    0  501    0  0.00000000000E+00  0.00000000000E+00 -0.16146043582E+04  0.16146043582E+04  0.50400001928E-02 0. -1.
    10030    2    1    2    0    0  0.00000000000E+00  0.00000000000E+00 -0.12660945273E+04  0.19631141892E+04  0.15002739642E+04 0.  0.
        2    1    3    3  502    0 -0.36683173116E+03  0.25689348143E+03 -0.14204857971E+04  0.14894091713E+04  0.25500000920E-02 0. -1.
       -2    1    3    3    0  502  0.36683173116E+03 -0.25689348143E+03  0.15439126980E+03  0.47370501790E+03  0.25500000920E-02 0.  1.
</event>
<event>
 5   0  0.1588657E-05  0.1498898E+04  0.7818609E-02  0.8885186E-01
       -1   -1    0    0    0  501  0.00000000000E+00  0.00000000000E+00  0.48385450374E+03  0.48385450376E+03  0.50400001928E-02 0.  1.
        1   -1    0    0  501    0  0.00000000000E+00  0.00000000000E+00 -0.11608314367E+04  0.11608314367E+04  0.50400001928E-02 0. -1.
    10030    2    1    2    0    0  0.00000000000E+00  0.00000000000E+00 -0.67697693294E+03  0.16446859405E+04  0.14988976199E+04 0.  0.
        3    1    3    3  502    0 -0.26740232422E+03  0.94214894891E+02  0.42274138236E+03  0.50900956374E+03  0.10100000352E+00 0.  1.
       -3    1    3    3    0  502  0.26740232422E+03 -0.94214894891E+02 -0.10997183153E+04  0.11356763767E+04  0.10100000352E+00 0. -1.
</event>
<event>
 5   0  0.3093600E-05  0.1499903E+04  0.7818609E-02  0.8884517E-01
        2   -1    0    0  501    0  0.00000000000E+00  0.00000000000E+00  0.64289429523E+03  0.64289429524E+03  0.25500000920E-02 0.  1.
       -2   -1    0    0    0  501  0.00000000000E+00  0.00000000000E+00 -0.87483651879E+03  0.87483651880E+03  0.25500000920E-02 0. -1.
    10030    2    1    2    0    0  0.00000000000E+00  0.00000000000E+00 -0.23194222356E+03  0.15177308140E+04  0.14999032065E+04 0.  0.
        1    1    3    3  502    0 -0.31107486499E+03 -0.63045316453E+03 -0.38020440742E+03  0.79924599201E+03  0.50400001928E-02 0. -1.
       -1    1    3    3    0  502  0.31107486499E+03  0.63045316453E+03  0.14826218386E+03  0.71848482203E+03  0.50400001928E-02 0.  1.
</event>
<event>
 5   0  0.3070497E-05  0.1497348E+04  0.7818609E-02  0.8886219E-01
       -2   -1    0    0    0  501  0.00000000000E+00  0.00000000000E+00  0.26687701726E+03  0.26687701727E+03  0.25500000920E-02 0. -1.
        2   -1    0    0  501    0  0.00000000000E+00  0.00000000000E+00 -0.21002653635E+04  0.21002653635E+04  0.25500000920E-02 0.  1.
    10030    2    1    2    0    0  0.00000000000E+00  0.00000000000E+00 -0.18333883462E+04  0.23671423807E+04  0.14973477294E+04 0.  0.
        4    1    3    3  502    0  0.86586128902E+02 -0.62871996517E+03 -0.28884985612E+03  0.69729606667E+03  0.12699999809E+01 0. -1.
       -4    1    3    3    0  502 -0.86586128902E+02  0.62871996517E+03 -0.15445384901E+04  0.16698463141E+04  0.12699999809E+01 0.  1.
</event>
<event>
 5   0  0.1576214E-05  0.1500180E+04  0.7818609E-02  0.8884333E-01
        1   -1    0    0  501    0  0.00000000000E+00  0.00000000000E+00  0.11271893029E+04  0.11271893030E+04  0.50400001928E-02 0.  1.
       -1   -1    0    0    0  501  0.00000000000E+00  0.00000000000E+00 -0.49914876576E+03  0.49914876579E+03  0.50400001928E-02 0. -1.
    10030    2    1    2    0    0  0.00000000000E+00  0.00000000000E+00  0.62804053719E+03  0.16263380687E+04  0.15001801883E+04 0.  0.
        1    1    3    3  502    0 -0.40330998148E+02  0.65788144211E+03 -0.74141159422E+02  0.66327331684E+03  0.50400001928E-02 0. -1.
       -1    1    3    3    0  502  0.40330998148E+02 -0.65788144211E+03  0.70218169661E+03  0.96306475191E+03  0.50400001928E-02 0.  1.
</event>
<event>
 5   0  0.3093600E-05  0.1493765E+04  0.7818609E-02  0.8888610E-01
        2   -1    0    0  501    0  0.00000000000E+00  0.00000000000E+00  0.72821886662E+03  0.72821886663E+03  0.25500000920E-02 0.  1.
       -2   -1    0    0    0  501  0.00000000000E+00  0.00000000000E+00 -0.76602414540E+03  0.76602414541E+03  0.25500000920E-02 0. -1.
    10030    2    1    2    0    0  0.00000000000E+00  0.00000000000E+00 -0.37805278777E+02  0.14942430120E+04  0.14937646869E+04 0.  0.
        1    1    3    3  502    0  0.10630838347E+03  0.27031780217E+03 -0.70720730629E+03  0.76453604275E+03  0.50400001928E-02 0. -1.
       -1    1    3    3    0  502 -0.10630838347E+03 -0.27031780217E+03  0.66940202751E+03  0.72970696929E+03  0.50400001928E-02 0.  1.
</event>
<event>
 5   0  0.3070497E-05  0.1499259E+04  0.7818609E-02  0.8884946E-01
        2   -1    0    0  501    0  0.00000000000E+00  0.00000000000E+00  0.26447849232E+04  0.26447849232E+04  0.25500000920E-02 0.  1.
       -2   -1    0    0    0  501  0.00000000000E+00  0.00000000000E+00 -0.21247269897E+03  0.21247269899E+03  0.25500000920E-02 0. -1.
    10030    2    1    2    0    0  0.00000000000E+00  0.00000000000E+00  0.24323122242E+04  0.28572576222E+04  0.14992592716E+04 0.  0.
        4    1    3    3  502    0  0.62930149366E+02 -0.45995374792E+03  0.23378580563E+04  0.23835057286E+04  0.12699999809E+01 0.  1.
       -4    1    3    3    0  502 -0.62930149366E+02  0.45995374792E+03  0.94454167896E+02  0.47375189356E+03  0.12699999809E+01 0. -1.
</event>
<event>
 5   0  0.3030702E-05  0.1498122E+04  0.7818609E-02  0.8885703E-01
        2   -1    0    0  501    0  0.00000000000E+00  0.00000000000E+00  0.15860120959E+04  0.15860120959E+04  0.25500000920E-02 0.  1.
       -2   -1    0    0    0  501  0.00000000000E+00  0.00000000000E+00 -0.35377547731E+03  0.35377547732E+03  0.25500000920E-02 0. -1.
    10030    2    1    2    0    0  0.00000000000E+00  0.00000000000E+00  0.12322366186E+04  0.19397875732E+04  0.14981217391E+04 0.  0.
        5    1    3    3  502    0 -0.59973690406E+03 -0.11850860350E+03  0.11765517080E+04  0.13259052209E+04  0.46999998093E+01 0.  1.
       -5    1    3    3    0  502  0.59973690406E+03  0.11850860350E+03  0.55684910550E+02  0.61388235230E+03  0.46999998093E+01 0. -1.
</event>
<event>
 5   0  0.3093600E-05  0.1499287E+04  0.7818609E-02  0.8884927E-01
       -2   -1    0    0    0  501  0.00000000000E+00  0.00000000000E+00  0.30117202532E+03  0.30117202533E+03  0.25500000920E-02 0. -1.
        2   -1    0    0  501    0  0.00000000000E+00  0.00000000000E+00 -0.18659291189E+04  0.18659291189E+04  0.25500000920E-02 0.  1.
    10030    2    1    2    0    0  0.00000000000E+00  0.00000000000E+00 -0.15647570935E+04  0.21671011442E+04  0.14992873665E+04 0.  0.
        1    1    3    3  502    0 -0.10337847926E+03 -0.59785072525E+03 -0.14187792070E+04  0.15430641717E+04  0.50400001928E-02 0.  1.
       -1    1    3    3    0  502  0.10337847926E+03  0.59785072525E+03 -0.14597788652E+03  0.62403697249E+03  0.50400001928E-02 0. -1.
</event>
<event>
 5   0  0.3030702E-05  0.1500429E+04  0.7818609E-02  0.8884168E-01
       -2   -1    0    0    0  501  0.00000000000E+00  0.00000000000E+00  0.51736334989E+03  0.51736334990E+03  0.25500000920E-02 0. -1.
        2   -1    0    0  501    0  0.00000000000E+00  0.00000000000E+00 -0.10878650342E+04  0.10878650342E+04  0.25500000920E-02 0.  1.
    10030    2    1    2    0    0  0.00000000000E+00  0.00000000000E+00 -0.57050168426E+03  0.16052283841E+04  0.15004286032E+04 0.  0.
        5    1    3    3  502    0 -0.31884516986E+03  0.51747214742E+03  0.18518946564E+03  0.63541867606E+03  0.46999998093E+01 0. -1.
       -5    1    3    3    0  502  0.31884516986E+03 -0.51747214742E+03 -0.75569114991E+03  0.96980970800E+03  0.46999998093E+01 0.  1.
</event>
<event>
 5   0  0.3093600E-05  0.1499743E+04  0.7818609E-02  0.8884624E-01
       -2   -1    0    0    0  501  0.00000000000E+00  0.00000000000E+00  0.38537955809E+03  0.38537955810E+03  0.25500000920E-02 0. -1.
        2   -1    0    0  501    0  0.00000000000E+00  0.00000000000E+00 -0.14591000026E+04  0.14591000026E+04  0.25500000920E-02 0.  1.
    10030    2    1    2    0    0  0.00000000000E+00  0.00000000000E+00 -0.10737204445E+04  0.18444795607E+04  0.14997430636E+04 0.  0.
        1    1    3    3  502    0  0.39569452748E+03 -0.32214971513E+03 -0.12126730879E+04  0.13156483634E+04  0.50400001928E-02 0.  1.
       -1    1    3    3    0  502 -0.39569452748E+03  0.32214971513E+03  0.13895264343E+03  0.52883119724E+03  0.50400001928E-02 0. -1.
</event>
<event>
 5   0  0.1643498E-05  0.1498658E+04  0.7818609E-02  0.8885346E-01
        1   -1    0    0  501    0  0.00000000000E+00  0.00000000000E+00  0.65310623211E+03  0.65310623213E+03  0.50400001928E-02 0. -1.
       -1   -1    0    0    0  501  0.00000000000E+00  0.00000000000E+00 -0.85972787357E+03  0.85972787358E+03  0.50400001928E-02 0.  1.
    10030    2    1    2    0    0  0.00000000000E+00  0.00000000000E+00 -0.20662164146E+03  0.15128341057E+04  0.14986575755E+04 0.  0.
        4    1    3    3  502    0 -0.37896327817E+03 -0.22268040747E+03 -0.71592240739E+03  0.84008704095E+03  0.12699999809E+01 0.  1.
       -4    1    3    3    0  502  0.37896327817E+03  0.22268040747E+03  0.50930076593E+03  0.67274706476E+03  0.12699999809E+01 0. -1.
</event>
<event>
 5   0  0.1588657E-05  0.1500360E+04  0.7818609E-02  0.8884214E-01
        1   -1    0    0  501    0  0.00000000000E+00  0.00000000000E+00  0.21138780278E+04  0.21138780278E+04  0.50400001928E-02 0. -1.
       -1   -1    0    0    0  501  0.00000000000E+00  0.00000000000E+00 -0.26622624383E+03  0.26622624388E+03  0.50400001928E-02 0.  1.
    10030    2    1    2    0    0  0.00000000000E+00  0.00000000000E+00  0.18476517839E+04  0.23801042717E+04  0.15003597000E+04 0.  0.
        3    1    3    3  502    0  0.76449840948E+02  0.74341376849E+03  0.82027211860E+03  0.11096643493E+04  0.10100000352E+00 0.  1.
       -3    1    3    3    0  502 -0.76449840948E+02 -0.74341376849E+03  0.10273796654E+04  0.12704399224E+04  0.10100000352E+00 0. -1.
</event>
<event>
 5   0  0.3093600E-05  0.1499750E+04  0.7818609E-02  0.8884619E-01
       -2   -1    0    0    0  501  0.00000000000E+00  0.00000000000E+00  0.47866660429E+03  0.47866660430E+03  0.25500000920E-02 0. -1.
        2   -1    0    0  501    0  0.00000000000E+00  0.00000000000E+00 -0.11747479624E+04  0.11747479624E+04  0.25500000920E-02 0.  1.
    10030    2    1    2    0    0  0.00000000000E+00  0.00000000000E+00 -0.69608135813E+03  0.16534145667E+04  0.14997501366E+04 0.  0.
        1    1    3    3  502    0  0.89596748042E+02 -0.30665949370E+03 -0.10959645368E+04  0.11415804344E+04  0.50400001928E-02 0.  1.
       -1    1    3    3    0  502 -0.89596748042E+02  0.30665949370E+03  0.39988317868E+03  0.51183413227E+03  0.50400001928E-02 0. -1.
</event>
<event>
 5   0  0.1580078E-05  0.1500801E+04  0.7818609E-02  0.8883920E-01
       -1   -1    0    0    0  501  0.00000000000E+00  0.00000000000E+00  0.73975859448E+03  0.73975859450E+03  0.50400001928E-02 0.  1.
        1   -1    0    0  501    0  0.00000000000E+00  0.00000000000E+00 -0.76119548574E+03  0.76119548576E+03  0.50400001928E-02 0. -1.
    10030    2    1    2    0    0  0.00000000000E+00  0.00000000000E+00 -0.21436891257E+02  0.15009540803E+04  0.15008009897E+04 0.  0.
        2    1    3    3  502    0  0.22571625753E+03 -0.67612898898E+03  0.22383194508E+03  0.74712715002E+03  0.25500000920E-02 0.  1.
       -2    1    3    3    0  502 -0.22571625753E+03  0.67612898898E+03 -0.24526883634E+03  0.75382693023E+03  0.25500000920E-02 0. -1.
</event>
<event>
 5   0  0.3018308E-05  0.1500733E+04  0.7818609E-02  0.8883965E-01
        2   -1    0    0  501    0  0.00000000000E+00  0.00000000000E+00  0.10158900189E+04  0.10158900189E+04  0.25500000920E-02 0. -1.
       -2   -1    0    0    0  501  0.00000000000E+00  0.00000000000E+00 -0.55424317157E+03  0.55424317158E+03  0.25500000920E-02 0.  1.
    10030    2    1    2    0    0  0.00000000000E+00  0.00000000000E+00  0.46164684730E+03  0.15701331905E+04  0.15007332955E+04 0.  0.
        2    1    3    3  502    0 -0.19394929729E+03 -0.39937678856E+02 -0.52641351334E+03  0.56242558188E+03  0.25500000920E-02 0.  1.
       -2    1    3    3    0  502  0.19394929729E+03  0.39937678856E+02  0.98806036064E+03  0.10077076086E+04  0.25500000920E-02 0. -1.
</event>
<event>
 5   0  0.1643498E-05  0.1499772E+04  0.7818609E-02  0.8884605E-01
        1   -1    0    0  501    0  0.00000000000E+00  0.00000000000E+00  0.68463263682E+03  0.68463263684E+03  0.50400001928E-02 0. -1.
       -1   -1    0    0    0  501  0.00000000000E+00  0.00000000000E+00 -0.82135837908E+03  0.82135837909E+03  0.50400001928E-02 0.  1.
    10030    2    1    2    0    0  0.00000000000E+00  0.00000000000E+00 -0.13672574225E+03  0.15059910159E+04  0.14997716531E+04 0.  0.
        4    1    3    3  502    0  0.20022356413E+03  0.61569608730E+03 -0.44829148771E+03  0.78748842430E+03  0.12699999809E+01 0.  1.
       -4    1    3    3    0  502 -0.20022356413E+03 -0.61569608730E+03  0.31156574546E+03  0.71850259164E+03  0.12699999809E+01 0. -1.
</event>
<event>
 5   0  0.3030702E-05  0.1504747E+04  0.7818609E-02  0.8881303E-01
       -2   -1    0    0    0  501  0.00000000000E+00  0.00000000000E+00  0.54207061814E+03  0.54207061815E+03  0.25500000920E-02 0.  1.
        2   -1    0    0  501    0  0.00000000000E+00  0.00000000000E+00 -0.10442654393E+04  0.10442654393E+04  0.25500000920E-02 0. -1.
    10030    2    1    2    0    0  0.00000000000E+00  0.00000000000E+00 -0.50219482111E+03  0.15863360574E+04  0.15047466394E+04 0.  0.
        5    1    3    3  502    0  0.12792252387E+03 -0.50786462219E+03 -0.82052615514E+03  0.97343510716E+03  0.46999998093E+01 0. -1.
       -5    1    3    3    0  502 -0.12792252387E+03  0.50786462219E+03  0.31833133403E+03  0.61290095024E+03  0.46999998093E+01 0.  1.
</event>
<event>
 5   0  0.1643498E-05  0.1498942E+04  0.7818609E-02  0.8885156E-01
       -1   -1    0    0    0  501  0.00000000000E+00  0.00000000000E+00  0.84494359843E+03  0.84494359844E+03  0.50400001928E-02 0.  1.
        1   -1    0    0  501    0  0.00000000000E+00  0.00000000000E+00 -0.66478651082E+03  0.66478651084E+03  0.50400001928E-02 0. -1.
    10030    2    1    2    0    0  0.00000000000E+00  0.00000000000E+00  0.18015708761E+03  0.15097301093E+04  0.14989424361E+04 0.  0.
        4    1    3    3  502    0  0.26574247153E+03 -0.54908398636E+03  0.52863524318E+03  0.80719831423E+03  0.12699999809E+01 0.  1.
       -4    1    3    3    0  502 -0.26574247153E+03  0.54908398636E+03 -0.34847815558E+03  0.70253179506E+03  0.12699999809E+01 0. -1.
</event>
<event>
 5   0  0.3093600E-05  0.1500073E+04  0.7818609E-02  0.8884404E-01
       -2   -1    0    0    0  501  0.00000000000E+00  0.00000000000E+00  0.84353374168E+03  0.84353374168E+03  0.25500000920E-02 0. -1.
        2   -1    0    0  501    0  0.00000000000E+00  0.00000000000E+00 -0.66690254339E+03  0.66690254339E+03  0.25500000920E-02 0.  1.
    10030    2    1    2    0    0  0.00000000000E+00  0.00000000000E+00  0.17663119829E+03  0.15104362851E+04  0.15000730619E+04 0.  0.
        1    1    3    3  502    0 -0.65140099921E+02 -0.72935184450E+03 -0.75155773932E+02  0.73610171585E+03  0.50400001928E-02 0.  1.
       -1    1    3    3    0  502  0.65140099921E+02  0.72935184450E+03  0.25178697223E+03  0.77433456923E+03  0.50400001928E-02 0. -1.
</event>
<event>
 5   0  0.1580078E-05  0.1498533E+04  0.7818609E-02  0.8885429E-01
       -1   -1    0    0    0  501  0.00000000000E+00  0.00000000000E+00  0.87522144848E+03  0.87522144850E+03  0.50400001928E-02 0.  1.
        1   -1    0    0  501    0  0.00000000000E+00  0.00000000000E+00 -0.64143825559E+03  0.64143825561E+03  0.50400001928E-02 0. -1.
    10030    2    1    2    0    0  0.00000000000E+00  0.00000000000E+00  0.23378319289E+03  0.15166597041E+04  0.14985333085E+04 0.  0.
        2    1    3    3  502    0  0.13394919888E+03 -0.93047597746E+02  0.85703787335E+03  0.87241856909E+03  0.25500000920E-02 0.  1.
       -2    1    3    3    0  502 -0.13394919888E+03  0.93047597746E+02 -0.62325468046E+03  0.64424113502E+03  0.25500000920E-02 0. -1.
</event>
<event>
 5   0  0.1580078E-05  0.1498535E+04  0.7818609E-02  0.8885428E-01
        1   -1    0    0  501    0  0.00000000000E+00  0.00000000000E+00  0.80555922157E+03  0.80555922158E+03  0.50400001928E-02 0. -1.
       -1   -1    0    0    0  501  0.00000000000E+00  0.00000000000E+00 -0.69690901227E+03  0.69690901228E+03  0.50400001928E-02 0.  1.
    10030    2    1    2    0    0  0.00000000000E+00  0.00000000000E+00  0.10865020930E+03  0.15024682339E+04  0.14985345928E+04 0.  0.
        2    1    3    3  502    0 -0.15819550148E+03 -0.90484283308E+01  0.78856826582E+03  0.80433052945E+03  0.25500000920E-02 0. -1.
       -2    1    3    3    0  502  0.15819550148E+03  0.90484283308E+01 -0.67991805652E+03  0.69813770442E+03  0.25500000920E-02 0.  1.
</event>
<event>
 5   0  0.1588657E-05  0.1499995E+04  0.7818609E-02  0.8884456E-01
       -1   -1    0    0    0  501  0.00000000000E+00  0.00000000000E+00  0.73001319980E+03  0.73001319982E+03  0.50400001928E-02 0. -1.
        1   -1    0    0  501    0  0.00000000000E+00  0.00000000000E+00 -0.77052884985E+03  0.77052884986E+03  0.50400001928E-02 0.  1.
    10030    2    1    2    0    0  0.00000000000E+00  0.00000000000E+00 -0.40515650045E+02  0.15005420497E+04  0.14999949750E+04 0.  0.
        3    1    3    3  502    0 -0.62367771302E+03 -0.22748051103E+03 -0.36934777271E+03  0.75969668949E+03  0.10100000352E+00 0. -1.
       -3    1    3    3    0  502  0.62367771302E+03  0.22748051103E+03  0.32883212266E+03  0.74084536019E+03  0.10100000352E+00 0.  1.
</event>
<event>
 5   0  0.1533777E-05  0.1499842E+04  0.7818609E-02  0.8884558E-01
        1   -1    0    0  501    0  0.00000000000E+00  0.00000000000E+00  0.16610306087E+04  0.16610306087E+04  0.50400001928E-02 0.  1.
       -1   -1    0    0    0  501  0.00000000000E+00  0.00000000000E+00 -0.33857379423E+03  0.33857379427E+03  0.50400001928E-02 0. -1.
    10030    2    1    2    0    0  0.00000000000E+00  0.00000000000E+00  0.13224568145E+04  0.19996044030E+04  0.14998419058E+04 0.  0.
        5    1    3    3  502    0  0.57367258652E+03 -0.42997165080E+03  0.95448459874E+03  0.11937498885E+04  0.46999998093E+01 0.  1.
       -5    1    3    3    0  502 -0.57367258652E+03  0.42997165080E+03  0.36797221576E+03  0.80585451453E+03  0.46999998093E+01 0. -1.
</event>
<event>
 5   0  0.1643498E-05  0.1499012E+04  0.7818609E-02  0.8885110E-01
        1   -1    0    0  501    0  0.00000000000E+00  0.00000000000E+00  0.97272074392E+03  0.97272074394E+03  0.50400001928E-02 0. -1.
       -1   -1    0    0    0  501  0.00000000000E+00  0.00000000000E+00 -0.57751368402E+03  0.57751368404E+03  0.50400001928E-02 0.  1.
    10030    2    1    2    0    0  0.00000000000E+00  0.00000000000E+00  0.39520705990E+03  0.15502344280E+04  0.14990123954E+04 0.  0.
        4    1    3    3  502    0 -0.32641312405E+03  0.64340008096E+03 -0.12434276764E+02  0.72157149048E+03  0.12699999809E+01 0.  1.
       -4    1    3    3    0  502  0.32641312405E+03 -0.64340008096E+03  0.40764133666E+03  0.82866293750E+03  0.12699999809E+01 0. -1.
</event>
<event>
 5   0  0.3070497E-05  0.1500885E+04  0.7818609E-02  0.8883865E-01
        2   -1    0    0  501    0  0.00000000000E+00  0.00000000000E+00  0.16984742003E+04  0.16984742003E+04  0.25500000920E-02 0.  1.
       -2   -1    0    0    0  501  0.00000000000E+00  0.00000000000E+00 -0.33157039837E+03  0.33157039838E+03  0.25500000920E-02 0. -1.
    10030    2    1    2    0    0  0.00000000000E+00  0.00000000000E+00  0.13669038019E+04  0.20300445987E+04  0.15008847620E+04 0.  0.
        4    1    3    3  502    0 -0.62098649736E+03  0.41257528949E+03  0.79916980735E+03  0.10929394280E+04  0.12699999809E+01 0.  1.
       -4    1    3    3    0  502  0.62098649736E+03 -0.41257528949E+03  0.56773399457E+03  0.93710517067E+03  0.12699999809E+01 0. -1.
</event>
<event>
 5   0  0.3093600E-05  0.1500018E+04  0.7818609E-02  0.8884441E-01
        2   -1    0    0  501    0  0.00000000000E+00  0.00000000000E+00  0.51686499384E+03  0.51686499384E+03  0.25500000920E-02 0.  1.
       -2   -1    0    0    0  501  0.00000000000E+00  0.00000000000E+00 -0.10883182683E+04  0.10883182683E+04  0.25500000920E-02 0. -1.
    10030    2    1    2    0    0  0.00000000000E+00  0.00000000000E+00 -0.57145327442E+03  0.16051832621E+04  0.15000181532E+04 0.  0.
        1    1    3    3  502    0  0.29809227121E+03 -0.23904771902E+03 -0.97634996141E+03  0.10484569907E+04  0.50400001928E-02 0. -1.
       -1    1    3    3    0  502 -0.29809227121E+03  0.23904771902E+03  0.40489668700E+03  0.55672627142E+03  0.50400001928E-02 0.  1.
</event>
<event>
 5   0  0.3030702E-05  0.1498107E+04  0.7818609E-02  0.8885712E-01
       -2   -1    0    0    0  501  0.00000000000E+00  0.00000000000E+00  0.56893444706E+03  0.56893444707E+03  0.25500000920E-02 0. -1.
        2   -1    0    0  501    0  0.00000000000E+00  0.00000000000E+00 -0.98619704430E+03  0.98619704431E+03  0.25500000920E-02 0.  1.
    10030    2    1    2    0    0  0.00000000000E+00  0.00000000000E+00 -0.41726259724E+03  0.15551314914E+04  0.14981074329E+04 0.  0.
        5    1    3    3  502    0  0.25444035563E+02  0.48422690303E+03 -0.80127068967E+03  0.93657882780E+03  0.46999998093E+01 0.  1.
       -5    1    3    3    0  502 -0.25444035563E+02 -0.48422690303E+03  0.38400809243E+03  0.61855266357E+03  0.46999998093E+01 0. -1.
</event>
<event>
 5   0  0.3018308E-05  0.1501730E+04  0.7818609E-02  0.8883303E-01
       -2   -1    0    0    0  501  0.00000000000E+00  0.00000000000E+00  0.60552713919E+03  0.60552713919E+03  0.25500000920E-02 0.  1.
        2   -1    0    0  501    0  0.00000000000E+00  0.00000000000E+00 -0.93108717222E+03  0.93108717222E+03  0.25500000920E-02 0. -1.
    10030    2    1    2    0    0  0.00000000000E+00  0.00000000000E+00 -0.32556003303E+03  0.15366143114E+04  0.15017304042E+04 0.  0.
        2    1    3    3  502    0  0.63557885316E+03 -0.34510095429E+03  0.43758739946E+02  0.72454811749E+03  0.25500000920E-02 0. -1.
       -2    1    3    3    0  502 -0.63557885316E+03  0.34510095429E+03 -0.36931877298E+03  0.81206619392E+03  0.25500000920E-02 0.  1.
</event>
<event>
 5   0  0.1580078E-05  0.1499579E+04  0.7818609E-02  0.8884733E-01
        1   -1    0    0  501    0  0.00000000000E+00  0.00000000000E+00  0.11286239151E+04  0.11286239151E+04  0.50400001928E-02 0. -1.
       -1   -1    0    0    0  501  0.00000000000E+00  0.00000000000E+00 -0.49811470286E+03  0.49811470289E+03  0.50400001928E-02 0.  1.
    10030    2    1    2    0    0  0.00000000000E+00  0.00000000000E+00  0.63050921224E+03  0.16267386180E+04  0.14995788291E+04 0.  0.
        2    1    3    3  502    0  0.45049783699E+03 -0.26845288004E+03  0.89657718409E+03  0.10386846957E+04  0.25500000920E-02 0. -1.
       -2    1    3    3    0  502 -0.45049783699E+03  0.26845288004E+03 -0.26606797186E+03  0.58805392235E+03  0.25500000920E-02 0.  1.
</event>
<event>
 5   0  0.1576214E-05  0.1498854E+04  0.7818609E-02  0.8885215E-01
       -1   -1    0    0    0  501  0.00000000000E+00  0.00000000000E+00  0.77357798608E+03  0.77357798610E+03  0.50400001928E-02 0. -1.
        1   -1    0    0  501    0  0.00000000000E+00  0.00000000000E+00 -0.72603028090E+03  0.72603028091E+03  0.50400001928E-02 0.  1.
    10030    2    1    2    0    0  0.00000000000E+00  0.00000000000E+00  0.47547705186E+02  0.14996082670E+04  0.14988542859E+04 0.  0.
        1    1    3    3  502    0  0.61068523167E+03 -0.18288506804E+03 -0.37045182213E+03  0.73730451839E+03  0.50400001928E-02 0.  1.
       -1    1    3    3    0  502 -0.61068523167E+03  0.18288506804E+03  0.41799952732E+03  0.76230374862E+03  0.50400001928E-02 0. -1.
</event>
<event>
 5   0  0.3030702E-05  0.1500240E+04  0.7818609E-02  0.8884293E-01
        2   -1    0    0  501    0  0.00000000000E+00  0.00000000000E+00  0.90935339826E+03  0.90935339826E+03  0.25500000920E-02 0. -1.
       -2   -1    0    0    0  501  0.00000000000E+00  0.00000000000E+00 -0.61876927432E+03  0.61876927433E+03  0.25500000920E-02 0.  1.
    10030    2    1    2    0    0  0.00000000000E+00  0.00000000000E+00  0.29058412394E+03  0.15281226726E+04  0.15002399039E+04 0.  0.
        5    1    3    3  502    0  0.19412305064E+03 -0.15296806735E+03  0.86667420646E+03  0.90123762603E+03  0.46999998093E+01 0. -1.
       -5    1    3    3    0  502 -0.19412305064E+03  0.15296806735E+03 -0.57609008252E+03  0.62688504656E+03  0.46999998093E+01 0.  1.
</event>
<event>
 5   0  0.3093600E-05  0.1499392E+04  0.7818609E-02  0.8884858E-01
        2   -1    0    0  501    0  0.00000000000E+00  0.00000000000E+00  0.72469303543E+03  0.72469303544E+03  0.25500000920E-02 0.  1.
       -2   -1    0    0    0  501  0.00000000000E+00  0.00000000000E+00 -0.77556124674E+03  0.77556124674E+03  0.25500000920E-02 0. -1.
    10030    2    1    2    0    0  0.00000000000E+00  0.00000000000E+00 -0.50868211304E+02  0.15002542822E+04  0.14993916554E+04 0.  0.
        1    1    3    3  502    0  0.32342963679E+03 -0.62207449281E+03  0.24016244382E+03  0.74112172010E+03  0.50400001928E-02 0.  1.
       -1    1    3    3    0  502 -0.32342963679E+03  0.62207449281E+03 -0.29103065512E+03  0.75913256208E+03  0.50400001928E-02 0. -1.
</event>
<event>
 5   0  0.1533777E-05  0.1501686E+04  0.7818609E-02  0.8883332E-01
        1   -1    0    0  501    0  0.00000000000E+00  0.00000000000E+00  0.40116534514E+03  0.40116534517E+03  0.50400001928E-02 0. -1.
       -1   -1    0    0    0  501  0.00000000000E+00  0.00000000000E+00 -0.14053189272E+04  0.14053189272E+04  0.50400001928E-02 0.  1.
    10030    2    1    2    0    0  0.00000000000E+00  0.00000000000E+00 -0.10041535820E+04  0.18064842724E+04  0.15016860557E+04 0.  0.
        5    1    3    3  502    0  0.54956869290E+03  0.45787199296E+03 -0.22757097772E+03  0.75065514722E+03  0.46999998093E+01 0.  1.
       -5    1    3    3    0  502 -0.54956869290E+03 -0.45787199296E+03 -0.77658260431E+03  0.10558291251E+04  0.46999998093E+01 0. -1.
</event>
<event>
 5   0  0.1588657E-05  0.1499998E+04  0.7818609E-02  0.8884454E-01
       -1   -1    0    0    0  501  0.00000000000E+00  0.00000000000E+00  0.91129160838E+03  0.91129160839E+03  0.50400001928E-02 0.  1.
        1   -1    0    0  501    0  0.00000000000E+00  0.00000000000E+00 -0.61725425028E+03  0.61725425030E+03  0.50400001928E-02 0. -1.
    10030    2    1    2    0    0  0.00000000000E+00  0.00000000000E+00  0.29403735810E+03  0.15285458587E+04  0.14999981581E+04 0.  0.
        3    1    3    3  502    0 -0.54404090963E+03  0.24773801549E+03 -0.31452959125E+03  0.67548760880E+03  0.10100000352E+00 0. -1.
       -3    1    3    3    0  502  0.54404090963E+03 -0.24773801549E+03  0.60856694935E+03  0.85305824989E+03  0.10100000352E+00 0.  1.
</event>
<event>
 5   0  0.3030702E-05  0.1499023E+04  0.7818609E-02  0.8885103E-01
       -2   -1    0    0    0  501  0.00000000000E+00  0.00000000000E+00  0.67470700170E+03  0.67470700170E+03  0.25500000920E-02 0.  1.
        2   -1    0    0  501    0  0.00000000000E+00  0.00000000000E+00 -0.83260904144E+03  0.83260904145E+03  0.25500000920E-02 0. -1.
    10030    2    1    2    0    0  0.00000000000E+00  0.00000000000E+00 -0.15790203975E+03  0.15073160431E+04  0.14990225481E+04 0.  0.
        5    1    3    3  502    0  0.45047390561E+03  0.18126361281E+03 -0.65304041586E+03  0.81379795509E+03  0.46999998093E+01 0. -1.
       -5    1    3    3    0  502 -0.45047390561E+03 -0.18126361281E+03  0.49513837611E+03  0.69351808806E+03  0.46999998093E+01 0.  1.
</event>
<event>
 5   0  0.1588657E-05  0.1499896E+04  0.7818609E-02  0.8884522E-01
       -1   -1    0    0    0  501  0.00000000000E+00  0.00000000000E+00  0.59217591383E+03  0.59217591385E+03  0.50400001928E-02 0. -1.
        1   -1    0    0  501    0  0.00000000000E+00  0.00000000000E+00 -0.94975478233E+03  0.94975478235E+03  0.50400001928E-02 0.  1.
    10030    2    1    2    0    0  0.00000000000E+00  0.00000000000E+00 -0.35757886850E+03  0.15419306962E+04  0.14998958713E+04 0.  0.
        3    1    3    3  502    0 -0.19608661639E+03  0.97317826735E+02  0.55860003363E+03  0.59996227240E+03  0.10100000352E+00 0. -1.
       -3    1    3    3    0  502  0.19608661639E+03 -0.97317826735E+02 -0.91617890213E+03  0.94196842380E+03  0.10100000352E+00 0.  1.
</event>
<event>
 5   0  0.3030702E-05  0.1509699E+04  0.7818609E-02  0.8878029E-01
       -2   -1    0    0    0  501  0.00000000000E+00  0.00000000000E+00  0.69340750271E+03  0.69340750271E+03  0.25500000920E-02 0. -1.
        2   -1    0    0  501    0  0.00000000000E+00  0.00000000000E+00 -0.82173612587E+03  0.82173612588E+03  0.25500000920E-02 0.  1.
    10030    2    1    2    0    0  0.00000000000E+00  0.00000000000E+00 -0.12832862316E+03  0.15151436286E+04  0.15096993011E+04 0.  0.
        5    1    3    3  502    0 -0.22000236649E+02 -0.68199971423E+03  0.25975072239E+03  0.73013707508E+03  0.46999998093E+01 0. -1.
       -5    1    3    3    0  502  0.22000236649E+02  0.68199971423E+03 -0.38807934555E+03  0.78500655351E+03  0.46999998093E+01 0.  1.
</event>
<event>
 5   0  0.1580078E-05  0.1500499E+04  0.7818609E-02  0.8884121E-01
       -1   -1    0    0    0  501  0.00000000000E+00  0.00000000000E+00  0.38116128517E+03  0.38116128520E+03  0.50400001928E-02 0.  1.
        1   -1    0    0  501    0  0.00000000000E+00  0.00000000000E+00 -0.14767358657E+04  0.14767358657E+04  0.50400001928E-02 0. -1.
    10030    2    1    2    0    0  0.00000000000E+00  0.00000000000E+00 -0.10955745805E+04  0.18578971509E+04  0.15004993042E+04 0.  0.
        2    1    3    3  502    0  0.60817482348E+03 -0.23160802169E+03 -0.10100066793E+04  0.12015125400E+04  0.25500000920E-02 0. -1.
       -2    1    3    3    0  502 -0.60817482348E+03  0.23160802169E+03 -0.85567901200E+02  0.65638461084E+03  0.25500000920E-02 0.  1.
</event>
<event>
 5   0  0.3093600E-05  0.1500583E+04  0.7818609E-02  0.8884065E-01
       -2   -1    0    0    0  501  0.00000000000E+00  0.00000000000E+00  0.49972567866E+03  0.49972567867E+03  0.25500000920E-02 0.  1.
        2   -1    0    0  501    0  0.00000000000E+00  0.00000000000E+00 -0.11264933820E+04  0.11264933820E+04  0.25500000920E-02 0. -1.
    10030    2    1    2    0    0  0.00000000000E+00  0.00000000000E+00 -0.62676770338E+03  0.16262190607E+04  0.15005834463E+04 0.  0.
        1    1    3    3  502    0 -0.57666835726E+03  0.28219906537E+03 -0.73416347952E+03  0.97528391838E+03  0.50400001928E-02 0. -1.
       -1    1    3    3    0  502  0.57666835726E+03 -0.28219906537E+03  0.10739577615E+03  0.65093514233E+03  0.50400001928E-02 0.  1.
</event>
<event>
 5   0  0.1580078E-05  0.1500523E+04  0.7818609E-02  0.8884105E-01
        1   -1    0    0  501    0  0.00000000000E+00  0.00000000000E+00  0.13967063635E+04  0.13967063635E+04  0.50400001928E-02 0.  1.
       -1   -1    0    0    0  501  0.00000000000E+00  0.00000000000E+00 -0.40301389113E+03  0.40301389116E+03  0.50400001928E-02 0. -1.
    10030    2    1    2    0    0  0.00000000000E+00  0.00000000000E+00  0.99369247239E+03  0.17997202547E+04  0.15005226641E+04 0.  0.
        2    1    3    3  502    0  0.56327975381E+03 -0.38882943977E+03  0.12829858915E+03  0.69637126755E+03  0.25500000920E-02 0. -1.
       -2    1    3    3    0  502 -0.56327975381E+03  0.38882943977E+03  0.86539388324E+03  0.11033489871E+04  0.25500000920E-02 0.  1.
</event>
<event>
 5   0  0.3070497E-05  0.1499964E+04  0.7818609E-02  0.8884477E-01
       -2   -1    0    0    0  501  0.00000000000E+00  0.00000000000E+00  0.75809521890E+03  0.75809521890E+03  0.25500000920E-02 0. -1.
        2   -1    0    0  501    0  0.00000000000E+00  0.00000000000E+00 -0.74195578736E+03  0.74195578737E+03  0.25500000920E-02 0.  1.
    10030    2    1    2    0    0  0.00000000000E+00  0.00000000000E+00  0.16139431537E+02  0.15000510063E+04  0.14999641796E+04 0.  0.
        4    1    3    3  502    0 -0.22052401211E+03  0.86561828983E+02 -0.70355262395E+03  0.74236897680E+03  0.12699999809E+01 0.  1.
       -4    1    3    3    0  502  0.22052401211E+03 -0.86561828983E+02  0.71969205549E+03  0.75768202947E+03  0.12699999809E+01 0. -1.
</event>
<event>
 5   0  0.1643498E-05  0.1500064E+04  0.7818609E-02  0.8884410E-01
        1   -1    0    0  501    0  0.00000000000E+00  0.00000000000E+00  0.14863418765E+04  0.14863418765E+04  0.50400001928E-02 0.  1.
       -1   -1    0    0    0  501  0.00000000000E+00  0.00000000000E+00 -0.37847833124E+03  0.37847833128E+03  0.50400001928E-02 0. -1.
    10030    2    1    2    0    0  0.00000000000E+00  0.00000000000E+00  0.11078635452E+04  0.18648202077E+04  0.15000642561E+04 0.  0.
        4    1    3    3  502    0  0.26051280204E+02  0.42207602765E+03  0.13240088100E+04  0.13899020772E+04  0.12699999809E+01 0.  1.
       -4    1    3    3    0  502 -0.26051280204E+02 -0.42207602765E+03 -0.21614526480E+03  0.47491813054E+03  0.12699999809E+01 0. -1.
</event>
<event>
 5   0  0.1580078E-05  0.1497051E+04  0.7818609E-02  0.8886416E-01
       -1   -1    0    0    0  501  0.00000000000E+00  0.00000000000E+00  0.51593151717E+03  0.51593151719E+03  0.50400001928E-02 0. -1.
        1   -1    0    0  501    0  0.00000000000E+00  0.00000000000E+00 -0.10859782618E+04  0.10859782618E+04  0.50400001928E-02 0.  1.
    10030    2    1    2    0    0  0.00000000000E+00  0.00000000000E+00 -0.57004674463E+03  0.16019097790E+04  0.14970509841E+04 0.  0.
        2    1    3    3  502    0  0.13773230394E+03  0.66564908163E+03 -0.62039545221E+03  0.92029854100E+03  0.25500000920E-02 0.  1.
       -2    1    3    3    0  502 -0.13773230394E+03 -0.66564908163E+03  0.50348707581E+02  0.68161123801E+03  0.25500000920E-02 0. -1.
</event>
<event>
 5   0  0.1533777E-05  0.1499409E+04  0.7818609E-02  0.8884846E-01
       -1   -1    0    0    0  501  0.00000000000E+00  0.00000000000E+00  0.41410096664E+03  0.41410096667E+03  0.50400001928E-02 0. -1.
        1   -1    0    0  501    0  0.00000000000E+00  0.00000000000E+00 -0.13572937143E+04  0.13572937143E+04  0.50400001928E-02 0.  1.
    10030    2    1    2    0    0  0.00000000000E+00  0.00000000000E+00 -0.94319274762E+03  0.17713946809E+04  0.14994087356E+04 0.  0.
        5    1    3    3  502    0  0.54688605631E+03  0.50828690566E+03 -0.55167557352E+03  0.92833612741E+03  0.46999998093E+01 0. -1.
       -5    1    3    3    0  502 -0.54688605631E+03 -0.50828690566E+03 -0.39151717410E+03  0.84305855352E+03  0.46999998093E+01 0.  1.
</event>
<event>
 5   0  0.1580078E-05  0.1493358E+04  0.7818609E-02  0.8888881E-01
        1   -1    0    0  501    0  0.00000000000E+00  0.00000000000E+00  0.10227279155E+04  0.10227279155E+04  0.50400001928E-02 0.  1.
       -1   -1    0    0    0  501  0.00000000000E+00  0.00000000000E+00 -0.54514000511E+03  0.54514000513E+03  0.50400001928E-02 0. -1.
    10030    2    1    2    0    0  0.00000000000E+00  0.00000000000E+00  0.47758791042E+03  0.15678679207E+04  0.14933584983E+04 0.  0.
        2    1    3    3  502    0 -0.88500773837E+02  0.33404674851E+03 -0.45612974016E+03  0.57225340281E+03  0.25500000920E-02 0. -1.
       -2    1    3    3    0  502  0.88500773837E+02 -0.33404674851E+03  0.93371765058E+03  0.99561451786E+03  0.25500000920E-02 0.  1.
</event>
<event>
 5   0  0.1588657E-05  0.1500446E+04  0.7818609E-02  0.8884156E-01
       -1   -1    0    0    0  501  0.00000000000E+00  0.00000000000E+00  0.23912695951E+03  0.23912695956E+03  0.50400001928E-02 0. -1.
        1   -1    0    0  501    0  0.00000000000E+00  0.00000000000E+00 -0.23537073662E+04  0.23537073662E+04  0.50400001928E-02 0.  1.
    10030    2    1    2    0    0  0.00000000000E+00  0.00000000000E+00 -0.21145804067E+04  0.25928343258E+04  0.15004464484E+04 0.  0.
        3    1    3    3  502    0 -0.41432794918E+03  0.34753071234E+03 -0.15872564737E+03  0.56359478956E+03  0.10100000352E+00 0. -1.
       -3    1    3    3    0  502  0.41432794918E+03 -0.34753071234E+03 -0.19558547593E+04  0.20292395362E+04  0.10100000352E+00 0.  1.
</event>
<event>
 5   0  0.1533777E-05  0.1499958E+04  0.7818609E-02  0.8884481E-01
       -1   -1    0    0    0  501  0.00000000000E+00  0.00000000000E+00  0.53881145068E+03  0.53881145070E+03  0.50400001928E-02 0. -1.
        1   -1    0    0  501    0  0.00000000000E+00  0.00000000000E+00 -0.10439065677E+04  0.10439065677E+04  0.50400001928E-02 0.  1.
    10030    2    1    2    0    0  0.00000000000E+00  0.00000000000E+00 -0.50509511703E+03  0.15827180184E+04  0.14999584156E+04 0.  0.
        5    1    3    3  502    0  0.33445609947E+03  0.55181270794E+03  0.15075637156E+03  0.66265203590E+03  0.46999998093E+01 0. -1.
       -5    1    3    3    0  502 -0.33445609947E+03 -0.55181270794E+03 -0.65585148860E+03  0.92006598253E+03  0.46999998093E+01 0.  1.
</event>
<event>
 5   0  0.1533777E-05  0.1500267E+04  0.7818609E-02  0.8884275E-01
       -1   -1    0    0    0  501  0.00000000000E+00  0.00000000000E+00  0.93728967303E+03  0.93728967305E+03  0.50400001928E-02 0. -1.
        1   -1    0    0  501    0  0.00000000000E+00  0.00000000000E+00 -0.60034846159E+03  0.60034846162E+03  0.50400001928E-02 0.  1.
    10030    2    1    2    0    0  0.00000000000E+00  0.00000000000E+00  0.33694121144E+03  0.15376381347E+04  0.15002671939E+04 0.  0.
        5    1    3    3  502    0 -0.17098349450E+03  0.69264385709E+03 -0.69006604167E+02  0.71678090765E+03  0.46999998093E+01 0.  1.
       -5    1    3    3    0  502  0.17098349450E+03 -0.69264385709E+03  0.40594781561E+03  0.82085722702E+03  0.46999998093E+01 0. -1.
</event>
<event>
 5   0  0.1533777E-05  0.1500350E+04  0.7818609E-02  0.8884220E-01
       -1   -1    0    0    0  501  0.00000000000E+00  0.00000000000E+00  0.38592747329E+03  0.38592747332E+03  0.50400001928E-02 0. -1.
        1   -1    0    0  501    0  0.00000000000E+00  0.00000000000E+00 -0.14582072093E+04  0.14582072093E+04  0.50400001928E-02 0.  1.
    10030    2    1    2    0    0  0.00000000000E+00  0.00000000000E+00 -0.10722797360E+04  0.18441346826E+04  0.15003495911E+04 0.  0.
        5    1    3    3  502    0 -0.70736342479E+03 -0.19434414579E+02 -0.23008873322E+03  0.74411264359E+03  0.46999998093E+01 0. -1.
       -5    1    3    3    0  502  0.70736342479E+03  0.19434414579E+02 -0.84219100276E+03  0.11000220390E+04  0.46999998093E+01 0.  1.
</event>
<event>
 5   0  0.3070497E-05  0.1499523E+04  0.7818609E-02  0.8884770E-01
        2   -1    0    0  501    0  0.00000000000E+00  0.00000000000E+00  0.71823890656E+03  0.71823890657E+03  0.25500000920E-02 0.  1.
       -2   -1    0    0    0  501  0.00000000000E+00  0.00000000000E+00 -0.78266809958E+03  0.78266809958E+03  0.25500000920E-02 0. -1.
    10030    2    1    2    0    0  0.00000000000E+00  0.00000000000E+00 -0.64429193017E+02  0.15009070062E+04  0.14995234977E+04 0.  0.
        4    1    3    3  502    0  0.22638973841E+03 -0.27151722110E+03 -0.69401079862E+03  0.77886232192E+03  0.12699999809E+01 0. -1.
       -4    1    3    3    0  502 -0.22638973841E+03  0.27151722110E+03  0.62958160560E+03  0.72204468423E+03  0.12699999809E+01 0.  1.
</event>
<event>
 5   0  0.1643498E-05  0.1500036E+04  0.7818609E-02  0.8884429E-01
        1   -1    0    0  501    0  0.00000000000E+00  0.00000000000E+00  0.88939078442E+03  0.88939078444E+03  0.50400001928E-02 0. -1.
       -1   -1    0    0    0  501  0.00000000000E+00  0.00000000000E+00 -0.63248569063E+03  0.63248569065E+03  0.50400001928E-02 0.  1.
    10030    2    1    2    0    0  0.00000000000E+00  0.00000000000E+00  0.25690509380E+03  0.15218764751E+04  0.15000359256E+04 0.  0.
        4    1    3    3  502    0  0.12943003145E+03 -0.19841178284E+03 -0.59353074763E+03  0.63906160101E+03  0.12699999809E+01 0.  1.
       -4    1    3    3    0  502 -0.12943003145E+03  0.19841178284E+03  0.85043584142E+03  0.88281487407E+03  0.12699999809E+01 0. -1.
</event>
<event>
 5   0  0.2969498E-05  0.1500906E+04  0.7818609E-02  0.8883851E-01
       -2   -1    0    0    0  501  0.00000000000E+00  0.00000000000E+00  0.12758796159E+04  0.12758796159E+04  0.25500000920E-02 0. -1.
        2   -1    0    0  501    0  0.00000000000E+00  0.00000000000E+00 -0.44140489139E+03  0.44140489140E+03  0.25500000920E-02 0.  1.
    10030    2    1    2    0    0  0.00000000000E+00  0.00000000000E+00  0.83447472454E+03  0.17172845073E+04  0.15009057310E+04 0.  0.
        3    1    3    3  502    0 -0.90691267439E+02 -0.62517614860E+02 -0.43210505979E+03  0.44592392967E+03  0.10100000352E+00 0.  1.
       -3    1    3    3    0  502  0.90691267439E+02  0.62517614860E+02  0.12665797843E+04  0.12713605777E+04  0.10100000352E+00 0. -1.
</event>
<event>
 5   0  0.3093600E-05  0.1499665E+04  0.7818609E-02  0.8884676E-01
        2   -1    0    0  501    0  0.00000000000E+00  0.00000000000E+00  0.66147616608E+03  0.66147616609E+03  0.25500000920E-02 0. -1.
       -2   -1    0    0    0  501  0.00000000000E+00  0.00000000000E+00 -0.84999120455E+03  0.84999120456E+03  0.25500000920E-02 0.  1.
    10030    2    1    2    0    0  0.00000000000E+00  0.00000000000E+00 -0.18851503847E+03  0.15114673706E+04  0.14996651936E+04 0.  0.
        1    1    3    3  502    0  0.27878634358E+03 -0.51341832962E+03  0.37947211086E+03  0.69664861265E+03  0.50400001928E-02 0. -1.
       -1    1    3    3    0  502 -0.27878634358E+03  0.51341832962E+03 -0.56798714933E+03  0.81481875800E+03  0.50400001928E-02 0.  1.
</event>
<event>
 5   0  0.1643498E-05  0.1500435E+04  0.7818609E-02  0.8884164E-01
        1   -1    0    0  501    0  0.00000000000E+00  0.00000000000E+00  0.98130227789E+03  0.98130227791E+03  0.50400001928E-02 0.  1.
       -1   -1    0    0    0  501  0.00000000000E+00  0.00000000000E+00 -0.57355038531E+03  0.57355038534E+03  0.50400001928E-02 0. -1.
    10030    2    1    2    0    0  0.00000000000E+00  0.00000000000E+00  0.40775189258E+03  0.15548526632E+04  0.15004350031E+04 0.  0.
        4    1    3    3  502    0  0.79683111239E+02 -0.17946914806E+03 -0.54644651678E+03  0.58065823160E+03  0.12699999809E+01 0. -1.
       -4    1    3    3    0  502 -0.79683111239E+02  0.17946914806E+03  0.95419840936E+03  0.97419443164E+03  0.12699999809E+01 0.  1.
</event>
<event>
 5   0  0.3093600E-05  0.1499442E+04  0.7818609E-02  0.8884824E-01
        2   -1    0    0  501    0  0.00000000000E+00  0.00000000000E+00  0.99177928786E+03  0.99177928787E+03  0.25500000920E-02 0.  1.
       -2   -1    0    0    0  501  0.00000000000E+00  0.00000000000E+00 -0.56674095323E+03  0.56674095324E+03  0.25500000920E-02 0. -1.
    10030    2    1    2    0    0  0.00000000000E+00  0.00000000000E+00  0.42503833463E+03  0.15585202411E+04  0.14994424817E+04 0.  0.
        1    1    3    3  502    0  0.52371846883E+01  0.43892385055E+03  0.84424886807E+03  0.95154491536E+03  0.50400001928E-02 0.  1.
       -1    1    3    3    0  502 -0.52371846883E+01 -0.43892385055E+03 -0.41921053344E+03  0.60697532574E+03  0.50400001928E-02 0. -1.
</event>
<event>
 5   0  0.2969498E-05  0.1500581E+04  0.7818609E-02  0.8884067E-01
        2   -1    0    0  501    0  0.00000000000E+00  0.00000000000E+00  0.84464518400E+03  0.84464518400E+03  0.25500000920E-02 0. -1.
       -2   -1    0    0    0  501  0.00000000000E+00  0.00000000000E+00 -0.66647573798E+03  0.66647573798E+03  0.25500000920E-02 0.  1.
    10030    2    1    2    0    0  0.00000000000E+00  0.00000000000E+00  0.17816944602E+03  0.15111209220E+04  0.15005805841E+04 0.  0.
        3    1    3    3  502    0 -0.46908484666E+03 -0.56867867410E+03  0.22970613670E+03  0.77214049705E+03  0.10100000352E+00 0.  1.
       -3    1    3    3    0  502  0.46908484666E+03  0.56867867410E+03 -0.51536690684E+02  0.73898042493E+03  0.10100000352E+00 0. -1.
</event>
<event>
 5   0  0.1580078E-05  0.1500702E+04  0.7818609E-02  0.8883986E-01
       -1   -1    0    0    0  501  0.00000000000E+00  0.00000000000E+00  0.12110744830E+04  0.12110744830E+04  0.50400001928E-02 0. -1.
        1   -1    0    0  501    0  0.00000000000E+00  0.00000000000E+00 -0.46489861362E+03  0.46489861365E+03  0.50400001928E-02 0.  1.
    10030    2    1    2    0    0  0.00000000000E+00  0.00000000000E+00  0.74617586935E+03  0.16759730966E+04  0.15007022998E+04 0.  0.
        2    1    3    3  502    0  0.70865260115E+03  0.15537779783E+03  0.58702317324E+03  0.93323468383E+03  0.25500000920E-02 0. -1.
       -2    1    3    3    0  502 -0.70865260115E+03 -0.15537779783E+03  0.15915269611E+03  0.74273841280E+03  0.25500000920E-02 0.  1.
</event>
<event>
 5   0  0.2969498E-05  0.1500610E+04  0.7818609E-02  0.8884047E-01
        2   -1    0    0  501    0  0.00000000000E+00  0.00000000000E+00  0.98381222990E+03  0.98381222991E+03  0.25500000920E-02 0.  1.
       -2   -1    0    0    0  501  0.00000000000E+00  0.00000000000E+00 -0.57222067500E+03  0.57222067501E+03  0.25500000920E-02 0. -1.
    10030    2    1    2    0    0  0.00000000000E+00  0.00000000000E+00  0.41159155490E+03  0.15560329049E+04  0.15006101403E+04 0.  0.
        3    1    3    3  502    0 -0.33008686094E+03  0.16586785556E+02 -0.49267359126E+03  0.59326194463E+03  0.10100000352E+00 0. -1.
       -3    1    3    3    0  502  0.33008686094E+03 -0.16586785556E+02  0.90426514616E+03  0.96277096029E+03  0.10100000352E+00 0.  1.
</event>
<event>
 5   0  0.1643498E-05  0.1494454E+04  0.7818609E-02  0.8888149E-01
       -1   -1    0    0    0  501  0.00000000000E+00  0.00000000000E+00  0.48751768107E+03  0.48751768110E+03  0.50400001928E-02 0. -1.
        1   -1    0    0  501    0  0.00000000000E+00  0.00000000000E+00 -0.11452883702E+04  0.11452883702E+04  0.50400001928E-02 0.  1.
    10030    2    1    2    0    0  0.00000000000E+00  0.00000000000E+00 -0.65777068911E+03  0.16328060513E+04  0.14944541886E+04 0.  0.
        4    1    3    3  502    0  0.35278937166E+03  0.50861510415E+03  0.12842959849E+03  0.63217516528E+03  0.12699999809E+01 0. -1.
       -4    1    3    3    0  502 -0.35278937166E+03 -0.50861510415E+03 -0.78620028760E+03  0.10006308860E+04  0.12699999809E+01 0.  1.
</event>
<event>
 5   0  0.1580078E-05  0.1499826E+04  0.7818609E-02  0.8884569E-01
       -1   -1    0    0    0  501  0.00000000000E+00  0.00000000000E+00  0.22651940533E+03  0.22651940539E+03  0.50400001928E-02 0.  1.
        1   -1    0    0  501    0  0.00000000000E+00  0.00000000000E+00 -0.24826537854E+04  0.24826537854E+04  0.50400001928E-02 0. -1.
    10030    2    1    2    0    0  0.00000000000E+00  0.00000000000E+00 -0.22561343800E+04  0.27091731908E+04  0.14998256688E+04 0.  0.
        2    1    3    3  502    0 -0.60872940819E+03  0.39853375686E+03 -0.14561458670E+04  0.16278026397E+04  0.25500000920E-02 0. -1.
       -2    1    3    3    0  502  0.60872940819E+03 -0.39853375686E+03 -0.79998851301E+03  0.10813705511E+04  0.25500000920E-02 0.  1.
</event>
<event>
 5   0  0.1576214E-05  0.1499790E+04  0.7818609E-02  0.8884593E-01
       -1   -1    0    0    0  501  0.00000000000E+00  0.00000000000E+00  0.65932801527E+03  0.65932801529E+03  0.50400001928E-02 0. -1.
        1   -1    0    0  501    0  0.00000000000E+00  0.00000000000E+00 -0.85290193858E+03  0.85290193860E+03  0.50400001928E-02 0.  1.
    10030    2    1    2    0    0  0.00000000000E+00  0.00000000000E+00 -0.19357392332E+03  0.15122299539E+04  0.14997895084E+04 0.  0.
        1    1    3    3  502    0  0.44501828202E+03 -0.24911009929E+03 -0.65111533520E+03  0.82707212059E+03  0.50400001928E-02 0.  1.
       -1    1    3    3    0  502 -0.44501828202E+03  0.24911009929E+03  0.45754141189E+03  0.68515783329E+03  0.50400001928E-02 0. -1.
</event>
<event>
 5   0  0.3093600E-05  0.1499256E+04  0.7818609E-02  0.8884948E-01
       -2   -1    0    0    0  501  0.00000000000E+00  0.00000000000E+00  0.44538825640E+03  0.44538825641E+03  0.25500000920E-02 0.  1.
        2   -1    0    0  501    0  0.00000000000E+00  0.00000000000E+00 -0.12616905634E+04  0.12616905634E+04  0.25500000920E-02 0. -1.
    10030    2    1    2    0    0  0.00000000000E+00  0.00000000000E+00 -0.81630230700E+03  0.17070788198E+04  0.14992560291E+04 0.  0.
        1    1    3    3  502    0  0.14564348692E+03  0.54391280414E+03 -0.97161026441E+03  0.11229780362E+04  0.50400001928E-02 0. -1.
       -1    1    3    3    0  502 -0.14564348692E+03 -0.54391280414E+03  0.15530795741E+03  0.58410078364E+03  0.50400001928E-02 0.  1.
</event>
<event>
 5   0  0.1576214E-05  0.1497580E+04  0.7818609E-02  0.8886064E-01
       -1   -1    0    0    0  501  0.00000000000E+00  0.00000000000E+00  0.61577330056E+03  0.61577330058E+03  0.50400001928E-02 0.  1.
        1   -1    0    0  501    0  0.00000000000E+00  0.00000000000E+00 -0.91054072762E+03  0.91054072763E+03  0.50400001928E-02 0. -1.
    10030    2    1    2    0    0  0.00000000000E+00  0.00000000000E+00 -0.29476742705E+03  0.15263140282E+04  0.14975802739E+04 0.  0.
        1    1    3    3  502    0  0.30813658982E+03 -0.34868267612E+02  0.54725224745E+03  0.62900634054E+03  0.50400001928E-02 0.  1.
       -1    1    3    3    0  502 -0.30813658982E+03  0.34868267612E+02 -0.84201967451E+03  0.89730768767E+03  0.50400001928E-02 0. -1.
</event>
<event>
 5   0  0.1643498E-05  0.1498665E+04  0.7818609E-02  0.8885341E-01
        1   -1    0    0  501    0  0.00000000000E+00  0.00000000000E+00  0.44973717402E+03  0.44973717405E+03  0.50400001928E-02 0.  1.
       -1   -1    0    0    0  501  0.00000000000E+00  0.00000000000E+00 -0.12485059262E+04  0.12485059262E+04  0.50400001928E-02 0. -1.
    10030    2    1    2    0    0  0.00000000000E+00  0.00000000000E+00 -0.79876875218E+03  0.16982431003E+04  0.14986654424E+04 0.  0.
        4    1    3    3  502    0  0.38115773220E+03 -0.23363675016E+03 -0.10808245467E+04  0.11696369785E+04  0.12699999809E+01 0. -1.
       -4    1    3    3    0  502 -0.38115773220E+03  0.23363675016E+03  0.28205579452E+03  0.52860612176E+03  0.12699999809E+01 0.  1.
</event>
<event>
 5   0  0.3018308E-05  0.1499732E+04  0.7818609E-02  0.8884631E-01
       -2   -1    0    0    0  501  0.00000000000E+00  0.00000000000E+00  0.79773298838E+03  0.79773298839E+03  0.25500000920E-02 0.  1.
        2   -1    0    0  501    0  0.00000000000E+00  0.00000000000E+00 -0.70487137832E+03  0.70487137833E+03  0.25500000920E-02 0. -1.
    10030    2    1    2    0    0  0.00000000000E+00  0.00000000000E+00  0.92861610059E+02  0.15026043667E+04  0.14997321775E+04 0.  0.
        2    1    3    3  502    0 -0.12484037436E+01 -0.21161343593E+03  0.76719531255E+03  0.79584574660E+03  0.25500000920E-02 0.  1.
       -2    1    3    3    0  502  0.12484037436E+01  0.21161343593E+03 -0.67433370249E+03  0.70675862011E+03  0.25500000920E-02 0. -1.
</event>
<event>
 5   0  0.3018308E-05  0.1500971E+04  0.7818609E-02  0.8883808E-01
       -2   -1    0    0    0  501  0.00000000000E+00  0.00000000000E+00  0.51914935464E+03  0.51914935465E+03  0.25500000920E-02 0. -1.
        2   -1    0    0  501    0  0.00000000000E+00  0.00000000000E+00 -0.10849061962E+04  0.10849061962E+04  0.25500000920E-02 0.  1.
    10030    2    1    2    0    0  0.00000000000E+00  0.00000000000E+00 -0.56575684159E+03  0.16040555509E+04  0.15009708213E+04 0.  0.
        2    1    3    3  502    0 -0.30984054364E+03 -0.28495004206E+03  0.38110625442E+03  0.56783771107E+03  0.25500000920E-02 0. -1.
       -2    1    3    3    0  502  0.30984054364E+03  0.28495004206E+03 -0.94686309601E+03  0.10362178398E+04  0.25500000920E-02 0.  1.
</event>
<event>
 5   0  0.1116613E-05  0.1499978E+04  0.7818609E-02  0.8884467E-01
        4   -1    0    0  501    0  0.00000000000E+00  0.00000000000E+00  0.16766355534E+04  0.16766360343E+04  0.12699999809E+01 0.  1.
       -4   -1    0    0    0  501  0.00000000000E+00  0.00000000000E+00 -0.33548190951E+03  0.33548431336E+03  0.12699999809E+01 0. -1.
    10030    2    1    2    0    0  0.00000000000E+00  0.00000000000E+00  0.13411536438E+04  0.20121203477E+04  0.14999783989E+04 0.  0.
        1    1    3    3  502    0 -0.61630305871E+03 -0.25700911726E+03  0.11286337318E+04  0.13113722763E+04  0.50400001928E-02 0.  1.
       -1    1    3    3    0  502  0.61630305871E+03  0.25700911726E+03  0.21251991207E+03  0.70074807141E+03  0.50400001928E-02 0. -1.
</event>
<event>
 5   0  0.3093600E-05  0.1500173E+04  0.7818609E-02  0.8884338E-01
       -2   -1    0    0    0  501  0.00000000000E+00  0.00000000000E+00  0.92233944435E+03  0.92233944435E+03  0.25500000920E-02 0.  1.
        2   -1    0    0  501    0  0.00000000000E+00  0.00000000000E+00 -0.61000307338E+03  0.61000307338E+03  0.25500000920E-02 0. -1.
    10030    2    1    2    0    0  0.00000000000E+00  0.00000000000E+00  0.31233637097E+03  0.15323425177E+04  0.15001731843E+04 0.  0.
        1    1    3    3  502    0 -0.97624496837E+02  0.73877891691E+03  0.68865720817E+02  0.74837645472E+03  0.50400001928E-02 0.  1.
       -1    1    3    3    0  502  0.97624496837E+02 -0.73877891691E+03  0.24347065016E+03  0.78396606302E+03  0.50400001928E-02 0. -1.
</event>
<event>
 5   0  0.1588657E-05  0.1499889E+04  0.7818609E-02  0.8884527E-01
       -1   -1    0    0    0  501  0.00000000000E+00  0.00000000000E+00  0.10409380154E+04  0.10409380154E+04  0.50400001928E-02 0. -1.
        1   -1    0    0  501    0  0.00000000000E+00  0.00000000000E+00 -0.54029810454E+03  0.54029810456E+03  0.50400001928E-02 0.  1.
    10030    2    1    2    0    0  0.00000000000E+00  0.00000000000E+00  0.50063991089E+03  0.15812361200E+04  0.14998891115E+04 0.  0.
        3    1    3    3  502    0 -0.41723737705E+03  0.59400531345E+03  0.44891810001E+03  0.85349681425E+03  0.10100000352E+00 0. -1.
       -3    1    3    3    0  502  0.41723737705E+03 -0.59400531345E+03  0.51721810882E+02  0.72773930575E+03  0.10100000352E+00 0.  1.
</event>
<event>
 5   0  0.3070497E-05  0.1499156E+04  0.7818609E-02  0.8885014E-01
        2   -1    0    0  501    0  0.00000000000E+00  0.00000000000E+00  0.77590989717E+03  0.77590989717E+03  0.25500000920E-02 0.  1.
       -2   -1    0    0    0  501  0.00000000000E+00  0.00000000000E+00 -0.72413961658E+03  0.72413961658E+03  0.25500000920E-02 0. -1.
    10030    2    1    2    0    0  0.00000000000E+00  0.00000000000E+00  0.51770280591E+02  0.15000495138E+04  0.14991558897E+04 0.  0.
        4    1    3    3  502    0  0.87342203924E+01 -0.65883318253E+03  0.38348876498E+03  0.76236650948E+03  0.12699999809E+01 0.  1.
       -4    1    3    3    0  502 -0.87342203924E+01  0.65883318253E+03 -0.33171848439E+03  0.73768300427E+03  0.12699999809E+01 0. -1.
</event>
<event>
 5   0  0.3030702E-05  0.1499661E+04  0.7818609E-02  0.8884678E-01
       -2   -1    0    0    0  501  0.00000000000E+00  0.00000000000E+00  0.30480567110E+03  0.30480567112E+03  0.25500000920E-02 0. -1.
        2   -1    0    0  501    0  0.00000000000E+00  0.00000000000E+00 -0.18446039590E+04  0.18446039590E+04  0.25500000920E-02 0.  1.
    10030    2    1    2    0    0  0.00000000000E+00  0.00000000000E+00 -0.15397982879E+04  0.21494096301E+04  0.14996609586E+04 0.  0.
        5    1    3    3  502    0 -0.40407752902E+03 -0.22426144855E+03  0.76396426118E+02  0.46843393417E+03  0.46999998093E+01 0. -1.
       -5    1    3    3    0  502  0.40407752902E+03  0.22426144855E+03 -0.16161947140E+04  0.16809756960E+04  0.46999998093E+01 0.  1.
</event>
<event>
 5   0  0.2969498E-05  0.1500335E+04  0.7818609E-02  0.8884230E-01
       -2   -1    0    0    0  501  0.00000000000E+00  0.00000000000E+00  0.31206437774E+03  0.31206437775E+03  0.25500000920E-02 0. -1.
        2   -1    0    0  501    0  0.00000000000E+00  0.00000000000E+00 -0.18033170736E+04  0.18033170736E+04  0.25500000920E-02 0.  1.
    10030    2    1    2    0    0  0.00000000000E+00  0.00000000000E+00 -0.14912526958E+04  0.21153814513E+04  0.15003346566E+04 0.  0.
        3    1    3    3  502    0 -0.63720776795E+03 -0.15044609199E+03 -0.22934337141E+03  0.69373349230E+03  0.10100000352E+00 0.  1.
       -3    1    3    3    0  502  0.63720776795E+03  0.15044609199E+03 -0.12619093244E+04  0.14216479590E+04  0.10100000352E+00 0. -1.
</event>
<event>
 5   0  0.1576214E-05  0.1499697E+04  0.7818609E-02  0.8884655E-01
        1   -1    0    0  501    0  0.00000000000E+00  0.00000000000E+00  0.10265100453E+04  0.10265100453E+04  0.50400001928E-02 0.  1.
       -1   -1    0    0    0  501  0.00000000000E+00  0.00000000000E+00 -0.54775151304E+03  0.54775151306E+03  0.50400001928E-02 0. -1.
    10030    2    1    2    0    0  0.00000000000E+00  0.00000000000E+00  0.47875853227E+03  0.15742615584E+04  0.14996965433E+04 0.  0.
        1    1    3    3  502    0  0.30687849870E+03  0.54732168030E+03  0.67032354979E+03  0.91818794161E+03  0.50400001928E-02 0.  1.
       -1    1    3    3    0  502 -0.30687849870E+03 -0.54732168030E+03 -0.19156501751E+03  0.65607361679E+03  0.50400001928E-02 0. -1.
</event>
<event>
 5   0  0.1580078E-05  0.1501415E+04  0.7818609E-02  0.8883513E-01
       -1   -1    0    0    0  501  0.00000000000E+00  0.00000000000E+00  0.53314075351E+03  0.53314075353E+03  0.50400001928E-02 0.  1.
        1   -1    0    0  501    0  0.00000000000E+00  0.00000000000E+00 -0.10570592823E+04  0.10570592823E+04  0.50400001928E-02 0. -1.
    10030    2    1    2    0    0  0.00000000000E+00  0.00000000000E+00 -0.52391852876E+03  0.15902000358E+04  0.15014145094E+04 0.  0.
        2    1    3    3  502    0  0.49733107291E+03  0.51062255140E+03 -0.12471133994E+02  0.71290189737E+03  0.25500000920E-02 0.  1.
       -2    1    3    3    0  502 -0.49733107291E+03 -0.51062255140E+03 -0.51144739476E+03  0.87729813844E+03  0.25500000920E-02 0. -1.
</event>
<event>
 5   0  0.1580078E-05  0.1499528E+04  0.7818609E-02  0.8884767E-01
       -1   -1    0    0    0  501  0.00000000000E+00  0.00000000000E+00  0.12510549208E+04  0.12510549208E+04  0.50400001928E-02 0. -1.
        1   -1    0    0  501    0  0.00000000000E+00  0.00000000000E+00 -0.44933757431E+03  0.44933757434E+03  0.50400001928E-02 0.  1.
    10030    2    1    2    0    0  0.00000000000E+00  0.00000000000E+00  0.80171734652E+03  0.17003924952E+04  0.14995279037E+04 0.  0.
        2    1    3    3  502    0  0.61036364030E+03  0.15355239857E+03  0.86289901418E+03  0.10680434547E+04  0.25500000920E-02 0. -1.
       -2    1    3    3    0  502 -0.61036364030E+03 -0.15355239857E+03 -0.61181667660E+02  0.63234904046E+03  0.25500000920E-02 0.  1.
</event>
<event>
 5   0  0.3018308E-05  0.1499510E+04  0.7818609E-02  0.8884779E-01
       -2   -1    0    0    0  501  0.00000000000E+00  0.00000000000E+00  0.51627979340E+03  0.51627979341E+03  0.25500000920E-02 0. -1.
        2   -1    0    0  501    0  0.00000000000E+00  0.00000000000E+00 -0.10888143896E+04  0.10888143896E+04  0.25500000920E-02 0.  1.
    10030    2    1    2    0    0  0.00000000000E+00  0.00000000000E+00 -0.57253459620E+03  0.16050941830E+04  0.14995104109E+04 0.  0.
        2    1    3    3  502    0  0.35530565628E+03 -0.30622151565E+03 -0.91236155868E+03  0.10258739395E+04  0.25500000920E-02 0.  1.
       -2    1    3    3    0  502 -0.35530565628E+03  0.30622151565E+03  0.33982696248E+03  0.57922024349E+03  0.25500000920E-02 0. -1.
</event>
<event>
 5   0  0.3070497E-05  0.1500203E+04  0.7818609E-02  0.8884318E-01
        2   -1    0    0  501    0  0.00000000000E+00  0.00000000000E+00  0.62756709040E+03  0.62756709041E+03  0.25500000920E-02 0. -1.
       -2   -1    0    0    0  501  0.00000000000E+00  0.00000000000E+00 -0.89656093605E+03  0.89656093605E+03  0.25500000920E-02 0.  1.
    10030    2    1    2    0    0  0.00000000000E+00  0.00000000000E+00 -0.26899384565E+03  0.15241280265E+04  0.15002028370E+04 0.  0.
        4    1    3    3  502    0  0.21023793499E+02  0.71594070372E+03  0.91850799133E+02  0.72211583097E+03  0.12699999809E+01 0.  1.
       -4    1    3    3    0  502 -0.21023793499E+02 -0.71594070372E+03 -0.36084464478E+03  0.80201219548E+03  0.12699999809E+01 0. -1.
</event>
<event>
 5   0  0.3030702E-05  0.1501504E+04  0.7818609E-02  0.8883453E-01
       -2   -1    0    0    0  501  0.00000000000E+00  0.00000000000E+00  0.61432550668E+03  0.61432550668E+03  0.25500000920E-02 0. -1.
        2   -1    0    0  501    0  0.00000000000E+00  0.00000000000E+00 -0.91747583598E+03  0.91747583598E+03  0.25500000920E-02 0.  1.
    10030    2    1    2    0    0  0.00000000000E+00  0.00000000000E+00 -0.30315032930E+03  0.15318013427E+04  0.15015043228E+04 0.  0.
        5    1    3    3  502    0  0.42595554656E+03  0.34591617561E+03 -0.67427128032E+03  0.86934456786E+03  0.46999998093E+01 0.  1.
       -5    1    3    3    0  502 -0.42595554656E+03 -0.34591617561E+03  0.37112095103E+03  0.66245677481E+03  0.46999998093E+01 0. -1.
</event>
<event>
 5   0  0.1576214E-05  0.1500217E+04  0.7818609E-02  0.8884309E-01
       -1   -1    0    0    0  501  0.00000000000E+00  0.00000000000E+00  0.17653235260E+04  0.17653235260E+04  0.50400001928E-02 0. -1.
        1   -1    0    0  501    0  0.00000000000E+00  0.00000000000E+00 -0.31873063734E+03  0.31873063738E+03  0.50400001928E-02 0.  1.
    10030    2    1    2    0    0  0.00000000000E+00  0.00000000000E+00  0.14465928886E+04  0.20840541634E+04  0.15002169078E+04 0.  0.
        1    1    3    3  502    0 -0.21724289854E+03  0.30687660747E+03 -0.17837450950E+03  0.41615525329E+03  0.50400001928E-02 0.  1.
       -1    1    3    3    0  502  0.21724289854E+03 -0.30687660747E+03  0.16249673981E+04  0.16678989101E+04  0.50400001928E-02 0. -1.
</event>
<event>
 5   0  0.1643498E-05  0.1499968E+04  0.7818609E-02  0.8884474E-01
        1   -1    0    0  501    0  0.00000000000E+00  0.00000000000E+00  0.14798808747E+04  0.14798808747E+04  0.50400001928E-02 0.  1.
       -1   -1    0    0    0  501  0.00000000000E+00  0.00000000000E+00 -0.38008212924E+03  0.38008212928E+03  0.50400001928E-02 0. -1.
    10030    2    1    2    0    0  0.00000000000E+00  0.00000000000E+00  0.10997987454E+04  0.18599630039E+04  0.14999683649E+04 0.  0.
        4    1    3    3  502    0 -0.13245391285E+03 -0.59686852766E+03  0.10885206542E+04  0.12484690248E+04  0.12699999809E+01 0.  1.
       -4    1    3    3    0  502  0.13245391285E+03  0.59686852766E+03  0.11278091247E+02  0.61149397918E+03  0.12699999809E+01 0. -1.
</event>
<event>
 5   0  0.3018308E-05  0.1499685E+04  0.7818609E-02  0.8884662E-01
        2   -1    0    0  501    0  0.00000000000E+00  0.00000000000E+00  0.85854341615E+03  0.85854341615E+03  0.25500000920E-02 0.  1.
       -2   -1    0    0    0  501  0.00000000000E+00  0.00000000000E+00 -0.65490467206E+03  0.65490467207E+03  0.25500000920E-02 0. -1.
    10030    2    1    2    0    0  0.00000000000E+00  0.00000000000E+00  0.20363874409E+03  0.15134480882E+04  0.14996854262E+04 0.  0.
        2    1    3    3  502    0  0.16636213317E+03  0.70488576295E+03  0.29782793890E+03  0.78309755418E+03  0.25500000920E-02 0.  1.
       -2    1    3    3    0  502 -0.16636213317E+03 -0.70488576295E+03 -0.94189194815E+02  0.73035053405E+03  0.25500000920E-02 0. -1.
</event>
<event>
 5   0  0.3093600E-05  0.1501074E+04  0.7818609E-02  0.8883739E-01
        2   -1    0    0  501    0  0.00000000000E+00  0.00000000000E+00  0.89688197747E+03  0.89688197747E+03  0.25500000920E-02 0. -1.
       -2   -1    0    0    0  501  0.00000000000E+00  0.00000000000E+00 -0.62807106093E+03  0.62807106093E+03  0.25500000920E-02 0.  1.
    10030    2    1    2    0    0  0.00000000000E+00  0.00000000000E+00  0.26881091654E+03  0.15249530384E+04  0.15010737692E+04 0.  0.
        1    1    3    3  502    0 -0.24668651665E+03 -0.19388138898E+03  0.82705917582E+03  0.88457397137E+03  0.50400001928E-02 0. -1.
       -1    1    3    3    0  502  0.24668651665E+03  0.19388138898E+03 -0.55824825928E+03  0.64037906704E+03  0.50400001928E-02 0.  1.
</event>
<event>
 5   0  0.3093600E-05  0.1499456E+04  0.7818609E-02  0.8884815E-01
       -2   -1    0    0    0  501  0.00000000000E+00  0.00000000000E+00  0.54276176683E+03  0.54276176684E+03  0.25500000920E-02 0.  1.
        2   -1    0    0  501    0  0.00000000000E+00  0.00000000000E+00 -0.10356147892E+04  0.10356147892E+04  0.25500000920E-02 0. -1.
    10030    2    1    2    0    0  0.00000000000E+00  0.00000000000E+00 -0.49285302235E+03  0.15783765560E+04  0.14994560517E+04 0.  0.
        1    1    3    3  502    0  0.59476973957E+03 -0.96293657147E+02  0.22322774529E+03  0.64253726569E+03  0.50400001928E-02 0.  1.
       -1    1    3    3    0  502 -0.59476973957E+03  0.96293657147E+02 -0.71608076764E+03  0.93583929033E+03  0.50400001928E-02 0. -1.
</event>
<event>
 5   0  0.1580078E-05  0.1501517E+04  0.7818609E-02  0.8883445E-01
        1   -1    0    0  501    0  0.00000000000E+00  0.00000000000E+00  0.12503038114E+04  0.12503038115E+04  0.50400001928E-02 0. -1.
       -1   -1    0    0    0  501  0.00000000000E+00  0.00000000000E+00 -0.45080120222E+03  0.45080120225E+03  0.50400001928E-02 0.  1.
    10030    2    1    2    0    0  0.00000000000E+00  0.00000000000E+00  0.79950260922E+03  0.17011050137E+04  0.15015171812E+04 0.  0.
        2    1    3    3  502    0  0.17416052133E+03  0.34933788995E+03  0.11262990003E+04  0.11920227710E+04  0.25500000920E-02 0. -1.
       -2    1    3    3    0  502 -0.17416052133E+03 -0.34933788995E+03 -0.32679639110E+03  0.50908224266E+03  0.25500000920E-02 0.  1.
</event>
<event>
 5   0  0.3030702E-05  0.1500181E+04  0.7818609E-02  0.8884333E-01
        2   -1    0    0  501    0  0.00000000000E+00  0.00000000000E+00  0.10283721499E+04  0.10283721499E+04  0.25500000920E-02 0.  1.
       -2   -1    0    0    0  501  0.00000000000E+00  0.00000000000E+00 -0.54711300323E+03  0.54711300324E+03  0.25500000920E-02 0. -1.
    10030    2    1    2    0    0  0.00000000000E+00  0.00000000000E+00  0.48125914669E+03  0.15754851532E+04  0.15001810229E+04 0.  0.
        5    1    3    3  502    0  0.43781047400E+03  0.18661556642E+03 -0.36822218025E+03  0.60175829434E+03  0.46999998093E+01 0. -1.
       -5    1    3    3    0  502 -0.43781047400E+03 -0.18661556642E+03  0.84948132694E+03  0.97372685882E+03  0.46999998093E+01 0.  1.
</event>
<event>
 5   0  0.1643498E-05  0.1499705E+04  0.7818609E-02  0.8884649E-01
       -1   -1    0    0    0  501  0.00000000000E+00  0.00000000000E+00  0.52965818515E+03  0.52965818518E+03  0.50400001928E-02 0. -1.
        1   -1    0    0  501    0  0.00000000000E+00  0.00000000000E+00 -0.10615880501E+04  0.10615880501E+04  0.50400001928E-02 0.  1.
    10030    2    1    2    0    0  0.00000000000E+00  0.00000000000E+00 -0.53192986490E+03  0.15912462352E+04  0.14997050377E+04 0.  0.
        4    1    3    3  502    0 -0.67659593414E+03  0.32303065089E+03 -0.25312996894E+03  0.79133258090E+03  0.12699999809E+01 0.  1.
       -4    1    3    3    0  502  0.67659593414E+03 -0.32303065089E+03 -0.27879989596E+03  0.79991365434E+03  0.12699999809E+01 0. -1.
</event>
<event>
 5   0  0.1576214E-05  0.1502899E+04  0.7818609E-02  0.8882528E-01
       -1   -1    0    0    0  501  0.00000000000E+00  0.00000000000E+00  0.89086210902E+03  0.89086210904E+03  0.50400001928E-02 0.  1.
        1   -1    0    0  501    0  0.00000000000E+00  0.00000000000E+00 -0.63385366525E+03  0.63385366527E+03  0.50400001928E-02 0. -1.
    10030    2    1    2    0    0  0.00000000000E+00  0.00000000000E+00  0.25700844377E+03  0.15247157743E+04  0.15028988164E+04 0.  0.
        1    1    3    3  502    0  0.54344653741E+03  0.31683615324E+03  0.54551487590E+03  0.83264984650E+03  0.50400001928E-02 0.  1.
       -1    1    3    3    0  502 -0.54344653741E+03 -0.31683615324E+03 -0.28850643213E+03  0.69206592781E+03  0.50400001928E-02 0. -1.
</event>
<event>
 5   0  0.1576214E-05  0.1498296E+04  0.7818609E-02  0.8885587E-01
        1   -1    0    0  501    0  0.00000000000E+00  0.00000000000E+00  0.83690270567E+03  0.83690270569E+03  0.50400001928E-02 0.  1.
       -1   -1    0    0    0  501  0.00000000000E+00  0.00000000000E+00 -0.67059511645E+03  0.67059511647E+03  0.50400001928E-02 0. -1.
    10030    2    1    2    0    0  0.00000000000E+00  0.00000000000E+00  0.16630758922E+03  0.15074978222E+04  0.14982961889E+04 0.  0.
        1    1    3    3  502    0 -0.19104413703E+03 -0.61687320235E+02  0.80933399071E+03  0.83386131720E+03  0.50400001928E-02 0.  1.
       -1    1    3    3    0  502  0.19104413703E+03  0.61687320235E+02 -0.64302640149E+03  0.67363650496E+03  0.50400001928E-02 0. -1.
</event>
<event>
 5   0  0.1580078E-05  0.1500045E+04  0.7818609E-02  0.8884423E-01
        1   -1    0    0  501    0  0.00000000000E+00  0.00000000000E+00  0.11742299726E+04  0.11742299726E+04  0.50400001928E-02 0. -1.
       -1   -1    0    0    0  501  0.00000000000E+00  0.00000000000E+00 -0.47906585645E+03  0.47906585647E+03  0.50400001928E-02 0.  1.
    10030    2    1    2    0    0  0.00000000000E+00  0.00000000000E+00  0.69516411616E+03  0.16532958291E+04  0.15000446494E+04 0.  0.
        2    1    3    3  502    0  0.39732754983E+03  0.25696182184E+03 -0.29379328381E+03  0.55696773098E+03  0.25500000920E-02 0.  1.
       -2    1    3    3    0  502 -0.39732754983E+03 -0.25696182184E+03  0.98895739997E+03  0.10963280981E+04  0.25500000920E-02 0. -1.
</event>
<event>
 5   0  0.1588657E-05  0.1499438E+04  0.7818609E-02  0.8884827E-01
        1   -1    0    0  501    0  0.00000000000E+00  0.00000000000E+00  0.59210066657E+03  0.59210066659E+03  0.50400001928E-02 0.  1.
       -1   -1    0    0    0  501  0.00000000000E+00  0.00000000000E+00 -0.94929590501E+03  0.94929590502E+03  0.50400001928E-02 0. -1.
    10030    2    1    2    0    0  0.00000000000E+00  0.00000000000E+00 -0.35719523844E+03  0.15413965716E+04  0.14994382123E+04 0.  0.
        3    1    3    3  502    0  0.35659738867E+02 -0.69106409205E+03  0.11798480509E+03  0.70196981468E+03  0.10100000352E+00 0. -1.
       -3    1    3    3    0  502 -0.35659738867E+02  0.69106409205E+03 -0.47518004353E+03  0.83942675694E+03  0.10100000352E+00 0.  1.
</event>
<event>
 5   0  0.2969498E-05  0.1499995E+04  0.7818609E-02  0.8884456E-01
        2   -1    0    0  501    0  0.00000000000E+00  0.00000000000E+00  0.20324637158E+04  0.20324637158E+04  0.25500000920E-02 0. -1.
       -2   -1    0    0    0  501  0.00000000000E+00  0.00000000000E+00 -0.27675572349E+03  0.27675572350E+03  0.25500000920E-02 0.  1.
    10030    2    1    2    0    0  0.00000000000E+00  0.00000000000E+00  0.17557079923E+04  0.23092194393E+04  0.14999946215E+04 0.  0.
        3    1    3    3  502    0  0.60797448019E+03 -0.41842726692E+03  0.67256718930E+03  0.99852940897E+03  0.10100000352E+00 0. -1.
       -3    1    3    3    0  502 -0.60797448019E+03  0.41842726692E+03  0.10831408030E+04  0.13106900303E+04  0.10100000352E+00 0.  1.
</event>
<event>
 5   0  0.1588657E-05  0.1500098E+04  0.7818609E-02  0.8884388E-01
       -1   -1    0    0    0  501  0.00000000000E+00  0.00000000000E+00  0.63067534326E+03  0.63067534328E+03  0.50400001928E-02 0. -1.
        1   -1    0    0  501    0  0.00000000000E+00  0.00000000000E+00 -0.89201751063E+03  0.89201751064E+03  0.50400001928E-02 0.  1.
    10030    2    1    2    0    0  0.00000000000E+00  0.00000000000E+00 -0.26134216737E+03  0.15226928539E+04  0.15000979298E+04 0.  0.
        3    1    3    3  502    0 -0.10133287183E+03  0.42592768961E+03  0.48750993363E+03  0.65524704752E+03  0.10100000352E+00 0. -1.
       -3    1    3    3    0  502  0.10133287183E+03 -0.42592768961E+03 -0.74885210100E+03  0.86744580641E+03  0.10100000352E+00 0.  1.
</event>
<event>
 5   0  0.3070497E-05  0.1500124E+04  0.7818609E-02  0.8884370E-01
       -2   -1    0    0    0  501  0.00000000000E+00  0.00000000000E+00  0.64980472213E+03  0.64980472214E+03  0.25500000920E-02 0. -1.
        2   -1    0    0  501    0  0.00000000000E+00  0.00000000000E+00 -0.86578795719E+03  0.86578795720E+03  0.25500000920E-02 0.  1.
    10030    2    1    2    0    0  0.00000000000E+00  0.00000000000E+00 -0.21598323506E+03  0.15155926793E+04  0.15001241321E+04 0.  0.
        4    1    3    3  502    0 -0.39598868743E+01  0.75004813059E+03 -0.10607172195E+03  0.75752274026E+03  0.12699999809E+01 0.  1.
       -4    1    3    3    0  502  0.39598868743E+01 -0.75004813059E+03 -0.10991151311E+03  0.75806993907E+03  0.12699999809E+01 0. -1.
</event>
<event>
 5   0  0.2969498E-05  0.1500542E+04  0.7818609E-02  0.8884093E-01
       -2   -1    0    0    0  501  0.00000000000E+00  0.00000000000E+00  0.78752366562E+03  0.78752366563E+03  0.25500000920E-02 0. -1.
        2   -1    0    0  501    0  0.00000000000E+00  0.00000000000E+00 -0.71478049700E+03  0.71478049700E+03  0.25500000920E-02 0.  1.
    10030    2    1    2    0    0  0.00000000000E+00  0.00000000000E+00  0.72743168624E+02  0.15023041626E+04  0.15005419782E+04 0.  0.
        3    1    3    3  502    0  0.13259219860E+03  0.38588840461E+03  0.66672673504E+03  0.78167454951E+03  0.10100000352E+00 0. -1.
       -3    1    3    3    0  502 -0.13259219860E+03 -0.38588840461E+03 -0.59398356641E+03  0.72062961312E+03  0.10100000352E+00 0.  1.
</event>
<event>
 5   0  0.3018308E-05  0.1500041E+04  0.7818609E-02  0.8884425E-01
       -2   -1    0    0    0  501  0.00000000000E+00  0.00000000000E+00  0.25758649327E+03  0.25758649328E+03  0.25500000920E-02 0.  1.
        2   -1    0    0  501    0  0.00000000000E+00  0.00000000000E+00 -0.21838532238E+04  0.21838532238E+04  0.25500000920E-02 0. -1.
    10030    2    1    2    0    0  0.00000000000E+00  0.00000000000E+00 -0.19262667305E+04  0.24414397170E+04  0.15000414578E+04 0.  0.
        2    1    3    3  502    0 -0.10010741902E+03 -0.18385644228E+03 -0.21353383110E+04  0.21455755379E+04  0.25500000920E-02 0. -1.
       -2    1    3    3    0  502  0.10010741902E+03  0.18385644228E+03  0.20907158047E+03  0.29586417911E+03  0.25500000920E-02 0.  1.
</event>
<event>
 5   0  0.1533777E-05  0.1498336E+04  0.7818609E-02  0.8885560E-01
       -1   -1    0    0    0  501  0.00000000000E+00  0.00000000000E+00  0.82390579832E+03  0.82390579834E+03  0.50400001928E-02 0.  1.
        1   -1    0    0  501    0  0.00000000000E+00  0.00000000000E+00 -0.68120960571E+03  0.68120960573E+03  0.50400001928E-02 0. -1.
    10030    2    1    2    0    0  0.00000000000E+00  0.00000000000E+00  0.14269619261E+03  0.15051154041E+04  0.14983358022E+04 0.  0.
        5    1    3    3  502    0 -0.68315767153E+03 -0.16708567255E+03 -0.18790576615E+03  0.72797849768E+03  0.46999998093E+01 0. -1.
       -5    1    3    3    0  502  0.68315767153E+03  0.16708567255E+03  0.33060195876E+03  0.77713690639E+03  0.46999998093E+01 0.  1.
</event>
<event>
 5   0  0.1576214E-05  0.1500664E+04  0.7818609E-02  0.8884011E-01
       -1   -1    0    0    0  501  0.00000000000E+00  0.00000000000E+00  0.21902572615E+04  0.21902572615E+04  0.50400001928E-02 0.  1.
        1   -1    0    0  501    0  0.00000000000E+00  0.00000000000E+00 -0.25704667200E+03  0.25704667205E+03  0.50400001928E-02 0. -1.
    10030    2    1    2    0    0  0.00000000000E+00  0.00000000000E+00  0.19332105895E+04  0.24473039336E+04  0.15006643062E+04 0.  0.
        1    1    3    3  502    0 -0.33137377197E+03 -0.63596830189E+03  0.60659016616E+03  0.93926348138E+03  0.50400001928E-02 0. -1.
       -1    1    3    3    0  502  0.33137377197E+03  0.63596830189E+03  0.13266204234E+04  0.15080404522E+04  0.50400001928E-02 0.  1.
</event>
<event>
 5   0  0.3093600E-05  0.1499532E+04  0.7818609E-02  0.8884764E-01
       -2   -1    0    0    0  501  0.00000000000E+00  0.00000000000E+00  0.41795947778E+03  0.41795947779E+03  0.25500000920E-02 0. -1.
        2   -1    0    0  501    0  0.00000000000E+00  0.00000000000E+00 -0.13449843726E+04  0.13449843726E+04  0.25500000920E-02 0.  1.
    10030    2    1    2    0    0  0.00000000000E+00  0.00000000000E+00 -0.92702489481E+03  0.17629438504E+04  0.14995318816E+04 0.  0.
        1    1    3    3  502    0  0.18128268942E+03  0.31119555839E+03 -0.12366328786E+04  0.12880089152E+04  0.50400001928E-02 0.  1.
       -1    1    3    3    0  502 -0.18128268942E+03 -0.31119555839E+03  0.30960798380E+03  0.47493493523E+03  0.50400001928E-02 0. -1.
</event>
<event>
 5   0  0.3070497E-05  0.1500364E+04  0.7818609E-02  0.8884211E-01
       -2   -1    0    0    0  501  0.00000000000E+00  0.00000000000E+00  0.42538218598E+03  0.42538218599E+03  0.25500000920E-02 0.  1.
        2   -1    0    0  501    0  0.00000000000E+00  0.00000000000E+00 -0.13229817434E+04  0.13229817434E+04  0.25500000920E-02 0. -1.
    10030    2    1    2    0    0  0.00000000000E+00  0.00000000000E+00 -0.89759955744E+03  0.17483639294E+04  0.15003637773E+04 0.  0.
        4    1    3    3  502    0  0.12141710054E+03  0.42545350271E+03 -0.11547583580E+04  0.12366168661E+04  0.12699999809E+01 0. -1.
       -4    1    3    3    0  502 -0.12141710054E+03 -0.42545350271E+03  0.25715880051E+03  0.51174706335E+03  0.12699999809E+01 0.  1.
</event>
<event>
 5   0  0.1116613E-05  0.1499879E+04  0.7818609E-02  0.8884534E-01
       -4   -1    0    0    0  501  0.00000000000E+00  0.00000000000E+00  0.17085981817E+04  0.17085986537E+04  0.12699999809E+01 0.  1.
        4   -1    0    0  501    0  0.00000000000E+00  0.00000000000E+00 -0.32916228293E+03  0.32916473293E+03  0.12699999809E+01 0. -1.
    10030    2    1    2    0    0  0.00000000000E+00  0.00000000000E+00  0.13794358987E+04  0.20377633866E+04  0.14998787354E+04 0.  0.
        2    1    3    3  502    0 -0.34407102587E+03 -0.56766278697E+03  0.21559475804E+03  0.69793051965E+03  0.25500000920E-02 0. -1.
       -2    1    3    3    0  502  0.34407102587E+03  0.56766278697E+03  0.11638411407E+04  0.13398328669E+04  0.25500000920E-02 0.  1.
</event>
<event>
 5   0  0.2969498E-05  0.1494607E+04  0.7818609E-02  0.8888047E-01
       -2   -1    0    0    0  501  0.00000000000E+00  0.00000000000E+00  0.22075893874E+03  0.22075893875E+03  0.25500000920E-02 0.  1.
        2   -1    0    0  501    0  0.00000000000E+00  0.00000000000E+00 -0.25297379339E+04  0.25297379339E+04  0.25500000920E-02 0. -1.
    10030    2    1    2    0    0  0.00000000000E+00  0.00000000000E+00 -0.23089789951E+04  0.27504968726E+04  0.14946066527E+04 0.  0.
        3    1    3    3  502    0  0.14828994405E+03  0.14634622284E+03  0.16623155832E+03  0.26653342310E+03  0.10100000352E+00 0.  1.
       -3    1    3    3    0  502 -0.14828994405E+03 -0.14634622284E+03 -0.24752105534E+04  0.24839634495E+04  0.10100000352E+00 0. -1.
</event>
<event>
 5   0  0.3070497E-05  0.1500190E+04  0.7818609E-02  0.8884327E-01
        2   -1    0    0  501    0  0.00000000000E+00  0.00000000000E+00  0.13899317332E+04  0.13899317332E+04  0.25500000920E-02 0. -1.
       -2   -1    0    0    0  501  0.00000000000E+00  0.00000000000E+00 -0.40479842865E+03  0.40479842866E+03  0.25500000920E-02 0.  1.
    10030    2    1    2    0    0  0.00000000000E+00  0.00000000000E+00  0.98513330457E+03  0.17947301619E+04  0.15001895634E+04 0.  0.
        4    1    3    3  502    0 -0.30372722624E+03 -0.52089647716E+03  0.10263216666E+04  0.11903449685E+04  0.12699999809E+01 0. -1.
       -4    1    3    3    0  502  0.30372722624E+03  0.52089647716E+03 -0.41188362023E+02  0.60438519335E+03  0.12699999809E+01 0.  1.
</event>
<event>
 5   0  0.1533777E-05  0.1500120E+04  0.7818609E-02  0.8884373E-01
        1   -1    0    0  501    0  0.00000000000E+00  0.00000000000E+00  0.68792619685E+03  0.68792619687E+03  0.50400001928E-02 0. -1.
       -1   -1    0    0    0  501  0.00000000000E+00  0.00000000000E+00 -0.81780575737E+03  0.81780575738E+03  0.50400001928E-02 0.  1.
    10030    2    1    2    0    0  0.00000000000E+00  0.00000000000E+00 -0.12987956051E+03  0.15057319543E+04  0.15001200011E+04 0.  0.
        5    1    3    3  502    0  0.33019753946E+03 -0.66662543795E+03 -0.16094289725E+03  0.76114689499E+03  0.46999998093E+01 0.  1.
       -5    1    3    3    0  502 -0.33019753946E+03  0.66662543795E+03  0.31063336740E+02  0.74458505926E+03  0.46999998093E+01 0. -1.
</event>
<event>
 5   0  0.1580078E-05  0.1497710E+04  0.7818609E-02  0.8885977E-01
       -1   -1    0    0    0  501  0.00000000000E+00  0.00000000000E+00  0.67667094656E+03  0.67667094658E+03  0.50400001928E-02 0. -1.
        1   -1    0    0  501    0  0.00000000000E+00  0.00000000000E+00 -0.82873950397E+03  0.82873950399E+03  0.50400001928E-02 0.  1.
    10030    2    1    2    0    0  0.00000000000E+00  0.00000000000E+00 -0.15206855741E+03  0.15054104506E+04  0.14977101784E+04 0.  0.
        2    1    3    3  502    0  0.47368824618E+02 -0.46656834008E+03  0.51079452331E+03  0.69342690066E+03  0.25500000920E-02 0. -1.
       -2    1    3    3    0  502 -0.47368824618E+02  0.46656834008E+03 -0.66286308072E+03  0.81198354990E+03  0.25500000920E-02 0.  1.
</event>
<event>
 5   0  0.3070497E-05  0.1501070E+04  0.7818609E-02  0.8883741E-01
        2   -1    0    0  501    0  0.00000000000E+00  0.00000000000E+00  0.40964898333E+03  0.40964898334E+03  0.25500000920E-02 0. -1.
       -2   -1    0    0    0  501  0.00000000000E+00  0.00000000000E+00 -0.13750871789E+04  0.13750871789E+04  0.25500000920E-02 0.  1.
    10030    2    1    2    0    0  0.00000000000E+00  0.00000000000E+00 -0.96543819561E+03  0.17847361623E+04  0.15010703712E+04 0.  0.
        4    1    3    3  502    0 -0.62703218332E+03 -0.26034180128E+03 -0.86310629264E+03  0.10981353731E+04  0.12699999809E+01 0.  1.
       -4    1    3    3    0  502  0.62703218332E+03  0.26034180128E+03 -0.10233190297E+03  0.68660078916E+03  0.12699999809E+01 0. -1.
</event>
<event>
 5   0  0.2969498E-05  0.1500240E+04  0.7818609E-02  0.8884293E-01
        2   -1    0    0  501    0  0.00000000000E+00  0.00000000000E+00  0.65251327090E+03  0.65251327091E+03  0.25500000920E-02 0.  1.
       -2   -1    0    0    0  501  0.00000000000E+00  0.00000000000E+00 -0.86232751686E+03  0.86232751686E+03  0.25500000920E-02 0. -1.
    10030    2    1    2    0    0  0.00000000000E+00  0.00000000000E+00 -0.20981424596E+03  0.15148407878E+04  0.15002401789E+04 0.  0.
        3    1    3    3  502    0  0.37412244800E+03  0.62612230177E+03  0.71964396635E+02  0.73292266131E+03  0.10100000352E+00 0.  1.
       -3    1    3    3    0  502 -0.37412244800E+03 -0.62612230177E+03 -0.28177864259E+03  0.78191812646E+03  0.10100000352E+00 0. -1.
</event>
<event>
 5   0  0.1116613E-05  0.1501015E+04  0.7818609E-02  0.8883778E-01
        3   -1    0    0  501    0  0.00000000000E+00  0.00000000000E+00  0.59231702403E+03  0.59231703264E+03  0.10100000352E+00 0.  1.
       -3   -1    0    0    0  501  0.00000000000E+00  0.00000000000E+00 -0.95094578952E+03  0.95094579489E+03  0.10100000352E+00 0. -1.
    10030    2    1    2    0    0  0.00000000000E+00  0.00000000000E+00 -0.35862876549E+03  0.15432628275E+04  0.15010148445E+04 0.  0.
        2    1    3    3  502    0  0.55103890282E+03 -0.13402015655E+03  0.32610722370E+03  0.65417978884E+03  0.25500000920E-02 0.  1.
       -2    1    3    3    0  502 -0.55103890282E+03  0.13402015655E+03 -0.68473598919E+03  0.88908303868E+03  0.25500000920E-02 0. -1.
</event>
<event>
 5   0  0.3018308E-05  0.1500220E+04  0.7818609E-02  0.8884307E-01
       -2   -1    0    0    0  501  0.00000000000E+00  0.00000000000E+00  0.67209492282E+03  0.67209492282E+03  0.25500000920E-02 0. -1.
        2   -1    0    0  501    0  0.00000000000E+00  0.00000000000E+00 -0.83718077877E+03  0.83718077877E+03  0.25500000920E-02 0.  1.
    10030    2    1    2    0    0  0.00000000000E+00  0.00000000000E+00 -0.16508585595E+03  0.15092757016E+04  0.15002199184E+04 0.  0.
        2    1    3    3  502    0 -0.13486025338E+03  0.17766515239E+03 -0.80304528050E+03  0.83344700903E+03  0.25500000920E-02 0.  1.
       -2    1    3    3    0  502  0.13486025338E+03 -0.17766515239E+03  0.63795942455E+03  0.67582869256E+03  0.25500000920E-02 0. -1.
</event>
<event>
 5   0  0.3070497E-05  0.1499368E+04  0.7818609E-02  0.8884874E-01
        2   -1    0    0  501    0  0.00000000000E+00  0.00000000000E+00  0.16303751872E+04  0.16303751872E+04  0.25500000920E-02 0. -1.
       -2   -1    0    0    0  501  0.00000000000E+00  0.00000000000E+00 -0.34472174926E+03  0.34472174927E+03  0.25500000920E-02 0.  1.
    10030    2    1    2    0    0  0.00000000000E+00  0.00000000000E+00  0.12856534379E+04  0.19750969364E+04  0.14993675820E+04 0.  0.
        4    1    3    3  502    0  0.87437358465E+01 -0.43682214051E+03 -0.15967459241E+03  0.46517483134E+03  0.12699999809E+01 0.  1.
       -4    1    3    3    0  502 -0.87437358465E+01  0.43682214051E+03  0.14453280303E+04  0.15099221051E+04  0.12699999809E+01 0. -1.
</event>
<event>
 5   0  0.1576214E-05  0.1500239E+04  0.7818609E-02  0.8884294E-01
       -1   -1    0    0    0  501  0.00000000000E+00  0.00000000000E+00  0.81020771517E+03  0.81020771519E+03  0.50400001928E-02 0. -1.
        1   -1    0    0  501    0  0.00000000000E+00  0.00000000000E+00 -0.69448748942E+03  0.69448748944E+03  0.50400001928E-02 0.  1.
    10030    2    1    2    0    0  0.00000000000E+00  0.00000000000E+00  0.11572022575E+03  0.15046952046E+04  0.15002388104E+04 0.  0.
        1    1    3    3  502    0 -0.68779769763E+03  0.30744734938E+02 -0.24079648413E+03  0.72937909100E+03  0.50400001928E-02 0.  1.
       -1    1    3    3    0  502  0.68779769763E+03 -0.30744734938E+02  0.35651670988E+03  0.77531611362E+03  0.50400001928E-02 0. -1.
</event>
<event>
 5   0  0.3018308E-05  0.1496025E+04  0.7818609E-02  0.8887100E-01
        2   -1    0    0  501    0  0.00000000000E+00  0.00000000000E+00  0.17194854569E+04  0.17194854569E+04  0.25500000920E-02 0.  1.
       -2   -1    0    0    0  501  0.00000000000E+00  0.00000000000E+00 -0.32540136853E+03  0.32540136854E+03  0.25500000920E-02 0. -1.
    10030    2    1    2    0    0  0.00000000000E+00  0.00000000000E+00  0.13940840884E+04  0.20448868255E+04  0.14960252951E+04 0.  0.
        2    1    3    3  502    0  0.19607266828E+02 -0.45676622770E+03 -0.11219595046E+03  0.47075233721E+03  0.25500000920E-02 0. -1.
       -2    1    3    3    0  502 -0.19607266828E+02  0.45676622770E+03  0.15062800389E+04  0.15741344883E+04  0.25500000920E-02 0.  1.
</event>
<event>
 5   0  0.1533777E-05  0.1500256E+04  0.7818609E-02  0.8884283E-01
       -1   -1    0    0    0  501  0.00000000000E+00  0.00000000000E+00  0.52610513361E+03  0.52610513363E+03  0.50400001928E-02 0.  1.
        1   -1    0    0  501    0  0.00000000000E+00  0.00000000000E+00 -0.10695426440E+04  0.10695426441E+04  0.50400001928E-02 0. -1.
    10030    2    1    2    0    0  0.00000000000E+00  0.00000000000E+00 -0.54343751043E+03  0.15956477777E+04  0.15002558124E+04 0.  0.
        5    1    3    3  502    0  0.55704956741E+03  0.46293845812E+03 -0.64242071474E+02  0.72716254737E+03  0.46999998093E+01 0.  1.
       -5    1    3    3    0  502 -0.55704956741E+03 -0.46293845812E+03 -0.47919543896E+03  0.86848523031E+03  0.46999998093E+01 0. -1.
</event>
<event>
 5   0  0.1588657E-05  0.1499568E+04  0.7818609E-02  0.8884740E-01
        1   -1    0    0  501    0  0.00000000000E+00  0.00000000000E+00  0.21196329513E+04  0.21196329513E+04  0.50400001928E-02 0.  1.
       -1   -1    0    0    0  501  0.00000000000E+00  0.00000000000E+00 -0.26522333864E+03  0.26522333869E+03  0.50400001928E-02 0. -1.
    10030    2    1    2    0    0  0.00000000000E+00  0.00000000000E+00  0.18544096126E+04  0.23848562900E+04  0.14995681086E+04 0.  0.
        3    1    3    3  502    0  0.58047144591E+03 -0.31723798696E+03  0.14885577497E+04  0.16289233328E+04  0.10100000352E+00 0. -1.
       -3    1    3    3    0  502 -0.58047144591E+03  0.31723798696E+03  0.36585186298E+03  0.75593295717E+03  0.10100000352E+00 0.  1.
</event>
<event>
 5   0  0.3030702E-05  0.1499727E+04  0.7818609E-02  0.8884634E-01
       -2   -1    0    0    0  501  0.00000000000E+00  0.00000000000E+00  0.27921122599E+03  0.27921122600E+03  0.25500000920E-02 0.  1.
        2   -1    0    0  501    0  0.00000000000E+00  0.00000000000E+00 -0.20138708667E+04  0.20138708667E+04  0.25500000920E-02 0. -1.
    10030    2    1    2    0    0  0.00000000000E+00  0.00000000000E+00 -0.17346596407E+04  0.22930820927E+04  0.14997271134E+04 0.  0.
        5    1    3    3  502    0 -0.51201428891E+03 -0.79431678424E+02 -0.16961057482E+04  0.17734894482E+04  0.46999998093E+01 0. -1.
       -5    1    3    3    0  502  0.51201428891E+03  0.79431678424E+02 -0.38553892446E+02  0.51959264449E+03  0.46999998093E+01 0.  1.
</event>
<event>
 5   0  0.1533777E-05  0.1499376E+04  0.7818609E-02  0.8884868E-01
       -1   -1    0    0    0  501  0.00000000000E+00  0.00000000000E+00  0.48282463622E+03  0.48282463625E+03  0.50400001928E-02 0.  1.
        1   -1    0    0  501    0  0.00000000000E+00  0.00000000000E+00 -0.11640497878E+04  0.11640497878E+04  0.50400001928E-02 0. -1.
    10030    2    1    2    0    0  0.00000000000E+00  0.00000000000E+00 -0.68122515157E+03  0.16468744241E+04  0.14993757573E+04 0.  0.
        5    1    3    3  502    0  0.47845326990E+03  0.21666898604E+03  0.24693695097E+03  0.58039893930E+03  0.46999998093E+01 0.  1.
       -5    1    3    3    0  502 -0.47845326990E+03 -0.21666898604E+03 -0.92816210254E+03  0.10664754848E+04  0.46999998093E+01 0. -1.
</event>
<event>
 5   0  0.2969498E-05  0.1500499E+04  0.7818609E-02  0.8884121E-01
       -2   -1    0    0    0  501  0.00000000000E+00  0.00000000000E+00  0.27252186216E+03  0.27252186218E+03  0.25500000920E-02 0. -1.
        2   -1    0    0  501    0  0.00000000000E+00  0.00000000000E+00 -0.20654271379E+04  0.20654271379E+04  0.25500000920E-02 0.  1.
    10030    2    1    2    0    0  0.00000000000E+00  0.00000000000E+00 -0.17929052757E+04  0.23379490001E+04  0.15004986502E+04 0.  0.
        3    1    3    3  502    0  0.29919292986E+03  0.28963649355E+03  0.75926201817E+02  0.42328537182E+03  0.10100000352E+00 0. -1.
       -3    1    3    3    0  502 -0.29919292986E+03 -0.28963649355E+03 -0.18688314775E+04  0.19146636282E+04  0.10100000352E+00 0.  1.
</event>
<event>
 5   0  0.1576214E-05  0.1505066E+04  0.7818609E-02  0.8881091E-01
        1   -1    0    0  501    0  0.00000000000E+00  0.00000000000E+00  0.46231855321E+03  0.46231855324E+03  0.50400001928E-02 0.  1.
       -1   -1    0    0    0  501  0.00000000000E+00  0.00000000000E+00 -0.12249260250E+04  0.12249260250E+04  0.50400001928E-02 0. -1.
    10030    2    1    2    0    0  0.00000000000E+00  0.00000000000E+00 -0.76260747175E+03  0.16872445782E+04  0.15050661483E+04 0.  0.
        1    1    3    3  502    0 -0.22721675554E+03  0.24425358864E+03  0.37489701430E+03  0.50183168585E+03  0.50400001928E-02 0.  1.
       -1    1    3    3    0  502  0.22721675554E+03 -0.24425358864E+03 -0.11375044861E+04  0.11854128924E+04  0.50400001928E-02 0. -1.
</event>
<event>
 5   0  0.1533777E-05  0.1499373E+04  0.7818609E-02  0.8884870E-01
        1   -1    0    0  501    0  0.00000000000E+00  0.00000000000E+00  0.91908340451E+03  0.91908340452E+03  0.50400001928E-02 0.  1.
       -1   -1    0    0    0  501  0.00000000000E+00  0.00000000000E+00 -0.61151113159E+03  0.61151113161E+03  0.50400001928E-02 0. -1.
    10030    2    1    2    0    0  0.00000000000E+00  0.00000000000E+00  0.30757227291E+03  0.15305945361E+04  0.14993728459E+04 0.  0.
        5    1    3    3  502    0 -0.59335807118E+03  0.36158949069E+03 -0.13347517552E+03  0.70757223864E+03  0.46999998093E+01 0.  1.
       -5    1    3    3    0  502  0.59335807118E+03 -0.36158949069E+03  0.44104744843E+03  0.82302229750E+03  0.46999998093E+01 0. -1.
</event>
<event>
 5   0  0.2969498E-05  0.1502482E+04  0.7818609E-02  0.8882804E-01
        2   -1    0    0  501    0  0.00000000000E+00  0.00000000000E+00  0.13028962333E+04  0.13028962333E+04  0.25500000920E-02 0. -1.
       -2   -1    0    0    0  501  0.00000000000E+00  0.00000000000E+00 -0.43316053451E+03  0.43316053451E+03  0.25500000920E-02 0.  1.
    10030    2    1    2    0    0  0.00000000000E+00  0.00000000000E+00  0.86973569876E+03  0.17360567678E+04  0.15024822512E+04 0.  0.
        3    1    3    3  502    0  0.22252399719E+03  0.44681815735E+03  0.10835733114E+04  0.11930190805E+04  0.10100000352E+00 0. -1.
       -3    1    3    3    0  502 -0.22252399719E+03 -0.44681815735E+03 -0.21383761261E+03  0.54303768730E+03  0.10100000352E+00 0.  1.
</event>
<event>
 5   0  0.3030702E-05  0.1500339E+04  0.7818609E-02  0.8884227E-01
        2   -1    0    0  501    0  0.00000000000E+00  0.00000000000E+00  0.23544264446E+03  0.23544264447E+03  0.25500000920E-02 0.  1.
       -2   -1    0    0    0  501  0.00000000000E+00  0.00000000000E+00 -0.23901975193E+04  0.23901975193E+04  0.25500000920E-02 0. -1.
    10030    2    1    2    0    0  0.00000000000E+00  0.00000000000E+00 -0.21547548748E+04  0.26256401638E+04  0.15003391946E+04 0.  0.
        5    1    3    3  502    0  0.55897141836E+03 -0.24533521750E+03 -0.31436807911E+03  0.68664968845E+03  0.46999998093E+01 0.  1.
       -5    1    3    3    0  502 -0.55897141836E+03  0.24533521750E+03 -0.18403867957E+04  0.19389904753E+04  0.46999998093E+01 0. -1.
</event>
<event>
 5   0  0.3030702E-05  0.1499264E+04  0.7818609E-02  0.8884942E-01
       -2   -1    0    0    0  501  0.00000000000E+00  0.00000000000E+00  0.35723560369E+03  0.35723560370E+03  0.25500000920E-02 0. -1.
        2   -1    0    0  501    0  0.00000000000E+00  0.00000000000E+00 -0.15730463097E+04  0.15730463097E+04  0.25500000920E-02 0.  1.
    10030    2    1    2    0    0  0.00000000000E+00  0.00000000000E+00 -0.12158107060E+04  0.19302819134E+04  0.14992640169E+04 0.  0.
        5    1    3    3  502    0  0.70453798728E+03 -0.24761404728E+03 -0.69173609913E+03  0.10179427355E+04  0.46999998093E+01 0. -1.
       -5    1    3    3    0  502 -0.70453798728E+03  0.24761404728E+03 -0.52407460685E+03  0.91233917787E+03  0.46999998093E+01 0.  1.
</event>
<event>
 5   0  0.1643498E-05  0.1500382E+04  0.7818609E-02  0.8884199E-01
       -1   -1    0    0    0  501  0.00000000000E+00  0.00000000000E+00  0.27749668647E+03  0.27749668651E+03  0.50400001928E-02 0. -1.
        1   -1    0    0  501    0  0.00000000000E+00  0.00000000000E+00 -0.20280839456E+04  0.20280839456E+04  0.50400001928E-02 0.  1.
    10030    2    1    2    0    0  0.00000000000E+00  0.00000000000E+00 -0.17505872592E+04  0.23055806321E+04  0.15003820511E+04 0.  0.
        4    1    3    3  502    0 -0.19343935179E+03 -0.43039544459E+02 -0.19871341884E+04  0.19969915075E+04  0.12699999809E+01 0.  1.
       -4    1    3    3    0  502  0.19343935179E+03  0.43039544459E+02  0.23654692928E+03  0.30858912466E+03  0.12699999809E+01 0. -1.
</event>
<event>
 5   0  0.1533777E-05  0.1500452E+04  0.7818609E-02  0.8884152E-01
       -1   -1    0    0    0  501  0.00000000000E+00  0.00000000000E+00  0.55677815269E+03  0.55677815271E+03  0.50400001928E-02 0.  1.
        1   -1    0    0  501    0  0.00000000000E+00  0.00000000000E+00 -0.10108855938E+04  0.10108855938E+04  0.50400001928E-02 0. -1.
    10030    2    1    2    0    0  0.00000000000E+00  0.00000000000E+00 -0.45410744114E+03  0.15676637466E+04  0.15004519500E+04 0.  0.
        5    1    3    3  502    0  0.33842526484E+03  0.59572502500E+03  0.92245007843E+02  0.69134014548E+03  0.46999998093E+01 0. -1.
       -5    1    3    3    0  502 -0.33842526484E+03 -0.59572502500E+03 -0.54635244898E+03  0.87632360107E+03  0.46999998093E+01 0.  1.
</event>
<event>
 5   0  0.1643498E-05  0.1503137E+04  0.7818609E-02  0.8882370E-01
       -1   -1    0    0    0  501  0.00000000000E+00  0.00000000000E+00  0.72071738863E+03  0.72071738865E+03  0.50400001928E-02 0.  1.
        1   -1    0    0  501    0  0.00000000000E+00  0.00000000000E+00 -0.78374025634E+03  0.78374025636E+03  0.50400001928E-02 0. -1.
    10030    2    1    2    0    0  0.00000000000E+00  0.00000000000E+00 -0.63022867716E+02  0.15044576450E+04  0.15031370276E+04 0.  0.
        4    1    3    3  502    0 -0.23310626205E+03  0.71424225460E+03 -0.12178916067E+02  0.75141896872E+03  0.12699999809E+01 0.  1.
       -4    1    3    3    0  502  0.23310626205E+03 -0.71424225460E+03 -0.50843951649E+02  0.75303867628E+03  0.12699999809E+01 0. -1.
</event>
<event>
 5   0  0.1588657E-05  0.1500109E+04  0.7818609E-02  0.8884380E-01
       -1   -1    0    0    0  501  0.00000000000E+00  0.00000000000E+00  0.56851001241E+03  0.56851001244E+03  0.50400001928E-02 0. -1.
        1   -1    0    0  501    0  0.00000000000E+00  0.00000000000E+00 -0.98957257435E+03  0.98957257436E+03  0.50400001928E-02 0.  1.
    10030    2    1    2    0    0  0.00000000000E+00  0.00000000000E+00 -0.42106256193E+03  0.15580825868E+04  0.15001092181E+04 0.  0.
        3    1    3    3  502    0  0.18020832320E+03  0.71652499144E+03 -0.76313434000E+02  0.74276971769E+03  0.10100000352E+00 0. -1.
       -3    1    3    3    0  502 -0.18020832320E+03 -0.71652499144E+03 -0.34474912793E+03  0.81531286910E+03  0.10100000352E+00 0.  1.
</event>
<event>
 5   0  0.1643498E-05  0.1495389E+04  0.7818609E-02  0.8887525E-01
        1   -1    0    0  501    0  0.00000000000E+00  0.00000000000E+00  0.54453606706E+03  0.54453606709E+03  0.50400001928E-02 0.  1.
       -1   -1    0    0    0  501  0.00000000000E+00  0.00000000000E+00 -0.10266489027E+04  0.10266489027E+04  0.50400001928E-02 0. -1.
    10030    2    1    2    0    0  0.00000000000E+00  0.00000000000E+00 -0.48211283566E+03  0.15711849698E+04  0.14953893885E+04 0.  0.
        4    1    3    3  502    0 -0.54851363108E+03 -0.80140879076E+02 -0.76824126407E+03  0.94735738594E+03  0.12699999809E+01 0. -1.
       -4    1    3    3    0  502  0.54851363108E+03  0.80140879076E+02  0.28612842841E+03  0.62382758389E+03  0.12699999809E+01 0.  1.
</event>
<event>
 5   0  0.3030702E-05  0.1500225E+04  0.7818609E-02  0.8884303E-01
        2   -1    0    0  501    0  0.00000000000E+00  0.00000000000E+00  0.46258688343E+03  0.46258688343E+03  0.25500000920E-02 0. -1.
       -2   -1    0    0    0  501  0.00000000000E+00  0.00000000000E+00 -0.12163528597E+04  0.12163528597E+04  0.25500000920E-02 0.  1.
    10030    2    1    2    0    0  0.00000000000E+00  0.00000000000E+00 -0.75376597628E+03  0.16789397431E+04  0.15002251545E+04 0.  0.
        5    1    3    3  502    0  0.19446689235E+03 -0.54425535836E+03 -0.91197876417E+03  0.10797030257E+04  0.46999998093E+01 0.  1.
       -5    1    3    3    0  502 -0.19446689235E+03  0.54425535836E+03  0.15821278789E+03  0.59923671748E+03  0.46999998093E+01 0. -1.
</event>
<event>
 5   0  0.3030702E-05  0.1499795E+04  0.7818609E-02  0.8884589E-01
        2   -1    0    0  501    0  0.00000000000E+00  0.00000000000E+00  0.40131319803E+03  0.40131319803E+03  0.25500000920E-02 0. -1.
       -2   -1    0    0    0  501  0.00000000000E+00  0.00000000000E+00 -0.14012651693E+04  0.14012651693E+04  0.25500000920E-02 0.  1.
    10030    2    1    2    0    0  0.00000000000E+00  0.00000000000E+00 -0.99995197132E+03  0.18025783674E+04  0.14997949278E+04 0.  0.
        5    1    3    3  502    0 -0.27798031002E+03 -0.53959233451E+03 -0.10292021376E+04  0.11948690599E+04  0.46999998093E+01 0.  1.
       -5    1    3    3    0  502  0.27798031002E+03  0.53959233451E+03  0.29250166263E+02  0.60770930752E+03  0.46999998093E+01 0. -1.
</event>
<event>
 5   0  0.3030702E-05  0.1500089E+04  0.7818609E-02  0.8884394E-01
        2   -1    0    0  501    0  0.00000000000E+00  0.00000000000E+00  0.72736995103E+03  0.72736995104E+03  0.25500000920E-02 0.  1.
       -2   -1    0    0    0  501  0.00000000000E+00  0.00000000000E+00 -0.77342609560E+03  0.77342609560E+03  0.25500000920E-02 0. -1.
    10030    2    1    2    0    0  0.00000000000E+00  0.00000000000E+00 -0.46056144564E+02  0.15007960466E+04  0.15000891991E+04 0.  0.
        5    1    3    3  502    0 -0.28229477009E+03  0.11443994026E+03  0.66268380732E+03  0.72935502715E+03  0.46999998093E+01 0.  1.
       -5    1    3    3    0  502  0.28229477009E+03 -0.11443994026E+03 -0.70873995189E+03  0.77144101949E+03  0.46999998093E+01 0. -1.
</event>
<event>
 5   0  0.1576214E-05  0.1500217E+04  0.7818609E-02  0.8884308E-01
        1   -1    0    0  501    0  0.00000000000E+00  0.00000000000E+00  0.93291315824E+03  0.93291315826E+03  0.50400001928E-02 0. -1.
       -1   -1    0    0    0  501  0.00000000000E+00  0.00000000000E+00 -0.60312481732E+03  0.60312481734E+03  0.50400001928E-02 0.  1.
    10030    2    1    2    0    0  0.00000000000E+00  0.00000000000E+00  0.32978834092E+03  0.15360379756E+04  0.15002174218E+04 0.  0.
        1    1    3    3  502    0  0.73179329771E+03  0.16142399115E+03  0.13118477988E+03  0.76078155997E+03  0.50400001928E-02 0.  1.
       -1    1    3    3    0  502 -0.73179329771E+03 -0.16142399115E+03  0.19860356104E+03  0.77525641563E+03  0.50400001928E-02 0. -1.
</event>
<event>
 5   0  0.3093600E-05  0.1500085E+04  0.7818609E-02  0.8884396E-01
        2   -1    0    0  501    0  0.00000000000E+00  0.00000000000E+00  0.76722653539E+03  0.76722653539E+03  0.25500000920E-02 0.  1.
       -2   -1    0    0    0  501  0.00000000000E+00  0.00000000000E+00 -0.73324342623E+03  0.73324342624E+03  0.25500000920E-02 0. -1.
    10030    2    1    2    0    0  0.00000000000E+00  0.00000000000E+00  0.33983109154E+02  0.15004699616E+04  0.15000850823E+04 0.  0.
        1    1    3    3  502    0 -0.32507473003E+03 -0.10555579226E+03 -0.65082351727E+03  0.73511009790E+03  0.50400001928E-02 0. -1.
       -1    1    3    3    0  502  0.32507473003E+03  0.10555579226E+03  0.68480662642E+03  0.76535986373E+03  0.50400001928E-02 0.  1.
</event>
<event>
 5   0  0.3093600E-05  0.1499755E+04  0.7818609E-02  0.8884616E-01
       -2   -1    0    0    0  501  0.00000000000E+00  0.00000000000E+00  0.44885190481E+03  0.44885190482E+03  0.25500000920E-02 0.  1.
        2   -1    0    0  501    0  0.00000000000E+00  0.00000000000E+00 -0.12527872548E+04  0.12527872548E+04  0.25500000920E-02 0. -1.
    10030    2    1    2    0    0  0.00000000000E+00  0.00000000000E+00 -0.80393535000E+03  0.17016391596E+04  0.14997545741E+04 0.  0.
        1    1    3    3  502    0  0.19863455350E+03  0.38897178400E+03  0.28964423113E+03  0.52406918937E+03  0.50400001928E-02 0.  1.
       -1    1    3    3    0  502 -0.19863455350E+03 -0.38897178400E+03 -0.10935795811E+04  0.11775699703E+04  0.50400001928E-02 0. -1.
</event>
<event>
 5   0  0.1588657E-05  0.1499769E+04  0.7818609E-02  0.8884606E-01
       -1   -1    0    0    0  501  0.00000000000E+00  0.00000000000E+00  0.43780668201E+03  0.43780668204E+03  0.50400001928E-02 0.  1.
        1   -1    0    0  501    0  0.00000000000E+00  0.00000000000E+00 -0.12844187321E+04  0.12844187321E+04  0.50400001928E-02 0. -1.
    10030    2    1    2    0    0  0.00000000000E+00  0.00000000000E+00 -0.84661205008E+03  0.17222254141E+04  0.14997694535E+04 0.  0.
        3    1    3    3  502    0 -0.10654367128E+03  0.74003379942E+03 -0.48952690535E+03  0.89366558591E+03  0.10100000352E+00 0. -1.
       -3    1    3    3    0  502  0.10654367128E+03 -0.74003379942E+03 -0.35708514473E+03  0.82855982823E+03  0.10100000352E+00 0.  1.
</event>
<event>
 5   0  0.3070497E-05  0.1499732E+04  0.7818609E-02  0.8884631E-01
       -2   -1    0    0    0  501  0.00000000000E+00  0.00000000000E+00  0.57073302764E+03  0.57073302764E+03  0.25500000920E-02 0. -1.
        2   -1    0    0  501    0  0.00000000000E+00  0.00000000000E+00 -0.98522238803E+03  0.98522238803E+03  0.25500000920E-02 0.  1.
    10030    2    1    2    0    0  0.00000000000E+00  0.00000000000E+00 -0.41448936039E+03  0.15559554157E+04  0.14997319179E+04 0.  0.
        4    1    3    3  502    0  0.54943728055E+03  0.50606855669E+03 -0.27536145845E+03  0.79612326623E+03  0.12699999809E+01 0.  1.
       -4    1    3    3    0  502 -0.54943728055E+03 -0.50606855669E+03 -0.13912790194E+03  0.75983214944E+03  0.12699999809E+01 0. -1.
</event>
<event>
 5   0  0.1580078E-05  0.1503172E+04  0.7818609E-02  0.8882346E-01
       -1   -1    0    0    0  501  0.00000000000E+00  0.00000000000E+00  0.67257697433E+03  0.67257697435E+03  0.50400001928E-02 0. -1.
        1   -1    0    0  501    0  0.00000000000E+00  0.00000000000E+00 -0.83987651587E+03  0.83987651589E+03  0.50400001928E-02 0.  1.
    10030    2    1    2    0    0  0.00000000000E+00  0.00000000000E+00 -0.16729954154E+03  0.15124534902E+04  0.15031721204E+04 0.  0.
        2    1    3    3  502    0  0.26243209693E+03 -0.72744123723E+02 -0.78848869979E+03  0.83419226964E+03  0.25500000920E-02 0.  1.
       -2    1    3    3    0  502 -0.26243209693E+03  0.72744123723E+02  0.62118915825E+03  0.67826122060E+03  0.25500000920E-02 0. -1.
</event>
<event>
 5   0  0.3018308E-05  0.1502756E+04  0.7818609E-02  0.8882622E-01
       -2   -1    0    0    0  501  0.00000000000E+00  0.00000000000E+00  0.16228524079E+04  0.16228524079E+04  0.25500000920E-02 0. -1.
        2   -1    0    0  501    0  0.00000000000E+00  0.00000000000E+00 -0.34788682055E+03  0.34788682056E+03  0.25500000920E-02 0.  1.
    10030    2    1    2    0    0  0.00000000000E+00  0.00000000000E+00  0.12749655874E+04  0.19707392285E+04  0.15027560872E+04 0.  0.
        2    1    3    3  502    0  0.35383898181E+03  0.64754612911E+03  0.82318118561E+03  0.11055067972E+04  0.25500000920E-02 0.  1.
       -2    1    3    3    0  502 -0.35383898181E+03 -0.64754612911E+03  0.45178440174E+03  0.86523243122E+03  0.25500000920E-02 0. -1.
</event>
<event>
 5   0  0.1576214E-05  0.1499384E+04  0.7818609E-02  0.8884863E-01
       -1   -1    0    0    0  501  0.00000000000E+00  0.00000000000E+00  0.31343420411E+03  0.31343420415E+03  0.50400001928E-02 0.  1.
        1   -1    0    0  501    0  0.00000000000E+00  0.00000000000E+00 -0.17931617689E+04  0.17931617689E+04  0.50400001928E-02 0. -1.
    10030    2    1    2    0    0  0.00000000000E+00  0.00000000000E+00 -0.14797275648E+04  0.21065959731E+04  0.14993841828E+04 0.  0.
        1    1    3    3  502    0  0.34388347518E+03 -0.51305111832E+03 -0.13368718843E+04  0.14726519377E+04  0.50400001928E-02 0. -1.
       -1    1    3    3    0  502 -0.34388347518E+03  0.51305111832E+03 -0.14285568049E+03  0.63394403537E+03  0.50400001928E-02 0.  1.
</event>
<event>
 5   0  0.3018308E-05  0.1496897E+04  0.7818609E-02  0.8886519E-01
        2   -1    0    0  501    0  0.00000000000E+00  0.00000000000E+00  0.10220295539E+04  0.10220295539E+04  0.25500000920E-02 0. -1.
       -2   -1    0    0    0  501  0.00000000000E+00  0.00000000000E+00 -0.54810058929E+03  0.54810058929E+03  0.25500000920E-02 0.  1.
    10030    2    1    2    0    0  0.00000000000E+00  0.00000000000E+00  0.47392896459E+03  0.15701301432E+04  0.14968967910E+04 0.  0.
        2    1    3    3  502    0  0.35877716466E+03  0.63213306935E+03  0.49733176156E+02  0.72855106895E+03  0.25500000920E-02 0. -1.
       -2    1    3    3    0  502 -0.35877716466E+03 -0.63213306935E+03  0.42419578844E+03  0.84157907423E+03  0.25500000920E-02 0.  1.
</event>
<event>
 5   0  0.3030702E-05  0.1500024E+04  0.7818609E-02  0.8884437E-01
        2   -1    0    0  501    0  0.00000000000E+00  0.00000000000E+00  0.46119640123E+03  0.46119640124E+03  0.25500000920E-02 0. -1.
       -2   -1    0    0    0  501  0.00000000000E+00  0.00000000000E+00 -0.12196934668E+04  0.12196934668E+04  0.25500000920E-02 0.  1.
    10030    2    1    2    0    0  0.00000000000E+00  0.00000000000E+00 -0.75849706557E+03  0.16808898680E+04  0.15000243165E+04 0.  0.
        5    1    3    3  502    0  0.14344490598E+03 -0.55579358112E+03 -0.92016627128E+03  0.10845326195E+04  0.46999998093E+01 0.  1.
       -5    1    3    3    0  502 -0.14344490598E+03  0.55579358112E+03  0.16166920571E+03  0.59635724858E+03  0.46999998093E+01 0. -1.
</event>
<event>
 5   0  0.3030702E-05  0.1500685E+04  0.7818609E-02  0.8883998E-01
       -2   -1    0    0    0  501  0.00000000000E+00  0.00000000000E+00  0.68318651239E+03  0.68318651239E+03  0.25500000920E-02 0.  1.
        2   -1    0    0  501    0  0.00000000000E+00  0.00000000000E+00 -0.82409975181E+03  0.82409975181E+03  0.25500000920E-02 0. -1.
    10030    2    1    2    0    0  0.00000000000E+00  0.00000000000E+00 -0.14091323942E+03  0.15072862642E+04  0.15006849573E+04 0.  0.
        5    1    3    3  502    0 -0.17958463693E+03 -0.71465021141E+03  0.71644270370E+02  0.74035839833E+03  0.46999998093E+01 0.  1.
       -5    1    3    3    0  502  0.17958463693E+03  0.71465021141E+03 -0.21255750979E+03  0.76692786588E+03  0.46999998093E+01 0. -1.
</event>
<event>
 5   0  0.1116613E-05  0.1507357E+04  0.7818609E-02  0.8879575E-01
        4   -1    0    0  501    0  0.00000000000E+00  0.00000000000E+00  0.56646103343E+03  0.56646245709E+03  0.12699999809E+01 0. -1.
       -4   -1    0    0    0  501  0.00000000000E+00  0.00000000000E+00 -0.10027687779E+04  0.10027695821E+04  0.12699999809E+01 0.  1.
    10030    2    1    2    0    0  0.00000000000E+00  0.00000000000E+00 -0.43630774449E+03  0.15692320392E+04  0.15073568738E+04 0.  0.
        4    1    3    3  502    0 -0.35250926368E+03 -0.24384931599E+03 -0.86352377024E+03  0.96405403612E+03  0.12699999809E+01 0.  1.
       -4    1    3    3    0  502  0.35250926368E+03  0.24384931599E+03  0.42721602575E+03  0.60517800311E+03  0.12699999809E+01 0. -1.
</event>
<event>
 5   0  0.1576214E-05  0.1499486E+04  0.7818609E-02  0.8884795E-01
        1   -1    0    0  501    0  0.00000000000E+00  0.00000000000E+00  0.21745244530E+04  0.21745244530E+04  0.50400001928E-02 0. -1.
       -1   -1    0    0    0  501  0.00000000000E+00  0.00000000000E+00 -0.25850005164E+03  0.25850005169E+03  0.50400001928E-02 0.  1.
    10030    2    1    2    0    0  0.00000000000E+00  0.00000000000E+00  0.19160244013E+04  0.24330245047E+04  0.14994861566E+04 0.  0.
        1    1    3    3  502    0  0.59807759840E+03 -0.21383134313E+03  0.16043868453E+04  0.17255369618E+04  0.50400001928E-02 0. -1.
       -1    1    3    3    0  502 -0.59807759840E+03  0.21383134313E+03  0.31163755602E+03  0.70748754290E+03  0.50400001928E-02 0.  1.
</event>
<event>
 5   0  0.1588657E-05  0.1499861E+04  0.7818609E-02  0.8884545E-01
       -1   -1    0    0    0  501  0.00000000000E+00  0.00000000000E+00  0.59023681774E+03  0.59023681776E+03  0.50400001928E-02 0. -1.
        1   -1    0    0  501    0  0.00000000000E+00  0.00000000000E+00 -0.95283119347E+03  0.95283119349E+03  0.50400001928E-02 0.  1.
    10030    2    1    2    0    0  0.00000000000E+00  0.00000000000E+00 -0.36259437573E+03  0.15430680112E+04  0.14998613956E+04 0.  0.
        3    1    3    3  502    0  0.34854372797E+02 -0.37047031255E+03 -0.85115485642E+03  0.92893900747E+03  0.10100000352E+00 0.  1.
       -3    1    3    3    0  502 -0.34854372797E+02  0.37047031255E+03  0.48856048069E+03  0.61412900377E+03  0.10100000352E+00 0. -1.
</event>
<event>
 5   0  0.1588657E-05  0.1498967E+04  0.7818609E-02  0.8885140E-01
       -1   -1    0    0    0  501  0.00000000000E+00  0.00000000000E+00  0.93761029379E+03  0.93761029380E+03  0.50400001928E-02 0.  1.
        1   -1    0    0  501    0  0.00000000000E+00  0.00000000000E+00 -0.59910346464E+03  0.59910346466E+03  0.50400001928E-02 0. -1.
    10030    2    1    2    0    0  0.00000000000E+00  0.00000000000E+00  0.33850682915E+03  0.15367137585E+04  0.14989670784E+04 0.  0.
        3    1    3    3  502    0  0.39711418328E+02 -0.56134902963E+03 -0.33822279387E+03  0.65657017774E+03  0.10100000352E+00 0. -1.
       -3    1    3    3    0  502 -0.39711418328E+02  0.56134902963E+03  0.67672962301E+03  0.88014358072E+03  0.10100000352E+00 0.  1.
</event>
<event>
 5   0  0.3093600E-05  0.1500072E+04  0.7818609E-02  0.8884405E-01
        2   -1    0    0  501    0  0.00000000000E+00  0.00000000000E+00  0.11665949225E+04  0.11665949225E+04  0.25500000920E-02 0.  1.
       -2   -1    0    0    0  501  0.00000000000E+00  0.00000000000E+00 -0.48221850351E+03  0.48221850352E+03  0.25500000920E-02 0. -1.
    10030    2    1    2    0    0  0.00000000000E+00  0.00000000000E+00  0.68437641901E+03  0.16488134260E+04  0.15000715420E+04 0.  0.
        1    1    3    3  502    0 -0.44968154905E+03 -0.27720950336E+03 -0.24304947834E+03  0.58149088837E+03  0.50400001928E-02 0. -1.
       -1    1    3    3    0  502  0.44968154905E+03  0.27720950336E+03  0.92742589735E+03  0.10673225377E+04  0.50400001928E-02 0.  1.
</event>
<event>
 5   0  0.1533777E-05  0.1500882E+04  0.7818609E-02  0.8883866E-01
       -1   -1    0    0    0  501  0.00000000000E+00  0.00000000000E+00  0.64341818271E+03  0.64341818273E+03  0.50400001928E-02 0. -1.
        1   -1    0    0  501    0  0.00000000000E+00  0.00000000000E+00 -0.87526588105E+03  0.87526588106E+03  0.50400001928E-02 0.  1.
    10030    2    1    2    0    0  0.00000000000E+00  0.00000000000E+00 -0.23184769834E+03  0.15186840638E+04  0.15008823839E+04 0.  0.
        5    1    3    3  502    0 -0.64096616379E+03 -0.38976754521E+03 -0.96107641309E+02  0.75631681929E+03  0.46999998093E+01 0. -1.
       -5    1    3    3    0  502  0.64096616379E+03  0.38976754521E+03 -0.13574005703E+03  0.76236724451E+03  0.46999998093E+01 0.  1.
</event>
<event>
 5   0  0.3093600E-05  0.1499887E+04  0.7818609E-02  0.8884528E-01
        2   -1    0    0  501    0  0.00000000000E+00  0.00000000000E+00  0.90970368711E+03  0.90970368712E+03  0.25500000920E-02 0.  1.
       -2   -1    0    0    0  501  0.00000000000E+00  0.00000000000E+00 -0.61823987726E+03  0.61823987726E+03  0.25500000920E-02 0. -1.
    10030    2    1    2    0    0  0.00000000000E+00  0.00000000000E+00  0.29146380986E+03  0.15279435644E+04  0.14998867902E+04 0.  0.
        1    1    3    3  502    0 -0.53525971315E+03  0.28412617048E+02  0.68004763952E+03  0.86589550719E+03  0.50400001928E-02 0.  1.
       -1    1    3    3    0  502  0.53525971315E+03 -0.28412617048E+02 -0.38858382967E+03  0.66204805719E+03  0.50400001928E-02 0. -1.
</event>
<event>
 5   0  0.2969498E-05  0.1498127E+04  0.7818609E-02  0.8885700E-01
        2   -1    0    0  501    0  0.00000000000E+00  0.00000000000E+00  0.27056968339E+04  0.27056968339E+04  0.25500000920E-02 0.  1.
       -2   -1    0    0    0  501  0.00000000000E+00  0.00000000000E+00 -0.20737574036E+03  0.20737574037E+03  0.25500000920E-02 0. -1.
    10030    2    1    2    0    0  0.00000000000E+00  0.00000000000E+00  0.24983210936E+04  0.29130725743E+04  0.14981266757E+04 0.  0.
        3    1    3    3  502    0  0.48967636725E+03 -0.86684427431E+02  0.15990855043E+03  0.52236758064E+03  0.10100000352E+00 0. -1.
       -3    1    3    3    0  502 -0.48967636725E+03  0.86684427431E+02  0.23384125432E+04  0.23907049937E+04  0.10100000352E+00 0.  1.
</event>
<event>
 5   0  0.3018308E-05  0.1500061E+04  0.7818609E-02  0.8884413E-01
       -2   -1    0    0    0  501  0.00000000000E+00  0.00000000000E+00  0.62216414756E+03  0.62216414757E+03  0.25500000920E-02 0.  1.
        2   -1    0    0  501    0  0.00000000000E+00  0.00000000000E+00 -0.90417523508E+03  0.90417523508E+03  0.25500000920E-02 0. -1.
    10030    2    1    2    0    0  0.00000000000E+00  0.00000000000E+00 -0.28201108752E+03  0.15263393826E+04  0.15000605513E+04 0.  0.
        2    1    3    3  502    0 -0.46904194576E+03  0.10340237941E+03  0.44515314105E+03  0.65486923728E+03  0.25500000920E-02 0.  1.
       -2    1    3    3    0  502  0.46904194576E+03 -0.10340237941E+03 -0.72716422857E+03  0.87147014537E+03  0.25500000920E-02 0. -1.
</event>
<event>
 5   0  0.1580078E-05  0.1496885E+04  0.7818609E-02  0.8886527E-01
        1   -1    0    0  501    0  0.00000000000E+00  0.00000000000E+00  0.20134764897E+04  0.20134764897E+04  0.50400001928E-02 0.  1.
       -1   -1    0    0    0  501  0.00000000000E+00  0.00000000000E+00 -0.27820828030E+03  0.27820828035E+03  0.50400001928E-02 0. -1.
    10030    2    1    2    0    0  0.00000000000E+00  0.00000000000E+00  0.17352682094E+04  0.22916847700E+04  0.14968845402E+04 0.  0.
        2    1    3    3  502    0 -0.19926779823E+03  0.72074867309E+03  0.81971875418E+03  0.11095607875E+04  0.25500000920E-02 0. -1.
       -2    1    3    3    0  502  0.19926779823E+03 -0.72074867309E+03  0.91554945520E+03  0.11821239825E+04  0.25500000920E-02 0.  1.
</event>
<event>
 5   0  0.3030702E-05  0.1499811E+04  0.7818609E-02  0.8884578E-01
       -2   -1    0    0    0  501  0.00000000000E+00  0.00000000000E+00  0.56918966882E+03  0.56918966882E+03  0.25500000920E-02 0.  1.
        2   -1    0    0  501    0  0.00000000000E+00  0.00000000000E+00 -0.98799863229E+03  0.98799863229E+03  0.25500000920E-02 0. -1.
    10030    2    1    2    0    0  0.00000000000E+00  0.00000000000E+00 -0.41880896347E+03  0.15571883011E+04  0.14998114739E+04 0.  0.
        5    1    3    3  502    0  0.62815777754E+03  0.21491646795E+03 -0.57140498238E+03  0.87595492211E+03  0.46999998093E+01 0. -1.
       -5    1    3    3    0  502 -0.62815777754E+03 -0.21491646795E+03  0.15259601890E+03  0.68123337900E+03  0.46999998093E+01 0.  1.
</event>
<event>
 5   0  0.1116613E-05  0.1501246E+04  0.7818609E-02  0.8883625E-01
        3   -1    0    0  501    0  0.00000000000E+00  0.00000000000E+00  0.40927351774E+03  0.40927353021E+03  0.10100000352E+00 0. -1.
       -3   -1    0    0    0  501  0.00000000000E+00  0.00000000000E+00 -0.13766704378E+04  0.13766704415E+04  0.10100000352E+00 0.  1.
    10030    2    1    2    0    0  0.00000000000E+00  0.00000000000E+00 -0.96739692004E+03  0.17859439717E+04  0.15012458390E+04 0.  0.
        1    1    3    3  502    0  0.55961080814E+03 -0.46435627543E+03 -0.70512441430E+03  0.10129123589E+04  0.50400001928E-02 0.  1.
       -1    1    3    3    0  502 -0.55961080814E+03  0.46435627543E+03 -0.26227250574E+03  0.77303161281E+03  0.50400001928E-02 0. -1.
</event>
<event>
 5   0  0.3030702E-05  0.1498876E+04  0.7818609E-02  0.8885201E-01
        2   -1    0    0  501    0  0.00000000000E+00  0.00000000000E+00  0.16570380731E+04  0.16570380731E+04  0.25500000920E-02 0.  1.
       -2   -1    0    0    0  501  0.00000000000E+00  0.00000000000E+00 -0.33895244943E+03  0.33895244944E+03  0.25500000920E-02 0. -1.
    10030    2    1    2    0    0  0.00000000000E+00  0.00000000000E+00  0.13180856236E+04  0.19959905225E+04  0.14988757302E+04 0.  0.
        5    1    3    3  502    0 -0.51884094110E+03  0.61922686427E+02  0.13744355604E+04  0.14704167916E+04  0.46999998093E+01 0.  1.
       -5    1    3    3    0  502  0.51884094110E+03 -0.61922686427E+02 -0.56349936778E+02  0.52557373092E+03  0.46999998093E+01 0. -1.
</event>
<event>
 5   0  0.3093600E-05  0.1500333E+04  0.7818609E-02  0.8884231E-01
       -2   -1    0    0    0  501  0.00000000000E+00  0.00000000000E+00  0.48507435756E+03  0.48507435756E+03  0.25500000920E-02 0. -1.
        2   -1    0    0  501    0  0.00000000000E+00  0.00000000000E+00 -0.11601313623E+04  0.11601313623E+04  0.25500000920E-02 0.  1.
    10030    2    1    2    0    0  0.00000000000E+00  0.00000000000E+00 -0.67505700479E+03  0.16452057199E+04  0.15003332634E+04 0.  0.
        1    1    3    3  502    0 -0.13750334486E+03  0.62075138906E+03 -0.77410616959E+03  0.10017383983E+04  0.50400001928E-02 0. -1.
       -1    1    3    3    0  502  0.13750334486E+03 -0.62075138906E+03  0.99049164806E+02  0.64346732158E+03  0.50400001928E-02 0.  1.
</event>
<event>
 5   0  0.3070497E-05  0.1498602E+04  0.7818609E-02  0.8885383E-01
        2   -1    0    0  501    0  0.00000000000E+00  0.00000000000E+00  0.46323053112E+03  0.46323053113E+03  0.25500000920E-02 0. -1.
       -2   -1    0    0    0  501  0.00000000000E+00  0.00000000000E+00 -0.12120352997E+04  0.12120352997E+04  0.25500000920E-02 0.  1.
    10030    2    1    2    0    0  0.00000000000E+00  0.00000000000E+00 -0.74880476858E+03  0.16752658308E+04  0.14986016891E+04 0.  0.
        4    1    3    3  502    0  0.57207552713E+03 -0.40721233189E+03 -0.82127355076E+02  0.70699279157E+03  0.12699999809E+01 0. -1.
       -4    1    3    3    0  502 -0.57207552713E+03  0.40721233189E+03 -0.66667741351E+03  0.96827303926E+03  0.12699999809E+01 0.  1.
</event>
<event>
 5   0  0.1580078E-05  0.1501009E+04  0.7818609E-02  0.8883782E-01
        1   -1    0    0  501    0  0.00000000000E+00  0.00000000000E+00  0.96836813015E+03  0.96836813016E+03  0.50400001928E-02 0. -1.
       -1   -1    0    0    0  501  0.00000000000E+00  0.00000000000E+00 -0.58165557966E+03  0.58165557968E+03  0.50400001928E-02 0.  1.
    10030    2    1    2    0    0  0.00000000000E+00  0.00000000000E+00  0.38671255049E+03  0.15500237098E+04  0.15010086290E+04 0.  0.
        2    1    3    3  502    0 -0.69205488299E+03 -0.26011583032E+03  0.32663084388E+03  0.80826228072E+03  0.25500000920E-02 0. -1.
       -2    1    3    3    0  502  0.69205488299E+03  0.26011583032E+03  0.60081706613E+02  0.74176142912E+03  0.25500000920E-02 0.  1.
</event>
<event>
 5   0  0.1580078E-05  0.1500358E+04  0.7818609E-02  0.8884215E-01
       -1   -1    0    0    0  501  0.00000000000E+00  0.00000000000E+00  0.43224275608E+03  0.43224275611E+03  0.50400001928E-02 0. -1.
        1   -1    0    0  501    0  0.00000000000E+00  0.00000000000E+00 -0.13019735616E+04  0.13019735616E+04  0.50400001928E-02 0.  1.
    10030    2    1    2    0    0  0.00000000000E+00  0.00000000000E+00 -0.86973080548E+03  0.17342163177E+04  0.15003581447E+04 0.  0.
        2    1    3    3  502    0 -0.28395518720E+03 -0.56515312736E+02  0.36506231821E+03  0.46593457168E+03  0.25500000920E-02 0. -1.
       -2    1    3    3    0  502  0.28395518720E+03  0.56515312736E+02 -0.12347931237E+04  0.12682817460E+04  0.25500000920E-02 0.  1.
</event>
<event>
 5   0  0.3030702E-05  0.1500233E+04  0.7818609E-02  0.8884298E-01
       -2   -1    0    0    0  501  0.00000000000E+00  0.00000000000E+00  0.51569103690E+03  0.51569103691E+03  0.25500000920E-02 0.  1.
        2   -1    0    0  501    0  0.00000000000E+00  0.00000000000E+00 -0.10911077899E+04  0.10911077899E+04  0.25500000920E-02 0. -1.
    10030    2    1    2    0    0  0.00000000000E+00  0.00000000000E+00 -0.57541675299E+03  0.16067988268E+04  0.15002326587E+04 0.  0.
        5    1    3    3  502    0  0.14718534336E+03 -0.19381039579E+03  0.47221690598E+03  0.53125972095E+03  0.46999998093E+01 0.  1.
       -5    1    3    3    0  502 -0.14718534336E+03  0.19381039579E+03 -0.10476336590E+04  0.10755391059E+04  0.46999998093E+01 0. -1.
</event>
<event>
 5   0  0.2969498E-05  0.1499959E+04  0.7818609E-02  0.8884480E-01
       -2   -1    0    0    0  501  0.00000000000E+00  0.00000000000E+00  0.38635779055E+03  0.38635779055E+03  0.25500000920E-02 0.  1.
        2   -1    0    0  501    0  0.00000000000E+00  0.00000000000E+00 -0.14558242585E+04  0.14558242585E+04  0.25500000920E-02 0. -1.
    10030    2    1    2    0    0  0.00000000000E+00  0.00000000000E+00 -0.10694664680E+04  0.18421820491E+04  0.14999587247E+04 0.  0.
        3    1    3    3  502    0  0.66352988769E+03  0.11888613414E+03 -0.93846429915E+03  0.11554743942E+04  0.10100000352E+00 0. -1.
       -3    1    3    3    0  502 -0.66352988769E+03 -0.11888613414E+03 -0.13100216880E+03  0.68670765482E+03  0.10100000352E+00 0.  1.
</event>
<event>
 5   0  0.1580078E-05  0.1499742E+04  0.7818609E-02  0.8884624E-01
        1   -1    0    0  501    0  0.00000000000E+00  0.00000000000E+00  0.15019097795E+04  0.15019097795E+04  0.50400001928E-02 0. -1.
       -1   -1    0    0    0  501  0.00000000000E+00  0.00000000000E+00 -0.37439434330E+03  0.37439434333E+03  0.50400001928E-02 0.  1.
    10030    2    1    2    0    0  0.00000000000E+00  0.00000000000E+00  0.11275154362E+04  0.18763041228E+04  0.14997420120E+04 0.  0.
        2    1    3    3  502    0 -0.74202770215E+03  0.58861547613E+02  0.45021372284E+03  0.86992079455E+03  0.25500000920E-02 0.  1.
       -2    1    3    3    0  502  0.74202770215E+03 -0.58861547613E+02  0.67730171337E+03  0.10063833283E+04  0.25500000920E-02 0. -1.
</event>
<event>
 5   0  0.3070497E-05  0.1501258E+04  0.7818609E-02  0.8883617E-01
       -2   -1    0    0    0  501  0.00000000000E+00  0.00000000000E+00  0.44374172377E+03  0.44374172378E+03  0.25500000920E-02 0. -1.
        2   -1    0    0  501    0  0.00000000000E+00  0.00000000000E+00 -0.12697558684E+04  0.12697558684E+04  0.25500000920E-02 0.  1.
    10030    2    1    2    0    0  0.00000000000E+00  0.00000000000E+00 -0.82601414459E+03  0.17134975921E+04  0.15012576831E+04 0.  0.
        4    1    3    3  502    0 -0.61032189886E+02  0.44340337726E+03  0.27477000316E+03  0.52519677332E+03  0.12699999809E+01 0. -1.
       -4    1    3    3    0  502  0.61032189886E+02 -0.44340337726E+03 -0.11007841477E+04  0.11883008188E+04  0.12699999809E+01 0.  1.
</event>
<event>
 5   0  0.1643498E-05  0.1500411E+04  0.7818609E-02  0.8884180E-01
        1   -1    0    0  501    0  0.00000000000E+00  0.00000000000E+00  0.42465478747E+03  0.42465478750E+03  0.50400001928E-02 0. -1.
       -1   -1    0    0    0  501  0.00000000000E+00  0.00000000000E+00 -0.13253313492E+04  0.13253313492E+04  0.50400001928E-02 0.  1.
    10030    2    1    2    0    0  0.00000000000E+00  0.00000000000E+00 -0.90067656175E+03  0.17499861367E+04  0.15004110136E+04 0.  0.
        4    1    3    3  502    0 -0.55662787954E+03  0.68047356557E+02 -0.10315697856E+04  0.11741392057E+04  0.12699999809E+01 0.  1.
       -4    1    3    3    0  502  0.55662787954E+03 -0.68047356557E+02  0.13089322381E+03  0.57584693101E+03  0.12699999809E+01 0. -1.
</event>
<event>
 5   0  0.1588657E-05  0.1500268E+04  0.7818609E-02  0.8884275E-01
        1   -1    0    0  501    0  0.00000000000E+00  0.00000000000E+00  0.11989606820E+04  0.11989606821E+04  0.50400001928E-02 0.  1.
       -1   -1    0    0    0  501  0.00000000000E+00  0.00000000000E+00 -0.46932386567E+03  0.46932386570E+03  0.50400001928E-02 0. -1.
    10030    2    1    2    0    0  0.00000000000E+00  0.00000000000E+00  0.72963681638E+03  0.16682845478E+04  0.15002677923E+04 0.  0.
        3    1    3    3  502    0  0.22654096798E+03  0.44631142419E+03  0.98612814585E+03  0.11058767688E+04  0.10100000352E+00 0.  1.
       -3    1    3    3    0  502 -0.22654096798E+03 -0.44631142419E+03 -0.25649132947E+03  0.56240777896E+03  0.10100000352E+00 0. -1.
</event>
<event>
 5   0  0.2969498E-05  0.1499746E+04  0.7818609E-02  0.8884622E-01
       -2   -1    0    0    0  501  0.00000000000E+00  0.00000000000E+00  0.10925886945E+04  0.10925886945E+04  0.25500000920E-02 0. -1.
        2   -1    0    0  501    0  0.00000000000E+00  0.00000000000E+00 -0.51465823613E+03  0.51465823613E+03  0.25500000920E-02 0.  1.
    10030    2    1    2    0    0  0.00000000000E+00  0.00000000000E+00  0.57793045842E+03  0.16072469307E+04  0.14997463390E+04 0.  0.
        3    1    3    3  502    0 -0.57119343678E+03 -0.18320575676E+03 -0.19327071773E+03  0.63022208154E+03  0.10100000352E+00 0.  1.
       -3    1    3    3    0  502  0.57119343678E+03  0.18320575676E+03  0.77120117615E+03  0.97702484914E+03  0.10100000352E+00 0. -1.
</event>
<event>
 5   0  0.1580078E-05  0.1502682E+04  0.7818609E-02  0.8882671E-01
       -1   -1    0    0    0  501  0.00000000000E+00  0.00000000000E+00  0.53979017724E+03  0.53979017726E+03  0.50400001928E-02 0.  1.
        1   -1    0    0  501    0  0.00000000000E+00  0.00000000000E+00 -0.10458011440E+04  0.10458011440E+04  0.50400001928E-02 0. -1.
    10030    2    1    2    0    0  0.00000000000E+00  0.00000000000E+00 -0.50601096678E+03  0.15855913213E+04  0.15026818491E+04 0.  0.
        2    1    3    3  502    0 -0.69889789143E+03 -0.16314632177E+03 -0.48762035869E+03  0.86766848460E+03  0.25500000920E-02 0. -1.
       -2    1    3    3    0  502  0.69889789143E+03  0.16314632177E+03 -0.18390608093E+02  0.71792283668E+03  0.25500000920E-02 0.  1.
</event>
<event>
 5   0  0.3093600E-05  0.1499571E+04  0.7818609E-02  0.8884739E-01
       -2   -1    0    0    0  501  0.00000000000E+00  0.00000000000E+00  0.58445046820E+03  0.58445046821E+03  0.25500000920E-02 0. -1.
        2   -1    0    0  501    0  0.00000000000E+00  0.00000000000E+00 -0.96189152851E+03  0.96189152852E+03  0.25500000920E-02 0.  1.
    10030    2    1    2    0    0  0.00000000000E+00  0.00000000000E+00 -0.37744106031E+03  0.15463419967E+04  0.14995705441E+04 0.  0.
        1    1    3    3  502    0  0.50150714820E+03  0.17656912342E+03  0.35643854578E+03  0.64010507886E+03  0.50400001928E-02 0. -1.
       -1    1    3    3    0  502 -0.50150714820E+03 -0.17656912342E+03 -0.73387960609E+03  0.90623691786E+03  0.50400001928E-02 0.  1.
</event>
<event>
 5   0  0.2969498E-05  0.1500122E+04  0.7818609E-02  0.8884372E-01
        2   -1    0    0  501    0  0.00000000000E+00  0.00000000000E+00  0.95473232156E+03  0.95473232156E+03  0.25500000920E-02 0. -1.
       -2   -1    0    0    0  501  0.00000000000E+00  0.00000000000E+00 -0.58926619334E+03  0.58926619335E+03  0.25500000920E-02 0.  1.
    10030    2    1    2    0    0  0.00000000000E+00  0.00000000000E+00  0.36546612822E+03  0.15439985149E+04  0.15001219694E+04 0.  0.
        3    1    3    3  502    0 -0.59841031902E+03  0.16621667162E+03  0.61559126486E+03  0.87445726448E+03  0.10100000352E+00 0. -1.
       -3    1    3    3    0  502  0.59841031902E+03 -0.16621667162E+03 -0.25012513664E+03  0.66954125042E+03  0.10100000352E+00 0.  1.
</event>
<event>
 5   0  0.1576214E-05  0.1489846E+04  0.7818609E-02  0.8891233E-01
        1   -1    0    0  501    0  0.00000000000E+00  0.00000000000E+00  0.75782031028E+03  0.75782031030E+03  0.50400001928E-02 0.  1.
       -1   -1    0    0    0  501  0.00000000000E+00  0.00000000000E+00 -0.73224565134E+03  0.73224565136E+03  0.50400001928E-02 0. -1.
    10030    2    1    2    0    0  0.00000000000E+00  0.00000000000E+00  0.25574658943E+02  0.14900659617E+04  0.14898464709E+04 0.  0.
        1    1    3    3  502    0  0.41076278838E+02  0.13702773815E+03  0.74395369269E+03  0.75758231143E+03  0.50400001928E-02 0.  1.
       -1    1    3    3    0  502 -0.41076278838E+02 -0.13702773815E+03 -0.71837903374E+03  0.73248365023E+03  0.50400001928E-02 0. -1.
</event>
<event>
 5   0  0.1576214E-05  0.1499591E+04  0.7818609E-02  0.8884725E-01
       -1   -1    0    0    0  501  0.00000000000E+00  0.00000000000E+00  0.43793115050E+03  0.43793115053E+03  0.50400001928E-02 0. -1.
        1   -1    0    0  501    0  0.00000000000E+00  0.00000000000E+00 -0.12837488072E+04  0.12837488072E+04  0.50400001928E-02 0.  1.
    10030    2    1    2    0    0  0.00000000000E+00  0.00000000000E+00 -0.84581765667E+03  0.17216799577E+04  0.14995914005E+04 0.  0.
        1    1    3    3  502    0 -0.18784050134E+03  0.20076313369E+03  0.37797068970E+03  0.46738820277E+03  0.50400001928E-02 0. -1.
       -1    1    3    3    0  502  0.18784050134E+03 -0.20076313369E+03 -0.12237883464E+04  0.12542917549E+04  0.50400001928E-02 0.  1.
</event>
<event>
 5   0  0.3093600E-05  0.1500371E+04  0.7818609E-02  0.8884206E-01
       -2   -1    0    0    0  501  0.00000000000E+00  0.00000000000E+00  0.54716809736E+03  0.54716809736E+03  0.25500000920E-02 0. -1.
        2   -1    0    0  501    0  0.00000000000E+00  0.00000000000E+00 -0.10285296560E+04  0.10285296560E+04  0.25500000920E-02 0.  1.
    10030    2    1    2    0    0  0.00000000000E+00  0.00000000000E+00 -0.48136155865E+03  0.15756977534E+04  0.15003714406E+04 0.  0.
        1    1    3    3  502    0 -0.53520708429E+02  0.33700975007E+03 -0.94230785374E+03  0.10021896672E+04  0.50400001928E-02 0.  1.
       -1    1    3    3    0  502  0.53520708429E+02 -0.33700975007E+03  0.46094629509E+03  0.57350808613E+03  0.50400001928E-02 0. -1.
</event>
<event>
 5   0  0.1580078E-05  0.1499618E+04  0.7818609E-02  0.8884707E-01
        1   -1    0    0  501    0  0.00000000000E+00  0.00000000000E+00  0.15500965496E+04  0.15500965496E+04  0.50400001928E-02 0.  1.
       -1   -1    0    0    0  501  0.00000000000E+00  0.00000000000E+00 -0.36269567290E+03  0.36269567294E+03  0.50400001928E-02 0. -1.
    10030    2    1    2    0    0  0.00000000000E+00  0.00000000000E+00  0.11874008767E+04  0.19127922226E+04  0.14996176995E+04 0.  0.
        2    1    3    3  502    0 -0.25719792798E+03 -0.44256794649E+03  0.12925598183E+04  0.13902258972E+04  0.25500000920E-02 0.  1.
       -2    1    3    3    0  502  0.25719792798E+03  0.44256794649E+03 -0.10515894155E+03  0.52256632537E+03  0.25500000920E-02 0. -1.
</event>
<event>
 5   0  0.1576214E-05  0.1501280E+04  0.7818609E-02  0.8883602E-01
        1   -1    0    0  501    0  0.00000000000E+00  0.00000000000E+00  0.76473020247E+03  0.76473020249E+03  0.50400001928E-02 0.  1.
       -1   -1    0    0    0  501  0.00000000000E+00  0.00000000000E+00 -0.73680938602E+03  0.73680938604E+03  0.50400001928E-02 0. -1.
    10030    2    1    2    0    0  0.00000000000E+00  0.00000000000E+00  0.27920816453E+02  0.15015395885E+04  0.15012799752E+04 0.  0.
        1    1    3    3  502    0  0.58370943532E+03 -0.44907119237E+03 -0.13124992577E+03  0.74806963829E+03  0.50400001928E-02 0. -1.
       -1    1    3    3    0  502 -0.58370943532E+03  0.44907119237E+03  0.15917074222E+03  0.75346995023E+03  0.50400001928E-02 0.  1.
</event>
<event>
 5   0  0.2969498E-05  0.1500754E+04  0.7818609E-02  0.8883952E-01
       -2   -1    0    0    0  501  0.00000000000E+00  0.00000000000E+00  0.72414178852E+03  0.72414178852E+03  0.25500000920E-02 0.  1.
        2   -1    0    0  501    0  0.00000000000E+00  0.00000000000E+00 -0.77756254127E+03  0.77756254128E+03  0.25500000920E-02 0. -1.
    10030    2    1    2    0    0  0.00000000000E+00  0.00000000000E+00 -0.53420752757E+02  0.15017043298E+04  0.15007538497E+04 0.  0.
        3    1    3    3  502    0  0.98203030297E+02 -0.69097242542E+03 -0.30252745674E+03  0.76066392063E+03  0.10100000352E+00 0. -1.
       -3    1    3    3    0  502 -0.98203030297E+02  0.69097242542E+03  0.24910670399E+03  0.74104040917E+03  0.10100000352E+00 0.  1.
</event>
<event>
 5   0  0.1643498E-05  0.1500211E+04  0.7818609E-02  0.8884313E-01
        1   -1    0    0  501    0  0.00000000000E+00  0.00000000000E+00  0.16292785144E+04  0.16292785144E+04  0.50400001928E-02 0.  1.
       -1   -1    0    0    0  501  0.00000000000E+00  0.00000000000E+00 -0.34534183590E+03  0.34534183594E+03  0.50400001928E-02 0. -1.
    10030    2    1    2    0    0  0.00000000000E+00  0.00000000000E+00  0.12839366785E+04  0.19746203503E+04  0.15002106964E+04 0.  0.
        4    1    3    3  502    0  0.24628956791E+03  0.70829494791E+03  0.66537116707E+03  0.10025271504E+04  0.12699999809E+01 0.  1.
       -4    1    3    3    0  502 -0.24628956791E+03 -0.70829494791E+03  0.61856551142E+03  0.97209319991E+03  0.12699999809E+01 0. -1.
</event>
<event>
 5   0  0.1576214E-05  0.1499872E+04  0.7818609E-02  0.8884538E-01
        1   -1    0    0  501    0  0.00000000000E+00  0.00000000000E+00  0.13658478784E+04  0.13658478784E+04  0.50400001928E-02 0. -1.
       -1   -1    0    0    0  501  0.00000000000E+00  0.00000000000E+00 -0.41176195949E+03  0.41176195952E+03  0.50400001928E-02 0.  1.
    10030    2    1    2    0    0  0.00000000000E+00  0.00000000000E+00  0.95408591888E+03  0.17776098379E+04  0.14998722596E+04 0.  0.
        1    1    3    3  502    0 -0.95366179123E+02  0.73927157823E+03  0.57468163367E+03  0.94120994183E+03  0.50400001928E-02 0. -1.
       -1    1    3    3    0  502  0.95366179123E+02 -0.73927157823E+03  0.37940428522E+03  0.83639989608E+03  0.50400001928E-02 0.  1.
</event>
<event>
 5   0  0.1576214E-05  0.1501754E+04  0.7818609E-02  0.8883287E-01
       -1   -1    0    0    0  501  0.00000000000E+00  0.00000000000E+00  0.57820896964E+03  0.57820896966E+03  0.50400001928E-02 0.  1.
        1   -1    0    0  501    0  0.00000000000E+00  0.00000000000E+00 -0.97510842204E+03  0.97510842206E+03  0.50400001928E-02 0. -1.
    10030    2    1    2    0    0  0.00000000000E+00  0.00000000000E+00 -0.39689945240E+03  0.15533173917E+04  0.15017542223E+04 0.  0.
        1    1    3    3  502    0 -0.53981751740E+03  0.14233157309E+03  0.32094234277E+03  0.64394504129E+03  0.50400001928E-02 0.  1.
       -1    1    3    3    0  502  0.53981751740E+03 -0.14233157309E+03 -0.71784179518E+03  0.90937235043E+03  0.50400001928E-02 0. -1.
</event>
<event>
 5   0  0.3018308E-05  0.1499464E+04  0.7818609E-02  0.8884810E-01
        2   -1    0    0  501    0  0.00000000000E+00  0.00000000000E+00  0.79810886474E+03  0.79810886474E+03  0.25500000920E-02 0. -1.
       -2   -1    0    0    0  501  0.00000000000E+00  0.00000000000E+00 -0.70428732064E+03  0.70428732065E+03  0.25500000920E-02 0.  1.
    10030    2    1    2    0    0  0.00000000000E+00  0.00000000000E+00  0.93821544091E+02  0.15023961854E+04  0.14994638428E+04 0.  0.
        2    1    3    3  502    0 -0.24080685052E+03  0.16499679145E+03  0.73883062899E+03  0.79440706114E+03  0.25500000920E-02 0. -1.
       -2    1    3    3    0  502  0.24080685052E+03 -0.16499679145E+03 -0.64500908490E+03  0.70798912425E+03  0.25500000920E-02 0.  1.
</event>
<event>
 5   0  0.3070497E-05  0.1500909E+04  0.7818609E-02  0.8883849E-01
        2   -1    0    0  501    0  0.00000000000E+00  0.00000000000E+00  0.31455523617E+03  0.31455523618E+03  0.25500000920E-02 0.  1.
       -2   -1    0    0    0  501  0.00000000000E+00  0.00000000000E+00 -0.17904066828E+04  0.17904066828E+04  0.25500000920E-02 0. -1.
    10030    2    1    2    0    0  0.00000000000E+00  0.00000000000E+00 -0.14758514466E+04  0.21049619189E+04  0.15009087873E+04 0.  0.
        4    1    3    3  502    0  0.52496618421E+03  0.23888147721E+03 -0.14112902142E+04  0.15245968439E+04  0.12699999809E+01 0. -1.
       -4    1    3    3    0  502 -0.52496618421E+03 -0.23888147721E+03 -0.64561232359E+02  0.58036507505E+03  0.12699999809E+01 0.  1.
</event>
<event>
 5   0  0.2969498E-05  0.1499216E+04  0.7818609E-02  0.8884975E-01
       -2   -1    0    0    0  501  0.00000000000E+00  0.00000000000E+00  0.20547347080E+03  0.20547347081E+03  0.25500000920E-02 0. -1.
        2   -1    0    0  501    0  0.00000000000E+00  0.00000000000E+00 -0.27347173415E+04  0.27347173415E+04  0.25500000920E-02 0.  1.
    10030    2    1    2    0    0  0.00000000000E+00  0.00000000000E+00 -0.25292438707E+04  0.29401908123E+04  0.14992156133E+04 0.  0.
        3    1    3    3  502    0 -0.18868787299E+03  0.57941246985E+03 -0.40844919753E+03  0.73358890449E+03  0.10100000352E+00 0. -1.
       -3    1    3    3    0  502  0.18868787299E+03 -0.57941246985E+03 -0.21207946731E+04  0.22066019078E+04  0.10100000352E+00 0.  1.
</event>
<event>
 5   0  0.1588657E-05  0.1500054E+04  0.7818609E-02  0.8884417E-01
       -1   -1    0    0    0  501  0.00000000000E+00  0.00000000000E+00  0.42514132630E+03  0.42514132633E+03  0.50400001928E-02 0.  1.
        1   -1    0    0  501    0  0.00000000000E+00  0.00000000000E+00 -0.13231845839E+04  0.13231845839E+04  0.50400001928E-02 0. -1.
    10030    2    1    2    0    0  0.00000000000E+00  0.00000000000E+00 -0.89804325759E+03  0.17483259102E+04  0.15000539310E+04 0.  0.
        3    1    3    3  502    0  0.32456749883E+03  0.36572348716E+03 -0.11118700145E+04  0.12146409633E+04  0.10100000352E+00 0. -1.
       -3    1    3    3    0  502 -0.32456749883E+03 -0.36572348716E+03  0.21382675695E+03  0.53368494689E+03  0.10100000352E+00 0.  1.
</event>
<event>
 5   0  0.3030702E-05  0.1499934E+04  0.7818609E-02  0.8884497E-01
        2   -1    0    0  501    0  0.00000000000E+00  0.00000000000E+00  0.11459868571E+04  0.11459868571E+04  0.25500000920E-02 0. -1.
       -2   -1    0    0    0  501  0.00000000000E+00  0.00000000000E+00 -0.49080032225E+03  0.49080032225E+03  0.25500000920E-02 0.  1.
    10030    2    1    2    0    0  0.00000000000E+00  0.00000000000E+00  0.65518653483E+03  0.16367871793E+04  0.14999342902E+04 0.  0.
        5    1    3    3  502    0 -0.51172962235E+03  0.15668785550E+03 -0.24570767491E+03  0.58890800806E+03  0.46999998093E+01 0.  1.
       -5    1    3    3    0  502  0.51172962235E+03 -0.15668785550E+03  0.90089420974E+03  0.10478791713E+04  0.46999998093E+01 0. -1.
</event>
<event>
 5   0  0.3018308E-05  0.1500415E+04  0.7818609E-02  0.8884177E-01
       -2   -1    0    0    0  501  0.00000000000E+00  0.00000000000E+00  0.46398771085E+03  0.46398771086E+03  0.25500000920E-02 0.  1.
        2   -1    0    0  501    0  0.00000000000E+00  0.00000000000E+00 -0.12129882973E+04  0.12129882973E+04  0.25500000920E-02 0. -1.
    10030    2    1    2    0    0  0.00000000000E+00  0.00000000000E+00 -0.74900058645E+03  0.16769760082E+04  0.15004154936E+04 0.  0.
        2    1    3    3  502    0  0.36355987822E+03  0.64992980828E+03 -0.27312332617E+03  0.79320923598E+03  0.25500000920E-02 0. -1.
       -2    1    3    3    0  502 -0.36355987822E+03 -0.64992980828E+03 -0.47587726028E+03  0.88376677218E+03  0.25500000920E-02 0.  1.
</event>
<event>
 5   0  0.1588657E-05  0.1499256E+04  0.7818609E-02  0.8884948E-01
        1   -1    0    0  501    0  0.00000000000E+00  0.00000000000E+00  0.14314769953E+04  0.14314769953E+04  0.50400001928E-02 0.  1.
       -1   -1    0    0    0  501  0.00000000000E+00  0.00000000000E+00 -0.39256130166E+03  0.39256130169E+03  0.50400001928E-02 0. -1.
    10030    2    1    2    0    0  0.00000000000E+00  0.00000000000E+00  0.10389156936E+04  0.18240382970E+04  0.14992564458E+04 0.  0.
        3    1    3    3  502    0 -0.70356146152E+03 -0.25606332765E+03  0.47433905525E+03  0.88632088288E+03  0.10100000352E+00 0. -1.
       -3    1    3    3    0  502  0.70356146152E+03  0.25606332765E+03  0.56457663837E+03  0.93771741409E+03  0.10100000352E+00 0.  1.
</event>
<event>
 5   0  0.3030702E-05  0.1500099E+04  0.7818609E-02  0.8884387E-01
        2   -1    0    0  501    0  0.00000000000E+00  0.00000000000E+00  0.10444625548E+04  0.10444625548E+04  0.25500000920E-02 0.  1.
       -2   -1    0    0    0  501  0.00000000000E+00  0.00000000000E+00 -0.53862590262E+03  0.53862590263E+03  0.25500000920E-02 0. -1.
    10030    2    1    2    0    0  0.00000000000E+00  0.00000000000E+00  0.50583665215E+03  0.15830884574E+04  0.15000994451E+04 0.  0.
        5    1    3    3  502    0 -0.51896714743E+02 -0.72707232610E+03  0.43940026343E+03  0.85112990658E+03  0.46999998093E+01 0. -1.
       -5    1    3    3    0  502  0.51896714743E+02  0.72707232610E+03  0.66436388721E+02  0.73195855082E+03  0.46999998093E+01 0.  1.
</event>
<event>
 5   0  0.1533777E-05  0.1499250E+04  0.7818609E-02  0.8884952E-01
        1   -1    0    0  501    0  0.00000000000E+00  0.00000000000E+00  0.14023815491E+04  0.14023815491E+04  0.50400001928E-02 0.  1.
       -1   -1    0    0    0  501  0.00000000000E+00  0.00000000000E+00 -0.40070246525E+03  0.40070246528E+03  0.50400001928E-02 0. -1.
    10030    2    1    2    0    0  0.00000000000E+00  0.00000000000E+00  0.10016790838E+04  0.18030840144E+04  0.14992501379E+04 0.  0.
        5    1    3    3  502    0 -0.63620721687E+01  0.58136451688E+03 -0.68222576113E+02  0.58540719789E+03  0.46999998093E+01 0. -1.
       -5    1    3    3    0  502  0.63620721687E+01 -0.58136451688E+03  0.10699016599E+04  0.12176768165E+04  0.46999998093E+01 0.  1.
</event>
<event>
 5   0  0.3030702E-05  0.1499626E+04  0.7818609E-02  0.8884701E-01
       -2   -1    0    0    0  501  0.00000000000E+00  0.00000000000E+00  0.42020434920E+03  0.42020434921E+03  0.25500000920E-02 0. -1.
        2   -1    0    0  501    0  0.00000000000E+00  0.00000000000E+00 -0.13379676845E+04  0.13379676845E+04  0.25500000920E-02 0.  1.
    10030    2    1    2    0    0  0.00000000000E+00  0.00000000000E+00 -0.91776333530E+03  0.17581720337E+04  0.14996264070E+04 0.  0.
        5    1    3    3  502    0 -0.49435112753E+03  0.24685484246E+03 -0.10530934192E+04  0.11892637176E+04  0.46999998093E+01 0.  1.
       -5    1    3    3    0  502  0.49435112753E+03 -0.24685484246E+03  0.13533008386E+03  0.56890831610E+03  0.46999998093E+01 0. -1.
</event>
<event>
 5   0  0.3093600E-05  0.1500122E+04  0.7818609E-02  0.8884372E-01
       -2   -1    0    0    0  501  0.00000000000E+00  0.00000000000E+00  0.57006514701E+03  0.57006514701E+03  0.25500000920E-02 0.  1.
        2   -1    0    0  501    0  0.00000000000E+00  0.00000000000E+00 -0.98688972953E+03  0.98688972953E+03  0.25500000920E-02 0. -1.
    10030    2    1    2    0    0  0.00000000000E+00  0.00000000000E+00 -0.41682458252E+03  0.15569548765E+04  0.15001219134E+04 0.  0.
        1    1    3    3  502    0 -0.72364875354E+03  0.35958662468E+02 -0.40974843383E+03  0.83237871366E+03  0.50400001928E-02 0. -1.
       -1    1    3    3    0  502  0.72364875354E+03 -0.35958662468E+02 -0.70761486864E+01  0.72457616288E+03  0.50400001928E-02 0.  1.
</event>
<event>
 5   0  0.3070497E-05  0.1500211E+04  0.7818609E-02  0.8884313E-01
        2   -1    0    0  501    0  0.00000000000E+00  0.00000000000E+00  0.11508682003E+04  0.11508682003E+04  0.25500000920E-02 0. -1.
       -2   -1    0    0    0  501  0.00000000000E+00  0.00000000000E+00 -0.48889899479E+03  0.48889899479E+03  0.25500000920E-02 0.  1.
    10030    2    1    2    0    0  0.00000000000E+00  0.00000000000E+00  0.66196920551E+03  0.16397671951E+04  0.15002110602E+04 0.  0.
        4    1    3    3  502    0  0.61374639726E+03  0.35505047175E+03  0.59852162997E+03  0.92788751047E+03  0.12699999809E+01 0. -1.
       -4    1    3    3    0  502 -0.61374639726E+03 -0.35505047175E+03  0.63447575541E+02  0.71187968463E+03  0.12699999809E+01 0.  1.
</event>
<event>
 5   0  0.1588657E-05  0.1500090E+04  0.7818609E-02  0.8884393E-01
       -1   -1    0    0    0  501  0.00000000000E+00  0.00000000000E+00  0.83887804535E+03  0.83887804537E+03  0.50400001928E-02 0. -1.
        1   -1    0    0  501    0  0.00000000000E+00  0.00000000000E+00 -0.67061877102E+03  0.67061877104E+03  0.50400001928E-02 0.  1.
    10030    2    1    2    0    0  0.00000000000E+00  0.00000000000E+00  0.16825927433E+03  0.15094968164E+04  0.15000898158E+04 0.  0.
        3    1    3    3  502    0  0.62335313785E+03  0.26348407993E+03 -0.24127785208E+03  0.71847617006E+03  0.10100000352E+00 0.  1.
       -3    1    3    3    0  502 -0.62335313785E+03 -0.26348407993E+03  0.40953712640E+03  0.79102064635E+03  0.10100000352E+00 0. -1.
</event>
<event>
 5   0  0.1643498E-05  0.1500679E+04  0.7818609E-02  0.8884002E-01
        1   -1    0    0  501    0  0.00000000000E+00  0.00000000000E+00  0.82652601093E+03  0.82652601095E+03  0.50400001928E-02 0.  1.
       -1   -1    0    0    0  501  0.00000000000E+00  0.00000000000E+00 -0.68117524026E+03  0.68117524028E+03  0.50400001928E-02 0. -1.
    10030    2    1    2    0    0  0.00000000000E+00  0.00000000000E+00  0.14535077067E+03  0.15077012512E+04  0.15006785853E+04 0.  0.
        4    1    3    3  502    0 -0.61830297413E+03  0.37844812922E+03  0.26719415106E+03  0.77260331451E+03  0.12699999809E+01 0.  1.
       -4    1    3    3    0  502  0.61830297413E+03 -0.37844812922E+03 -0.12184338039E+03  0.73509793672E+03  0.12699999809E+01 0. -1.
</event>
<event>
 5   0  0.3093600E-05  0.1499642E+04  0.7818609E-02  0.8884691E-01
        2   -1    0    0  501    0  0.00000000000E+00  0.00000000000E+00  0.70746453434E+03  0.70746453434E+03  0.25500000920E-02 0. -1.
       -2   -1    0    0    0  501  0.00000000000E+00  0.00000000000E+00 -0.79471339751E+03  0.79471339751E+03  0.25500000920E-02 0.  1.
    10030    2    1    2    0    0  0.00000000000E+00  0.00000000000E+00 -0.87248863167E+02  0.15021779319E+04  0.14996420156E+04 0.  0.
        1    1    3    3  502    0 -0.50998817490E+03 -0.28622139131E+03  0.42644614135E+03  0.72378652577E+03  0.50400001928E-02 0. -1.
       -1    1    3    3    0  502  0.50998817490E+03  0.28622139131E+03 -0.51369500452E+03  0.77839140609E+03  0.50400001928E-02 0.  1.
</event>
<event>
 5   0  0.1576214E-05  0.1500265E+04  0.7818609E-02  0.8884277E-01
        1   -1    0    0  501    0  0.00000000000E+00  0.00000000000E+00  0.56773630827E+03  0.56773630829E+03  0.50400001928E-02 0. -1.
       -1   -1    0    0    0  501  0.00000000000E+00  0.00000000000E+00 -0.99112683227E+03  0.99112683228E+03  0.50400001928E-02 0.  1.
    10030    2    1    2    0    0  0.00000000000E+00  0.00000000000E+00 -0.42339052400E+03  0.15588631406E+04  0.15002648950E+04 0.  0.
        1    1    3    3  502    0 -0.51275022727E+01  0.10594984368E+03 -0.98329476862E+03  0.98899962724E+03  0.50400001928E-02 0.  1.
       -1    1    3    3    0  502  0.51275022727E+01 -0.10594984368E+03  0.55990424462E+03  0.56986351333E+03  0.50400001928E-02 0. -1.
</event>
<event>
 5   0  0.3070497E-05  0.1499717E+04  0.7818609E-02  0.8884641E-01
        2   -1    0    0  501    0  0.00000000000E+00  0.00000000000E+00  0.12486792778E+04  0.12486792778E+04  0.25500000920E-02 0.  1.
       -2   -1    0    0    0  501  0.00000000000E+00  0.00000000000E+00 -0.45030578996E+03  0.45030578997E+03  0.25500000920E-02 0. -1.
    10030    2    1    2    0    0  0.00000000000E+00  0.00000000000E+00  0.79837348781E+03  0.16989850677E+04  0.14997166514E+04 0.  0.
        4    1    3    3  502    0  0.27771185704E+03  0.34205718370E+03 -0.28819501364E+03  0.52648359067E+03  0.12699999809E+01 0. -1.
       -4    1    3    3    0  502 -0.27771185704E+03 -0.34205718370E+03  0.10865685015E+04  0.11725014771E+04  0.12699999809E+01 0.  1.
</event>
<event>
 5   0  0.3030702E-05  0.1499440E+04  0.7818609E-02  0.8884825E-01
        2   -1    0    0  501    0  0.00000000000E+00  0.00000000000E+00  0.71890216915E+03  0.71890216915E+03  0.25500000920E-02 0. -1.
       -2   -1    0    0    0  501  0.00000000000E+00  0.00000000000E+00 -0.78185920887E+03  0.78185920887E+03  0.25500000920E-02 0.  1.
    10030    2    1    2    0    0  0.00000000000E+00  0.00000000000E+00 -0.62957039720E+02  0.15007613780E+04  0.14994402705E+04 0.  0.
        5    1    3    3  502    0  0.46782091584E+03 -0.54982586530E+03 -0.23387760833E+03  0.75887134425E+03  0.46999998093E+01 0. -1.
       -5    1    3    3    0  502 -0.46782091584E+03  0.54982586530E+03  0.17092056861E+03  0.74189003378E+03  0.46999998093E+01 0.  1.
</event>
<event>
 5   0  0.3030702E-05  0.1499994E+04  0.7818609E-02  0.8884457E-01
        2   -1    0    0  501    0  0.00000000000E+00  0.00000000000E+00  0.45661225698E+03  0.45661225699E+03  0.25500000920E-02 0.  1.
       -2   -1    0    0    0  501  0.00000000000E+00  0.00000000000E+00 -0.12318881340E+04  0.12318881340E+04  0.25500000920E-02 0. -1.
    10030    2    1    2    0    0  0.00000000000E+00  0.00000000000E+00 -0.77527587702E+03  0.16885003910E+04  0.14999936283E+04 0.  0.
        5    1    3    3  502    0  0.55356200668E+03 -0.49434506807E+03 -0.26605919427E+03  0.78842724865E+03  0.46999998093E+01 0.  1.
       -5    1    3    3    0  502 -0.55356200668E+03  0.49434506807E+03 -0.50921668275E+03  0.90007314234E+03  0.46999998093E+01 0. -1.
</event>
<event>
 5   0  0.1643498E-05  0.1501950E+04  0.7818609E-02  0.8883157E-01
       -1   -1    0    0    0  501  0.00000000000E+00  0.00000000000E+00  0.82066097219E+03  0.82066097220E+03  0.50400001928E-02 0. -1.
        1   -1    0    0  501    0  0.00000000000E+00  0.00000000000E+00 -0.68720623632E+03  0.68720623634E+03  0.50400001928E-02 0.  1.
    10030    2    1    2    0    0  0.00000000000E+00  0.00000000000E+00  0.13345473586E+03  0.15078672085E+04  0.15019498501E+04 0.  0.
        4    1    3    3  502    0  0.64597103516E+02 -0.37308729529E+03  0.71781526026E+03  0.81155854777E+03  0.12699999809E+01 0. -1.
       -4    1    3    3    0  502 -0.64597103516E+02  0.37308729529E+03 -0.58436052440E+03  0.69630866078E+03  0.12699999809E+01 0.  1.
</event>
<event>
 5   0  0.1643498E-05  0.1498906E+04  0.7818609E-02  0.8885180E-01
        1   -1    0    0  501    0  0.00000000000E+00  0.00000000000E+00  0.53120444395E+03  0.53120444397E+03  0.50400001928E-02 0.  1.
       -1   -1    0    0    0  501  0.00000000000E+00  0.00000000000E+00 -0.10573709792E+04  0.10573709792E+04  0.50400001928E-02 0. -1.
    10030    2    1    2    0    0  0.00000000000E+00  0.00000000000E+00 -0.52616653525E+03  0.15885754232E+04  0.14989064855E+04 0.  0.
        4    1    3    3  502    0 -0.28063054459E+03  0.56267639735E+02 -0.99716575936E+03  0.10374298600E+04  0.12699999809E+01 0. -1.
       -4    1    3    3    0  502  0.28063054459E+03 -0.56267639735E+02  0.47099922411E+03  0.55114556321E+03  0.12699999809E+01 0.  1.
</event>
<event>
 5   0  0.1576214E-05  0.1500636E+04  0.7818609E-02  0.8884030E-01
       -1   -1    0    0    0  501  0.00000000000E+00  0.00000000000E+00  0.46263807411E+03  0.46263807413E+03  0.50400001928E-02 0.  1.
        1   -1    0    0  501    0  0.00000000000E+00  0.00000000000E+00 -0.12168838733E+04  0.12168838733E+04  0.50400001928E-02 0. -1.
    10030    2    1    2    0    0  0.00000000000E+00  0.00000000000E+00 -0.75424579919E+03  0.16795219474E+04  0.15006356141E+04 0.  0.
        1    1    3    3  502    0  0.66234515679E+03  0.27548558196E+03 -0.62330621808E+03  0.95031787003E+03  0.50400001928E-02 0. -1.
       -1    1    3    3    0  502 -0.66234515679E+03 -0.27548558196E+03 -0.13093958111E+03  0.72920407741E+03  0.50400001928E-02 0.  1.
</event>
<event>
 5   0  0.3030702E-05  0.1500341E+04  0.7818609E-02  0.8884226E-01
        2   -1    0    0  501    0  0.00000000000E+00  0.00000000000E+00  0.10324342137E+04  0.10324342137E+04  0.25500000920E-02 0. -1.
       -2   -1    0    0    0  501  0.00000000000E+00  0.00000000000E+00 -0.54507687933E+03  0.54507687933E+03  0.25500000920E-02 0.  1.
    10030    2    1    2    0    0  0.00000000000E+00  0.00000000000E+00  0.48735733435E+03  0.15775110930E+04  0.15003413202E+04 0.  0.
        5    1    3    3  502    0  0.72269005713E+03 -0.19835001385E+03  0.20864390879E+03  0.77793188477E+03  0.46999998093E+01 0.  1.
       -5    1    3    3    0  502 -0.72269005713E+03  0.19835001385E+03  0.27871342556E+03  0.79957920824E+03  0.46999998093E+01 0. -1.
</event>
<event>
 5   0  0.3093600E-05  0.1498760E+04  0.7818609E-02  0.8885278E-01
        2   -1    0    0  501    0  0.00000000000E+00  0.00000000000E+00  0.87231923553E+03  0.87231923553E+03  0.25500000920E-02 0. -1.
       -2   -1    0    0    0  501  0.00000000000E+00  0.00000000000E+00 -0.64376664368E+03  0.64376664368E+03  0.25500000920E-02 0.  1.
    10030    2    1    2    0    0  0.00000000000E+00  0.00000000000E+00  0.22855259185E+03  0.15160858792E+04  0.14987595224E+04 0.  0.
        1    1    3    3  502    0  0.54069500802E+03  0.28630832208E+03  0.55199860127E+03  0.82403034096E+03  0.50400001928E-02 0. -1.
       -1    1    3    3    0  502 -0.54069500802E+03 -0.28630832208E+03 -0.32344600942E+03  0.69205553825E+03  0.50400001928E-02 0.  1.
</event>
<event>
 5   0  0.3093600E-05  0.1502421E+04  0.7818609E-02  0.8882844E-01
       -2   -1    0    0    0  501  0.00000000000E+00  0.00000000000E+00  0.53696048230E+03  0.53696048230E+03  0.25500000920E-02 0. -1.
        2   -1    0    0  501    0  0.00000000000E+00  0.00000000000E+00 -0.10509480830E+04  0.10509480830E+04  0.25500000920E-02 0.  1.
    10030    2    1    2    0    0  0.00000000000E+00  0.00000000000E+00 -0.51398760069E+03  0.15879085653E+04  0.15024214981E+04 0.  0.
        1    1    3    3  502    0 -0.74135556828E+02  0.25566355375E+03 -0.99942916018E+03  0.10342720047E+04  0.50400001928E-02 0.  1.
       -1    1    3    3    0  502  0.74135556828E+02 -0.25566355375E+03  0.48544155949E+03  0.55363656058E+03  0.50400001928E-02 0. -1.
</event>
<event>
 5   0  0.3093600E-05  0.1499722E+04  0.7818609E-02  0.8884638E-01
        2   -1    0    0  501    0  0.00000000000E+00  0.00000000000E+00  0.82626023365E+03  0.82626023365E+03  0.25500000920E-02 0. -1.
       -2   -1    0    0    0  501  0.00000000000E+00  0.00000000000E+00 -0.68052572204E+03  0.68052572204E+03  0.25500000920E-02 0.  1.
    10030    2    1    2    0    0  0.00000000000E+00  0.00000000000E+00  0.14573451161E+03  0.15067859557E+04  0.14997217637E+04 0.  0.
        1    1    3    3  502    0 -0.22902187344E+03 -0.36080646210E+03 -0.54619985402E+03  0.69351755721E+03  0.50400001928E-02 0.  1.
       -1    1    3    3    0  502  0.22902187344E+03  0.36080646210E+03  0.69193436563E+03  0.81326839848E+03  0.50400001928E-02 0. -1.
</event>
<event>
 5   0  0.1580078E-05  0.1502895E+04  0.7818609E-02  0.8882530E-01
       -1   -1    0    0    0  501  0.00000000000E+00  0.00000000000E+00  0.46024046401E+03  0.46024046404E+03  0.50400001928E-02 0.  1.
        1   -1    0    0  501    0  0.00000000000E+00  0.00000000000E+00 -0.12269087940E+04  0.12269087941E+04  0.50400001928E-02 0. -1.
    10030    2    1    2    0    0  0.00000000000E+00  0.00000000000E+00 -0.76666833003E+03  0.16871492581E+04  0.15028946373E+04 0.  0.
        2    1    3    3  502    0  0.53470881581E+03  0.48341349960E+03 -0.14500713835E+03  0.73527491422E+03  0.25500000920E-02 0. -1.
       -2    1    3    3    0  502 -0.53470881581E+03 -0.48341349960E+03 -0.62166119168E+03  0.95187434388E+03  0.25500000920E-02 0.  1.
</event>
<event>
 5   0  0.1533777E-05  0.1501336E+04  0.7818609E-02  0.8883565E-01
        1   -1    0    0  501    0  0.00000000000E+00  0.00000000000E+00  0.84627325188E+03  0.84627325189E+03  0.50400001928E-02 0.  1.
       -1   -1    0    0    0  501  0.00000000000E+00  0.00000000000E+00 -0.66586381558E+03  0.66586381560E+03  0.50400001928E-02 0. -1.
    10030    2    1    2    0    0  0.00000000000E+00  0.00000000000E+00  0.18040943629E+03  0.15121370675E+04  0.15013363868E+04 0.  0.
        5    1    3    3  502    0  0.64797345174E+03 -0.77868281659E+02 -0.28333744632E+03  0.71150211661E+03  0.46999998093E+01 0. -1.
       -5    1    3    3    0  502 -0.64797345174E+03  0.77868281659E+02  0.46374688262E+03  0.80063495089E+03  0.46999998093E+01 0.  1.
</event>
<event>
 5   0  0.3030702E-05  0.1500278E+04  0.7818609E-02  0.8884268E-01
       -2   -1    0    0    0  501  0.00000000000E+00  0.00000000000E+00  0.78822867099E+03  0.78822867099E+03  0.25500000920E-02 0.  1.
        2   -1    0    0  501    0  0.00000000000E+00  0.00000000000E+00 -0.71389026578E+03  0.71389026579E+03  0.25500000920E-02 0. -1.
    10030    2    1    2    0    0  0.00000000000E+00  0.00000000000E+00  0.74338405202E+02  0.15021189368E+04  0.15002783414E+04 0.  0.
        5    1    3    3  502    0 -0.48499227908E+02 -0.14510397411E+03  0.77242655432E+03  0.78744663961E+03  0.46999998093E+01 0.  1.
       -5    1    3    3    0  502  0.48499227908E+02  0.14510397411E+03 -0.69808814912E+03  0.71467229717E+03  0.46999998093E+01 0. -1.
</event>
<event>
 5   0  0.1643498E-05  0.1502328E+04  0.7818609E-02  0.8882906E-01
       -1   -1    0    0    0  501  0.00000000000E+00  0.00000000000E+00  0.18187043587E+04  0.18187043587E+04  0.50400001928E-02 0. -1.
        1   -1    0    0  501    0  0.00000000000E+00  0.00000000000E+00 -0.31024705076E+03  0.31024705080E+03  0.50400001928E-02 0.  1.
    10030    2    1    2    0    0  0.00000000000E+00  0.00000000000E+00  0.15084573080E+04  0.21289514095E+04  0.15023284109E+04 0.  0.
        4    1    3    3  502    0 -0.38359065774E+03  0.47744016383E+03  0.13790341666E+03  0.62778170407E+03  0.12699999809E+01 0. -1.
       -4    1    3    3    0  502  0.38359065774E+03 -0.47744016383E+03  0.13705538913E+04  0.15011697055E+04  0.12699999809E+01 0.  1.
</event>
<event>
 5   0  0.3018308E-05  0.1500291E+04  0.7818609E-02  0.8884260E-01
       -2   -1    0    0    0  501  0.00000000000E+00  0.00000000000E+00  0.63010093873E+03  0.63010093874E+03  0.25500000920E-02 0.  1.
        2   -1    0    0  501    0  0.00000000000E+00  0.00000000000E+00 -0.89306020067E+03  0.89306020067E+03  0.25500000920E-02 0. -1.
    10030    2    1    2    0    0  0.00000000000E+00  0.00000000000E+00 -0.26295926193E+03  0.15231611394E+04  0.15002907329E+04 0.  0.
        2    1    3    3  502    0  0.63362933473E+03  0.25166067191E+03 -0.44913719726E+03  0.81642112270E+03  0.25500000920E-02 0. -1.
       -2    1    3    3    0  502 -0.63362933473E+03 -0.25166067191E+03  0.18617793533E+03  0.70674001671E+03  0.25500000920E-02 0.  1.
</event>
<event>
 5   0  0.1576214E-05  0.1499023E+04  0.7818609E-02  0.8885103E-01
        1   -1    0    0  501    0  0.00000000000E+00  0.00000000000E+00  0.14061999843E+04  0.14061999844E+04  0.50400001928E-02 0.  1.
       -1   -1    0    0    0  501  0.00000000000E+00  0.00000000000E+00 -0.39949357409E+03  0.39949357412E+03  0.50400001928E-02 0. -1.
    10030    2    1    2    0    0  0.00000000000E+00  0.00000000000E+00  0.10067064103E+04  0.18056935585E+04  0.14990234924E+04 0.  0.
        1    1    3    3  502    0  0.49350766539E+03 -0.47885901517E+03  0.86253639916E+03  0.11030978253E+04  0.50400001928E-02 0. -1.
       -1    1    3    3    0  502 -0.49350766539E+03  0.47885901517E+03  0.14417001110E+03  0.70259573321E+03  0.50400001928E-02 0.  1.
</event>
<event>
 5   0  0.2969498E-05  0.1500263E+04  0.7818609E-02  0.8884278E-01
       -2   -1    0    0    0  501  0.00000000000E+00  0.00000000000E+00  0.36046049414E+03  0.36046049415E+03  0.25500000920E-02 0.  1.
        2   -1    0    0  501    0  0.00000000000E+00  0.00000000000E+00 -0.15610518106E+04  0.15610518106E+04  0.25500000920E-02 0. -1.
    10030    2    1    2    0    0  0.00000000000E+00  0.00000000000E+00 -0.12005913165E+04  0.19215123048E+04  0.15002633196E+04 0.  0.
        3    1    3    3  502    0  0.35430611050E+03 -0.65613106047E+03 -0.49579826777E+03  0.89546452804E+03  0.10100000352E+00 0.  1.
       -3    1    3    3    0  502 -0.35430611050E+03  0.65613106047E+03 -0.70479304872E+03  0.10260477768E+04  0.10100000352E+00 0. -1.
</event>
<event>
 5   0  0.3030702E-05  0.1499928E+04  0.7818609E-02  0.8884501E-01
        2   -1    0    0  501    0  0.00000000000E+00  0.00000000000E+00  0.13032439939E+04  0.13032439939E+04  0.25500000920E-02 0.  1.
       -2   -1    0    0    0  501  0.00000000000E+00  0.00000000000E+00 -0.43157397356E+03  0.43157397357E+03  0.25500000920E-02 0. -1.
    10030    2    1    2    0    0  0.00000000000E+00  0.00000000000E+00  0.87167002033E+03  0.17348179675E+04  0.14999282502E+04 0.  0.
        5    1    3    3  502    0 -0.55648071031E+02 -0.28947595893E+03 -0.36174244816E+03  0.46666125552E+03  0.46999998093E+01 0. -1.
       -5    1    3    3    0  502  0.55648071031E+02  0.28947595893E+03  0.12334124685E+04  0.12681567119E+04  0.46999998093E+01 0.  1.
</event>
<event>
 5   0  0.1576214E-05  0.1500071E+04  0.7818609E-02  0.8884405E-01
        1   -1    0    0  501    0  0.00000000000E+00  0.00000000000E+00  0.90841455697E+03  0.90841455698E+03  0.50400001928E-02 0.  1.
       -1   -1    0    0    0  501  0.00000000000E+00  0.00000000000E+00 -0.61926958942E+03  0.61926958944E+03  0.50400001928E-02 0. -1.
    10030    2    1    2    0    0  0.00000000000E+00  0.00000000000E+00  0.28914496754E+03  0.15276841464E+04  0.15000713446E+04 0.  0.
        1    1    3    3  502    0  0.50776138500E+03  0.19677289706E+03  0.66983030295E+03  0.86325768568E+03  0.50400001928E-02 0.  1.
       -1    1    3    3    0  502 -0.50776138500E+03 -0.19677289706E+03 -0.38068533541E+03  0.66442646074E+03  0.50400001928E-02 0. -1.
</event>
<event>
 5   0  0.1643498E-05  0.1499885E+04  0.7818609E-02  0.8884530E-01
        1   -1    0    0  501    0  0.00000000000E+00  0.00000000000E+00  0.14491678769E+04  0.14491678769E+04  0.50400001928E-02 0.  1.
       -1   -1    0    0    0  501  0.00000000000E+00  0.00000000000E+00 -0.38809404500E+03  0.38809404503E+03  0.50400001928E-02 0. -1.
    10030    2    1    2    0    0  0.00000000000E+00  0.00000000000E+00  0.10610738319E+04  0.18372619219E+04  0.14998845599E+04 0.  0.
        4    1    3    3  502    0 -0.50534299436E+03 -0.53816944257E+03  0.69218162954E+03  0.10119856284E+04  0.12699999809E+01 0.  1.
       -4    1    3    3    0  502  0.50534299436E+03  0.53816944257E+03  0.36889220237E+03  0.82527629358E+03  0.12699999809E+01 0. -1.
</event>
<event>
 5   0  0.1533777E-05  0.1500918E+04  0.7818609E-02  0.8883843E-01
        1   -1    0    0  501    0  0.00000000000E+00  0.00000000000E+00  0.19300468157E+04  0.19300468157E+04  0.50400001928E-02 0.  1.
       -1   -1    0    0    0  501  0.00000000000E+00  0.00000000000E+00 -0.29180042721E+03  0.29180042725E+03  0.50400001928E-02 0. -1.
    10030    2    1    2    0    0  0.00000000000E+00  0.00000000000E+00  0.16382463885E+04  0.22218472430E+04  0.15009176998E+04 0.  0.
        5    1    3    3  502    0  0.32419736115E+03 -0.24396751149E+03 -0.11540958684E+03  0.42185961927E+03  0.46999998093E+01 0. -1.
       -5    1    3    3    0  502 -0.32419736115E+03  0.24396751149E+03  0.17536559754E+04  0.17999876237E+04  0.46999998093E+01 0.  1.
</event>
<event>
 5   0  0.1533777E-05  0.1499831E+04  0.7818609E-02  0.8884565E-01
        1   -1    0    0  501    0  0.00000000000E+00  0.00000000000E+00  0.10182040600E+04  0.10182040600E+04  0.50400001928E-02 0. -1.
       -1   -1    0    0    0  501  0.00000000000E+00  0.00000000000E+00 -0.55231877658E+03  0.55231877660E+03  0.50400001928E-02 0.  1.
    10030    2    1    2    0    0  0.00000000000E+00  0.00000000000E+00  0.46588528341E+03  0.15705228366E+04  0.14998309515E+04 0.  0.
        5    1    3    3  502    0 -0.68884781613E+02  0.51640050617E+02  0.10129966879E+04  0.10166593273E+04  0.46999998093E+01 0. -1.
       -5    1    3    3    0  502  0.68884781613E+02 -0.51640050617E+02 -0.54711140454E+03  0.55386350931E+03  0.46999998093E+01 0.  1.
</event>
<event>
 5   0  0.3030702E-05  0.1502513E+04  0.7818609E-02  0.8882783E-01
        2   -1    0    0  501    0  0.00000000000E+00  0.00000000000E+00  0.10097933220E+04  0.10097933220E+04  0.25500000920E-02 0.  1.
       -2   -1    0    0    0  501  0.00000000000E+00  0.00000000000E+00 -0.55891278369E+03  0.55891278370E+03  0.25500000920E-02 0. -1.
    10030    2    1    2    0    0  0.00000000000E+00  0.00000000000E+00  0.45088053827E+03  0.15687061057E+04  0.15025130902E+04 0.  0.
        5    1    3    3  502    0  0.47432396367E+03 -0.89501906456E+02  0.82644825035E+03  0.95709592742E+03  0.46999998093E+01 0.  1.
       -5    1    3    3    0  502 -0.47432396367E+03  0.89501906456E+02 -0.37556771209E+03  0.61161017824E+03  0.46999998093E+01 0. -1.
</event>
<event>
 5   0  0.3030702E-05  0.1499131E+04  0.7818609E-02  0.8885031E-01
        2   -1    0    0  501    0  0.00000000000E+00  0.00000000000E+00  0.91211115311E+03  0.91211115311E+03  0.25500000920E-02 0. -1.
       -2   -1    0    0    0  501  0.00000000000E+00  0.00000000000E+00 -0.61598651357E+03  0.61598651357E+03  0.25500000920E-02 0.  1.
    10030    2    1    2    0    0  0.00000000000E+00  0.00000000000E+00  0.29612463954E+03  0.15280976667E+04  0.14991306403E+04 0.  0.
        5    1    3    3  502    0 -0.18599321793E+03  0.28582168724E+03 -0.53232197902E+03  0.63219956767E+03  0.46999998093E+01 0.  1.
       -5    1    3    3    0  502  0.18599321793E+03 -0.28582168724E+03  0.82844661857E+03  0.89589809902E+03  0.46999998093E+01 0. -1.
</event>
<event>
 5   0  0.3030702E-05  0.1496614E+04  0.7818609E-02  0.8886708E-01
       -2   -1    0    0    0  501  0.00000000000E+00  0.00000000000E+00  0.55804325017E+03  0.55804325017E+03  0.25500000920E-02 0. -1.
        2   -1    0    0  501    0  0.00000000000E+00  0.00000000000E+00 -0.10034401872E+04  0.10034401872E+04  0.25500000920E-02 0.  1.
    10030    2    1    2    0    0  0.00000000000E+00  0.00000000000E+00 -0.44539693707E+03  0.15614834374E+04  0.14966135419E+04 0.  0.
        5    1    3    3  502    0 -0.53802234463E+03  0.45098095906E+03 -0.49294092511E+03  0.85782557342E+03  0.46999998093E+01 0.  1.
       -5    1    3    3    0  502  0.53802234463E+03 -0.45098095906E+03  0.47543988042E+02  0.70365786399E+03  0.46999998093E+01 0. -1.
</event>
<event>
 5   0  0.3030702E-05  0.1500176E+04  0.7818609E-02  0.8884336E-01
        2   -1    0    0  501    0  0.00000000000E+00  0.00000000000E+00  0.10099176220E+04  0.10099176220E+04  0.25500000920E-02 0. -1.
       -2   -1    0    0    0  501  0.00000000000E+00  0.00000000000E+00 -0.55710716054E+03  0.55710716054E+03  0.25500000920E-02 0.  1.
    10030    2    1    2    0    0  0.00000000000E+00  0.00000000000E+00  0.45281046150E+03  0.15670247826E+04  0.15001764414E+04 0.  0.
        5    1    3    3  502    0 -0.26210460985E+03  0.35800400802E+03  0.85812207482E+03  0.96605449202E+03  0.46999998093E+01 0. -1.
       -5    1    3    3    0  502  0.26210460985E+03 -0.35800400802E+03 -0.40531161332E+03  0.60097029057E+03  0.46999998093E+01 0.  1.
</event>
<event>
 5   0  0.1580078E-05  0.1497846E+04  0.7818609E-02  0.8885886E-01
       -1   -1    0    0    0  501  0.00000000000E+00  0.00000000000E+00  0.62767181642E+03  0.62767181644E+03  0.50400001928E-02 0. -1.
        1   -1    0    0  501    0  0.00000000000E+00  0.00000000000E+00 -0.89359739637E+03  0.89359739639E+03  0.50400001928E-02 0.  1.
    10030    2    1    2    0    0  0.00000000000E+00  0.00000000000E+00 -0.26592557995E+03  0.15212692128E+04  0.14978463218E+04 0.  0.
        2    1    3    3  502    0  0.45806260267E+02 -0.16445806363E+03  0.60764621443E+03  0.63117239332E+03  0.25500000920E-02 0. -1.
       -2    1    3    3    0  502 -0.45806260267E+02  0.16445806363E+03 -0.87357179438E+03  0.89009681951E+03  0.25500000920E-02 0.  1.
</event>
<event>
 5   0  0.2969498E-05  0.1500204E+04  0.7818609E-02  0.8884318E-01
       -2   -1    0    0    0  501  0.00000000000E+00  0.00000000000E+00  0.52745844713E+03  0.52745844714E+03  0.25500000920E-02 0. -1.
        2   -1    0    0  501    0  0.00000000000E+00  0.00000000000E+00 -0.10667241536E+04  0.10667241536E+04  0.25500000920E-02 0.  1.
    10030    2    1    2    0    0  0.00000000000E+00  0.00000000000E+00 -0.53926570645E+03  0.15941826007E+04  0.15002035403E+04 0.  0.
        3    1    3    3  502    0  0.57600274896E+02  0.72619766735E+03 -0.79625021651E+02  0.73281716547E+03  0.10100000352E+00 0. -1.
       -3    1    3    3    0  502 -0.57600274896E+02 -0.72619766735E+03 -0.45964068480E+03  0.86136543525E+03  0.10100000352E+00 0.  1.
</event>
<event>
 5   0  0.3070497E-05  0.1499657E+04  0.7818609E-02  0.8884681E-01
        2   -1    0    0  501    0  0.00000000000E+00  0.00000000000E+00  0.38165505533E+03  0.38165505534E+03  0.25500000920E-02 0. -1.
       -2   -1    0    0    0  501  0.00000000000E+00  0.00000000000E+00 -0.14731706479E+04  0.14731706480E+04  0.25500000920E-02 0.  1.
    10030    2    1    2    0    0  0.00000000000E+00  0.00000000000E+00 -0.10915155926E+04  0.18548257033E+04  0.14996573277E+04 0.  0.
        4    1    3    3  502    0 -0.80073254488E+02  0.74519030792E+03 -0.51752408819E+03  0.91079806536E+03  0.12699999809E+01 0. -1.
       -4    1    3    3    0  502  0.80073254488E+02 -0.74519030792E+03 -0.57399150443E+03  0.94402763793E+03  0.12699999809E+01 0.  1.
</event>
<event>
 5   0  0.2969498E-05  0.1497308E+04  0.7818609E-02  0.8886245E-01
       -2   -1    0    0    0  501  0.00000000000E+00  0.00000000000E+00  0.44277071510E+03  0.44277071511E+03  0.25500000920E-02 0. -1.
        2   -1    0    0  501    0  0.00000000000E+00  0.00000000000E+00 -0.12658532947E+04  0.12658532947E+04  0.25500000920E-02 0.  1.
    10030    2    1    2    0    0  0.00000000000E+00  0.00000000000E+00 -0.82308257958E+03  0.17086240098E+04  0.14973079423E+04 0.  0.
        3    1    3    3  502    0  0.54839642696E+03  0.32630080245E+03  0.35210861115E+02  0.63910145495E+03  0.10100000352E+00 0.  1.
       -3    1    3    3    0  502 -0.54839642696E+03 -0.32630080245E+03 -0.85829344070E+03  0.10695225548E+04  0.10100000352E+00 0. -1.
</event>
<event>
 5   0  0.1580078E-05  0.1499818E+04  0.7818609E-02  0.8884574E-01
       -1   -1    0    0    0  501  0.00000000000E+00  0.00000000000E+00  0.50663855487E+03  0.50663855489E+03  0.50400001928E-02 0.  1.
        1   -1    0    0  501    0  0.00000000000E+00  0.00000000000E+00 -0.11099900190E+04  0.11099900190E+04  0.50400001928E-02 0. -1.
    10030    2    1    2    0    0  0.00000000000E+00  0.00000000000E+00 -0.60335146409E+03  0.16166285739E+04  0.14998183079E+04 0.  0.
        2    1    3    3  502    0 -0.36443601703E+03  0.22918820638E+03 -0.96351946648E+03  0.10553248821E+04  0.25500000920E-02 0. -1.
       -2    1    3    3    0  502  0.36443601703E+03 -0.22918820638E+03  0.36016800239E+03  0.56130369178E+03  0.25500000920E-02 0.  1.
</event>
<event>
 5   0  0.3018308E-05  0.1499914E+04  0.7818609E-02  0.8884510E-01
        2   -1    0    0  501    0  0.00000000000E+00  0.00000000000E+00  0.61493564736E+03  0.61493564736E+03  0.25500000920E-02 0.  1.
       -2   -1    0    0    0  501  0.00000000000E+00  0.00000000000E+00 -0.91462485379E+03  0.91462485379E+03  0.25500000920E-02 0. -1.
    10030    2    1    2    0    0  0.00000000000E+00  0.00000000000E+00 -0.29968920643E+03  0.15295605012E+04  0.14999138996E+04 0.  0.
        2    1    3    3  502    0  0.23593674579E+03  0.38069401591E+03  0.46357750562E+03  0.64459148729E+03  0.25500000920E-02 0.  1.
       -2    1    3    3    0  502 -0.23593674579E+03 -0.38069401591E+03 -0.76326671206E+03  0.88496901387E+03  0.25500000920E-02 0. -1.
</event>
<event>
 5   0  0.1643498E-05  0.1500359E+04  0.7818609E-02  0.8884214E-01
       -1   -1    0    0    0  501  0.00000000000E+00  0.00000000000E+00  0.48700319417E+03  0.48700319420E+03  0.50400001928E-02 0.  1.
        1   -1    0    0  501    0  0.00000000000E+00  0.00000000000E+00 -0.11555757707E+04  0.11555757707E+04  0.50400001928E-02 0. -1.
    10030    2    1    2    0    0  0.00000000000E+00  0.00000000000E+00 -0.66857257654E+03  0.16425789649E+04  0.15003587457E+04 0.  0.
        4    1    3    3  502    0 -0.19916277047E+03 -0.27817406839E+03 -0.10651941298E+04  0.11187880803E+04  0.12699999809E+01 0. -1.
       -4    1    3    3    0  502  0.19916277047E+03  0.27817406839E+03  0.39662155325E+03  0.52379088467E+03  0.12699999809E+01 0.  1.
</event>
<event>
 5   0  0.1643498E-05  0.1500222E+04  0.7818609E-02  0.8884306E-01
       -1   -1    0    0    0  501  0.00000000000E+00  0.00000000000E+00  0.95623499795E+03  0.95623499796E+03  0.50400001928E-02 0.  1.
        1   -1    0    0  501    0  0.00000000000E+00  0.00000000000E+00 -0.58841838838E+03  0.58841838840E+03  0.50400001928E-02 0. -1.
    10030    2    1    2    0    0  0.00000000000E+00  0.00000000000E+00  0.36781660957E+03  0.15446533864E+04  0.15002216589E+04 0.  0.
        4    1    3    3  502    0  0.41160964787E+03 -0.54207462561E+03  0.50851896343E+03  0.84962377028E+03  0.12699999809E+01 0.  1.
       -4    1    3    3    0  502 -0.41160964787E+03  0.54207462561E+03 -0.14070235387E+03  0.69502961608E+03  0.12699999809E+01 0. -1.
</event>
<event>
 5   0  0.3070497E-05  0.1500447E+04  0.7818609E-02  0.8884156E-01
       -2   -1    0    0    0  501  0.00000000000E+00  0.00000000000E+00  0.73000592424E+03  0.73000592424E+03  0.25500000920E-02 0. -1.
        2   -1    0    0  501    0  0.00000000000E+00  0.00000000000E+00 -0.77100070076E+03  0.77100070076E+03  0.25500000920E-02 0.  1.
    10030    2    1    2    0    0  0.00000000000E+00  0.00000000000E+00 -0.40994776520E+02  0.15010066250E+04  0.15004467057E+04 0.  0.
        4    1    3    3  502    0 -0.14246599018E+03 -0.24400218308E+03  0.67474385791E+03  0.73151521542E+03  0.12699999809E+01 0. -1.
       -4    1    3    3    0  502  0.14246599018E+03  0.24400218308E+03 -0.71573863443E+03  0.76949140958E+03  0.12699999809E+01 0.  1.
</event>
<event>
 5   0  0.1588657E-05  0.1498961E+04  0.7818609E-02  0.8885144E-01
        1   -1    0    0  501    0  0.00000000000E+00  0.00000000000E+00  0.14304409804E+04  0.14304409804E+04  0.50400001928E-02 0. -1.
       -1   -1    0    0    0  501  0.00000000000E+00  0.00000000000E+00 -0.39269083053E+03  0.39269083056E+03  0.50400001928E-02 0.  1.
    10030    2    1    2    0    0  0.00000000000E+00  0.00000000000E+00  0.10377501499E+04  0.18231318110E+04  0.14989610491E+04 0.  0.
        3    1    3    3  502    0 -0.34509634236E+03 -0.19728135931E+03  0.12916664631E+04  0.13514487346E+04  0.10100000352E+00 0. -1.
       -3    1    3    3    0  502  0.34509634236E+03  0.19728135931E+03 -0.25391631318E+03  0.47168307638E+03  0.10100000352E+00 0.  1.
</event>
<event>
 5   0  0.1580078E-05  0.1499287E+04  0.7818609E-02  0.8884927E-01
        1   -1    0    0  501    0  0.00000000000E+00  0.00000000000E+00  0.77811746634E+03  0.77811746636E+03  0.50400001928E-02 0. -1.
       -1   -1    0    0    0  501  0.00000000000E+00  0.00000000000E+00 -0.72221145162E+03  0.72221145164E+03  0.50400001928E-02 0.  1.
    10030    2    1    2    0    0  0.00000000000E+00  0.00000000000E+00  0.55906014725E+02  0.15003289180E+04  0.14992869571E+04 0.  0.
        2    1    3    3  502    0 -0.13439103820E+03 -0.47788989057E+02 -0.70850723534E+03  0.72272210507E+03  0.25500000920E-02 0.  1.
       -2    1    3    3    0  502  0.13439103820E+03  0.47788989057E+02  0.76441325007E+03  0.77760681292E+03  0.25500000920E-02 0. -1.
</event>
<event>
 5   0  0.2969498E-05  0.1499760E+04  0.7818609E-02  0.8884613E-01
       -2   -1    0    0    0  501  0.00000000000E+00  0.00000000000E+00  0.77346369782E+03  0.77346369783E+03  0.25500000920E-02 0. -1.
        2   -1    0    0  501    0  0.00000000000E+00  0.00000000000E+00 -0.72701528436E+03  0.72701528437E+03  0.25500000920E-02 0.  1.
    10030    2    1    2    0    0  0.00000000000E+00  0.00000000000E+00  0.46448413460E+02  0.15004789822E+04  0.14997598877E+04 0.  0.
        3    1    3    3  502    0 -0.99564947382E+01 -0.25194610922E+03  0.72978087785E+03  0.77211146450E+03  0.10100000352E+00 0. -1.
       -3    1    3    3    0  502  0.99564947382E+01  0.25194610922E+03 -0.68333246439E+03  0.72836751769E+03  0.10100000352E+00 0.  1.
</event>
<event>
 5   0  0.2969498E-05  0.1500538E+04  0.7818609E-02  0.8884095E-01
       -2   -1    0    0    0  501  0.00000000000E+00  0.00000000000E+00  0.14020771833E+04  0.14020771833E+04  0.25500000920E-02 0.  1.
        2   -1    0    0  501    0  0.00000000000E+00  0.00000000000E+00 -0.40147832953E+03  0.40147832954E+03  0.25500000920E-02 0. -1.
    10030    2    1    2    0    0  0.00000000000E+00  0.00000000000E+00  0.10005988537E+04  0.18035555128E+04  0.15005380441E+04 0.  0.
        3    1    3    3  502    0  0.16562371352E+03  0.41546487317E+03 -0.22372437138E+03  0.50009487087E+03  0.10100000352E+00 0. -1.
       -3    1    3    3    0  502 -0.16562371352E+03 -0.41546487317E+03  0.12243232251E+04  0.13034606419E+04  0.10100000352E+00 0.  1.
</event>
<event>
 5   0  0.3070497E-05  0.1500824E+04  0.7818609E-02  0.8883905E-01
       -2   -1    0    0    0  501  0.00000000000E+00  0.00000000000E+00  0.79980610472E+03  0.79980610473E+03  0.25500000920E-02 0.  1.
        2   -1    0    0  501    0  0.00000000000E+00  0.00000000000E+00 -0.70406837128E+03  0.70406837128E+03  0.25500000920E-02 0. -1.
    10030    2    1    2    0    0  0.00000000000E+00  0.00000000000E+00  0.95737733444E+02  0.15038744760E+04  0.15008240157E+04 0.  0.
        4    1    3    3  502    0 -0.39577164910E+03 -0.60510238404E+03 -0.15336879186E+03  0.73912630357E+03  0.12699999809E+01 0. -1.
       -4    1    3    3    0  502  0.39577164910E+03  0.60510238404E+03  0.24910652531E+03  0.76474817244E+03  0.12699999809E+01 0.  1.
</event>
<event>
 5   0  0.1576214E-05  0.1500199E+04  0.7818609E-02  0.8884321E-01
        1   -1    0    0  501    0  0.00000000000E+00  0.00000000000E+00  0.65141424195E+03  0.65141424197E+03  0.50400001928E-02 0.  1.
       -1   -1    0    0    0  501  0.00000000000E+00  0.00000000000E+00 -0.86373501816E+03  0.86373501817E+03  0.50400001928E-02 0. -1.
    10030    2    1    2    0    0  0.00000000000E+00  0.00000000000E+00 -0.21232077621E+03  0.15151492601E+04  0.15001990430E+04 0.  0.
        1    1    3    3  502    0 -0.57113968269E+03  0.47964736099E+03 -0.18687656239E+03  0.76888554262E+03  0.50400001928E-02 0. -1.
       -1    1    3    3    0  502  0.57113968269E+03 -0.47964736099E+03 -0.25444213826E+02  0.74626371752E+03  0.50400001928E-02 0.  1.
</event>
<event>
 5   0  0.3070497E-05  0.1499946E+04  0.7818609E-02  0.8884489E-01
       -2   -1    0    0    0  501  0.00000000000E+00  0.00000000000E+00  0.11054381598E+04  0.11054381598E+04  0.25500000920E-02 0.  1.
        2   -1    0    0  501    0  0.00000000000E+00  0.00000000000E+00 -0.50881118540E+03  0.50881118541E+03  0.25500000920E-02 0. -1.
    10030    2    1    2    0    0  0.00000000000E+00  0.00000000000E+00  0.59662697444E+03  0.16142493453E+04  0.14999457330E+04 0.  0.
        4    1    3    3  502    0  0.54459017136E+03 -0.28547436896E+03  0.76043505470E+03  0.97792492319E+03  0.12699999809E+01 0.  1.
       -4    1    3    3    0  502 -0.54459017136E+03  0.28547436896E+03 -0.16380808026E+03  0.63632442207E+03  0.12699999809E+01 0. -1.
</event>
<event>
 5   0  0.1588657E-05  0.1500781E+04  0.7818609E-02  0.8883934E-01
        1   -1    0    0  501    0  0.00000000000E+00  0.00000000000E+00  0.88926762017E+03  0.88926762018E+03  0.50400001928E-02 0.  1.
       -1   -1    0    0    0  501  0.00000000000E+00  0.00000000000E+00 -0.63320176813E+03  0.63320176815E+03  0.50400001928E-02 0. -1.
    10030    2    1    2    0    0  0.00000000000E+00  0.00000000000E+00  0.25606585204E+03  0.15224693883E+04  0.15007809027E+04 0.  0.
        3    1    3    3  502    0 -0.16572986226E+03 -0.33906929386E+03  0.78598228413E+03  0.87189594245E+03  0.10100000352E+00 0.  1.
       -3    1    3    3    0  502  0.16572986226E+03  0.33906929386E+03 -0.52991643210E+03  0.65057344589E+03  0.10100000352E+00 0. -1.
</event>
<event>
 5   0  0.2969498E-05  0.1499172E+04  0.7818609E-02  0.8885004E-01
       -2   -1    0    0    0  501  0.00000000000E+00  0.00000000000E+00  0.31654231013E+03  0.31654231014E+03  0.25500000920E-02 0.  1.
        2   -1    0    0  501    0  0.00000000000E+00  0.00000000000E+00 -0.17750519821E+04  0.17750519821E+04  0.25500000920E-02 0. -1.
    10030    2    1    2    0    0  0.00000000000E+00  0.00000000000E+00 -0.14585096720E+04  0.20915942922E+04  0.14991718448E+04 0.  0.
        3    1    3    3  502    0  0.46531711191E+03  0.11937903319E+02 -0.15489866938E+04  0.16174122282E+04  0.10100000352E+00 0. -1.
       -3    1    3    3    0  502 -0.46531711191E+03 -0.11937903319E+02  0.90477021835E+02  0.47418206404E+03  0.10100000352E+00 0.  1.
</event>
<event>
 5   0  0.3030702E-05  0.1500430E+04  0.7818609E-02  0.8884167E-01
        2   -1    0    0  501    0  0.00000000000E+00  0.00000000000E+00  0.13856914836E+04  0.13856914836E+04  0.25500000920E-02 0. -1.
       -2   -1    0    0    0  501  0.00000000000E+00  0.00000000000E+00 -0.40616703830E+03  0.40616703831E+03  0.25500000920E-02 0.  1.
    10030    2    1    2    0    0  0.00000000000E+00  0.00000000000E+00  0.97952444526E+03  0.17918585219E+04  0.15004295463E+04 0.  0.
        5    1    3    3  502    0 -0.22811623314E+03 -0.71189807024E+03  0.41457086101E+03  0.85482569395E+03  0.46999998093E+01 0. -1.
       -5    1    3    3    0  502  0.22811623314E+03  0.71189807024E+03  0.56495358425E+03  0.93703282792E+03  0.46999998093E+01 0.  1.
</event>
<event>
 5   0  0.1576214E-05  0.1500226E+04  0.7818609E-02  0.8884303E-01
       -1   -1    0    0    0  501  0.00000000000E+00  0.00000000000E+00  0.30259459887E+03  0.30259459891E+03  0.50400001928E-02 0.  1.
        1   -1    0    0  501    0  0.00000000000E+00  0.00000000000E+00 -0.18594817969E+04  0.18594817969E+04  0.50400001928E-02 0. -1.
    10030    2    1    2    0    0  0.00000000000E+00  0.00000000000E+00 -0.15568871980E+04  0.21620763958E+04  0.15002255143E+04 0.  0.
        1    1    3    3  502    0 -0.23527655460E+03  0.28127255006E+03 -0.17215001592E+04  0.17601227522E+04  0.50400001928E-02 0. -1.
       -1    1    3    3    0  502  0.23527655460E+03 -0.28127255006E+03  0.16461296123E+03  0.40195364359E+03  0.50400001928E-02 0.  1.
</event>
<event>
 5   0  0.1576214E-05  0.1497777E+04  0.7818609E-02  0.8885933E-01
       -1   -1    0    0    0  501  0.00000000000E+00  0.00000000000E+00  0.32171525223E+03  0.32171525227E+03  0.50400001928E-02 0. -1.
        1   -1    0    0  501    0  0.00000000000E+00  0.00000000000E+00 -0.17432618547E+04  0.17432618547E+04  0.50400001928E-02 0.  1.
    10030    2    1    2    0    0  0.00000000000E+00  0.00000000000E+00 -0.14215466025E+04  0.20649771070E+04  0.14977769224E+04 0.  0.
        1    1    3    3  502    0  0.25379739164E+03 -0.61559864681E+03 -0.11832838114E+04  0.13577685327E+04  0.50400001928E-02 0.  1.
       -1    1    3    3    0  502 -0.25379739164E+03  0.61559864681E+03 -0.23826279108E+03  0.70720857433E+03  0.50400001928E-02 0. -1.
</event>
<event>
 5   0  0.3093600E-05  0.1500564E+04  0.7818609E-02  0.8884078E-01
        2   -1    0    0  501    0  0.00000000000E+00  0.00000000000E+00  0.51317327461E+03  0.51317327462E+03  0.25500000920E-02 0.  1.
       -2   -1    0    0    0  501  0.00000000000E+00  0.00000000000E+00 -0.10969456179E+04  0.10969456179E+04  0.25500000920E-02 0. -1.
    10030    2    1    2    0    0  0.00000000000E+00  0.00000000000E+00 -0.58377234332E+03  0.16101188926E+04  0.15005641270E+04 0.  0.
        1    1    3    3  502    0 -0.24799825590E+03  0.50734794216E+03 -0.82193320916E+03  0.99723581449E+03  0.50400001928E-02 0. -1.
       -1    1    3    3    0  502  0.24799825590E+03 -0.50734794216E+03  0.23816086584E+03  0.61288307807E+03  0.50400001928E-02 0.  1.
</event>
<event>
 5   0  0.1643498E-05  0.1500256E+04  0.7818609E-02  0.8884283E-01
        1   -1    0    0  501    0  0.00000000000E+00  0.00000000000E+00  0.11247911175E+04  0.11247911175E+04  0.50400001928E-02 0. -1.
       -1   -1    0    0    0  501  0.00000000000E+00  0.00000000000E+00 -0.50026340302E+03  0.50026340305E+03  0.50400001928E-02 0.  1.
    10030    2    1    2    0    0  0.00000000000E+00  0.00000000000E+00  0.62452771445E+03  0.16250545205E+04  0.15002557544E+04 0.  0.
        4    1    3    3  502    0 -0.60925590224E+03 -0.27925973077E+03  0.67720472825E+03  0.95277836274E+03  0.12699999809E+01 0. -1.
       -4    1    3    3    0  502  0.60925590224E+03  0.27925973077E+03 -0.52677013806E+02  0.67227615779E+03  0.12699999809E+01 0.  1.
</event>
<event>
 5   0  0.3030702E-05  0.1500289E+04  0.7818609E-02  0.8884260E-01
       -2   -1    0    0    0  501  0.00000000000E+00  0.00000000000E+00  0.53159880924E+03  0.53159880924E+03  0.25500000920E-02 0.  1.
        2   -1    0    0  501    0  0.00000000000E+00  0.00000000000E+00 -0.10585371481E+04  0.10585371481E+04  0.25500000920E-02 0. -1.
    10030    2    1    2    0    0  0.00000000000E+00  0.00000000000E+00 -0.52693833889E+03  0.15901359574E+04  0.15002894221E+04 0.  0.
        5    1    3    3  502    0  0.23079328304E+03  0.53824976472E+03 -0.76027958732E+03  0.95970072919E+03  0.46999998093E+01 0. -1.
       -5    1    3    3    0  502 -0.23079328304E+03 -0.53824976472E+03  0.23334124843E+03  0.63043522818E+03  0.46999998093E+01 0.  1.
</event>
<event>
 5   0  0.1580078E-05  0.1509310E+04  0.7818609E-02  0.8878285E-01
        1   -1    0    0  501    0  0.00000000000E+00  0.00000000000E+00  0.13664157025E+04  0.13664157025E+04  0.50400001928E-02 0.  1.
       -1   -1    0    0    0  501  0.00000000000E+00  0.00000000000E+00 -0.41678708561E+03  0.41678708564E+03  0.50400001928E-02 0. -1.
    10030    2    1    2    0    0  0.00000000000E+00  0.00000000000E+00  0.94962861685E+03  0.17832027881E+04  0.15093103304E+04 0.  0.
        2    1    3    3  502    0  0.31483767786E+03 -0.31549227538E+02  0.12842594027E+04  0.13226641035E+04  0.25500000920E-02 0.  1.
       -2    1    3    3    0  502 -0.31483767786E+03  0.31549227538E+02 -0.33463078589E+03  0.46053868461E+03  0.25500000920E-02 0. -1.
</event>
<event>
 5   0  0.1533777E-05  0.1499598E+04  0.7818609E-02  0.8884720E-01
        1   -1    0    0  501    0  0.00000000000E+00  0.00000000000E+00  0.79066190486E+03  0.79066190488E+03  0.50400001928E-02 0. -1.
       -1   -1    0    0    0  501  0.00000000000E+00  0.00000000000E+00 -0.71104804354E+03  0.71104804356E+03  0.50400001928E-02 0.  1.
    10030    2    1    2    0    0  0.00000000000E+00  0.00000000000E+00  0.79613861319E+02  0.15017099484E+04  0.14995980803E+04 0.  0.
        5    1    3    3  502    0  0.44648379574E+03 -0.53769937388E+03  0.31168165356E+03  0.76526854091E+03  0.46999998093E+01 0. -1.
       -5    1    3    3    0  502 -0.44648379574E+03  0.53769937388E+03 -0.23206779224E+03  0.73644140753E+03  0.46999998093E+01 0.  1.
</event>
<event>
 5   0  0.1576214E-05  0.1498999E+04  0.7818609E-02  0.8885119E-01
       -1   -1    0    0    0  501  0.00000000000E+00  0.00000000000E+00  0.27041684459E+03  0.27041684463E+03  0.50400001928E-02 0. -1.
        1   -1    0    0  501    0  0.00000000000E+00  0.00000000000E+00 -0.20773474282E+04  0.20773474282E+04  0.50400001928E-02 0.  1.
    10030    2    1    2    0    0  0.00000000000E+00  0.00000000000E+00 -0.18069305836E+04  0.23477642728E+04  0.14989993152E+04 0.  0.
        1    1    3    3  502    0 -0.43258554868E+02 -0.46037720201E+03  0.20381135538E+02  0.46285403899E+03  0.50400001928E-02 0. -1.
       -1    1    3    3    0  502  0.43258554868E+02  0.46037720201E+03 -0.18273117192E+04  0.18849102339E+04  0.50400001928E-02 0.  1.
</event>
<event>
 5   0  0.3030702E-05  0.1497604E+04  0.7818609E-02  0.8886048E-01
       -2   -1    0    0    0  501  0.00000000000E+00  0.00000000000E+00  0.27850410285E+03  0.27850410286E+03  0.25500000920E-02 0.  1.
        2   -1    0    0  501    0  0.00000000000E+00  0.00000000000E+00 -0.20132728175E+04  0.20132728175E+04  0.25500000920E-02 0. -1.
    10030    2    1    2    0    0  0.00000000000E+00  0.00000000000E+00 -0.17347687147E+04  0.22917769204E+04  0.14976044068E+04 0.  0.
        5    1    3    3  502    0 -0.96205405253E+02 -0.20319404158E+03  0.22561434150E+03  0.31853919637E+03  0.46999998093E+01 0.  1.
       -5    1    3    3    0  502  0.96205405253E+02  0.20319404158E+03 -0.19603830562E+04  0.19732377240E+04  0.46999998093E+01 0. -1.
</event>
<event>
 5   0  0.1580078E-05  0.1494490E+04  0.7818609E-02  0.8888126E-01
       -1   -1    0    0    0  501  0.00000000000E+00  0.00000000000E+00  0.99783727394E+03  0.99783727396E+03  0.50400001928E-02 0.  1.
        1   -1    0    0  501    0  0.00000000000E+00  0.00000000000E+00 -0.55958496666E+03  0.55958496668E+03  0.50400001928E-02 0. -1.
    10030    2    1    2    0    0  0.00000000000E+00  0.00000000000E+00  0.43825230729E+03  0.15574222406E+04  0.14944895285E+04 0.  0.
        2    1    3    3  502    0  0.27946380315E+03 -0.62435448974E+03  0.53255043977E+03  0.86690744433E+03  0.25500000920E-02 0.  1.
       -2    1    3    3    0  502 -0.27946380315E+03  0.62435448974E+03 -0.94298132482E+02  0.69051479631E+03  0.25500000920E-02 0. -1.
</event>
<event>
 5   0  0.1588657E-05  0.1495643E+04  0.7818609E-02  0.8887356E-01
        1   -1    0    0  501    0  0.00000000000E+00  0.00000000000E+00  0.12939609330E+04  0.12939609330E+04  0.50400001928E-02 0.  1.
       -1   -1    0    0    0  501  0.00000000000E+00  0.00000000000E+00 -0.43218972971E+03  0.43218972973E+03  0.50400001928E-02 0. -1.
    10030    2    1    2    0    0  0.00000000000E+00  0.00000000000E+00  0.86177120331E+03  0.17261506628E+04  0.14956425053E+04 0.  0.
        3    1    3    3  502    0  0.59063527660E+03 -0.28652154959E+03  0.84426674940E+03  0.10694535907E+04  0.10100000352E+00 0.  1.
       -3    1    3    3    0  502 -0.59063527660E+03  0.28652154959E+03  0.17504453917E+02  0.65669707206E+03  0.10100000352E+00 0. -1.
</event>
<event>
 5   0  0.2969498E-05  0.1500125E+04  0.7818609E-02  0.8884370E-01
        2   -1    0    0  501    0  0.00000000000E+00  0.00000000000E+00  0.14410979394E+04  0.14410979394E+04  0.25500000920E-02 0. -1.
       -2   -1    0    0    0  501  0.00000000000E+00  0.00000000000E+00 -0.39039239448E+03  0.39039239449E+03  0.25500000920E-02 0.  1.
    10030    2    1    2    0    0  0.00000000000E+00  0.00000000000E+00  0.10507055450E+04  0.18314903339E+04  0.15001248952E+04 0.  0.
        3    1    3    3  502    0 -0.50597587578E+03 -0.11475371120E+03 -0.13597594187E+03  0.53634827125E+03  0.10100000352E+00 0.  1.
       -3    1    3    3    0  502  0.50597587578E+03  0.11475371120E+03  0.11866814868E+04  0.12951420627E+04  0.10100000352E+00 0. -1.
</event>
<event>
 5   0  0.3030702E-05  0.1499633E+04  0.7818609E-02  0.8884697E-01
       -2   -1    0    0    0  501  0.00000000000E+00  0.00000000000E+00  0.57384228980E+03  0.57384228980E+03  0.25500000920E-02 0.  1.
        2   -1    0    0  501    0  0.00000000000E+00  0.00000000000E+00 -0.97975533963E+03  0.97975533964E+03  0.25500000920E-02 0. -1.
    10030    2    1    2    0    0  0.00000000000E+00  0.00000000000E+00 -0.40591304984E+03  0.15535976294E+04  0.14996333519E+04 0.  0.
        5    1    3    3  502    0  0.10600467673E+03  0.89541127062E+02 -0.96632236046E+03  0.97624566542E+03  0.46999998093E+01 0. -1.
       -5    1    3    3    0  502 -0.10600467673E+03 -0.89541127062E+02  0.56040931062E+03  0.57735196402E+03  0.46999998093E+01 0.  1.
</event>
<event>
 5   0  0.3093600E-05  0.1500273E+04  0.7818609E-02  0.8884271E-01
        2   -1    0    0  501    0  0.00000000000E+00  0.00000000000E+00  0.78121850752E+03  0.78121850753E+03  0.25500000920E-02 0. -1.
       -2   -1    0    0    0  501  0.00000000000E+00  0.00000000000E+00 -0.72029114735E+03  0.72029114735E+03  0.25500000920E-02 0.  1.
    10030    2    1    2    0    0  0.00000000000E+00  0.00000000000E+00  0.60927360179E+02  0.15015096549E+04  0.15002730086E+04 0.  0.
        1    1    3    3  502    0 -0.47657734220E+03  0.35961228838E+03  0.48499418830E+03  0.76919849438E+03  0.50400001928E-02 0. -1.
       -1    1    3    3    0  502  0.47657734220E+03 -0.35961228838E+03 -0.42406682812E+03  0.73231116050E+03  0.50400001928E-02 0.  1.
</event>
<event>
 5   0  0.1643498E-05  0.1501055E+04  0.7818609E-02  0.8883752E-01
        1   -1    0    0  501    0  0.00000000000E+00  0.00000000000E+00  0.66160351379E+03  0.66160351381E+03  0.50400001928E-02 0.  1.
       -1   -1    0    0    0  501  0.00000000000E+00  0.00000000000E+00 -0.85140346070E+03  0.85140346072E+03  0.50400001928E-02 0. -1.
    10030    2    1    2    0    0  0.00000000000E+00  0.00000000000E+00 -0.18979994691E+03  0.15130069745E+04  0.15010549907E+04 0.  0.
        4    1    3    3  502    0  0.62124053399E+03 -0.38280128568E+03 -0.27183479544E+03  0.77869916804E+03  0.12699999809E+01 0. -1.
       -4    1    3    3    0  502 -0.62124053399E+03  0.38280128568E+03  0.82034848530E+02  0.73430780648E+03  0.12699999809E+01 0.  1.
</event>
<event>
 5   0  0.1588657E-05  0.1499606E+04  0.7818609E-02  0.8884715E-01
        1   -1    0    0  501    0  0.00000000000E+00  0.00000000000E+00  0.53045117664E+03  0.53045117666E+03  0.50400001928E-02 0. -1.
       -1   -1    0    0    0  501  0.00000000000E+00  0.00000000000E+00 -0.10598611016E+04  0.10598611017E+04  0.50400001928E-02 0.  1.
    10030    2    1    2    0    0  0.00000000000E+00  0.00000000000E+00 -0.52940992500E+03  0.15903122783E+04  0.14996060396E+04 0.  0.
        3    1    3    3  502    0 -0.20750269532E+03 -0.34553316907E+03 -0.93520939070E+03  0.10183649415E+04  0.10100000352E+00 0.  1.
       -3    1    3    3    0  502  0.20750269532E+03  0.34553316907E+03  0.40579946570E+03  0.57194733678E+03  0.10100000352E+00 0. -1.
</event>
<event>
 5   0  0.1576214E-05  0.1493714E+04  0.7818609E-02  0.8888644E-01
        1   -1    0    0  501    0  0.00000000000E+00  0.00000000000E+00  0.10607168139E+04  0.10607168139E+04  0.50400001928E-02 0. -1.
       -1   -1    0    0    0  501  0.00000000000E+00  0.00000000000E+00 -0.52586627145E+03  0.52586627147E+03  0.50400001928E-02 0.  1.
    10030    2    1    2    0    0  0.00000000000E+00  0.00000000000E+00  0.53485054241E+03  0.15865830853E+04  0.14937137557E+04 0.  0.
        1    1    3    3  502    0  0.36506170455E+03 -0.49090564142E+03  0.72247306809E+03  0.94669199376E+03  0.50400001928E-02 0. -1.
       -1    1    3    3    0  502 -0.36506170455E+03  0.49090564142E+03 -0.18762252568E+03  0.63989109158E+03  0.50400001928E-02 0.  1.
</event>
<event>
 5   0  0.3018308E-05  0.1496805E+04  0.7818609E-02  0.8886580E-01
        2   -1    0    0  501    0  0.00000000000E+00  0.00000000000E+00  0.87625226306E+03  0.87625226306E+03  0.25500000920E-02 0. -1.
       -2   -1    0    0    0  501  0.00000000000E+00  0.00000000000E+00 -0.63920685911E+03  0.63920685912E+03  0.25500000920E-02 0.  1.
    10030    2    1    2    0    0  0.00000000000E+00  0.00000000000E+00  0.23704540395E+03  0.15154591222E+04  0.14968052069E+04 0.  0.
        2    1    3    3  502    0 -0.58805148525E+03  0.36646248265E+03  0.40490314620E+03  0.80252467769E+03  0.25500000920E-02 0.  1.
       -2    1    3    3    0  502  0.58805148525E+03 -0.36646248265E+03 -0.16785774226E+03  0.71293444449E+03  0.25500000920E-02 0. -1.
</event>
<event>
 5   0  0.1576214E-05  0.1501359E+04  0.7818609E-02  0.8883550E-01
        1   -1    0    0  501    0  0.00000000000E+00  0.00000000000E+00  0.13368013649E+04  0.13368013649E+04  0.50400001928E-02 0.  1.
       -1   -1    0    0    0  501  0.00000000000E+00  0.00000000000E+00 -0.42154316476E+03  0.42154316479E+03  0.50400001928E-02 0. -1.
    10030    2    1    2    0    0  0.00000000000E+00  0.00000000000E+00  0.91525820014E+03  0.17583445297E+04  0.15013586887E+04 0.  0.
        1    1    3    3  502    0 -0.20483751112E+03  0.24772569669E+02  0.13029399571E+04  0.13191757343E+04  0.50400001928E-02 0.  1.
       -1    1    3    3    0  502  0.20483751112E+03 -0.24772569669E+02 -0.38768175694E+03  0.43916879540E+03  0.50400001928E-02 0. -1.
</event>
<event>
 5   0  0.1580078E-05  0.1500258E+04  0.7818609E-02  0.8884282E-01
       -1   -1    0    0    0  501  0.00000000000E+00  0.00000000000E+00  0.45471876577E+03  0.45471876580E+03  0.50400001928E-02 0.  1.
        1   -1    0    0  501    0  0.00000000000E+00  0.00000000000E+00 -0.12374534511E+04  0.12374534511E+04  0.50400001928E-02 0. -1.
    10030    2    1    2    0    0  0.00000000000E+00  0.00000000000E+00 -0.78273468534E+03  0.16921722169E+04  0.15002577192E+04 0.  0.
        2    1    3    3  502    0  0.42240113714E+03 -0.71399402467E+02  0.30317260010E+03  0.52481827406E+03  0.25500000920E-02 0.  1.
       -2    1    3    3    0  502 -0.42240113714E+03  0.71399402467E+02 -0.10859072854E+04  0.11673539429E+04  0.25500000920E-02 0. -1.
</event>
<event>
 5   0  0.1643498E-05  0.1500801E+04  0.7818609E-02  0.8883920E-01
        1   -1    0    0  501    0  0.00000000000E+00  0.00000000000E+00  0.16326728078E+04  0.16326728078E+04  0.50400001928E-02 0. -1.
       -1   -1    0    0    0  501  0.00000000000E+00  0.00000000000E+00 -0.34489536594E+03  0.34489536597E+03  0.50400001928E-02 0.  1.
    10030    2    1    2    0    0  0.00000000000E+00  0.00000000000E+00  0.12877774418E+04  0.19775681737E+04  0.15008014999E+04 0.  0.
        4    1    3    3  502    0 -0.63523859327E+03  0.34985874897E+03  0.89793168149E+03  0.11542149419E+04  0.12699999809E+01 0. -1.
       -4    1    3    3    0  502  0.63523859327E+03 -0.34985874897E+03  0.38984576034E+03  0.82335323183E+03  0.12699999809E+01 0.  1.
</event>
<event>
 5   0  0.2969498E-05  0.1499621E+04  0.7818609E-02  0.8884705E-01
       -2   -1    0    0    0  501  0.00000000000E+00  0.00000000000E+00  0.40413697099E+03  0.40413697099E+03  0.25500000920E-02 0.  1.
        2   -1    0    0  501    0  0.00000000000E+00  0.00000000000E+00 -0.13911518012E+04  0.13911518012E+04  0.25500000920E-02 0. -1.
    10030    2    1    2    0    0  0.00000000000E+00  0.00000000000E+00 -0.98701483024E+03  0.17952887722E+04  0.14996211190E+04 0.  0.
        3    1    3    3  502    0 -0.11096377498E+03  0.90398745801E+01 -0.13812018601E+04  0.13856815172E+04  0.10100000352E+00 0. -1.
       -3    1    3    3    0  502  0.11096377498E+03 -0.90398745801E+01  0.39418702982E+03  0.40960725502E+03  0.10100000352E+00 0.  1.
</event>
<event>
 5   0  0.2969498E-05  0.1504579E+04  0.7818609E-02  0.8881413E-01
       -2   -1    0    0    0  501  0.00000000000E+00  0.00000000000E+00  0.41026681889E+03  0.41026681890E+03  0.25500000920E-02 0.  1.
        2   -1    0    0  501    0  0.00000000000E+00  0.00000000000E+00 -0.13794431575E+04  0.13794431575E+04  0.25500000920E-02 0. -1.
    10030    2    1    2    0    0  0.00000000000E+00  0.00000000000E+00 -0.96917633859E+03  0.17897099764E+04  0.15045793513E+04 0.  0.
        3    1    3    3  502    0 -0.28721110719E+03 -0.26941087674E+03 -0.12470504319E+04  0.13077489172E+04  0.10100000352E+00 0. -1.
       -3    1    3    3    0  502  0.28721110719E+03  0.26941087674E+03  0.27787409332E+03  0.48196105915E+03  0.10100000352E+00 0.  1.
</event>
<event>
 5   0  0.1580078E-05  0.1500653E+04  0.7818609E-02  0.8884019E-01
       -1   -1    0    0    0  501  0.00000000000E+00  0.00000000000E+00  0.75016842970E+03  0.75016842971E+03  0.50400001928E-02 0. -1.
        1   -1    0    0  501    0  0.00000000000E+00  0.00000000000E+00 -0.75048496299E+03  0.75048496301E+03  0.50400001928E-02 0.  1.
    10030    2    1    2    0    0  0.00000000000E+00  0.00000000000E+00 -0.31653329718E+00  0.15006533927E+04  0.15006533593E+04 0.  0.
        2    1    3    3  502    0  0.16868489555E+03 -0.49487801663E+03  0.53801577004E+03  0.75021317914E+03  0.25500000920E-02 0. -1.
       -2    1    3    3    0  502 -0.16868489555E+03  0.49487801663E+03 -0.53833230334E+03  0.75044021358E+03  0.25500000920E-02 0.  1.
</event>
<event>
 5   0  0.1116613E-05  0.1501056E+04  0.7818609E-02  0.8883751E-01
        3   -1    0    0  501    0  0.00000000000E+00  0.00000000000E+00  0.75325063510E+03  0.75325064187E+03  0.10100000352E+00 0.  1.
       -3   -1    0    0    0  501  0.00000000000E+00  0.00000000000E+00 -0.74781513548E+03  0.74781514231E+03  0.10100000352E+00 0. -1.
    10030    2    1    2    0    0  0.00000000000E+00  0.00000000000E+00  0.54354996180E+01  0.15010657842E+04  0.15010559429E+04 0.  0.
        3    1    3    3  502    0 -0.21228133907E+02  0.48269195190E+03  0.57704726916E+03  0.75261259300E+03  0.10100000352E+00 0.  1.
       -3    1    3    3    0  502  0.21228133907E+02 -0.48269195190E+03 -0.57161176954E+03  0.74845319118E+03  0.10100000352E+00 0. -1.
</event>
<event>
 5   0  0.1533777E-05  0.1499181E+04  0.7818609E-02  0.8884998E-01
       -1   -1    0    0    0  501  0.00000000000E+00  0.00000000000E+00  0.50567786956E+03  0.50567786959E+03  0.50400001928E-02 0.  1.
        1   -1    0    0  501    0  0.00000000000E+00  0.00000000000E+00 -0.11111541323E+04  0.11111541323E+04  0.50400001928E-02 0. -1.
    10030    2    1    2    0    0  0.00000000000E+00  0.00000000000E+00 -0.60547626277E+03  0.16168320019E+04  0.14991811824E+04 0.  0.
        5    1    3    3  502    0 -0.20521483671E+03 -0.55521204441E+03 -0.79870895040E+03  0.99414869155E+03  0.46999998093E+01 0. -1.
       -5    1    3    3    0  502  0.20521483671E+03  0.55521204441E+03  0.19323268763E+03  0.62268331038E+03  0.46999998093E+01 0.  1.
</event>
<event>
 5   0  0.3030702E-05  0.1496774E+04  0.7818609E-02  0.8886601E-01
        2   -1    0    0  501    0  0.00000000000E+00  0.00000000000E+00  0.64575119582E+03  0.64575119582E+03  0.25500000920E-02 0.  1.
       -2   -1    0    0    0  501  0.00000000000E+00  0.00000000000E+00 -0.86733523507E+03  0.86733523508E+03  0.25500000920E-02 0. -1.
    10030    2    1    2    0    0  0.00000000000E+00  0.00000000000E+00 -0.22158403926E+03  0.15130864309E+04  0.14967735503E+04 0.  0.
        5    1    3    3  502    0  0.11311097249E+03  0.24508523419E+03  0.59481223715E+03  0.65321095489E+03  0.46999998093E+01 0.  1.
       -5    1    3    3    0  502 -0.11311097249E+03 -0.24508523419E+03 -0.81639627641E+03  0.85987547602E+03  0.46999998093E+01 0. -1.
</event>
<event>
 5   0  0.3093600E-05  0.1500390E+04  0.7818609E-02  0.8884194E-01
       -2   -1    0    0    0  501  0.00000000000E+00  0.00000000000E+00  0.12381695624E+04  0.12381695624E+04  0.25500000920E-02 0. -1.
        2   -1    0    0  501    0  0.00000000000E+00  0.00000000000E+00 -0.45453589110E+03  0.45453589111E+03  0.25500000920E-02 0.  1.
    10030    2    1    2    0    0  0.00000000000E+00  0.00000000000E+00  0.78363367128E+03  0.16927054535E+04  0.15003899565E+04 0.  0.
        1    1    3    3  502    0  0.68778059834E+03 -0.27185787681E+03  0.24981143959E+03  0.78061169093E+03  0.50400001928E-02 0.  1.
       -1    1    3    3    0  502 -0.68778059834E+03  0.27185787681E+03  0.53382223169E+03  0.91209376257E+03  0.50400001928E-02 0. -1.
</event>
<event>
 5   0  0.1533777E-05  0.1498932E+04  0.7818609E-02  0.8885163E-01
       -1   -1    0    0    0  501  0.00000000000E+00  0.00000000000E+00  0.10863594555E+04  0.10863594555E+04  0.50400001928E-02 0. -1.
        1   -1    0    0  501    0  0.00000000000E+00  0.00000000000E+00 -0.51704755172E+03  0.51704755174E+03  0.50400001928E-02 0.  1.
    10030    2    1    2    0    0  0.00000000000E+00  0.00000000000E+00  0.56931190373E+03  0.16034070072E+04  0.14989322823E+04 0.  0.
        5    1    3    3  502    0  0.10191777858E+03  0.84263728289E+02  0.10737648884E+04  0.10818875797E+04  0.46999998093E+01 0. -1.
       -5    1    3    3    0  502 -0.10191777858E+03 -0.84263728289E+02 -0.50445298470E+03  0.52151942750E+03  0.46999998093E+01 0.  1.
</event>
<event>
 5   0  0.1643498E-05  0.1499731E+04  0.7818609E-02  0.8884632E-01
       -1   -1    0    0    0  501  0.00000000000E+00  0.00000000000E+00  0.16743894008E+04  0.16743894008E+04  0.50400001928E-02 0.  1.
        1   -1    0    0  501    0  0.00000000000E+00  0.00000000000E+00 -0.33582273390E+03  0.33582273394E+03  0.50400001928E-02 0. -1.
    10030    2    1    2    0    0  0.00000000000E+00  0.00000000000E+00  0.13385666669E+04  0.20102121348E+04  0.14997306775E+04 0.  0.
        4    1    3    3  502    0 -0.58233622976E+03  0.45300155858E+03  0.48959954391E+03  0.88545763471E+03  0.12699999809E+01 0. -1.
       -4    1    3    3    0  502  0.58233622976E+03 -0.45300155858E+03  0.84896712301E+03  0.11247545001E+04  0.12699999809E+01 0.  1.
</event>
<event>
 5   0  0.3070497E-05  0.1500825E+04  0.7818609E-02  0.8883904E-01
        2   -1    0    0  501    0  0.00000000000E+00  0.00000000000E+00  0.24999132873E+04  0.24999132873E+04  0.25500000920E-02 0.  1.
       -2   -1    0    0    0  501  0.00000000000E+00  0.00000000000E+00 -0.22525544085E+03  0.22525544087E+03  0.25500000920E-02 0. -1.
    10030    2    1    2    0    0  0.00000000000E+00  0.00000000000E+00  0.22746578465E+04  0.27251687282E+04  0.15008251992E+04 0.  0.
        4    1    3    3  502    0 -0.44940242086E+03  0.59924933206E+03  0.10550125956E+04  0.12938761485E+04  0.12699999809E+01 0.  1.
       -4    1    3    3    0  502  0.44940242086E+03 -0.59924933206E+03  0.12196452509E+04  0.14312925797E+04  0.12699999809E+01 0. -1.
</event>
<event>
 5   0  0.2969498E-05  0.1500372E+04  0.7818609E-02  0.8884206E-01
        2   -1    0    0  501    0  0.00000000000E+00  0.00000000000E+00  0.81369437722E+03  0.81369437723E+03  0.25500000920E-02 0.  1.
       -2   -1    0    0    0  501  0.00000000000E+00  0.00000000000E+00 -0.69163433788E+03  0.69163433788E+03  0.25500000920E-02 0. -1.
    10030    2    1    2    0    0  0.00000000000E+00  0.00000000000E+00  0.12206003934E+03  0.15053287151E+04  0.15003719163E+04 0.  0.
        3    1    3    3  502    0  0.49156370836E+03  0.17282182265E+03 -0.48045356131E+03  0.70875799575E+03  0.10100000352E+00 0. -1.
       -3    1    3    3    0  502 -0.49156370836E+03 -0.17282182265E+03  0.60251360065E+03  0.79657071936E+03  0.10100000352E+00 0.  1.
</event>
<event>
 5   0  0.3030702E-05  0.1500117E+04  0.7818609E-02  0.8884375E-01
       -2   -1    0    0    0  501  0.00000000000E+00  0.00000000000E+00  0.39837568544E+03  0.39837568545E+03  0.25500000920E-02 0. -1.
        2   -1    0    0  501    0  0.00000000000E+00  0.00000000000E+00 -0.14122040059E+04  0.14122040059E+04  0.25500000920E-02 0.  1.
    10030    2    1    2    0    0  0.00000000000E+00  0.00000000000E+00 -0.10138283205E+04  0.18105796914E+04  0.15001169806E+04 0.  0.
        5    1    3    3  502    0  0.41491814113E+02 -0.35502066299E+03  0.28895098692E+03  0.45964769621E+03  0.46999998093E+01 0. -1.
       -5    1    3    3    0  502 -0.41491814113E+02  0.35502066299E+03 -0.13027793074E+04  0.13509319952E+04  0.46999998093E+01 0.  1.
</event>
<event>
 5   0  0.3030702E-05  0.1499624E+04  0.7818609E-02  0.8884703E-01
       -2   -1    0    0    0  501  0.00000000000E+00  0.00000000000E+00  0.32482455031E+03  0.32482455032E+03  0.25500000920E-02 0.  1.
        2   -1    0    0  501    0  0.00000000000E+00  0.00000000000E+00 -0.17308359251E+04  0.17308359251E+04  0.25500000920E-02 0. -1.
    10030    2    1    2    0    0  0.00000000000E+00  0.00000000000E+00 -0.14060113748E+04  0.20556604754E+04  0.14996239542E+04 0.  0.
        5    1    3    3  502    0  0.68536668692E+03 -0.28984034633E+03 -0.57691599498E+03  0.94158859230E+03  0.46999998093E+01 0.  1.
       -5    1    3    3    0  502 -0.68536668692E+03  0.28984034633E+03 -0.82909537981E+03  0.11140718831E+04  0.46999998093E+01 0. -1.
</event>
<event>
 5   0  0.3030702E-05  0.1496648E+04  0.7818609E-02  0.8886685E-01
        2   -1    0    0  501    0  0.00000000000E+00  0.00000000000E+00  0.88232229936E+03  0.88232229937E+03  0.25500000920E-02 0. -1.
       -2   -1    0    0    0  501  0.00000000000E+00  0.00000000000E+00 -0.63467613896E+03  0.63467613897E+03  0.25500000920E-02 0.  1.
    10030    2    1    2    0    0  0.00000000000E+00  0.00000000000E+00  0.24764616040E+03  0.15169984383E+04  0.14966481354E+04 0.  0.
        5    1    3    3  502    0  0.57809423643E+03 -0.47411318730E+03  0.15572418750E+03  0.76370699429E+03  0.46999998093E+01 0.  1.
       -5    1    3    3    0  502 -0.57809423643E+03  0.47411318730E+03  0.91921972902E+02  0.75329144404E+03  0.46999998093E+01 0. -1.
</event>
<event>
 5   0  0.1533777E-05  0.1500977E+04  0.7818609E-02  0.8883804E-01
        1   -1    0    0  501    0  0.00000000000E+00  0.00000000000E+00  0.85537178104E+03  0.85537178106E+03  0.50400001928E-02 0. -1.
       -1   -1    0    0    0  501  0.00000000000E+00  0.00000000000E+00 -0.65846531906E+03  0.65846531908E+03  0.50400001928E-02 0.  1.
    10030    2    1    2    0    0  0.00000000000E+00  0.00000000000E+00  0.19690646198E+03  0.15138371001E+04  0.15009765524E+04 0.  0.
        5    1    3    3  502    0  0.42332256728E+02 -0.72433113017E+03 -0.94926277733E+02  0.73176546400E+03  0.46999998093E+01 0.  1.
       -5    1    3    3    0  502 -0.42332256728E+02  0.72433113017E+03  0.29183273971E+03  0.78207163614E+03  0.46999998093E+01 0. -1.
</event>
<event>
 5   0  0.3093600E-05  0.1503345E+04  0.7818609E-02  0.8882232E-01
       -2   -1    0    0    0  501  0.00000000000E+00  0.00000000000E+00  0.55658500316E+03  0.55658500317E+03  0.25500000920E-02 0.  1.
        2   -1    0    0  501    0  0.00000000000E+00  0.00000000000E+00 -0.10151397629E+04  0.10151397629E+04  0.25500000920E-02 0. -1.
    10030    2    1    2    0    0  0.00000000000E+00  0.00000000000E+00 -0.45855475972E+03  0.15717247661E+04  0.15033450278E+04 0.  0.
        1    1    3    3  502    0 -0.36864786715E+02 -0.74292197097E+03 -0.11609667745E+03  0.75284162079E+03  0.50400001928E-02 0. -1.
       -1    1    3    3    0  502  0.36864786715E+02  0.74292197097E+03 -0.34245808227E+03  0.81888314526E+03  0.50400001928E-02 0.  1.
</event>
<event>
 5   0  0.1580078E-05  0.1499721E+04  0.7818609E-02  0.8884639E-01
       -1   -1    0    0    0  501  0.00000000000E+00  0.00000000000E+00  0.40126821379E+03  0.40126821382E+03  0.50400001928E-02 0. -1.
        1   -1    0    0  501    0  0.00000000000E+00  0.00000000000E+00 -0.14012835202E+04  0.14012835202E+04  0.50400001928E-02 0.  1.
    10030    2    1    2    0    0  0.00000000000E+00  0.00000000000E+00 -0.10000153064E+04  0.18025517341E+04  0.14997206876E+04 0.  0.
        2    1    3    3  502    0 -0.32331184770E+03 -0.20106801728E+02  0.31283110584E+03  0.45033113942E+03  0.25500000920E-02 0. -1.
       -2    1    3    3    0  502  0.32331184770E+03  0.20106801728E+02 -0.13128464123E+04  0.13522205946E+04  0.25500000920E-02 0.  1.
</event>
<event>
 5   0  0.1580078E-05  0.1499554E+04  0.7818609E-02  0.8884749E-01
        1   -1    0    0  501    0  0.00000000000E+00  0.00000000000E+00  0.27755417331E+04  0.27755417331E+04  0.50400001928E-02 0.  1.
       -1   -1    0    0    0  501  0.00000000000E+00  0.00000000000E+00 -0.20254271180E+03  0.20254271187E+03  0.50400001928E-02 0. -1.
    10030    2    1    2    0    0  0.00000000000E+00  0.00000000000E+00  0.25729990213E+04  0.29780844450E+04  0.14995542664E+04 0.  0.
        2    1    3    3  502    0  0.15517789460E+03 -0.59716558226E+03  0.44046551151E+03  0.75808757967E+03  0.25500000920E-02 0. -1.
       -2    1    3    3    0  502 -0.15517789460E+03  0.59716558226E+03  0.21325335098E+04  0.22199968653E+04  0.25500000920E-02 0.  1.
</event>
<event>
 5   0  0.1588657E-05  0.1499577E+04  0.7818609E-02  0.8884734E-01
        1   -1    0    0  501    0  0.00000000000E+00  0.00000000000E+00  0.14161113820E+04  0.14161113820E+04  0.50400001928E-02 0.  1.
       -1   -1    0    0    0  501  0.00000000000E+00  0.00000000000E+00 -0.39699045977E+03  0.39699045980E+03  0.50400001928E-02 0. -1.
    10030    2    1    2    0    0  0.00000000000E+00  0.00000000000E+00  0.10191209222E+04  0.18131018418E+04  0.14995768852E+04 0.  0.
        3    1    3    3  502    0  0.32183312514E+03 -0.60649546533E+03  0.14529066175E+03  0.70179961278E+03  0.10100000352E+00 0.  1.
       -3    1    3    3    0  502 -0.32183312514E+03  0.60649546533E+03  0.87383026048E+03  0.11113022290E+04  0.10100000352E+00 0. -1.
</event>
<event>
 5   0  0.3093600E-05  0.1500016E+04  0.7818609E-02  0.8884442E-01
        2   -1    0    0  501    0  0.00000000000E+00  0.00000000000E+00  0.13883834183E+04  0.13883834183E+04  0.25500000920E-02 0.  1.
       -2   -1    0    0    0  501  0.00000000000E+00  0.00000000000E+00 -0.40515620908E+03  0.40515620909E+03  0.25500000920E-02 0. -1.
    10030    2    1    2    0    0  0.00000000000E+00  0.00000000000E+00  0.98322720917E+03  0.17935396273E+04  0.15000162166E+04 0.  0.
        1    1    3    3  502    0 -0.18860483713E+03  0.27657635971E+03 -0.31087031607E+03  0.45684419749E+03  0.50400001928E-02 0. -1.
       -1    1    3    3    0  502  0.18860483713E+03 -0.27657635971E+03  0.12940975252E+04  0.13366954299E+04  0.50400001928E-02 0.  1.
</event>
<event>
 5   0  0.1643498E-05  0.1500042E+04  0.7818609E-02  0.8884425E-01
       -1   -1    0    0    0  501  0.00000000000E+00  0.00000000000E+00  0.85617271114E+03  0.85617271116E+03  0.50400001928E-02 0. -1.
        1   -1    0    0  501    0  0.00000000000E+00  0.00000000000E+00 -0.65703066776E+03  0.65703066778E+03  0.50400001928E-02 0.  1.
    10030    2    1    2    0    0  0.00000000000E+00  0.00000000000E+00  0.19914204338E+03  0.15132033789E+04  0.15000423036E+04 0.  0.
        4    1    3    3  502    0 -0.31938695373E+03 -0.15188620378E+03 -0.56763403823E+03  0.66879552882E+03  0.12699999809E+01 0.  1.
       -4    1    3    3    0  502  0.31938695373E+03  0.15188620378E+03  0.76677608161E+03  0.84440785012E+03  0.12699999809E+01 0. -1.
</event>
<event>
 5   0  0.1643498E-05  0.1499639E+04  0.7818609E-02  0.8884693E-01
        1   -1    0    0  501    0  0.00000000000E+00  0.00000000000E+00  0.11324380229E+04  0.11324380229E+04  0.50400001928E-02 0. -1.
       -1   -1    0    0    0  501  0.00000000000E+00  0.00000000000E+00 -0.49647667817E+03  0.49647667820E+03  0.50400001928E-02 0.  1.
    10030    2    1    2    0    0  0.00000000000E+00  0.00000000000E+00  0.63596134476E+03  0.16289147011E+04  0.14996387137E+04 0.  0.
        4    1    3    3  502    0 -0.19290305426E+03 -0.60648404957E+03  0.74863444034E+03  0.98259331816E+03  0.12699999809E+01 0. -1.
       -4    1    3    3    0  502  0.19290305426E+03  0.60648404957E+03 -0.11267309558E+03  0.64632138298E+03  0.12699999809E+01 0.  1.
</event>
<event>
 5   0  0.1533777E-05  0.1500915E+04  0.7818609E-02  0.8883845E-01
       -1   -1    0    0    0  501  0.00000000000E+00  0.00000000000E+00  0.13167568769E+04  0.13167568769E+04  0.50400001928E-02 0.  1.
        1   -1    0    0  501    0  0.00000000000E+00  0.00000000000E+00 -0.42770725524E+03  0.42770725527E+03  0.50400001928E-02 0. -1.
    10030    2    1    2    0    0  0.00000000000E+00  0.00000000000E+00  0.88904962162E+03  0.17444641321E+04  0.15009150138E+04 0.  0.
        5    1    3    3  502    0  0.32092426143E+03  0.32756350017E+03 -0.24589916734E+03  0.52036402520E+03  0.46999998093E+01 0. -1.
       -5    1    3    3    0  502 -0.32092426143E+03 -0.32756350017E+03  0.11349487890E+04  0.12241001069E+04  0.46999998093E+01 0.  1.
</event>
<event>
 5   0  0.3018308E-05  0.1500672E+04  0.7818609E-02  0.8884006E-01
        2   -1    0    0  501    0  0.00000000000E+00  0.00000000000E+00  0.12499972848E+04  0.12499972848E+04  0.25500000920E-02 0.  1.
       -2   -1    0    0    0  501  0.00000000000E+00  0.00000000000E+00 -0.45040426189E+03  0.45040426189E+03  0.25500000920E-02 0. -1.
    10030    2    1    2    0    0  0.00000000000E+00  0.00000000000E+00  0.79959302293E+03  0.17004015467E+04  0.15006719887E+04 0.  0.
        2    1    3    3  502    0  0.50513925052E+03 -0.16268493442E+03  0.10008404141E+04  0.11328343148E+04  0.25500000920E-02 0.  1.
       -2    1    3    3    0  502 -0.50513925052E+03  0.16268493442E+03 -0.20124739115E+03  0.56756723193E+03  0.25500000920E-02 0. -1.
</event>
<event>
 5   0  0.3070497E-05  0.1499286E+04  0.7818609E-02  0.8884928E-01
        2   -1    0    0  501    0  0.00000000000E+00  0.00000000000E+00  0.73814491824E+03  0.73814491825E+03  0.25500000920E-02 0. -1.
       -2   -1    0    0    0  501  0.00000000000E+00  0.00000000000E+00 -0.76131979999E+03  0.76131979999E+03  0.25500000920E-02 0.  1.
    10030    2    1    2    0    0  0.00000000000E+00  0.00000000000E+00 -0.23174881742E+02  0.14994647182E+04  0.14992856186E+04 0.  0.
        4    1    3    3  502    0 -0.14642980390E+03 -0.23231207175E+03 -0.70920366288E+03  0.76051432234E+03  0.12699999809E+01 0.  1.
       -4    1    3    3    0  502  0.14642980390E+03  0.23231207175E+03  0.68602878114E+03  0.73895039590E+03  0.12699999809E+01 0. -1.
</event>
<event>
 5   0  0.3030702E-05  0.1500412E+04  0.7818609E-02  0.8884179E-01
       -2   -1    0    0    0  501  0.00000000000E+00  0.00000000000E+00  0.31002136871E+03  0.31002136872E+03  0.25500000920E-02 0.  1.
        2   -1    0    0  501    0  0.00000000000E+00  0.00000000000E+00 -0.18153880369E+04  0.18153880369E+04  0.25500000920E-02 0. -1.
    10030    2    1    2    0    0  0.00000000000E+00  0.00000000000E+00 -0.15053666682E+04  0.21254094056E+04  0.15004120553E+04 0.  0.
        5    1    3    3  502    0  0.68444697706E+03  0.18942608524E+03 -0.10951169057E+04  0.13052406036E+04  0.46999998093E+01 0.  1.
       -5    1    3    3    0  502 -0.68444697706E+03 -0.18942608524E+03 -0.41024976253E+03  0.82016880203E+03  0.46999998093E+01 0. -1.
</event>
<event>
 5   0  0.2969498E-05  0.1500117E+04  0.7818609E-02  0.8884375E-01
        2   -1    0    0  501    0  0.00000000000E+00  0.00000000000E+00  0.11235961918E+04  0.11235961918E+04  0.25500000920E-02 0. -1.
       -2   -1    0    0    0  501  0.00000000000E+00  0.00000000000E+00 -0.50070286731E+03  0.50070286732E+03  0.25500000920E-02 0.  1.
    10030    2    1    2    0    0  0.00000000000E+00  0.00000000000E+00  0.62289332445E+03  0.16242990591E+04  0.15001171087E+04 0.  0.
        3    1    3    3  502    0  0.58778878555E+03 -0.13430649333E+03 -0.17164129514E+03  0.62689284169E+03  0.10100000352E+00 0.  1.
       -3    1    3    3    0  502 -0.58778878555E+03  0.13430649333E+03  0.79453461958E+03  0.99740621739E+03  0.10100000352E+00 0. -1.
</event>
<event>
 5   0  0.3030702E-05  0.1501642E+04  0.7818609E-02  0.8883362E-01
       -2   -1    0    0    0  501  0.00000000000E+00  0.00000000000E+00  0.36684473046E+03  0.36684473047E+03  0.25500000920E-02 0.  1.
        2   -1    0    0  501    0  0.00000000000E+00  0.00000000000E+00 -0.15367044470E+04  0.15367044470E+04  0.25500000920E-02 0. -1.
    10030    2    1    2    0    0  0.00000000000E+00  0.00000000000E+00 -0.11698597166E+04  0.19035491775E+04  0.15016416732E+04 0.  0.
        5    1    3    3  502    0 -0.72267549052E+03  0.79184174094E+01 -0.32704182300E+03  0.79328494875E+03  0.46999998093E+01 0. -1.
       -5    1    3    3    0  502  0.72267549052E+03 -0.79184174094E+01 -0.84281789356E+03  0.11102642287E+04  0.46999998093E+01 0.  1.
</event>
<event>
 5   0  0.3018308E-05  0.1499912E+04  0.7818609E-02  0.8884511E-01
       -2   -1    0    0    0  501  0.00000000000E+00  0.00000000000E+00  0.29289482800E+03  0.29289482801E+03  0.25500000920E-02 0.  1.
        2   -1    0    0  501    0  0.00000000000E+00  0.00000000000E+00 -0.19202592821E+04  0.19202592821E+04  0.25500000920E-02 0. -1.
    10030    2    1    2    0    0  0.00000000000E+00  0.00000000000E+00 -0.16273644541E+04  0.22131541101E+04  0.14999120136E+04 0.  0.
        2    1    3    3  502    0 -0.69608005759E+03 -0.13719618155E+03 -0.11723397830E+04  0.13703031801E+04  0.25500000920E-02 0. -1.
       -2    1    3    3    0  502  0.69608005759E+03  0.13719618155E+03 -0.45502467119E+03  0.84285093000E+03  0.25500000920E-02 0.  1.
</event>
<event>
 5   0  0.1576214E-05  0.1500188E+04  0.7818609E-02  0.8884328E-01
        1   -1    0    0  501    0  0.00000000000E+00  0.00000000000E+00  0.95429967469E+03  0.95429967470E+03  0.50400001928E-02 0.  1.
       -1   -1    0    0    0  501  0.00000000000E+00  0.00000000000E+00 -0.58958507803E+03  0.58958507805E+03  0.50400001928E-02 0. -1.
    10030    2    1    2    0    0  0.00000000000E+00  0.00000000000E+00  0.36471459666E+03  0.15438847528E+04  0.15001877858E+04 0.  0.
        1    1    3    3  502    0  0.78571579469E+02 -0.11618648128E+03  0.94068407823E+03  0.95108323853E+03  0.50400001928E-02 0.  1.
       -1    1    3    3    0  502 -0.78571579469E+02  0.11618648128E+03 -0.57596948158E+03  0.59280151423E+03  0.50400001928E-02 0. -1.
</event>
<event>
 5   0  0.1643498E-05  0.1499672E+04  0.7818609E-02  0.8884671E-01
        1   -1    0    0  501    0  0.00000000000E+00  0.00000000000E+00  0.77620400075E+03  0.77620400076E+03  0.50400001928E-02 0. -1.
       -1   -1    0    0    0  501  0.00000000000E+00  0.00000000000E+00 -0.72436420298E+03  0.72436420300E+03  0.50400001928E-02 0.  1.
    10030    2    1    2    0    0  0.00000000000E+00  0.00000000000E+00  0.51839797766E+02  0.15005682038E+04  0.14996724874E+04 0.  0.
        4    1    3    3  502    0 -0.49289852181E+03  0.23908568510E+03  0.53822361421E+03  0.76798254500E+03  0.12699999809E+01 0. -1.
       -4    1    3    3    0  502  0.49289852181E+03 -0.23908568510E+03 -0.48638381645E+03  0.73258565876E+03  0.12699999809E+01 0.  1.
</event>
<event>
 5   0  0.3070497E-05  0.1506608E+04  0.7818609E-02  0.8880071E-01
        2   -1    0    0  501    0  0.00000000000E+00  0.00000000000E+00  0.11706812902E+04  0.11706812902E+04  0.25500000920E-02 0.  1.
       -2   -1    0    0    0  501  0.00000000000E+00  0.00000000000E+00 -0.48473194110E+03  0.48473194111E+03  0.25500000920E-02 0. -1.
    10030    2    1    2    0    0  0.00000000000E+00  0.00000000000E+00  0.68594934905E+03  0.16554132313E+04  0.15066075988E+04 0.  0.
        4    1    3    3  502    0 -0.72003392418E+03  0.16937936606E+03  0.49962833905E+03  0.89261879416E+03  0.12699999809E+01 0. -1.
       -4    1    3    3    0  502  0.72003392418E+03 -0.16937936606E+03  0.18632101000E+03  0.76279443711E+03  0.12699999809E+01 0.  1.
</event>
<event>
 5   0  0.3070497E-05  0.1500050E+04  0.7818609E-02  0.8884420E-01
       -2   -1    0    0    0  501  0.00000000000E+00  0.00000000000E+00  0.73528254175E+03  0.73528254176E+03  0.25500000920E-02 0. -1.
        2   -1    0    0  501    0  0.00000000000E+00  0.00000000000E+00 -0.76506314208E+03  0.76506314209E+03  0.25500000920E-02 0.  1.
    10030    2    1    2    0    0  0.00000000000E+00  0.00000000000E+00 -0.29780600331E+02  0.15003456838E+04  0.15000500948E+04 0.  0.
        4    1    3    3  502    0 -0.17574472647E+02 -0.73309257051E+03 -0.17240904669E+03  0.75329945660E+03  0.12699999809E+01 0.  1.
       -4    1    3    3    0  502  0.17574472647E+02  0.73309257051E+03  0.14262844636E+03  0.74704622725E+03  0.12699999809E+01 0. -1.
</event>
<event>
 5   0  0.1580078E-05  0.1499694E+04  0.7818609E-02  0.8884657E-01
       -1   -1    0    0    0  501  0.00000000000E+00  0.00000000000E+00  0.68311428769E+03  0.68311428770E+03  0.50400001928E-02 0. -1.
        1   -1    0    0  501    0  0.00000000000E+00  0.00000000000E+00 -0.82309849974E+03  0.82309849976E+03  0.50400001928E-02 0.  1.
    10030    2    1    2    0    0  0.00000000000E+00  0.00000000000E+00 -0.13998421206E+03  0.15062127875E+04  0.14996937626E+04 0.  0.
        2    1    3    3  502    0 -0.66409938074E+03 -0.34619602639E+03 -0.32538325750E+02  0.74962551907E+03  0.25500000920E-02 0. -1.
       -2    1    3    3    0  502  0.66409938074E+03  0.34619602639E+03 -0.10744588631E+03  0.75658726839E+03  0.25500000920E-02 0.  1.
</event>
<event>
 5   0  0.1580078E-05  0.1500262E+04  0.7818609E-02  0.8884279E-01
       -1   -1    0    0    0  501  0.00000000000E+00  0.00000000000E+00  0.49207402293E+03  0.49207402295E+03  0.50400001928E-02 0.  1.
        1   -1    0    0  501    0  0.00000000000E+00  0.00000000000E+00 -0.11435203282E+04  0.11435203282E+04  0.50400001928E-02 0. -1.
    10030    2    1    2    0    0  0.00000000000E+00  0.00000000000E+00 -0.65144630526E+03  0.16355943511E+04  0.15002621747E+04 0.  0.
        2    1    3    3  502    0 -0.50447399248E+03 -0.21309906148E+02 -0.93051570387E+03  0.10586820091E+04  0.25500000920E-02 0. -1.
       -2    1    3    3    0  502  0.50447399248E+03  0.21309906148E+02  0.27906939861E+03  0.57691234207E+03  0.25500000920E-02 0.  1.
</event>
<event>
 5   0  0.3018308E-05  0.1502654E+04  0.7818609E-02  0.8882690E-01
        2   -1    0    0  501    0  0.00000000000E+00  0.00000000000E+00  0.84594378222E+03  0.84594378223E+03  0.25500000920E-02 0.  1.
       -2   -1    0    0    0  501  0.00000000000E+00  0.00000000000E+00 -0.66729274573E+03  0.66729274573E+03  0.25500000920E-02 0. -1.
    10030    2    1    2    0    0  0.00000000000E+00  0.00000000000E+00  0.17865103650E+03  0.15132365280E+04  0.15026538513E+04 0.  0.
        2    1    3    3  502    0 -0.45384147359E+03 -0.19406976388E+03 -0.48110614190E+03  0.68927373095E+03  0.25500000920E-02 0. -1.
       -2    1    3    3    0  502  0.45384147359E+03  0.19406976388E+03  0.65975717839E+03  0.82396279701E+03  0.25500000920E-02 0.  1.
</event>
<event>
 5   0  0.2969498E-05  0.1500982E+04  0.7818609E-02  0.8883800E-01
       -2   -1    0    0    0  501  0.00000000000E+00  0.00000000000E+00  0.38073808903E+03  0.38073808904E+03  0.25500000920E-02 0. -1.
        2   -1    0    0  501    0  0.00000000000E+00  0.00000000000E+00 -0.14793292534E+04  0.14793292534E+04  0.25500000920E-02 0.  1.
    10030    2    1    2    0    0  0.00000000000E+00  0.00000000000E+00 -0.10985911644E+04  0.18600673424E+04  0.15009823357E+04 0.  0.
        3    1    3    3  502    0 -0.46128296328E+03 -0.37140735896E+03 -0.11205694931E+04  0.12674389128E+04  0.10100000352E+00 0.  1.
       -3    1    3    3    0  502  0.46128296328E+03  0.37140735896E+03  0.21978328756E+02  0.59262842966E+03  0.10100000352E+00 0. -1.
</event>
<event>
 5   0  0.3018308E-05  0.1500483E+04  0.7818609E-02  0.8884132E-01
        2   -1    0    0  501    0  0.00000000000E+00  0.00000000000E+00  0.79840153862E+03  0.79840153863E+03  0.25500000920E-02 0.  1.
       -2   -1    0    0    0  501  0.00000000000E+00  0.00000000000E+00 -0.70498617125E+03  0.70498617125E+03  0.25500000920E-02 0. -1.
    10030    2    1    2    0    0  0.00000000000E+00  0.00000000000E+00  0.93415367377E+02  0.15033877099E+04  0.15004826475E+04 0.  0.
        2    1    3    3  502    0  0.53167057482E+03  0.36531817222E+03 -0.33708886987E+03  0.72784605054E+03  0.25500000920E-02 0. -1.
       -2    1    3    3    0  502 -0.53167057482E+03 -0.36531817222E+03  0.43050423725E+03  0.77554165934E+03  0.25500000920E-02 0.  1.
</event>
<event>
 5   0  0.3093600E-05  0.1500388E+04  0.7818609E-02  0.8884195E-01
       -2   -1    0    0    0  501  0.00000000000E+00  0.00000000000E+00  0.49200276461E+03  0.49200276462E+03  0.25500000920E-02 0.  1.
        2   -1    0    0  501    0  0.00000000000E+00  0.00000000000E+00 -0.11438776732E+04  0.11438776732E+04  0.25500000920E-02 0. -1.
    10030    2    1    2    0    0  0.00000000000E+00  0.00000000000E+00 -0.65187490860E+03  0.16358804378E+04  0.15003879200E+04 0.  0.
        1    1    3    3  502    0  0.12133478113E+03 -0.10248306808E+02  0.48115621864E+03  0.49632495774E+03  0.50400001928E-02 0.  1.
       -1    1    3    3    0  502 -0.12133478113E+03  0.10248306808E+02 -0.11330311272E+04  0.11395554801E+04  0.50400001928E-02 0. -1.
</event>
<event>
 5   0  0.1533777E-05  0.1500908E+04  0.7818609E-02  0.8883849E-01
       -1   -1    0    0    0  501  0.00000000000E+00  0.00000000000E+00  0.10797486559E+04  0.10797486559E+04  0.50400001928E-02 0.  1.
        1   -1    0    0  501    0  0.00000000000E+00  0.00000000000E+00 -0.52158549999E+03  0.52158550001E+03  0.50400001928E-02 0. -1.
    10030    2    1    2    0    0  0.00000000000E+00  0.00000000000E+00  0.55816315587E+03  0.16013341559E+04  0.15009080486E+04 0.  0.
        5    1    3    3  502    0  0.39323063082E+03  0.44170168969E+01  0.96099440812E+03  0.10383555179E+04  0.46999998093E+01 0.  1.
       -5    1    3    3    0  502 -0.39323063082E+03 -0.44170168969E+01 -0.40283125226E+03  0.56297863800E+03  0.46999998093E+01 0. -1.
</event>
<event>
 5   0  0.3030702E-05  0.1499172E+04  0.7818609E-02  0.8885003E-01
        2   -1    0    0  501    0  0.00000000000E+00  0.00000000000E+00  0.83395786852E+03  0.83395786852E+03  0.25500000920E-02 0. -1.
       -2   -1    0    0    0  501  0.00000000000E+00  0.00000000000E+00 -0.67375048658E+03  0.67375048658E+03  0.25500000920E-02 0.  1.
    10030    2    1    2    0    0  0.00000000000E+00  0.00000000000E+00  0.16020738194E+03  0.15077083551E+04  0.14991724647E+04 0.  0.
        5    1    3    3  502    0 -0.45872095735E+03 -0.42746535847E+03 -0.33297315733E+03  0.70996109957E+03  0.46999998093E+01 0.  1.
       -5    1    3    3    0  502  0.45872095735E+03  0.42746535847E+03  0.49318053927E+03  0.79774725554E+03  0.46999998093E+01 0. -1.
</event>
<event>
 5   0  0.3070497E-05  0.1499591E+04  0.7818609E-02  0.8884725E-01
       -2   -1    0    0    0  501  0.00000000000E+00  0.00000000000E+00  0.77348795292E+03  0.77348795292E+03  0.25500000920E-02 0. -1.
        2   -1    0    0  501    0  0.00000000000E+00  0.00000000000E+00 -0.72682904733E+03  0.72682904733E+03  0.25500000920E-02 0.  1.
    10030    2    1    2    0    0  0.00000000000E+00  0.00000000000E+00  0.46658905588E+02  0.15003170003E+04  0.14995912936E+04 0.  0.
        4    1    3    3  502    0  0.24442377947E+03 -0.70328621018E+03 -0.65242603213E+02  0.74740396545E+03  0.12699999809E+01 0. -1.
       -4    1    3    3    0  502 -0.24442377947E+03  0.70328621018E+03  0.11190150880E+03  0.75291303480E+03  0.12699999809E+01 0.  1.
</event>
<event>
 5   0  0.3018308E-05  0.1500170E+04  0.7818609E-02  0.8884340E-01
        2   -1    0    0  501    0  0.00000000000E+00  0.00000000000E+00  0.95131560012E+03  0.95131560012E+03  0.25500000920E-02 0.  1.
       -2   -1    0    0    0  501  0.00000000000E+00  0.00000000000E+00 -0.59142026940E+03  0.59142026941E+03  0.25500000920E-02 0. -1.
    10030    2    1    2    0    0  0.00000000000E+00  0.00000000000E+00  0.35989533072E+03  0.15427358695E+04  0.15001697617E+04 0.  0.
        2    1    3    3  502    0  0.74481072835E+03  0.78421162848E+02  0.13711950786E+03  0.76137681820E+03  0.25500000920E-02 0. -1.
       -2    1    3    3    0  502 -0.74481072835E+03 -0.78421162848E+02  0.22277582286E+03  0.78135905133E+03  0.25500000920E-02 0.  1.
</event>
<event>
 5   0  0.1588657E-05  0.1499313E+04  0.7818609E-02  0.8884910E-01
       -1   -1    0    0    0  501  0.00000000000E+00  0.00000000000E+00  0.26866268262E+03  0.26866268266E+03  0.50400001928E-02 0. -1.
        1   -1    0    0  501    0  0.00000000000E+00  0.00000000000E+00 -0.20917850401E+04  0.20917850401E+04  0.50400001928E-02 0.  1.
    10030    2    1    2    0    0  0.00000000000E+00  0.00000000000E+00 -0.18231223575E+04  0.23604477228E+04  0.14993126164E+04 0.  0.
        3    1    3    3  502    0 -0.21151621969E+03  0.47507206388E+03 -0.17616419613E+04  0.18367947591E+04  0.10100000352E+00 0.  1.
       -3    1    3    3    0  502  0.21151621969E+03 -0.47507206388E+03 -0.61480396217E+02  0.52365296369E+03  0.10100000352E+00 0. -1.
</event>
<event>
 5   0  0.1533777E-05  0.1498721E+04  0.7818609E-02  0.8885304E-01
       -1   -1    0    0    0  501  0.00000000000E+00  0.00000000000E+00  0.35460682677E+03  0.35460682681E+03  0.50400001928E-02 0.  1.
        1   -1    0    0  501    0  0.00000000000E+00  0.00000000000E+00 -0.15835599796E+04  0.15835599796E+04  0.50400001928E-02 0. -1.
    10030    2    1    2    0    0  0.00000000000E+00  0.00000000000E+00 -0.12289531528E+04  0.19381668064E+04  0.14987210273E+04 0.  0.
        5    1    3    3  502    0 -0.12749862251E+03  0.58239801015E+03 -0.27414814335E+02  0.59683917684E+03  0.46999998093E+01 0.  1.
       -5    1    3    3    0  502  0.12749862251E+03 -0.58239801015E+03 -0.12015383385E+04  0.13413276296E+04  0.46999998093E+01 0. -1.
</event>
<event>
 5   0  0.3093600E-05  0.1500359E+04  0.7818609E-02  0.8884214E-01
        2   -1    0    0  501    0  0.00000000000E+00  0.00000000000E+00  0.10563987143E+04  0.10563987143E+04  0.25500000920E-02 0. -1.
       -2   -1    0    0    0  501  0.00000000000E+00  0.00000000000E+00 -0.53272434190E+03  0.53272434191E+03  0.25500000920E-02 0.  1.
    10030    2    1    2    0    0  0.00000000000E+00  0.00000000000E+00  0.52367437236E+03  0.15891230562E+04  0.15003590368E+04 0.  0.
        1    1    3    3  502    0  0.45542411564E+03  0.11799341967E+03 -0.35705759201E+03  0.59061298346E+03  0.50400001928E-02 0.  1.
       -1    1    3    3    0  502 -0.45542411564E+03 -0.11799341967E+03  0.88073196437E+03  0.99851007270E+03  0.50400001928E-02 0. -1.
</event>
<event>
 5   0  0.3030702E-05  0.1500060E+04  0.7818609E-02  0.8884413E-01
        2   -1    0    0  501    0  0.00000000000E+00  0.00000000000E+00  0.89851461213E+03  0.89851461213E+03  0.25500000920E-02 0.  1.
       -2   -1    0    0    0  501  0.00000000000E+00  0.00000000000E+00 -0.62608321818E+03  0.62608321819E+03  0.25500000920E-02 0. -1.
    10030    2    1    2    0    0  0.00000000000E+00  0.00000000000E+00  0.27243139394E+03  0.15245978303E+04  0.15000598921E+04 0.  0.
        5    1    3    3  502    0  0.56213590914E+03  0.46775731366E+03  0.30546034286E+03  0.79254135279E+03  0.46999998093E+01 0.  1.
       -5    1    3    3    0  502 -0.56213590914E+03 -0.46775731366E+03 -0.33028948921E+02  0.73205647753E+03  0.46999998093E+01 0. -1.
</event>
<event>
 5   0  0.3030702E-05  0.1500370E+04  0.7818609E-02  0.8884207E-01
       -2   -1    0    0    0  501  0.00000000000E+00  0.00000000000E+00  0.64363896337E+03  0.64363896337E+03  0.25500000920E-02 0.  1.
        2   -1    0    0  501    0  0.00000000000E+00  0.00000000000E+00 -0.87436877970E+03  0.87436877970E+03  0.25500000920E-02 0. -1.
    10030    2    1    2    0    0  0.00000000000E+00  0.00000000000E+00 -0.23072981633E+03  0.15180077431E+04  0.15003703742E+04 0.  0.
        5    1    3    3  502    0 -0.72708422310E+03  0.33413393078E+02 -0.29912542368E+03  0.78693457887E+03  0.46999998093E+01 0.  1.
       -5    1    3    3    0  502  0.72708422310E+03 -0.33413393078E+02  0.68395607354E+02  0.73107316421E+03  0.46999998093E+01 0. -1.
</event>
<event>
 5   0  0.1643498E-05  0.1498743E+04  0.7818609E-02  0.8885289E-01
       -1   -1    0    0    0  501  0.00000000000E+00  0.00000000000E+00  0.41404498419E+03  0.41404498422E+03  0.50400001928E-02 0. -1.
        1   -1    0    0  501    0  0.00000000000E+00  0.00000000000E+00 -0.13562728799E+04  0.13562728799E+04  0.50400001928E-02 0.  1.
    10030    2    1    2    0    0  0.00000000000E+00  0.00000000000E+00 -0.94222789572E+03  0.17703178641E+04  0.14987434512E+04 0.  0.
        4    1    3    3  502    0 -0.61777572650E+03  0.42314341760E+03 -0.50573685593E+03  0.90358650967E+03  0.12699999809E+01 0.  1.
       -4    1    3    3    0  502  0.61777572650E+03 -0.42314341760E+03 -0.43649103979E+03  0.86673135447E+03  0.12699999809E+01 0. -1.
</event>
<event>
 5   0  0.1643498E-05  0.1499960E+04  0.7818609E-02  0.8884479E-01
        1   -1    0    0  501    0  0.00000000000E+00  0.00000000000E+00  0.15749781809E+04  0.15749781809E+04  0.50400001928E-02 0. -1.
       -1   -1    0    0    0  501  0.00000000000E+00  0.00000000000E+00 -0.35712880427E+03  0.35712880431E+03  0.50400001928E-02 0.  1.
    10030    2    1    2    0    0  0.00000000000E+00  0.00000000000E+00  0.12178493766E+04  0.19321069852E+04  0.14999600988E+04 0.  0.
        4    1    3    3  502    0  0.38164633916E+03  0.41380411985E+03  0.12472595545E+04  0.13684099484E+04  0.12699999809E+01 0. -1.
       -4    1    3    3    0  502 -0.38164633916E+03 -0.41380411985E+03 -0.29410177871E+02  0.56369703677E+03  0.12699999809E+01 0.  1.
</event>
<event>
 5   0  0.1580078E-05  0.1500227E+04  0.7818609E-02  0.8884302E-01
       -1   -1    0    0    0  501  0.00000000000E+00  0.00000000000E+00  0.94599790477E+03  0.94599790479E+03  0.50400001928E-02 0. -1.
        1   -1    0    0  501    0  0.00000000000E+00  0.00000000000E+00 -0.59479028247E+03  0.59479028249E+03  0.50400001928E-02 0.  1.
    10030    2    1    2    0    0  0.00000000000E+00  0.00000000000E+00  0.35120762230E+03  0.15407881873E+04  0.15002271308E+04 0.  0.
        2    1    3    3  502    0  0.99597493358E+02  0.22244634260E+03  0.90419803462E+03  0.93647003254E+03  0.25500000920E-02 0. -1.
       -2    1    3    3    0  502 -0.99597493358E+02 -0.22244634260E+03 -0.55299041232E+03  0.60431815474E+03  0.25500000920E-02 0.  1.
</event>
<event>
 5   0  0.3093600E-05  0.1501072E+04  0.7818609E-02  0.8883740E-01
        2   -1    0    0  501    0  0.00000000000E+00  0.00000000000E+00  0.12274455969E+04  0.12274455969E+04  0.25500000920E-02 0.  1.
       -2   -1    0    0    0  501  0.00000000000E+00  0.00000000000E+00 -0.45892414156E+03  0.45892414157E+03  0.25500000920E-02 0. -1.
    10030    2    1    2    0    0  0.00000000000E+00  0.00000000000E+00  0.76852145531E+03  0.16863697384E+04  0.15010721726E+04 0.  0.
        1    1    3    3  502    0 -0.32212505860E+03 -0.11195506857E+02  0.11457321109E+04  0.11902066891E+04  0.50400001928E-02 0.  1.
       -1    1    3    3    0  502  0.32212505860E+03  0.11195506857E+02 -0.37721065564E+03  0.49616304931E+03  0.50400001928E-02 0. -1.
</event>
<event>
 5   0  0.3030702E-05  0.1498883E+04  0.7818609E-02  0.8885196E-01
        2   -1    0    0  501    0  0.00000000000E+00  0.00000000000E+00  0.10548378059E+04  0.10548378059E+04  0.25500000920E-02 0. -1.
       -2   -1    0    0    0  501  0.00000000000E+00  0.00000000000E+00 -0.53246329995E+03  0.53246329996E+03  0.25500000920E-02 0.  1.
    10030    2    1    2    0    0  0.00000000000E+00  0.00000000000E+00  0.52237450591E+03  0.15873011058E+04  0.14988828093E+04 0.  0.
        5    1    3    3  502    0  0.17357404448E+03  0.57798359583E+03  0.73174972332E+03  0.94851079780E+03  0.46999998093E+01 0. -1.
       -5    1    3    3    0  502 -0.17357404448E+03 -0.57798359583E+03 -0.20937521741E+03  0.63879030803E+03  0.46999998093E+01 0.  1.
</event>
<event>
 5   0  0.2969498E-05  0.1499830E+04  0.7818609E-02  0.8884566E-01
        2   -1    0    0  501    0  0.00000000000E+00  0.00000000000E+00  0.10431038641E+04  0.10431038641E+04  0.25500000920E-02 0. -1.
       -2   -1    0    0    0  501  0.00000000000E+00  0.00000000000E+00 -0.53913351549E+03  0.53913351550E+03  0.25500000920E-02 0.  1.
    10030    2    1    2    0    0  0.00000000000E+00  0.00000000000E+00  0.50397034864E+03  0.15822373796E+04  0.14998296614E+04 0.  0.
        3    1    3    3  502    0 -0.97837477875E+02 -0.30883240974E+02  0.10356651830E+04  0.10407345138E+04  0.10100000352E+00 0. -1.
       -3    1    3    3    0  502  0.97837477875E+02  0.30883240974E+02 -0.53169483437E+03  0.54150286587E+03  0.10100000352E+00 0.  1.
</event>
<event>
 5   0  0.1643498E-05  0.1500141E+04  0.7818609E-02  0.8884359E-01
        1   -1    0    0  501    0  0.00000000000E+00  0.00000000000E+00  0.12970168183E+04  0.12970168183E+04  0.50400001928E-02 0. -1.
       -1   -1    0    0    0  501  0.00000000000E+00  0.00000000000E+00 -0.43376928810E+03  0.43376928813E+03  0.50400001928E-02 0.  1.
    10030    2    1    2    0    0  0.00000000000E+00  0.00000000000E+00  0.86324753022E+03  0.17307861065E+04  0.15001414093E+04 0.  0.
        4    1    3    3  502    0  0.30475610402E+03 -0.19959270979E+03  0.11880913714E+04  0.12426891214E+04  0.12699999809E+01 0. -1.
       -4    1    3    3    0  502 -0.30475610402E+03  0.19959270979E+03 -0.32484384120E+03  0.48809698504E+03  0.12699999809E+01 0.  1.
</event>
<event>
 5   0  0.3093600E-05  0.1499565E+04  0.7818609E-02  0.8884742E-01
        2   -1    0    0  501    0  0.00000000000E+00  0.00000000000E+00  0.10278708284E+04  0.10278708284E+04  0.25500000920E-02 0. -1.
       -2   -1    0    0    0  501  0.00000000000E+00  0.00000000000E+00 -0.54693031919E+03  0.54693031920E+03  0.25500000920E-02 0.  1.
    10030    2    1    2    0    0  0.00000000000E+00  0.00000000000E+00  0.48094050919E+03  0.15748011476E+04  0.14995648972E+04 0.  0.
        1    1    3    3  502    0 -0.44342509832E+03  0.40285464341E+03 -0.23298853731E+03  0.64280738956E+03  0.50400001928E-02 0.  1.
       -1    1    3    3    0  502  0.44342509832E+03 -0.40285464341E+03  0.71392904650E+03  0.93199375802E+03  0.50400001928E-02 0. -1.
</event>
<event>
 5   0  0.1643498E-05  0.1499953E+04  0.7818609E-02  0.8884484E-01
       -1   -1    0    0    0  501  0.00000000000E+00  0.00000000000E+00  0.10530747067E+04  0.10530747067E+04  0.50400001928E-02 0. -1.
        1   -1    0    0  501    0  0.00000000000E+00  0.00000000000E+00 -0.53411647810E+03  0.53411647812E+03  0.50400001928E-02 0.  1.
    10030    2    1    2    0    0  0.00000000000E+00  0.00000000000E+00  0.51895822857E+03  0.15871911848E+04  0.14999527373E+04 0.  0.
        4    1    3    3  502    0 -0.55301572056E+03 -0.30217874791E+03  0.68972859288E+03  0.93427272657E+03  0.12699999809E+01 0. -1.
       -4    1    3    3    0  502  0.55301572056E+03  0.30217874791E+03 -0.17077036430E+03  0.65291845823E+03  0.12699999809E+01 0.  1.
</event>
<event>
 5   0  0.2969498E-05  0.1500411E+04  0.7818609E-02  0.8884179E-01
        2   -1    0    0  501    0  0.00000000000E+00  0.00000000000E+00  0.78207774998E+03  0.78207774999E+03  0.25500000920E-02 0. -1.
       -2   -1    0    0    0  501  0.00000000000E+00  0.00000000000E+00 -0.71963254989E+03  0.71963254989E+03  0.25500000920E-02 0.  1.
    10030    2    1    2    0    0  0.00000000000E+00  0.00000000000E+00  0.62445200096E+02  0.15017102999E+04  0.15004114175E+04 0.  0.
        3    1    3    3  502    0 -0.26200917938E+03 -0.48387072754E+03  0.54159433208E+03  0.77207779517E+03  0.10100000352E+00 0. -1.
       -3    1    3    3    0  502  0.26200917938E+03  0.48387072754E+03 -0.47914913198E+03  0.72963250471E+03  0.10100000352E+00 0.  1.
</event>
<event>
 5   0  0.3070497E-05  0.1499827E+04  0.7818609E-02  0.8884568E-01
       -2   -1    0    0    0  501  0.00000000000E+00  0.00000000000E+00  0.58300676778E+03  0.58300676779E+03  0.25500000920E-02 0.  1.
        2   -1    0    0  501    0  0.00000000000E+00  0.00000000000E+00 -0.96460322867E+03  0.96460322868E+03  0.25500000920E-02 0. -1.
    10030    2    1    2    0    0  0.00000000000E+00  0.00000000000E+00 -0.38159646089E+03  0.15476099965E+04  0.14998269374E+04 0.  0.
        4    1    3    3  502    0 -0.64345473800E+03 -0.37139044205E+03 -0.29604652488E+03  0.79975622416E+03  0.12699999809E+01 0.  1.
       -4    1    3    3    0  502  0.64345473800E+03  0.37139044205E+03 -0.85549936011E+02  0.74785377230E+03  0.12699999809E+01 0. -1.
</event>
<event>
 5   0  0.1576214E-05  0.1501342E+04  0.7818609E-02  0.8883561E-01
        1   -1    0    0  501    0  0.00000000000E+00  0.00000000000E+00  0.12536603675E+04  0.12536603675E+04  0.50400001928E-02 0. -1.
       -1   -1    0    0    0  501  0.00000000000E+00  0.00000000000E+00 -0.44948934505E+03  0.44948934508E+03  0.50400001928E-02 0.  1.
    10030    2    1    2    0    0  0.00000000000E+00  0.00000000000E+00  0.80417102244E+03  0.17031497126E+04  0.15013420364E+04 0.  0.
        1    1    3    3  502    0  0.67820063203E+03 -0.27294207100E+03  0.59544810170E+03  0.94287428284E+03  0.50400001928E-02 0. -1.
       -1    1    3    3    0  502 -0.67820063203E+03  0.27294207100E+03  0.20872292073E+03  0.76027542974E+03  0.50400001928E-02 0.  1.
</event>
<event>
 5   0  0.2969498E-05  0.1499912E+04  0.7818609E-02  0.8884511E-01
       -2   -1    0    0    0  501  0.00000000000E+00  0.00000000000E+00  0.51732363075E+03  0.51732363075E+03  0.25500000920E-02 0.  1.
        2   -1    0    0  501    0  0.00000000000E+00  0.00000000000E+00 -0.10871996457E+04  0.10871996457E+04  0.25500000920E-02 0. -1.
    10030    2    1    2    0    0  0.00000000000E+00  0.00000000000E+00 -0.56987601491E+03  0.16045232764E+04  0.14999120881E+04 0.  0.
        3    1    3    3  502    0 -0.36221566300E+03  0.57436184523E+03  0.55607915196E+02  0.68131047710E+03  0.10100000352E+00 0.  1.
       -3    1    3    3    0  502  0.36221566300E+03 -0.57436184523E+03 -0.62548393010E+03  0.92321279930E+03  0.10100000352E+00 0. -1.
</event>
<event>
 5   0  0.1533777E-05  0.1504131E+04  0.7818609E-02  0.8881711E-01
       -1   -1    0    0    0  501  0.00000000000E+00  0.00000000000E+00  0.15941786892E+04  0.15941786892E+04  0.50400001928E-02 0.  1.
        1   -1    0    0  501    0  0.00000000000E+00  0.00000000000E+00 -0.35479228180E+03  0.35479228184E+03  0.50400001928E-02 0. -1.
    10030    2    1    2    0    0  0.00000000000E+00  0.00000000000E+00  0.12393864074E+04  0.19489709710E+04  0.15041307055E+04 0.  0.
        5    1    3    3  502    0  0.11506804680E+03 -0.71998143202E+03  0.85849843177E+03  0.11263461125E+04  0.46999998093E+01 0.  1.
       -5    1    3    3    0  502 -0.11506804680E+03  0.71998143202E+03  0.38088797560E+03  0.82262485849E+03  0.46999998093E+01 0. -1.
</event>
<event>
 5   0  0.1533777E-05  0.1505132E+04  0.7818609E-02  0.8881048E-01
       -1   -1    0    0    0  501  0.00000000000E+00  0.00000000000E+00  0.31770357695E+03  0.31770357699E+03  0.50400001928E-02 0. -1.
        1   -1    0    0  501    0  0.00000000000E+00  0.00000000000E+00 -0.17826529341E+04  0.17826529341E+04  0.50400001928E-02 0.  1.
    10030    2    1    2    0    0  0.00000000000E+00  0.00000000000E+00 -0.14649493571E+04  0.21003565111E+04  0.15051315074E+04 0.  0.
        5    1    3    3  502    0  0.48081534011E+03 -0.69040204190E+02 -0.15345728690E+04  0.16096229128E+04  0.46999998093E+01 0.  1.
       -5    1    3    3    0  502 -0.48081534011E+03  0.69040204190E+02  0.69623511882E+02  0.49073359829E+03  0.46999998093E+01 0. -1.
</event>
<event>
 5   0  0.1643498E-05  0.1500756E+04  0.7818609E-02  0.8883950E-01
        1   -1    0    0  501    0  0.00000000000E+00  0.00000000000E+00  0.64880035458E+03  0.64880035460E+03  0.50400001928E-02 0.  1.
       -1   -1    0    0    0  501  0.00000000000E+00  0.00000000000E+00 -0.86785871065E+03  0.86785871066E+03  0.50400001928E-02 0. -1.
    10030    2    1    2    0    0  0.00000000000E+00  0.00000000000E+00 -0.21905835607E+03  0.15166590653E+04  0.15007558618E+04 0.  0.
        4    1    3    3  502    0 -0.51604925586E+03 -0.52077520506E+03 -0.27107230183E+03  0.78166198219E+03  0.12699999809E+01 0. -1.
       -4    1    3    3    0  502  0.51604925586E+03  0.52077520506E+03  0.52013945767E+02  0.73499708307E+03  0.12699999809E+01 0.  1.
</event>
<event>
 5   0  0.1588657E-05  0.1500070E+04  0.7818609E-02  0.8884407E-01
       -1   -1    0    0    0  501  0.00000000000E+00  0.00000000000E+00  0.56279739535E+03  0.56279739537E+03  0.50400001928E-02 0.  1.
        1   -1    0    0  501    0  0.00000000000E+00  0.00000000000E+00 -0.99956426741E+03  0.99956426743E+03  0.50400001928E-02 0. -1.
    10030    2    1    2    0    0  0.00000000000E+00  0.00000000000E+00 -0.43676687207E+03  0.15623616628E+04  0.15000695533E+04 0.  0.
        3    1    3    3  502    0  0.16351839247E+02 -0.74667258012E+03 -0.29027765153E+03  0.80127925827E+03  0.10100000352E+00 0. -1.
       -3    1    3    3    0  502 -0.16351839247E+02  0.74667258012E+03 -0.14648922054E+03  0.76108240453E+03  0.10100000352E+00 0.  1.
</event>
<event>
 5   0  0.1588657E-05  0.1500094E+04  0.7818609E-02  0.8884391E-01
       -1   -1    0    0    0  501  0.00000000000E+00  0.00000000000E+00  0.50030848615E+03  0.50030848617E+03  0.50400001928E-02 0.  1.
        1   -1    0    0  501    0  0.00000000000E+00  0.00000000000E+00 -0.11244465269E+04  0.11244465269E+04  0.50400001928E-02 0. -1.
    10030    2    1    2    0    0  0.00000000000E+00  0.00000000000E+00 -0.62413804071E+03  0.16247550130E+04  0.15000935166E+04 0.  0.
        3    1    3    3  502    0  0.30452992523E+02 -0.55158360284E+02  0.49743709486E+03  0.50141151064E+03  0.10100000352E+00 0.  1.
       -3    1    3    3    0  502 -0.30452992523E+02  0.55158360284E+02 -0.11215751356E+04  0.11233435024E+04  0.10100000352E+00 0. -1.
</event>
<event>
 5   0  0.1643498E-05  0.1498613E+04  0.7818609E-02  0.8885376E-01
        1   -1    0    0  501    0  0.00000000000E+00  0.00000000000E+00  0.70412985931E+03  0.70412985933E+03  0.50400001928E-02 0.  1.
       -1   -1    0    0    0  501  0.00000000000E+00  0.00000000000E+00 -0.79738115317E+03  0.79738115318E+03  0.50400001928E-02 0. -1.
    10030    2    1    2    0    0  0.00000000000E+00  0.00000000000E+00 -0.93251293859E+02  0.15015110125E+04  0.14986125306E+04 0.  0.
        4    1    3    3  502    0  0.29300244956E+03  0.58318229496E+02 -0.73512777584E+03  0.79351490916E+03  0.12699999809E+01 0. -1.
       -4    1    3    3    0  502 -0.29300244956E+03 -0.58318229496E+02  0.64187648199E+03  0.70799610335E+03  0.12699999809E+01 0.  1.
</event>
<event>
 5   0  0.1588657E-05  0.1499755E+04  0.7818609E-02  0.8884616E-01
        1   -1    0    0  501    0  0.00000000000E+00  0.00000000000E+00  0.52327147895E+03  0.52327147897E+03  0.50400001928E-02 0. -1.
       -1   -1    0    0    0  501  0.00000000000E+00  0.00000000000E+00 -0.10746172418E+04  0.10746172418E+04  0.50400001928E-02 0.  1.
    10030    2    1    2    0    0  0.00000000000E+00  0.00000000000E+00 -0.55134576286E+03  0.15978887208E+04  0.14997553847E+04 0.  0.
        3    1    3    3  502    0  0.13925942035E+02  0.74046320681E+03 -0.15034585675E+03  0.75570072075E+03  0.10100000352E+00 0.  1.
       -3    1    3    3    0  502 -0.13925942035E+02 -0.74046320681E+03 -0.40099990611E+03  0.84218800004E+03  0.10100000352E+00 0. -1.
</event>
<event>
 5   0  0.1576214E-05  0.1499863E+04  0.7818609E-02  0.8884544E-01
       -1   -1    0    0    0  501  0.00000000000E+00  0.00000000000E+00  0.36494974382E+03  0.36494974385E+03  0.50400001928E-02 0.  1.
        1   -1    0    0  501    0  0.00000000000E+00  0.00000000000E+00 -0.15410265467E+04  0.15410265467E+04  0.50400001928E-02 0. -1.
    10030    2    1    2    0    0  0.00000000000E+00  0.00000000000E+00 -0.11760768028E+04  0.19059762905E+04  0.14998629850E+04 0.  0.
        1    1    3    3  502    0  0.51539228423E+03 -0.16670467385E+03 -0.12470968844E+04  0.13596581534E+04  0.50400001928E-02 0. -1.
       -1    1    3    3    0  502 -0.51539228423E+03  0.16670467385E+03  0.71020081598E+02  0.54631813711E+03  0.50400001928E-02 0.  1.
</event>
<event>
 5   0  0.1533777E-05  0.1499919E+04  0.7818609E-02  0.8884507E-01
       -1   -1    0    0    0  501  0.00000000000E+00  0.00000000000E+00  0.49450380907E+03  0.49450380910E+03  0.50400001928E-02 0.  1.
        1   -1    0    0  501    0  0.00000000000E+00  0.00000000000E+00 -0.11373807197E+04  0.11373807197E+04  0.50400001928E-02 0. -1.
    10030    2    1    2    0    0  0.00000000000E+00  0.00000000000E+00 -0.64287691065E+03  0.16318845288E+04  0.14999187955E+04 0.  0.
        5    1    3    3  502    0  0.23951575068E+03 -0.50534027736E+03  0.22220469283E+03  0.60177537858E+03  0.46999998093E+01 0.  1.
       -5    1    3    3    0  502 -0.23951575068E+03  0.50534027736E+03 -0.86508160348E+03  0.10301091503E+04  0.46999998093E+01 0. -1.
</event>
<event>
 5   0  0.2969498E-05  0.1500010E+04  0.7818609E-02  0.8884446E-01
       -2   -1    0    0    0  501  0.00000000000E+00  0.00000000000E+00  0.64540868591E+03  0.64540868591E+03  0.25500000920E-02 0. -1.
        2   -1    0    0  501    0  0.00000000000E+00  0.00000000000E+00 -0.87155251531E+03  0.87155251531E+03  0.25500000920E-02 0.  1.
    10030    2    1    2    0    0  0.00000000000E+00  0.00000000000E+00 -0.22614382940E+03  0.15169612012E+04  0.15000100848E+04 0.  0.
        3    1    3    3  502    0  0.93612604347E+02  0.55212294426E+03  0.39146931121E+03  0.68326517333E+03  0.10100000352E+00 0. -1.
       -3    1    3    3    0  502 -0.93612604347E+02 -0.55212294426E+03 -0.61761314061E+03  0.83369602789E+03  0.10100000352E+00 0.  1.
</event>
<event>
 5   0  0.3018308E-05  0.1500581E+04  0.7818609E-02  0.8884067E-01
       -2   -1    0    0    0  501  0.00000000000E+00  0.00000000000E+00  0.28820130697E+03  0.28820130699E+03  0.25500000920E-02 0. -1.
        2   -1    0    0  501    0  0.00000000000E+00  0.00000000000E+00 -0.19532726153E+04  0.19532726153E+04  0.25500000920E-02 0.  1.
    10030    2    1    2    0    0  0.00000000000E+00  0.00000000000E+00 -0.16650713083E+04  0.22414739223E+04  0.15005808484E+04 0.  0.
        2    1    3    3  502    0  0.10641766628E+03 -0.66978643087E+03 -0.13119233351E+04  0.14768484756E+04  0.25500000920E-02 0.  1.
       -2    1    3    3    0  502 -0.10641766628E+03  0.66978643087E+03 -0.35314797315E+03  0.76462544662E+03  0.25500000920E-02 0. -1.
</event>
<event>
 5   0  0.1533777E-05  0.1499455E+04  0.7818609E-02  0.8884815E-01
       -1   -1    0    0    0  501  0.00000000000E+00  0.00000000000E+00  0.61940597758E+03  0.61940597760E+03  0.50400001928E-02 0.  1.
        1   -1    0    0  501    0  0.00000000000E+00  0.00000000000E+00 -0.90746863798E+03  0.90746863799E+03  0.50400001928E-02 0. -1.
    10030    2    1    2    0    0  0.00000000000E+00  0.00000000000E+00 -0.28806266040E+03  0.15268746156E+04  0.14994552329E+04 0.  0.
        5    1    3    3  502    0 -0.21238253256E+03 -0.92174190386E+02  0.58207671952E+03  0.62644857644E+03  0.46999998093E+01 0.  1.
       -5    1    3    3    0  502  0.21238253256E+03  0.92174190386E+02 -0.87013937992E+03  0.90042603916E+03  0.46999998093E+01 0. -1.
</event>
<event>
 5   0  0.2969498E-05  0.1499902E+04  0.7818609E-02  0.8884518E-01
        2   -1    0    0  501    0  0.00000000000E+00  0.00000000000E+00  0.13258178521E+04  0.13258178521E+04  0.25500000920E-02 0.  1.
       -2   -1    0    0    0  501  0.00000000000E+00  0.00000000000E+00 -0.42421120263E+03  0.42421120263E+03  0.25500000920E-02 0. -1.
    10030    2    1    2    0    0  0.00000000000E+00  0.00000000000E+00  0.90160664949E+03  0.17500290548E+04  0.14999023775E+04 0.  0.
        3    1    3    3  502    0  0.11294645362E+03 -0.72258413113E+03  0.25716987806E+03  0.77525549616E+03  0.10100000352E+00 0.  1.
       -3    1    3    3    0  502 -0.11294645362E+03  0.72258413113E+03  0.64443677143E+03  0.97477355859E+03  0.10100000352E+00 0. -1.
</event>
<event>
 5   0  0.3093600E-05  0.1500038E+04  0.7818609E-02  0.8884428E-01
        2   -1    0    0  501    0  0.00000000000E+00  0.00000000000E+00  0.15942786894E+04  0.15942786894E+04  0.25500000920E-02 0.  1.
       -2   -1    0    0    0  501  0.00000000000E+00  0.00000000000E+00 -0.35284210421E+03  0.35284210422E+03  0.25500000920E-02 0. -1.
    10030    2    1    2    0    0  0.00000000000E+00  0.00000000000E+00  0.12414365852E+04  0.19471207937E+04  0.15000381962E+04 0.  0.
        1    1    3    3  502    0 -0.17760326837E+03 -0.57784625514E+01 -0.32512316264E+03  0.37051502328E+03  0.50400001928E-02 0. -1.
       -1    1    3    3    0  502  0.17760326837E+03  0.57784625514E+01  0.15665597479E+04  0.15766057704E+04  0.50400001928E-02 0.  1.
</event>
<event>
 5   0  0.3070497E-05  0.1500726E+04  0.7818609E-02  0.8883970E-01
       -2   -1    0    0    0  501  0.00000000000E+00  0.00000000000E+00  0.34013699691E+03  0.34013699692E+03  0.25500000920E-02 0.  1.
        2   -1    0    0  501    0  0.00000000000E+00  0.00000000000E+00 -0.16553471048E+04  0.16553471048E+04  0.25500000920E-02 0. -1.
    10030    2    1    2    0    0  0.00000000000E+00  0.00000000000E+00 -0.13152101079E+04  0.19954841017E+04  0.15007262150E+04 0.  0.
        4    1    3    3  502    0  0.58848914012E+03  0.31055105883E+03 -0.11187597928E+04  0.13016860278E+04  0.12699999809E+01 0. -1.
       -4    1    3    3    0  502 -0.58848914012E+03 -0.31055105883E+03 -0.19645031515E+03  0.69379807394E+03  0.12699999809E+01 0.  1.
</event>
<event>
 5   0  0.3018308E-05  0.1498797E+04  0.7818609E-02  0.8885253E-01
        2   -1    0    0  501    0  0.00000000000E+00  0.00000000000E+00  0.53762462900E+03  0.53762462901E+03  0.25500000920E-02 0. -1.
       -2   -1    0    0    0  501  0.00000000000E+00  0.00000000000E+00 -0.10445919402E+04  0.10445919402E+04  0.25500000920E-02 0.  1.
    10030    2    1    2    0    0  0.00000000000E+00  0.00000000000E+00 -0.50696731117E+03  0.15822165692E+04  0.14987973236E+04 0.  0.
        2    1    3    3  502    0 -0.97850636319E+02 -0.12613322283E+03 -0.10264340098E+04  0.10387738510E+04  0.25500000920E-02 0.  1.
       -2    1    3    3    0  502  0.97850636319E+02  0.12613322283E+03  0.51946669867E+03  0.54344271820E+03  0.25500000920E-02 0. -1.
</event>
<event>
 5   0  0.1533777E-05  0.1500507E+04  0.7818609E-02  0.8884116E-01
       -1   -1    0    0    0  501  0.00000000000E+00  0.00000000000E+00  0.31231923067E+03  0.31231923071E+03  0.50400001928E-02 0.  1.
        1   -1    0    0  501    0  0.00000000000E+00  0.00000000000E+00 -0.18022598895E+04  0.18022598895E+04  0.50400001928E-02 0. -1.
    10030    2    1    2    0    0  0.00000000000E+00  0.00000000000E+00 -0.14899406588E+04  0.21145791202E+04  0.15005071439E+04 0.  0.
        5    1    3    3  502    0  0.17796853139E+03  0.78695269272E+02 -0.17660566508E+04  0.17767509470E+04  0.46999998093E+01 0. -1.
       -5    1    3    3    0  502 -0.17796853139E+03 -0.78695269272E+02  0.27611599203E+03  0.33782817322E+03  0.46999998093E+01 0.  1.
</event>
<event>
 5   0  0.3018308E-05  0.1499545E+04  0.7818609E-02  0.8884755E-01
       -2   -1    0    0    0  501  0.00000000000E+00  0.00000000000E+00  0.23526957945E+03  0.23526957946E+03  0.25500000920E-02 0. -1.
        2   -1    0    0  501    0  0.00000000000E+00  0.00000000000E+00 -0.23894254346E+04  0.23894254346E+04  0.25500000920E-02 0.  1.
    10030    2    1    2    0    0  0.00000000000E+00  0.00000000000E+00 -0.21541558552E+04  0.26246950141E+04  0.14995454206E+04 0.  0.
        2    1    3    3  502    0 -0.41336037378E+03 -0.38704899057E+03 -0.19372090426E+04  0.20182796126E+04  0.25500000920E-02 0.  1.
       -2    1    3    3    0  502  0.41336037378E+03  0.38704899057E+03 -0.21694681256E+03  0.60641540152E+03  0.25500000920E-02 0. -1.
</event>
<event>
 5   0  0.1533777E-05  0.1501249E+04  0.7818609E-02  0.8883623E-01
        1   -1    0    0  501    0  0.00000000000E+00  0.00000000000E+00  0.78107318334E+03  0.78107318335E+03  0.50400001928E-02 0. -1.
       -1   -1    0    0    0  501  0.00000000000E+00  0.00000000000E+00 -0.72136303092E+03  0.72136303094E+03  0.50400001928E-02 0.  1.
    10030    2    1    2    0    0  0.00000000000E+00  0.00000000000E+00  0.59710152413E+02  0.15024362143E+04  0.15012492384E+04 0.  0.
        5    1    3    3  502    0 -0.54604060548E+03  0.18854945320E+02  0.54494577967E+03  0.77168895584E+03  0.46999998093E+01 0. -1.
       -5    1    3    3    0  502  0.54604060548E+03 -0.18854945320E+02 -0.48523562725E+03  0.73074725846E+03  0.46999998093E+01 0.  1.
</event>
<event>
 5   0  0.1643498E-05  0.1500461E+04  0.7818609E-02  0.8884146E-01
       -1   -1    0    0    0  501  0.00000000000E+00  0.00000000000E+00  0.91029519114E+03  0.91029519116E+03  0.50400001928E-02 0. -1.
        1   -1    0    0  501    0  0.00000000000E+00  0.00000000000E+00 -0.61831126878E+03  0.61831126880E+03  0.50400001928E-02 0.  1.
    10030    2    1    2    0    0  0.00000000000E+00  0.00000000000E+00  0.29198392237E+03  0.15286064600E+04  0.15004609620E+04 0.  0.
        4    1    3    3  502    0  0.69001000944E+02 -0.71314958166E+03 -0.80668960433E+02  0.72100801523E+03  0.12699999809E+01 0.  1.
       -4    1    3    3    0  502 -0.69001000944E+02  0.71314958166E+03  0.37265288280E+03  0.80759844472E+03  0.12699999809E+01 0. -1.
</event>
<event>
 5   0  0.1580078E-05  0.1501019E+04  0.7818609E-02  0.8883776E-01
        1   -1    0    0  501    0  0.00000000000E+00  0.00000000000E+00  0.34800321046E+03  0.34800321050E+03  0.50400001928E-02 0. -1.
       -1   -1    0    0    0  501  0.00000000000E+00  0.00000000000E+00 -0.16185607597E+04  0.16185607597E+04  0.50400001928E-02 0.  1.
    10030    2    1    2    0    0  0.00000000000E+00  0.00000000000E+00 -0.12705575492E+04  0.19665639702E+04  0.15010187750E+04 0.  0.
        2    1    3    3  502    0 -0.25094644161E+03 -0.57362057173E+03 -0.11774504405E+04  0.13335682273E+04  0.25500000920E-02 0.  1.
       -2    1    3    3    0  502  0.25094644161E+03  0.57362057173E+03 -0.93107108705E+02  0.63299574293E+03  0.25500000920E-02 0. -1.
</event>
<event>
 5   0  0.1643498E-05  0.1500220E+04  0.7818609E-02  0.8884307E-01
       -1   -1    0    0    0  501  0.00000000000E+00  0.00000000000E+00  0.15990797009E+04  0.15990797009E+04  0.50400001928E-02 0.  1.
        1   -1    0    0  501    0  0.00000000000E+00  0.00000000000E+00 -0.35186797026E+03  0.35186797030E+03  0.50400001928E-02 0. -1.
    10030    2    1    2    0    0  0.00000000000E+00  0.00000000000E+00  0.12472117306E+04  0.19509476712E+04  0.15002198888E+04 0.  0.
        4    1    3    3  502    0 -0.42716187860E+03 -0.43684004375E+03  0.57702017598E+02  0.61369995119E+03  0.12699999809E+01 0. -1.
       -4    1    3    3    0  502  0.42716187860E+03  0.43684004375E+03  0.11895097130E+04  0.13372477200E+04  0.12699999809E+01 0.  1.
</event>
<event>
 5   0  0.3093600E-05  0.1500169E+04  0.7818609E-02  0.8884341E-01
        2   -1    0    0  501    0  0.00000000000E+00  0.00000000000E+00  0.23748978591E+04  0.23748978591E+04  0.25500000920E-02 0.  1.
       -2   -1    0    0    0  501  0.00000000000E+00  0.00000000000E+00 -0.23690555298E+03  0.23690555300E+03  0.25500000920E-02 0. -1.
    10030    2    1    2    0    0  0.00000000000E+00  0.00000000000E+00  0.21379923061E+04  0.26118034121E+04  0.15001686447E+04 0.  0.
        1    1    3    3  502    0 -0.68348045394E+03 -0.28166668409E+03  0.84777978556E+03  0.11248165258E+04  0.50400001928E-02 0.  1.
       -1    1    3    3    0  502  0.68348045394E+03  0.28166668409E+03  0.12902125206E+04  0.14869868863E+04  0.50400001928E-02 0. -1.
</event>
<event>
 5   0  0.3070497E-05  0.1499748E+04  0.7818609E-02  0.8884620E-01
        2   -1    0    0  501    0  0.00000000000E+00  0.00000000000E+00  0.61870834102E+03  0.61870834102E+03  0.25500000920E-02 0.  1.
       -2   -1    0    0    0  501  0.00000000000E+00  0.00000000000E+00 -0.90884694236E+03  0.90884694237E+03  0.25500000920E-02 0. -1.
    10030    2    1    2    0    0  0.00000000000E+00  0.00000000000E+00 -0.29013860135E+03  0.15275552834E+04  0.14997482241E+04 0.  0.
        4    1    3    3  502    0 -0.15947563065E+03 -0.37176972089E+03  0.49803629914E+03  0.64162837399E+03  0.12699999809E+01 0.  1.
       -4    1    3    3    0  502  0.15947563065E+03  0.37176972089E+03 -0.78817490049E+03  0.88592690940E+03  0.12699999809E+01 0. -1.
</event>
<event>
 5   0  0.1588657E-05  0.1499893E+04  0.7818609E-02  0.8884524E-01
        1   -1    0    0  501    0  0.00000000000E+00  0.00000000000E+00  0.19353598707E+04  0.19353598707E+04  0.50400001928E-02 0.  1.
       -1   -1    0    0    0  501  0.00000000000E+00  0.00000000000E+00 -0.29060207452E+03  0.29060207457E+03  0.50400001928E-02 0. -1.
    10030    2    1    2    0    0  0.00000000000E+00  0.00000000000E+00  0.16447577961E+04  0.22259619452E+04  0.14998927874E+04 0.  0.
        3    1    3    3  502    0  0.80600428429E+02  0.63051967758E+03  0.23178173210E+03  0.67659018203E+03  0.10100000352E+00 0. -1.
       -3    1    3    3    0  502 -0.80600428429E+02 -0.63051967758E+03  0.14129760640E+04  0.15493717632E+04  0.10100000352E+00 0.  1.
</event>
<event>
 5   0  0.2969498E-05  0.1493589E+04  0.7818609E-02  0.8888727E-01
       -2   -1    0    0    0  501  0.00000000000E+00  0.00000000000E+00  0.62095327792E+03  0.62095327792E+03  0.25500000920E-02 0.  1.
        2   -1    0    0  501    0  0.00000000000E+00  0.00000000000E+00 -0.89813879411E+03  0.89813879412E+03  0.25500000920E-02 0. -1.
    10030    2    1    2    0    0  0.00000000000E+00  0.00000000000E+00 -0.27718551619E+03  0.15190920720E+04  0.14935892718E+04 0.  0.
        3    1    3    3  502    0  0.52715697415E+03  0.94376896875E+02 -0.66796115508E+03  0.85613876735E+03  0.10100000352E+00 0. -1.
       -3    1    3    3    0  502 -0.52715697415E+03 -0.94376896875E+02  0.39077563888E+03  0.66295330469E+03  0.10100000352E+00 0.  1.
</event>
<event>
 5   0  0.1588657E-05  0.1500167E+04  0.7818609E-02  0.8884342E-01
        1   -1    0    0  501    0  0.00000000000E+00  0.00000000000E+00  0.43106967016E+03  0.43106967019E+03  0.50400001928E-02 0. -1.
       -1   -1    0    0    0  501  0.00000000000E+00  0.00000000000E+00 -0.13051848063E+04  0.13051848063E+04  0.50400001928E-02 0.  1.
    10030    2    1    2    0    0  0.00000000000E+00  0.00000000000E+00 -0.87411513609E+03  0.17362544765E+04  0.15001674360E+04 0.  0.
        3    1    3    3  502    0 -0.39578458016E+03 -0.99992808945E+01  0.30029051043E+03  0.49691027396E+03  0.10100000352E+00 0. -1.
       -3    1    3    3    0  502  0.39578458016E+03  0.99992808945E+01 -0.11744056465E+04  0.12393442025E+04  0.10100000352E+00 0.  1.
</event>
<event>
 5   0  0.1580078E-05  0.1503396E+04  0.7818609E-02  0.8882198E-01
       -1   -1    0    0    0  501  0.00000000000E+00  0.00000000000E+00  0.13026271338E+04  0.13026271338E+04  0.50400001928E-02 0.  1.
        1   -1    0    0  501    0  0.00000000000E+00  0.00000000000E+00 -0.43377717318E+03  0.43377717321E+03  0.50400001928E-02 0. -1.
    10030    2    1    2    0    0  0.00000000000E+00  0.00000000000E+00  0.86884996057E+03  0.17364043070E+04  0.15033960434E+04 0.  0.
        2    1    3    3  502    0  0.61324175536E+03  0.39245913074E+03  0.65038084464E+03  0.97626065316E+03  0.25500000920E-02 0.  1.
       -2    1    3    3    0  502 -0.61324175536E+03 -0.39245913074E+03  0.21846911593E+03  0.76014365382E+03  0.25500000920E-02 0. -1.
</event>
<event>
 5   0  0.3018308E-05  0.1499967E+04  0.7818609E-02  0.8884475E-01
        2   -1    0    0  501    0  0.00000000000E+00  0.00000000000E+00  0.12855397041E+04  0.12855397041E+04  0.25500000920E-02 0. -1.
       -2   -1    0    0    0  501  0.00000000000E+00  0.00000000000E+00 -0.43754018199E+03  0.43754018200E+03  0.25500000920E-02 0.  1.
    10030    2    1    2    0    0  0.00000000000E+00  0.00000000000E+00  0.84799952208E+03  0.17230798861E+04  0.14999670344E+04 0.  0.
        2    1    3    3  502    0  0.45089072844E+03 -0.21356388727E+02  0.11120173095E+04  0.12001420920E+04  0.25500000920E-02 0. -1.
       -2    1    3    3    0  502 -0.45089072844E+03  0.21356388727E+02 -0.26401778746E+03  0.52293779404E+03  0.25500000920E-02 0.  1.
</event>
<event>
 5   0  0.1533777E-05  0.1494560E+04  0.7818609E-02  0.8888079E-01
        1   -1    0    0  501    0  0.00000000000E+00  0.00000000000E+00  0.15177332705E+04  0.15177332705E+04  0.50400001928E-02 0. -1.
       -1   -1    0    0    0  501  0.00000000000E+00  0.00000000000E+00 -0.36793514330E+03  0.36793514334E+03  0.50400001928E-02 0.  1.
    10030    2    1    2    0    0  0.00000000000E+00  0.00000000000E+00  0.11497981272E+04  0.18856684138E+04  0.14945600134E+04 0.  0.
        5    1    3    3  502    0  0.17477172391E+03 -0.22019499017E+03 -0.29865412762E+03  0.41017967662E+03  0.46999998093E+01 0.  1.
       -5    1    3    3    0  502 -0.17477172391E+03  0.22019499017E+03  0.14484522548E+04  0.14754887372E+04  0.46999998093E+01 0. -1.
</event>
<event>
 5   0  0.1576214E-05  0.1497247E+04  0.7818609E-02  0.8886286E-01
        1   -1    0    0  501    0  0.00000000000E+00  0.00000000000E+00  0.10458377084E+04  0.10458377084E+04  0.50400001928E-02 0.  1.
       -1   -1    0    0    0  501  0.00000000000E+00  0.00000000000E+00 -0.53587401338E+03  0.53587401340E+03  0.50400001928E-02 0. -1.
    10030    2    1    2    0    0  0.00000000000E+00  0.00000000000E+00  0.50996369498E+03  0.15817117218E+04  0.14972471408E+04 0.  0.
        1    1    3    3  502    0  0.24844471778E+03 -0.64047543992E+03 -0.59296537769E+02  0.68952856819E+03  0.50400001928E-02 0. -1.
       -1    1    3    3    0  502 -0.24844471778E+03  0.64047543992E+03  0.56926023275E+03  0.89218315359E+03  0.50400001928E-02 0.  1.
</event>
<event>
 5   0  0.3070497E-05  0.1500243E+04  0.7818609E-02  0.8884291E-01
        2   -1    0    0  501    0  0.00000000000E+00  0.00000000000E+00  0.14360902128E+04  0.14360902128E+04  0.25500000920E-02 0. -1.
       -2   -1    0    0    0  501  0.00000000000E+00  0.00000000000E+00 -0.39181553990E+03  0.39181553990E+03  0.25500000920E-02 0.  1.
    10030    2    1    2    0    0  0.00000000000E+00  0.00000000000E+00  0.10442746729E+04  0.18279057527E+04  0.15002432631E+04 0.  0.
        4    1    3    3  502    0  0.56689746808E+03 -0.49118271126E+03  0.51372644716E+03  0.90914777158E+03  0.12699999809E+01 0. -1.
       -4    1    3    3    0  502 -0.56689746808E+03  0.49118271126E+03  0.53054822576E+03  0.91875798114E+03  0.12699999809E+01 0.  1.
</event>
<event>
 5   0  0.1576214E-05  0.1500554E+04  0.7818609E-02  0.8884085E-01
        1   -1    0    0  501    0  0.00000000000E+00  0.00000000000E+00  0.68959634045E+03  0.68959634047E+03  0.50400001928E-02 0. -1.
       -1   -1    0    0    0  501  0.00000000000E+00  0.00000000000E+00 -0.81629684899E+03  0.81629684901E+03  0.50400001928E-02 0.  1.
    10030    2    1    2    0    0  0.00000000000E+00  0.00000000000E+00 -0.12670050854E+03  0.15058931895E+04  0.15005536576E+04 0.  0.
        1    1    3    3  502    0  0.31279095447E+03  0.11061750015E+03  0.61197884789E+03  0.69612680083E+03  0.50400001928E-02 0. -1.
       -1    1    3    3    0  502 -0.31279095447E+03 -0.11061750015E+03 -0.73867935643E+03  0.80976638865E+03  0.50400001928E-02 0.  1.
</event>
<event>
 5   0  0.3070497E-05  0.1499657E+04  0.7818609E-02  0.8884681E-01
       -2   -1    0    0    0  501  0.00000000000E+00  0.00000000000E+00  0.63818381260E+03  0.63818381261E+03  0.25500000920E-02 0. -1.
        2   -1    0    0  501    0  0.00000000000E+00  0.00000000000E+00 -0.88100450348E+03  0.88100450349E+03  0.25500000920E-02 0.  1.
    10030    2    1    2    0    0  0.00000000000E+00  0.00000000000E+00 -0.24282069088E+03  0.15191883161E+04  0.14996570447E+04 0.  0.
        4    1    3    3  502    0 -0.54146646640E+03 -0.45206002466E+03  0.13625839283E+03  0.71840946726E+03  0.12699999809E+01 0.  1.
       -4    1    3    3    0  502  0.54146646640E+03  0.45206002466E+03 -0.37907908371E+03  0.80077884883E+03  0.12699999809E+01 0. -1.
</event>
<event>
 5   0  0.3030702E-05  0.1497919E+04  0.7818609E-02  0.8885838E-01
       -2   -1    0    0    0  501  0.00000000000E+00  0.00000000000E+00  0.27011463069E+03  0.27011463070E+03  0.25500000920E-02 0.  1.
        2   -1    0    0  501    0  0.00000000000E+00  0.00000000000E+00 -0.20766750530E+04  0.20766750530E+04  0.25500000920E-02 0. -1.
    10030    2    1    2    0    0  0.00000000000E+00  0.00000000000E+00 -0.18065604224E+04  0.23467896837E+04  0.14979189765E+04 0.  0.
        5    1    3    3  502    0 -0.72853724612E+03  0.42772022798E+01 -0.63131710075E+03  0.96403743970E+03  0.46999998093E+01 0.  1.
       -5    1    3    3    0  502  0.72853724612E+03 -0.42772022798E+01 -0.11752433216E+04  0.13827522440E+04  0.46999998093E+01 0. -1.
</event>
<event>
 5   0  0.1643498E-05  0.1499743E+04  0.7818609E-02  0.8884624E-01
        1   -1    0    0  501    0  0.00000000000E+00  0.00000000000E+00  0.11519175379E+04  0.11519175379E+04  0.50400001928E-02 0.  1.
       -1   -1    0    0    0  501  0.00000000000E+00  0.00000000000E+00 -0.48814898405E+03  0.48814898408E+03  0.50400001928E-02 0. -1.
    10030    2    1    2    0    0  0.00000000000E+00  0.00000000000E+00  0.66376855380E+03  0.16400665219E+04  0.14997431458E+04 0.  0.
        4    1    3    3  502    0 -0.11702008558E+03 -0.57498690805E+03  0.84247736848E+03  0.10266807557E+04  0.12699999809E+01 0.  1.
       -4    1    3    3    0  502  0.11702008558E+03  0.57498690805E+03 -0.17870881468E+03  0.61338576622E+03  0.12699999809E+01 0. -1.
</event>
<event>
 5   0  0.3030702E-05  0.1500575E+04  0.7818609E-02  0.8884071E-01
       -2   -1    0    0    0  501  0.00000000000E+00  0.00000000000E+00  0.28383409181E+03  0.28383409183E+03  0.25500000920E-02 0.  1.
        2   -1    0    0  501    0  0.00000000000E+00  0.00000000000E+00 -0.19833114403E+04  0.19833114403E+04  0.25500000920E-02 0. -1.
    10030    2    1    2    0    0  0.00000000000E+00  0.00000000000E+00 -0.16994773484E+04  0.22671455321E+04  0.15005750917E+04 0.  0.
        5    1    3    3  502    0  0.68805643844E+02 -0.33524188590E+03  0.15901664894E+03  0.37739862655E+03  0.46999998093E+01 0.  1.
       -5    1    3    3    0  502 -0.68805643844E+02  0.33524188590E+03 -0.18584939974E+04  0.18897469055E+04  0.46999998093E+01 0. -1.
</event>
<event>
 5   0  0.1580078E-05  0.1500902E+04  0.7818609E-02  0.8883853E-01
       -1   -1    0    0    0  501  0.00000000000E+00  0.00000000000E+00  0.66215376207E+03  0.66215376209E+03  0.50400001928E-02 0.  1.
        1   -1    0    0  501    0  0.00000000000E+00  0.00000000000E+00 -0.85052292351E+03  0.85052292352E+03  0.50400001928E-02 0. -1.
    10030    2    1    2    0    0  0.00000000000E+00  0.00000000000E+00 -0.18836916144E+03  0.15126766856E+04  0.15009023333E+04 0.  0.
        2    1    3    3  502    0 -0.45435119096E+03 -0.49236358360E+03  0.24658034249E+03  0.71390389304E+03  0.25500000920E-02 0.  1.
       -2    1    3    3    0  502  0.45435119096E+03  0.49236358360E+03 -0.43494950393E+03  0.79877279257E+03  0.25500000920E-02 0. -1.
</event>
<event>
 5   0  0.3018308E-05  0.1502314E+04  0.7818609E-02  0.8882915E-01
        2   -1    0    0  501    0  0.00000000000E+00  0.00000000000E+00  0.89323685907E+03  0.89323685907E+03  0.25500000920E-02 0. -1.
       -2   -1    0    0    0  501  0.00000000000E+00  0.00000000000E+00 -0.63167702795E+03  0.63167702796E+03  0.25500000920E-02 0.  1.
    10030    2    1    2    0    0  0.00000000000E+00  0.00000000000E+00  0.26155983112E+03  0.15249138870E+04  0.15023144869E+04 0.  0.
        2    1    3    3  502    0 -0.69187250904E+03  0.28962176926E+03  0.17224621220E+03  0.76956942222E+03  0.25500000920E-02 0. -1.
       -2    1    3    3    0  502  0.69187250904E+03 -0.28962176926E+03  0.89313618913E+02  0.75534446481E+03  0.25500000920E-02 0.  1.
</event>
<event>
 5   0  0.1533777E-05  0.1500371E+04  0.7818609E-02  0.8884206E-01
        1   -1    0    0  501    0  0.00000000000E+00  0.00000000000E+00  0.81056035900E+03  0.81056035901E+03  0.50400001928E-02 0. -1.
       -1   -1    0    0    0  501  0.00000000000E+00  0.00000000000E+00 -0.69430773896E+03  0.69430773898E+03  0.50400001928E-02 0.  1.
    10030    2    1    2    0    0  0.00000000000E+00  0.00000000000E+00  0.11625262003E+03  0.15048680980E+04  0.15003710610E+04 0.  0.
        5    1    3    3  502    0  0.34667945445E+03 -0.21308718802E+03 -0.57397165470E+03  0.70360382619E+03  0.46999998093E+01 0.  1.
       -5    1    3    3    0  502 -0.34667945445E+03  0.21308718802E+03  0.69022427473E+03  0.80126427180E+03  0.46999998093E+01 0. -1.
</event>
</LesHouchesEvents>
