<LesHouchesEvents version="3.0">
<header>
<!--
#*********************************************************************
#                                                                    *
#                        MadGraph5_aMC@NLO                           *
#                                                                    *
#                           Going Beyond                             *
#                                                                    *
#                   http://madgraph.hep.uiuc.edu                     *
#                   http://madgraph.phys.ucl.ac.be                   *
#                   http://amcatnlo.cern.ch                          *
#                                                                    *
#                     The MadGraph5_aMC@NLO team                     *
#                                                                    *
#....................................................................*
#                                                                    *
# This file contains all the information necessary to reproduce      *
# the events generated:                                              *
#                                                                    *
# 1. software version                                                *
# 2. proc_card          : code generation info including model       *
# 3. param_card         : model primary parameters in the LH format  *
# 4. run_card           : running parameters (collider and cuts)     *
# 5. pythia_card        : present only if pythia has been run        *
# 6. pgs_card           : present only if pgs has been run           *
# 7. delphes_cards      : present only if delphes has been run       *
#                                                                    *
#                                                                    *
#*********************************************************************
-->
<MGVersion>
#5.2.2.3
</MGVersion>
<MG5ProcCard>
#************************************************************
#*                     MadGraph5_aMC@NLO                    *
#*                                                          *
#*                *                       *                 *
#*                  *        * *        *                   *
#*                    * * * * 5 * * * *                     *
#*                  *        * *        *                   *
#*                *                       *                 *
#*                                                          *
#*                                                          *
#*         VERSION 2.2.3                 2015-02-10         *
#*                                                          *
#*    The MadGraph5_aMC@NLO Development Team - Find us at   *
#*    https://server06.fynu.ucl.ac.be/projects/madgraph     *
#*                                                          *
#************************************************************
#*                                                          *
#*               Command File for MadGraph5_aMC@NLO         *
#*                                                          *
#*     run as ./bin/mg5_aMC  filename                       *
#*                                                          *
#************************************************************
set group_subprocesses Auto
set ignore_six_quark_processes False
set loop_optimized_output True
set gauge unitary
set complex_mass_scheme False
import model sm
define p = g u c d s u~ c~ d~ s~
define j = g u c d s u~ c~ d~ s~
define l+ = e+ mu+
define l- = e- mu-
define vl = ve vm vt
define vl~ = ve~ vm~ vt~
import model Zprime_UFO
generate p p > zph, zph > j j
add process p p > zph, zph > b b~
output Dijet_signal
</MG5ProcCard>
<MGProcCard>
#*********************************************************************
#                        MadGraph/MadEvent                           *
#                   http://madgraph.hep.uiuc.edu                     *
#                                                                    *
#                          proc_card.dat                             *
#*********************************************************************
#                                                                    *
#            This Files is generated by MADGRAPH 5                   *
#                                                                    *
# WARNING: This Files is generated for MADEVENT (compatibility issue)*
#          This files is NOT a valid MG4 proc_card.dat               *
#          Running this in MG4 will NEVER reproduce the result of MG5*
#                                                                    *
#*********************************************************************
#*********************************************************************
# Process(es) requested : mg2 input                                  *
#*********************************************************************
# Begin PROCESS # This is TAG. Do not modify this line
p p > zph , zph > j j           #Process
# Be carefull the coupling are here in MG5 convention
          
end_coup           # End the couplings input

done               # this tells MG there are no more procs
# End PROCESS  # This is TAG. Do not modify this line
#*********************************************************************
# Model information                                                  *
#*********************************************************************
# Begin MODEL  # This is TAG. Do not modify this line
Zprime_UFO
# End   MODEL  # This is TAG. Do not modify this line
#*********************************************************************
# Start multiparticle definitions                                    *
#*********************************************************************
# Begin MULTIPARTICLES # This is TAG. Do not modify this line

# End  MULTIPARTICLES # This is TAG. Do not modify this line
</MGProcCard>
<MGRunCard>
#*********************************************************************
#                       MadGraph5_aMC@NLO                            *
#                                                                    *
#                     run_card.dat MadEvent                          *
#                                                                    *
#  This file is used to set the parameters of the run.               *
#                                                                    *
#  Some notation/conventions:                                        *
#                                                                    *
#   Lines starting with a '# ' are info or comments                  *
#                                                                    *
#   mind the format:   value    = variable     ! comment             *
#*********************************************************************
#
#*******************                                                 
# Running parameters
#*******************                                                 
#                                                                    
#*********************************************************************
# Tag name for the run (one word)                                    *
#*********************************************************************
  tag_1     = run_tag ! name of the run 
#*********************************************************************
# Run to generate the grid pack                                      *
#*********************************************************************
  .false.     = gridpack  !True = setting up the grid pack
#*********************************************************************
# Number of events and rnd seed                                      *
# Warning: Do not generate more than 1M events in a single run       *
# If you want to run Pythia, avoid more than 50k events in a run.    *
#*********************************************************************
  2000 = nevents ! Number of unweighted events requested 
 1200 = iseed   ! rnd seed (0=assigned automatically=default))
#*********************************************************************
# Collider type and energy                                           *
# lpp: 0=No PDF, 1=proton, -1=antiproton, 2=photon from proton,      *
#                                         3=photon from electron     *
#*********************************************************************
        1     = lpp1    ! beam 1 type 
        1     = lpp2    ! beam 2 type
     4000     = ebeam1  ! beam 1 total energy in GeV
     4000     = ebeam2  ! beam 2 total energy in GeV
#*********************************************************************
# Beam polarization from -100 (left-handed) to 100 (right-handed)    *
#*********************************************************************
        0     = polbeam1 ! beam polarization for beam 1
        0     = polbeam2 ! beam polarization for beam 2
#*********************************************************************
# PDF CHOICE: this automatically fixes also alpha_s and its evol.    *
#*********************************************************************
 'nn23lo1'    = pdlabel     ! PDF set                                     
 230000    = lhaid     ! if pdlabel=lhapdf, this is the lhapdf number
#*********************************************************************
# Renormalization and factorization scales                           *
#*********************************************************************
 F        = fixed_ren_scale  ! if .true. use fixed ren scale
 F        = fixed_fac_scale  ! if .true. use fixed fac scale
 91.1880  = scale            ! fixed ren scale
 91.1880  = dsqrt_q2fact1    ! fixed fact scale for pdf1
 91.1880  = dsqrt_q2fact2    ! fixed fact scale for pdf2
 1        = scalefact        ! scale factor for event-by-event scales
#*********************************************************************
# Matching - Warning! ickkw > 1 is still beta
#*********************************************************************
 0        = ickkw            ! 0 no matching, 1 MLM, 2 CKKW matching
 1        = highestmult      ! for ickkw=2, highest mult group
 1        = ktscheme         ! for ickkw=1, 1 Durham kT, 2 Pythia pTE
 1        = alpsfact         ! scale factor for QCD emission vx
 F        = chcluster        ! cluster only according to channel diag
 T        = pdfwgt           ! for ickkw=1, perform pdf reweighting
 5        = asrwgtflavor     ! highest quark flavor for a_s reweight
 T        = clusinfo         ! include clustering tag in output
 3.0      = lhe_version       ! Change the way clustering information pass to shower.        
#*********************************************************************
#**********************************************************
#
#**********************************************************
# Automatic ptj and mjj cuts if xqcut > 0
# (turn off for VBF and single top processes)
#**********************************************************
   T  = auto_ptj_mjj  ! Automatic setting of ptj and mjj
#**********************************************************
#                                                                    
#**********************************
# BW cutoff (M+/-bwcutoff*Gamma)
#**********************************
  15  = bwcutoff      ! (M+/-bwcutoff*Gamma)
#**********************************************************
# Apply pt/E/eta/dr/mij cuts on decay products or not
# (note that etmiss/ptll/ptheavy/ht/sorted cuts always apply)
#**********************************************************
   T  = cut_decays    ! Cut decay products 
#*************************************************************
# Number of helicities to sum per event (0 = all helicities)
# 0 gives more stable result, but longer run time (needed for
# long decay chains e.g.).
# Use >=2 if most helicities contribute, e.g. pure QCD.
#*************************************************************
   0  = nhel          ! Number of helicities used per event
#*******************                                                 
# Standard Cuts
#*******************                                                 
#                                                                    
#*********************************************************************
# Minimum and maximum pt's (for max, -1 means no cut)                *
#*********************************************************************
 20  = ptj       ! minimum pt for the jets 
  0  = ptb       ! minimum pt for the b 
 10  = pta       ! minimum pt for the photons 
 10  = ptl       ! minimum pt for the charged leptons 
  0  = misset    ! minimum missing Et (sum of neutrino's momenta)
  0  = ptheavy   ! minimum pt for one heavy final state
 1.0 = ptonium   ! minimum pt for the quarkonium states
 -1  = ptjmax    ! maximum pt for the jets
 -1  = ptbmax    ! maximum pt for the b
 -1  = ptamax    ! maximum pt for the photons
 -1  = ptlmax    ! maximum pt for the charged leptons
 -1  = missetmax ! maximum missing Et (sum of neutrino's momenta)
#*********************************************************************
# Minimum and maximum E's (in the center of mass frame)              *
#*********************************************************************
  0  = ej     ! minimum E for the jets 
  0  = eb     ! minimum E for the b 
  0  = ea     ! minimum E for the photons 
  0  = el     ! minimum E for the charged leptons 
 -1   = ejmax ! maximum E for the jets
 -1   = ebmax ! maximum E for the b
 -1   = eamax ! maximum E for the photons
 -1   = elmax ! maximum E for the charged leptons
#*********************************************************************
# Maximum and minimum absolute rapidity (for max, -1 means no cut)   *
#*********************************************************************
   5  = etaj    ! max rap for the jets 
  -1  = etab    ! max rap for the b
 2.5  = etaa    ! max rap for the photons 
 2.5  = etal    ! max rap for the charged leptons 
 0.6  = etaonium ! max rap for the quarkonium states
   0  = etajmin ! min rap for the jets
   0  = etabmin ! min rap for the b
   0  = etaamin ! min rap for the photons
   0  = etalmin ! main rap for the charged leptons
#*********************************************************************
# Minimum and maximum DeltaR distance                                *
#*********************************************************************
 0.4 = drjj    ! min distance between jets 
 0   = drbb    ! min distance between b's 
 0.4 = drll    ! min distance between leptons 
 0.4 = draa    ! min distance between gammas 
 0   = drbj    ! min distance between b and jet 
 0.4 = draj    ! min distance between gamma and jet 
 0.4 = drjl    ! min distance between jet and lepton 
 0   = drab    ! min distance between gamma and b 
 0   = drbl    ! min distance between b and lepton 
 0.4 = dral    ! min distance between gamma and lepton 
 -1  = drjjmax ! max distance between jets
 -1  = drbbmax ! max distance between b's
 -1  = drllmax ! max distance between leptons
 -1  = draamax ! max distance between gammas
 -1  = drbjmax ! max distance between b and jet
 -1  = drajmax ! max distance between gamma and jet
 -1  = drjlmax ! max distance between jet and lepton
 -1  = drabmax ! max distance between gamma and b
 -1  = drblmax ! max distance between b and lepton
 -1  = dralmax ! maxdistance between gamma and lepton
#*********************************************************************
# Minimum and maximum invariant mass for pairs                       *
# WARNING: for four lepton final state mmll cut require to have      *
#          different lepton masses for each flavor!                  *           
#*********************************************************************
 0   = mmjj    ! min invariant mass of a jet pair 
 0   = mmbb    ! min invariant mass of a b pair 
 0   = mmaa    ! min invariant mass of gamma gamma pair
 0   = mmll    ! min invariant mass of l+l- (same flavour) lepton pair
 -1  = mmjjmax ! max invariant mass of a jet pair
 -1  = mmbbmax ! max invariant mass of a b pair
 -1  = mmaamax ! max invariant mass of gamma gamma pair
 -1  = mmllmax ! max invariant mass of l+l- (same flavour) lepton pair
#*********************************************************************
# Minimum and maximum invariant mass for all letpons                 *
#*********************************************************************
 0   = mmnl    ! min invariant mass for all letpons (l+- and vl) 
 -1  = mmnlmax ! max invariant mass for all letpons (l+- and vl) 
#*********************************************************************
# Minimum and maximum pt for 4-momenta sum of leptons                *
#*********************************************************************
 0   = ptllmin  ! Minimum pt for 4-momenta sum of leptons(l and vl)
 -1  = ptllmax  ! Maximum pt for 4-momenta sum of leptons(l and vl)
#*********************************************************************
# Inclusive cuts                                                     *
#*********************************************************************
 0  = xptj ! minimum pt for at least one jet  
 0  = xptb ! minimum pt for at least one b 
 0  = xpta ! minimum pt for at least one photon 
 0  = xptl ! minimum pt for at least one charged lepton 
#*********************************************************************
# Control the pt's of the jets sorted by pt                          *
#*********************************************************************
 0   = ptj1min ! minimum pt for the leading jet in pt
 0   = ptj2min ! minimum pt for the second jet in pt
 0   = ptj3min ! minimum pt for the third jet in pt
 0   = ptj4min ! minimum pt for the fourth jet in pt
 -1  = ptj1max ! maximum pt for the leading jet in pt 
 -1  = ptj2max ! maximum pt for the second jet in pt
 -1  = ptj3max ! maximum pt for the third jet in pt
 -1  = ptj4max ! maximum pt for the fourth jet in pt
 0   = cutuse  ! reject event if fails any (0) / all (1) jet pt cuts
#*********************************************************************
# Control the pt's of leptons sorted by pt                           *
#*********************************************************************
 0   = ptl1min ! minimum pt for the leading lepton in pt
 0   = ptl2min ! minimum pt for the second lepton in pt
 0   = ptl3min ! minimum pt for the third lepton in pt
 0   = ptl4min ! minimum pt for the fourth lepton in pt
 -1  = ptl1max ! maximum pt for the leading lepton in pt 
 -1  = ptl2max ! maximum pt for the second lepton in pt
 -1  = ptl3max ! maximum pt for the third lepton in pt
 -1  = ptl4max ! maximum pt for the fourth lepton in pt
#*********************************************************************
# Control the Ht(k)=Sum of k leading jets                            *
#*********************************************************************
 0   = htjmin ! minimum jet HT=Sum(jet pt)
 -1  = htjmax ! maximum jet HT=Sum(jet pt)
 0   = ihtmin  !inclusive Ht for all partons (including b)
 -1  = ihtmax  !inclusive Ht for all partons (including b)
 0   = ht2min ! minimum Ht for the two leading jets
 0   = ht3min ! minimum Ht for the three leading jets
 0   = ht4min ! minimum Ht for the four leading jets
 -1  = ht2max ! maximum Ht for the two leading jets
 -1  = ht3max ! maximum Ht for the three leading jets
 -1  = ht4max ! maximum Ht for the four leading jets
#***********************************************************************
# Photon-isolation cuts, according to hep-ph/9801442                   *
# When ptgmin=0, all the other parameters are ignored                  *
# When ptgmin>0, pta and draj are not going to be used                 *
#***********************************************************************
   0 = ptgmin ! Min photon transverse momentum
 0.4 = R0gamma ! Radius of isolation code
 1.0 = xn ! n parameter of eq.(3.4) in hep-ph/9801442
 1.0 = epsgamma ! epsilon_gamma parameter of eq.(3.4) in hep-ph/9801442
 .true. = isoEM ! isolate photons from EM energy (photons and leptons)
#*********************************************************************
# WBF cuts                                                           *
#*********************************************************************
 0   = xetamin ! minimum rapidity for two jets in the WBF case  
 0   = deltaeta ! minimum rapidity for two jets in the WBF case 
#*********************************************************************
# KT DURHAM CUT                                                      *
#*********************************************************************
 -1    =  ktdurham        
 0.4  =  dparameter 
#*********************************************************************
# maximal pdg code for quark to be considered as a light jet         *
# (otherwise b cuts are applied)                                     *
#*********************************************************************
 4 = maxjetflavor    ! Maximum jet pdg code
#*********************************************************************
# Jet measure cuts                                                   *
#*********************************************************************
 0   = xqcut   ! minimum kt jet measure between partons
#*********************************************************************
#
#*********************************************************************
# Store info for systematics studies                                 *
# WARNING: If use_syst is T, matched Pythia output is                *
#          meaningful ONLY if plotted taking matchscale              *
#          reweighting into account!                                 *
#*********************************************************************
   F  = use_syst      ! Enable systematics studies
#
#**************************************
# Parameter of the systematics study
#  will be used by SysCalc (if installed)
#**************************************                                  
#
0.5 1 2 = sys_scalefact  # factorization/renormalization scale factor
0.5 1 2 = sys_alpsfact  # \alpha_s emission scale factors
30 50 = sys_matchscale # variation of merging scale
# PDF sets and number of members (0 or none for all members).
CT10nlo.LHgrid = sys_pdf # matching scales
# MSTW2008nlo68cl.LHgrid 1  = sys_pdf
</MGRunCard>
<slha>
######################################################################
## PARAM_CARD AUTOMATICALY GENERATED BY MG5 FOLLOWING UFO MODEL   ####
######################################################################
##                                                                  ##
##  Width set on Auto will be computed following the information    ##
##        present in the decay.py files of the model.               ##
##        See  arXiv:1402.1178 for more details.                    ##
##                                                                  ##
######################################################################

###################################
## INFORMATION FOR CKMBLOCK
###################################
Block ckmblock 
    1 2.277360e-01 # cabi 

###################################
## INFORMATION FOR FRBLOCK
###################################
Block frblock 
    1 6.000000e-01 # gz 

###################################
## INFORMATION FOR MASS
###################################
Block mass 
    1 5.040000e-03 # MD 
    2 2.550000e-03 # MU 
    3 1.010000e-01 # MS 
    4 1.270000e+00 # MC 
    5 4.700000e+00 # MB 
    6 1.720000e+02 # MT 
   11 5.110000e-04 # Me 
   13 1.056600e-01 # MM 
   15 1.777000e+00 # MTA 
   23 9.118760e+01 # MZ 
   25 1.200000e+02 # MH 
  10030 1.100000e+03 # MZph 
  10031 3.000000e+02 # MZpl 
## Dependent parameters, given by model restrictions.
## Those values should be edited following the 
## analytical expression. MG5 ignores those values 
## but they are important for interfacing the output of MG5
## to external program such as Pythia.
  12 0.000000 # ve : 0.0 
  14 0.000000 # vm : 0.0 
  16 0.000000 # vt : 0.0 
  21 0.000000 # g : 0.0 
  22 0.000000 # a : 0.0 
  24 79.824360 # w+ : cmath.sqrt(MZ__exp__2/2. + cmath.sqrt(MZ__exp__4/4. - (aEW*cmath.pi*MZ__exp__2)/(Gf*sqrt__2))) 

###################################
## INFORMATION FOR SMINPUTS
###################################
Block sminputs 
    1 1.279000e+02 # aEWM1 
    2 1.166370e-05 # Gf 
    3 1.184000e-01 # aS 

###################################
## INFORMATION FOR YUKAWA
###################################
Block yukawa 
    1 5.040000e-03 # ymdo 
    2 2.550000e-03 # ymup 
    3 1.010000e-01 # yms 
    4 1.270000e+00 # ymc 
    5 4.700000e+00 # ymb 
    6 1.720000e+02 # ymt 
   11 5.110000e-04 # yme 
   13 1.056600e-01 # ymm 
   15 1.777000e+00 # ymtau 

###################################
## INFORMATION FOR DECAY
###################################
DECAY   6 1.508336e+00 # WT 
DECAY  23 2.495200e+00 # WZ 
DECAY  24 2.085000e+00 # WW 
DECAY  25 5.753088e-03 # WH 
## Dependent parameters, given by model restrictions.
## Those values should be edited following the 
## analytical expression. MG5 ignores those values 
## but they are important for interfacing the output of MG5
## to external program such as Pythia.
DECAY  1 0.000000 # d : 0.0 
DECAY  2 0.000000 # u : 0.0 
DECAY  3 0.000000 # s : 0.0 
DECAY  4 0.000000 # c : 0.0 
DECAY  5 0.000000 # b : 0.0 
DECAY  11 0.000000 # e- : 0.0 
DECAY  12 0.000000 # ve : 0.0 
DECAY  13 0.000000 # mu- : 0.0 
DECAY  14 0.000000 # vm : 0.0 
DECAY  15 0.000000 # ta- : 0.0 
DECAY  16 0.000000 # vt : 0.0 
DECAY  21 0.000000 # g : 0.0 
DECAY  22 0.000000 # a : 0.0 
DECAY  10030 0.308725 # zph : (gz__exp__2*MZph*(5 + cmath.sqrt(1 - (4*MT__exp__2)/MZph__exp__2)))/(144.*cmath.pi) 
DECAY  10031 0.132629 # zpl : (5*gz__exp__2*MZpl)/(144.*cmath.pi) 
#===========================================================
# QUANTUM NUMBERS OF NEW STATE(S) (NON SM PDG CODE)
#===========================================================

Block QNUMBERS 10030  # zph 
        1 0  # 3 times electric charge
        2 3  # number of spin states (2S+1)
        3 1  # colour rep (1: singlet, 3: triplet, 8: octet)
        4 0  # Particle/Antiparticle distinction (0=own anti)
Block QNUMBERS 10031  # zpl 
        1 0  # 3 times electric charge
        2 3  # number of spin states (2S+1)
        3 1  # colour rep (1: singlet, 3: triplet, 8: octet)
        4 0  # Particle/Antiparticle distinction (0=own anti)
</slha>
## END BANNER##
<MGGenerationInfo>
#  Number of Events        :         4017
#  Integrated weight (pb)  :  0.43276E+00
#  Max wgt                 :  0.14297E-03
#  Average wgt             :  0.10773E-03
</MGGenerationInfo>
</header>
<init>
     2212     2212  0.40000000000E+04  0.40000000000E+04 0 0  247000  247000 2   1
  0.43317424743E+00  0.88527659593E-03  0.14296800000E-03   0
</init>
<event>
 5   0  0.1425432E-03  0.1097521E+04  0.7818609E-02  0.9207612E-01
       -2   -1    0    0    0  501  0.00000000000E+00  0.00000000000E+00  0.27810580215E+03  0.27810580216E+03  0.25500000920E-02 0. -1.
        2   -1    0    0  501    0  0.00000000000E+00  0.00000000000E+00 -0.10828178361E+04  0.10828178361E+04  0.25500000920E-02 0.  1.
    10030    2    1    2    0    0  0.00000000000E+00  0.00000000000E+00 -0.80471203395E+03  0.13609236383E+04  0.10975207021E+04 0.  0.
        1    1    3    3  502    0  0.38456279646E+03 -0.25961957168E+03 -0.39040672195E+02  0.46563401995E+03  0.50400001928E-02 0. -1.
       -1    1    3    3    0  502 -0.38456279646E+03  0.25961957168E+03 -0.76567136175E+03  0.89528961831E+03  0.50400001928E-02 0.  1.
</event>
<event>
 5   0  0.1425432E-03  0.1098204E+04  0.7818609E-02  0.9206944E-01
       -2   -1    0    0    0  501  0.00000000000E+00  0.00000000000E+00  0.52848625606E+03  0.52848625607E+03  0.25500000920E-02 0. -1.
        2   -1    0    0  501    0  0.00000000000E+00  0.00000000000E+00 -0.57052227654E+03  0.57052227655E+03  0.25500000920E-02 0.  1.
    10030    2    1    2    0    0  0.00000000000E+00  0.00000000000E+00 -0.42036020480E+02  0.10990085326E+04  0.10982043197E+04 0.  0.
        1    1    3    3  502    0  0.45858676064E+02  0.11257547122E+03 -0.55688836266E+03  0.57000079244E+03  0.50400001928E-02 0.  1.
       -1    1    3    3    0  502 -0.45858676064E+02 -0.11257547122E+03  0.51485234218E+03  0.52900774017E+03  0.50400001928E-02 0. -1.
</event>
<event>
 5   0  0.1429680E-03  0.1097522E+04  0.7818609E-02  0.9207610E-01
        2   -1    0    0  501    0  0.00000000000E+00  0.00000000000E+00  0.13024877365E+04  0.13024877365E+04  0.25500000920E-02 0.  1.
       -2   -1    0    0    0  501  0.00000000000E+00  0.00000000000E+00 -0.23120272106E+03  0.23120272108E+03  0.25500000920E-02 0. -1.
    10030    2    1    2    0    0  0.00000000000E+00  0.00000000000E+00  0.10712850155E+04  0.15336904576E+04  0.10975221344E+04 0.  0.
        3    1    3    3  502    0  0.22374492818E+03  0.31454626449E+03 -0.94153958980E+01  0.38612149030E+03  0.10100000352E+00 0. -1.
       -3    1    3    3    0  502 -0.22374492818E+03 -0.31454626449E+03  0.10807004114E+04  0.11475689673E+04  0.10100000352E+00 0.  1.
</event>
<event>
 5   0  0.1425432E-03  0.1099916E+04  0.7818609E-02  0.9205274E-01
        2   -1    0    0  501    0  0.00000000000E+00  0.00000000000E+00  0.94946731205E+03  0.94946731206E+03  0.25500000920E-02 0.  1.
       -2   -1    0    0    0  501  0.00000000000E+00  0.00000000000E+00 -0.31855076525E+03  0.31855076526E+03  0.25500000920E-02 0. -1.
    10030    2    1    2    0    0  0.00000000000E+00  0.00000000000E+00  0.63091654680E+03  0.12680180773E+04  0.10999155219E+04 0.  0.
        1    1    3    3  502    0  0.45269138081E+02  0.41687475911E+03 -0.94761621123E+02  0.42989955165E+03  0.50400001928E-02 0. -1.
       -1    1    3    3    0  502 -0.45269138081E+02 -0.41687475911E+03  0.72567816792E+03  0.83811852567E+03  0.50400001928E-02 0.  1.
</event>
<event>
 5   0  0.1429680E-03  0.1103970E+04  0.7818609E-02  0.9201332E-01
        2   -1    0    0  501    0  0.00000000000E+00  0.00000000000E+00  0.12856640504E+04  0.12856640504E+04  0.25500000920E-02 0. -1.
       -2   -1    0    0    0  501  0.00000000000E+00  0.00000000000E+00 -0.23698816948E+03  0.23698816949E+03  0.25500000920E-02 0.  1.
    10030    2    1    2    0    0  0.00000000000E+00  0.00000000000E+00  0.10486758810E+04  0.15226522199E+04  0.11039695103E+04 0.  0.
        3    1    3    3  502    0 -0.41697458011E+03  0.36168955228E+03  0.52411128305E+03  0.76117000723E+03  0.10100000352E+00 0.  1.
       -3    1    3    3    0  502  0.41697458011E+03 -0.36168955228E+03  0.52456459792E+03  0.76148221271E+03  0.10100000352E+00 0. -1.
</event>
<event>
 5   0  0.8009636E-04  0.1102984E+04  0.7818609E-02  0.9202289E-01
       -1   -1    0    0    0  501  0.00000000000E+00  0.00000000000E+00  0.52720211636E+03  0.52720211638E+03  0.50400001928E-02 0.  1.
        1   -1    0    0  501    0  0.00000000000E+00  0.00000000000E+00 -0.57690071932E+03  0.57690071934E+03  0.50400001928E-02 0. -1.
    10030    2    1    2    0    0  0.00000000000E+00  0.00000000000E+00 -0.49698602959E+02  0.11041028357E+04  0.11029837355E+04 0.  0.
        1    1    3    3  502    0 -0.66669260847E+02 -0.49394211606E+03  0.21144035304E+03  0.54141539254E+03  0.50400001928E-02 0.  1.
       -1    1    3    3    0  502  0.66669260847E+02  0.49394211606E+03 -0.26113895600E+03  0.56268744319E+03  0.50400001928E-02 0. -1.
</event>
<event>
 5   0  0.8150924E-04  0.1099944E+04  0.7818609E-02  0.9205247E-01
       -1   -1    0    0    0  501  0.00000000000E+00  0.00000000000E+00  0.25055089723E+03  0.25055089728E+03  0.50400001928E-02 0.  1.
        1   -1    0    0  501    0  0.00000000000E+00  0.00000000000E+00 -0.12072159009E+04  0.12072159010E+04  0.50400001928E-02 0. -1.
    10030    2    1    2    0    0  0.00000000000E+00  0.00000000000E+00 -0.95666500371E+03  0.14577667982E+04  0.10999436843E+04 0.  0.
        3    1    3    3  502    0 -0.17104050241E+03 -0.21003181459E+03  0.15602036568E+03  0.31258691801E+03  0.10100000352E+00 0.  1.
       -3    1    3    3    0  502  0.17104050241E+03  0.21003181459E+03 -0.11126853694E+04  0.11451798802E+04  0.10100000352E+00 0. -1.
</event>
<event>
 5   0  0.1425432E-03  0.1100134E+04  0.7818609E-02  0.9205061E-01
        2   -1    0    0  501    0  0.00000000000E+00  0.00000000000E+00  0.22216102325E+04  0.22216102325E+04  0.25500000920E-02 0.  1.
       -2   -1    0    0    0  501  0.00000000000E+00  0.00000000000E+00 -0.13619563759E+03  0.13619563761E+03  0.25500000920E-02 0. -1.
    10030    2    1    2    0    0  0.00000000000E+00  0.00000000000E+00  0.20854145949E+04  0.23578058701E+04  0.11001338503E+04 0.  0.
        1    1    3    3  502    0  0.22714916262E+03  0.19594132841E+03  0.20308682242E+04  0.20529041600E+04  0.50400001928E-02 0.  1.
       -1    1    3    3    0  502 -0.22714916262E+03 -0.19594132841E+03  0.54546370798E+02  0.30490171015E+03  0.50400001928E-02 0. -1.
</event>
<event>
 5   0  0.8341767E-04  0.1094799E+04  0.7818609E-02  0.9210276E-01
        1   -1    0    0  501    0  0.00000000000E+00  0.00000000000E+00  0.74253603172E+03  0.74253603174E+03  0.50400001928E-02 0. -1.
       -1   -1    0    0    0  501  0.00000000000E+00  0.00000000000E+00 -0.40354454779E+03  0.40354454782E+03  0.50400001928E-02 0.  1.
    10030    2    1    2    0    0  0.00000000000E+00  0.00000000000E+00  0.33899148393E+03  0.11460805796E+04  0.10947992824E+04 0.  0.
        2    1    3    3  502    0  0.40340378860E+03  0.20280738184E+03 -0.15448570689E+03  0.47721199108E+03  0.25500000920E-02 0.  1.
       -2    1    3    3    0  502 -0.40340378860E+03 -0.20280738184E+03  0.49347719083E+03  0.66886858848E+03  0.25500000920E-02 0. -1.
</event>
<event>
 5   0  0.1425432E-03  0.1098521E+04  0.7818609E-02  0.9206635E-01
       -2   -1    0    0    0  501  0.00000000000E+00  0.00000000000E+00  0.24658856791E+03  0.24658856793E+03  0.25500000920E-02 0.  1.
        2   -1    0    0  501    0  0.00000000000E+00  0.00000000000E+00 -0.12234432478E+04  0.12234432478E+04  0.25500000920E-02 0. -1.
    10030    2    1    2    0    0  0.00000000000E+00  0.00000000000E+00 -0.97685467987E+03  0.14700318157E+04  0.10985210392E+04 0.  0.
        1    1    3    3  502    0 -0.21986197482E+03 -0.92184759724E+02 -0.11505954058E+04  0.11750349381E+04  0.50400001928E-02 0. -1.
       -1    1    3    3    0  502  0.21986197482E+03  0.92184759724E+02  0.17374072596E+03  0.29499687758E+03  0.50400001928E-02 0.  1.
</event>
<event>
 5   0  0.5409500E-04  0.1099896E+04  0.7818609E-02  0.9205293E-01
       -4   -1    0    0    0  501  0.00000000000E+00  0.00000000000E+00  0.10740377814E+04  0.10740385322E+04  0.12699999809E+01 0. -1.
        4   -1    0    0  501    0  0.00000000000E+00  0.00000000000E+00 -0.28159212709E+03  0.28159499097E+03  0.12699999809E+01 0.  1.
    10030    2    1    2    0    0  0.00000000000E+00  0.00000000000E+00  0.79244565428E+03  0.13556335232E+04  0.10998964198E+04 0.  0.
        4    1    3    3  502    0 -0.42055728372E+03  0.34436541491E+03  0.29321083360E+03  0.61760033494E+03  0.12699999809E+01 0. -1.
       -4    1    3    3    0  502  0.42055728372E+03 -0.34436541491E+03  0.49923482069E+03  0.73803318826E+03  0.12699999809E+01 0.  1.
</event>
<event>
 5   0  0.1402775E-03  0.1100577E+04  0.7818609E-02  0.9204629E-01
        2   -1    0    0  501    0  0.00000000000E+00  0.00000000000E+00  0.11752327224E+04  0.11752327224E+04  0.25500000920E-02 0. -1.
       -2   -1    0    0    0  501  0.00000000000E+00  0.00000000000E+00 -0.25766602066E+03  0.25766602067E+03  0.25500000920E-02 0.  1.
    10030    2    1    2    0    0  0.00000000000E+00  0.00000000000E+00  0.91756670170E+03  0.14328987430E+04  0.11005771921E+04 0.  0.
        5    1    3    3  502    0  0.28581924675E+03  0.32042411825E+03  0.10731740363E+02  0.42953639847E+03  0.46999998093E+01 0.  1.
       -5    1    3    3    0  502 -0.28581924675E+03 -0.32042411825E+03  0.90683496133E+03  0.10033623445E+04  0.46999998093E+01 0. -1.
</event>
<event>
 5   0  0.8305271E-04  0.1099318E+04  0.7818609E-02  0.9205857E-01
        1   -1    0    0  501    0  0.00000000000E+00  0.00000000000E+00  0.49963828110E+03  0.49963828113E+03  0.50400001928E-02 0.  1.
       -1   -1    0    0    0  501  0.00000000000E+00  0.00000000000E+00 -0.60468699174E+03  0.60468699176E+03  0.50400001928E-02 0. -1.
    10030    2    1    2    0    0  0.00000000000E+00  0.00000000000E+00 -0.10504871064E+03  0.11043252729E+04  0.10993175505E+04 0.  0.
        5    1    3    3  502    0 -0.25392523276E+03  0.23398092233E+03 -0.48211427967E+03  0.59302728816E+03  0.46999998093E+01 0. -1.
       -5    1    3    3    0  502  0.25392523276E+03 -0.23398092233E+03  0.37706556903E+03  0.51129798473E+03  0.46999998093E+01 0.  1.
</event>
<event>
 5   0  0.5409500E-04  0.1064370E+04  0.7818609E-02  0.9240632E-01
       -3   -1    0    0    0  501  0.00000000000E+00  0.00000000000E+00  0.58823545609E+03  0.58823546476E+03  0.10100000352E+00 0.  1.
        3   -1    0    0  501    0  0.00000000000E+00  0.00000000000E+00 -0.48147552098E+03  0.48147553157E+03  0.10100000352E+00 0. -1.
    10030    2    1    2    0    0  0.00000000000E+00  0.00000000000E+00  0.10675993511E+03  0.10697109963E+04  0.10643702044E+04 0.  0.
        3    1    3    3  502    0  0.13498295305E+03  0.30983628192E+03 -0.35978143459E+03  0.49362091739E+03  0.10100000352E+00 0. -1.
       -3    1    3    3    0  502 -0.13498295305E+03 -0.30983628192E+03  0.46654136970E+03  0.57609007894E+03  0.10100000352E+00 0.  1.
</event>
<event>
 5   0  0.8009636E-04  0.1100120E+04  0.7818609E-02  0.9205075E-01
        1   -1    0    0  501    0  0.00000000000E+00  0.00000000000E+00  0.10357676632E+04  0.10357676632E+04  0.50400001928E-02 0.  1.
       -1   -1    0    0    0  501  0.00000000000E+00  0.00000000000E+00 -0.29211741195E+03  0.29211741199E+03  0.50400001928E-02 0. -1.
    10030    2    1    2    0    0  0.00000000000E+00  0.00000000000E+00  0.74365025126E+03  0.13278850752E+04  0.11001195739E+04 0.  0.
        1    1    3    3  502    0 -0.20940469554E+03  0.48069400753E+03  0.57253006658E+03  0.77634253558E+03  0.50400001928E-02 0.  1.
       -1    1    3    3    0  502  0.20940469554E+03 -0.48069400753E+03  0.17112018468E+03  0.55154253963E+03  0.50400001928E-02 0. -1.
</event>
<event>
 5   0  0.8150924E-04  0.1099179E+04  0.7818609E-02  0.9205993E-01
       -1   -1    0    0    0  501  0.00000000000E+00  0.00000000000E+00  0.30612060795E+03  0.30612060799E+03  0.50400001928E-02 0. -1.
        1   -1    0    0  501    0  0.00000000000E+00  0.00000000000E+00 -0.98669754465E+03  0.98669754466E+03  0.50400001928E-02 0.  1.
    10030    2    1    2    0    0  0.00000000000E+00  0.00000000000E+00 -0.68057693670E+03  0.12928181526E+04  0.10991786975E+04 0.  0.
        3    1    3    3  502    0 -0.79496614470E+02  0.52126690176E+03 -0.15804115874E+03  0.55046881168E+03  0.10100000352E+00 0. -1.
       -3    1    3    3    0  502  0.79496614470E+02 -0.52126690176E+03 -0.52253577796E+03  0.74234934096E+03  0.10100000352E+00 0.  1.
</event>
<event>
 5   0  0.8150924E-04  0.1081043E+04  0.7818609E-02  0.9223868E-01
       -1   -1    0    0    0  501  0.00000000000E+00  0.00000000000E+00  0.38343119460E+03  0.38343119463E+03  0.50400001928E-02 0. -1.
        1   -1    0    0  501    0  0.00000000000E+00  0.00000000000E+00 -0.76197077123E+03  0.76197077125E+03  0.50400001928E-02 0.  1.
    10030    2    1    2    0    0  0.00000000000E+00  0.00000000000E+00 -0.37853957663E+03  0.11454019659E+04  0.10810427616E+04 0.  0.
        3    1    3    3  502    0  0.32068157962E+03  0.40088470293E+03 -0.36851010180E+03  0.63193743826E+03  0.10100000352E+00 0.  1.
       -3    1    3    3    0  502 -0.32068157962E+03 -0.40088470293E+03 -0.10029474835E+02  0.51346452761E+03  0.10100000352E+00 0. -1.
</event>
<event>
 5   0  0.1425432E-03  0.1100029E+04  0.7818609E-02  0.9205164E-01
        2   -1    0    0  501    0  0.00000000000E+00  0.00000000000E+00  0.67556996504E+03  0.67556996505E+03  0.25500000920E-02 0. -1.
       -2   -1    0    0    0  501  0.00000000000E+00  0.00000000000E+00 -0.44779372838E+03  0.44779372839E+03  0.25500000920E-02 0.  1.
    10030    2    1    2    0    0  0.00000000000E+00  0.00000000000E+00  0.22777623666E+03  0.11233636934E+04  0.11000290786E+04 0.  0.
        1    1    3    3  502    0 -0.88630683934E+02 -0.45600432746E+03  0.41461861856E+03  0.62265876986E+03  0.50400001928E-02 0. -1.
       -1    1    3    3    0  502  0.88630683934E+02  0.45600432746E+03 -0.18684238189E+03  0.50070492358E+03  0.50400001928E-02 0.  1.
</event>
<event>
 5   0  0.7946038E-04  0.1099187E+04  0.7818609E-02  0.9205985E-01
        1   -1    0    0  501    0  0.00000000000E+00  0.00000000000E+00  0.10364333435E+04  0.10364333436E+04  0.50400001928E-02 0. -1.
       -1   -1    0    0    0  501  0.00000000000E+00  0.00000000000E+00 -0.29143508683E+03  0.29143508687E+03  0.50400001928E-02 0.  1.
    10030    2    1    2    0    0  0.00000000000E+00  0.00000000000E+00  0.74499825672E+03  0.13278684304E+04  0.10991870478E+04 0.  0.
        4    1    3    3  502    0 -0.47584264124E+03 -0.26211103892E+03  0.27198409839E+03  0.60754043373E+03  0.12699999809E+01 0.  1.
       -4    1    3    3    0  502  0.47584264124E+03  0.26211103892E+03  0.47301415833E+03  0.72032799670E+03  0.12699999809E+01 0. -1.
</event>
<event>
 5   0  0.8009636E-04  0.1099039E+04  0.7818609E-02  0.9206129E-01
       -1   -1    0    0    0  501  0.00000000000E+00  0.00000000000E+00  0.16217565933E+04  0.16217565933E+04  0.50400001928E-02 0. -1.
        1   -1    0    0  501    0  0.00000000000E+00  0.00000000000E+00 -0.18620034205E+03  0.18620034212E+03  0.50400001928E-02 0.  1.
    10030    2    1    2    0    0  0.00000000000E+00  0.00000000000E+00  0.14355562513E+04  0.18079569355E+04  0.10990389119E+04 0.  0.
        1    1    3    3  502    0  0.52222084183E+03  0.17009192512E+03  0.68808710681E+03  0.88040316743E+03  0.50400001928E-02 0. -1.
       -1    1    3    3    0  502 -0.52222084183E+03 -0.17009192512E+03  0.74746914448E+03  0.92755376804E+03  0.50400001928E-02 0.  1.
</event>
<event>
 5   0  0.1396936E-03  0.1104670E+04  0.7818609E-02  0.9200652E-01
        2   -1    0    0  501    0  0.00000000000E+00  0.00000000000E+00  0.16326954647E+04  0.16326954647E+04  0.25500000920E-02 0.  1.
       -2   -1    0    0    0  501  0.00000000000E+00  0.00000000000E+00 -0.18685302826E+03  0.18685302827E+03  0.25500000920E-02 0. -1.
    10030    2    1    2    0    0  0.00000000000E+00  0.00000000000E+00  0.14458424364E+04  0.18195484930E+04  0.11046702527E+04 0.  0.
        2    1    3    3  502    0 -0.24299450843E+03  0.29405911036E+03  0.13808651817E+04  0.14325870800E+04  0.25500000920E-02 0.  1.
       -2    1    3    3    0  502  0.24299450843E+03 -0.29405911036E+03  0.64977254688E+02  0.38696141300E+03  0.25500000920E-02 0. -1.
</event>
<event>
 5   0  0.8150924E-04  0.1096322E+04  0.7818609E-02  0.9208784E-01
        1   -1    0    0  501    0  0.00000000000E+00  0.00000000000E+00  0.38037367769E+03  0.38037367773E+03  0.50400001928E-02 0.  1.
       -1   -1    0    0    0  501  0.00000000000E+00  0.00000000000E+00 -0.78996131096E+03  0.78996131098E+03  0.50400001928E-02 0. -1.
    10030    2    1    2    0    0  0.00000000000E+00  0.00000000000E+00 -0.40958763327E+03  0.11703349887E+04  0.10963220131E+04 0.  0.
        3    1    3    3  502    0 -0.32947252921E+03 -0.42900868870E+03 -0.29955527988E+03  0.61833160876E+03  0.10100000352E+00 0.  1.
       -3    1    3    3    0  502  0.32947252921E+03  0.42900868870E+03 -0.11003235339E+03  0.55200337995E+03  0.10100000352E+00 0. -1.
</event>
<event>
 5   0  0.5409500E-04  0.1099212E+04  0.7818609E-02  0.9205960E-01
       -3   -1    0    0    0  501  0.00000000000E+00  0.00000000000E+00  0.40532364336E+03  0.40532365595E+03  0.10100000352E+00 0.  1.
        3   -1    0    0  501    0  0.00000000000E+00  0.00000000000E+00 -0.74524803469E+03  0.74524804153E+03  0.10100000352E+00 0. -1.
    10030    2    1    2    0    0  0.00000000000E+00  0.00000000000E+00 -0.33992439132E+03  0.11505716975E+04  0.10992118264E+04 0.  0.
        3    1    3    3  502    0  0.24781531091E+03 -0.19581134159E+03 -0.64076958036E+03  0.71438097338E+03  0.10100000352E+00 0. -1.
       -3    1    3    3    0  502 -0.24781531091E+03  0.19581134159E+03  0.30084518904E+03  0.43619072409E+03  0.10100000352E+00 0.  1.
</event>
<event>
 5   0  0.1429680E-03  0.1104127E+04  0.7818609E-02  0.9201179E-01
       -2   -1    0    0    0  501  0.00000000000E+00  0.00000000000E+00  0.50560338413E+03  0.50560338413E+03  0.25500000920E-02 0. -1.
        2   -1    0    0  501    0  0.00000000000E+00  0.00000000000E+00 -0.60279243558E+03  0.60279243558E+03  0.25500000920E-02 0.  1.
    10030    2    1    2    0    0  0.00000000000E+00  0.00000000000E+00 -0.97189051450E+02  0.11083958197E+04  0.11041266148E+04 0.  0.
        3    1    3    3  502    0  0.30225756694E+03 -0.39378123120E+03  0.19389815113E+03  0.53293507863E+03  0.10100000352E+00 0. -1.
       -3    1    3    3    0  502 -0.30225756694E+03  0.39378123120E+03 -0.29108720258E+03  0.57546074109E+03  0.10100000352E+00 0.  1.
</event>
<event>
 5   0  0.8009636E-04  0.1106662E+04  0.7818609E-02  0.9198723E-01
        1   -1    0    0  501    0  0.00000000000E+00  0.00000000000E+00  0.49579792174E+03  0.49579792177E+03  0.50400001928E-02 0. -1.
       -1   -1    0    0    0  501  0.00000000000E+00  0.00000000000E+00 -0.61754019054E+03  0.61754019056E+03  0.50400001928E-02 0.  1.
    10030    2    1    2    0    0  0.00000000000E+00  0.00000000000E+00 -0.12174226880E+03  0.11133381123E+04  0.11066619052E+04 0.  0.
        1    1    3    3  502    0 -0.34475026824E+03 -0.43228597491E+03 -0.39500775108E+02  0.55433223144E+03  0.50400001928E-02 0. -1.
       -1    1    3    3    0  502  0.34475026824E+03  0.43228597491E+03 -0.82241493688E+02  0.55900588088E+03  0.50400001928E-02 0.  1.
</event>
<event>
 5   0  0.1396936E-03  0.1088012E+04  0.7818609E-02  0.9216956E-01
       -2   -1    0    0    0  501  0.00000000000E+00  0.00000000000E+00  0.26652190402E+03  0.26652190404E+03  0.25500000920E-02 0. -1.
        2   -1    0    0  501    0  0.00000000000E+00  0.00000000000E+00 -0.11103863768E+04  0.11103863768E+04  0.25500000920E-02 0.  1.
    10030    2    1    2    0    0  0.00000000000E+00  0.00000000000E+00 -0.84386447276E+03  0.13769082808E+04  0.10880115649E+04 0.  0.
        2    1    3    3  502    0 -0.14962751327E+03  0.14960106913E+03  0.21231464223E+03  0.29974385719E+03  0.25500000920E-02 0. -1.
       -2    1    3    3    0  502  0.14962751327E+03 -0.14960106913E+03 -0.10561791150E+04  0.10771644236E+04  0.25500000920E-02 0.  1.
</event>
<event>
 5   0  0.8341767E-04  0.1098502E+04  0.7818609E-02  0.9206653E-01
       -1   -1    0    0    0  501  0.00000000000E+00  0.00000000000E+00  0.13161981830E+04  0.13161981830E+04  0.50400001928E-02 0. -1.
        1   -1    0    0  501    0  0.00000000000E+00  0.00000000000E+00 -0.22920309086E+03  0.22920309091E+03  0.50400001928E-02 0.  1.
    10030    2    1    2    0    0  0.00000000000E+00  0.00000000000E+00  0.10869950921E+04  0.15454012739E+04  0.10985020560E+04 0.  0.
        2    1    3    3  502    0 -0.32919306433E+03 -0.39382013233E+03  0.26848439099E+03  0.57926353108E+03  0.25500000920E-02 0.  1.
       -2    1    3    3    0  502  0.32919306433E+03  0.39382013233E+03  0.81851070115E+03  0.96613774284E+03  0.25500000920E-02 0. -1.
</event>
<event>
 5   0  0.1429680E-03  0.1099077E+04  0.7818609E-02  0.9206092E-01
       -2   -1    0    0    0  501  0.00000000000E+00  0.00000000000E+00  0.18101152975E+03  0.18101152977E+03  0.25500000920E-02 0.  1.
        2   -1    0    0  501    0  0.00000000000E+00  0.00000000000E+00 -0.16683599486E+04  0.16683599486E+04  0.25500000920E-02 0. -1.
    10030    2    1    2    0    0  0.00000000000E+00  0.00000000000E+00 -0.14873484189E+04  0.18493714784E+04  0.10990766789E+04 0.  0.
        3    1    3    3  502    0 -0.33373955981E+03  0.26855139626E+03 -0.16446187630E+03  0.45885691144E+03  0.10100000352E+00 0.  1.
       -3    1    3    3    0  502  0.33373955981E+03 -0.26855139626E+03 -0.13228865426E+04  0.13905145670E+04  0.10100000352E+00 0. -1.
</event>
<event>
 5   0  0.1402775E-03  0.1098819E+04  0.7818609E-02  0.9206344E-01
       -2   -1    0    0    0  501  0.00000000000E+00  0.00000000000E+00  0.18055368843E+03  0.18055368845E+03  0.25500000920E-02 0. -1.
        2   -1    0    0  501    0  0.00000000000E+00  0.00000000000E+00 -0.16718065445E+04  0.16718065445E+04  0.25500000920E-02 0.  1.
    10030    2    1    2    0    0  0.00000000000E+00  0.00000000000E+00 -0.14912528561E+04  0.18523602329E+04  0.10988190715E+04 0.  0.
        5    1    3    3  502    0 -0.53054755150E+03 -0.27754534247E+01 -0.50520212325E+03  0.73262519946E+03  0.46999998093E+01 0.  1.
       -5    1    3    3    0  502  0.53054755150E+03  0.27754534247E+01 -0.98605073281E+03  0.11197350335E+04  0.46999998093E+01 0. -1.
</event>
<event>
 5   0  0.8341767E-04  0.1032444E+04  0.7818609E-02  0.9273659E-01
        1   -1    0    0  501    0  0.00000000000E+00  0.00000000000E+00  0.13770527901E+04  0.13770527901E+04  0.50400001928E-02 0. -1.
       -1   -1    0    0    0  501  0.00000000000E+00  0.00000000000E+00 -0.19351848951E+03  0.19351848958E+03  0.50400001928E-02 0.  1.
    10030    2    1    2    0    0  0.00000000000E+00  0.00000000000E+00  0.11835343006E+04  0.15705712797E+04  0.10324440440E+04 0.  0.
        2    1    3    3  502    0  0.17622807412E+03 -0.43914200328E+01 -0.14631240148E+03  0.22909154832E+03  0.25500000920E-02 0.  1.
       -2    1    3    3    0  502 -0.17622807412E+03  0.43914200328E+01  0.13298467021E+04  0.13414797314E+04  0.25500000920E-02 0. -1.
</event>
<event>
 5   0  0.1429680E-03  0.1106960E+04  0.7818609E-02  0.9198434E-01
        2   -1    0    0  501    0  0.00000000000E+00  0.00000000000E+00  0.55073982297E+03  0.55073982297E+03  0.25500000920E-02 0.  1.
       -2   -1    0    0    0  501  0.00000000000E+00  0.00000000000E+00 -0.55623428656E+03  0.55623428657E+03  0.25500000920E-02 0. -1.
    10030    2    1    2    0    0  0.00000000000E+00  0.00000000000E+00 -0.54944635943E+01  0.11069741095E+04  0.11069604736E+04 0.  0.
        3    1    3    3  502    0  0.25063314144E+02  0.51925789179E+03  0.18721150949E+03  0.55254419497E+03  0.10100000352E+00 0. -1.
       -3    1    3    3    0  502 -0.25063314144E+02 -0.51925789179E+03 -0.19270597308E+03  0.55442991457E+03  0.10100000352E+00 0.  1.
</event>
<event>
 5   0  0.1425432E-03  0.1101587E+04  0.7818609E-02  0.9203646E-01
        2   -1    0    0  501    0  0.00000000000E+00  0.00000000000E+00  0.11832585533E+04  0.11832585533E+04  0.25500000920E-02 0.  1.
       -2   -1    0    0    0  501  0.00000000000E+00  0.00000000000E+00 -0.25638832601E+03  0.25638832602E+03  0.25500000920E-02 0. -1.
    10030    2    1    2    0    0  0.00000000000E+00  0.00000000000E+00  0.92687022733E+03  0.14396468794E+04  0.11015873633E+04 0.  0.
        1    1    3    3  502    0  0.46650872534E+03 -0.18133776855E+03  0.76390448898E+03  0.91327095948E+03  0.50400001928E-02 0.  1.
       -1    1    3    3    0  502 -0.46650872534E+03  0.18133776855E+03  0.16296573835E+03  0.52637591988E+03  0.50400001928E-02 0. -1.
</event>
<event>
 5   0  0.8305271E-04  0.1098444E+04  0.7818609E-02  0.9206709E-01
       -1   -1    0    0    0  501  0.00000000000E+00  0.00000000000E+00  0.20770295147E+03  0.20770295153E+03  0.50400001928E-02 0.  1.
        1   -1    0    0  501    0  0.00000000000E+00  0.00000000000E+00 -0.14522902046E+04  0.14522902046E+04  0.50400001928E-02 0. -1.
    10030    2    1    2    0    0  0.00000000000E+00  0.00000000000E+00 -0.12445872531E+04  0.16599931561E+04  0.10984442852E+04 0.  0.
        5    1    3    3  502    0  0.48138099328E+03 -0.25548301804E+03 -0.51953454564E+03  0.75295250003E+03  0.46999998093E+01 0.  1.
       -5    1    3    3    0  502 -0.48138099328E+03  0.25548301804E+03 -0.72505270747E+03  0.90704065610E+03  0.46999998093E+01 0. -1.
</event>
<event>
 5   0  0.1429680E-03  0.1099795E+04  0.7818609E-02  0.9205392E-01
       -2   -1    0    0    0  501  0.00000000000E+00  0.00000000000E+00  0.23846822935E+03  0.23846822936E+03  0.25500000920E-02 0. -1.
        2   -1    0    0  501    0  0.00000000000E+00  0.00000000000E+00 -0.12680398484E+04  0.12680398484E+04  0.25500000920E-02 0.  1.
    10030    2    1    2    0    0  0.00000000000E+00  0.00000000000E+00 -0.10295716191E+04  0.15065080778E+04  0.10997949216E+04 0.  0.
        3    1    3    3  502    0 -0.29145574708E+03 -0.12222577827E+03 -0.11312019459E+04  0.11745226460E+04  0.10100000352E+00 0.  1.
       -3    1    3    3    0  502  0.29145574708E+03  0.12222577827E+03  0.10163032682E+03  0.33198543178E+03  0.10100000352E+00 0. -1.
</event>
<event>
 5   0  0.7946038E-04  0.1101221E+04  0.7818609E-02  0.9204003E-01
        1   -1    0    0  501    0  0.00000000000E+00  0.00000000000E+00  0.87979221878E+03  0.87979221879E+03  0.50400001928E-02 0.  1.
       -1   -1    0    0    0  501  0.00000000000E+00  0.00000000000E+00 -0.34459496350E+03  0.34459496353E+03  0.50400001928E-02 0. -1.
    10030    2    1    2    0    0  0.00000000000E+00  0.00000000000E+00  0.53519725528E+03  0.12243871823E+04  0.11012210814E+04 0.  0.
        4    1    3    3  502    0  0.45987040897E+03 -0.61412078979E+02  0.59727168026E+03  0.75629842618E+03  0.12699999809E+01 0.  1.
       -4    1    3    3    0  502 -0.45987040897E+03  0.61412078979E+02 -0.62074424980E+02  0.46808875615E+03  0.12699999809E+01 0. -1.
</event>
<event>
 5   0  0.8009636E-04  0.1101759E+04  0.7818609E-02  0.9203479E-01
       -1   -1    0    0    0  501  0.00000000000E+00  0.00000000000E+00  0.12847416459E+03  0.12847416469E+03  0.50400001928E-02 0.  1.
        1   -1    0    0  501    0  0.00000000000E+00  0.00000000000E+00 -0.23620953313E+04  0.23620953313E+04  0.50400001928E-02 0. -1.
    10030    2    1    2    0    0  0.00000000000E+00  0.00000000000E+00 -0.22336211667E+04  0.24905694960E+04  0.11017590018E+04 0.  0.
        1    1    3    3  502    0  0.38993593679E+02 -0.63613839911E+02  0.11699871866E+03  0.13876570603E+03  0.50400001928E-02 0.  1.
       -1    1    3    3    0  502 -0.38993593679E+02  0.63613839911E+02 -0.23506198854E+04  0.23518037900E+04  0.50400001928E-02 0. -1.
</event>
<event>
 5   0  0.8150924E-04  0.1096285E+04  0.7818609E-02  0.9208821E-01
       -1   -1    0    0    0  501  0.00000000000E+00  0.00000000000E+00  0.41086179197E+03  0.41086179200E+03  0.50400001928E-02 0.  1.
        1   -1    0    0  501    0  0.00000000000E+00  0.00000000000E+00 -0.73129218921E+03  0.73129218922E+03  0.50400001928E-02 0. -1.
    10030    2    1    2    0    0  0.00000000000E+00  0.00000000000E+00 -0.32043039724E+03  0.11421539812E+04  0.10962846699E+04 0.  0.
        3    1    3    3  502    0 -0.13569785325E+03 -0.14803804457E+03 -0.69158545107E+03  0.72015249520E+03  0.10100000352E+00 0. -1.
       -3    1    3    3    0  502  0.13569785325E+03  0.14803804457E+03  0.37115505383E+03  0.42200148602E+03  0.10100000352E+00 0.  1.
</event>
<event>
 5   0  0.1372794E-03  0.1100706E+04  0.7818609E-02  0.9204504E-01
        2   -1    0    0  501    0  0.00000000000E+00  0.00000000000E+00  0.86611748610E+03  0.86611748611E+03  0.25500000920E-02 0.  1.
       -2   -1    0    0    0  501  0.00000000000E+00  0.00000000000E+00 -0.34970803534E+03  0.34970803535E+03  0.25500000920E-02 0. -1.
    10030    2    1    2    0    0  0.00000000000E+00  0.00000000000E+00  0.51640945076E+03  0.12158255215E+04  0.11007056726E+04 0.  0.
        4    1    3    3  502    0  0.45773897667E+03 -0.19526296574E+03 -0.13945262380E+01  0.49765063464E+03  0.12699999809E+01 0. -1.
       -4    1    3    3    0  502 -0.45773897667E+03  0.19526296574E+03  0.51780397700E+03  0.71817488682E+03  0.12699999809E+01 0.  1.
</event>
<event>
 5   0  0.1372794E-03  0.1098328E+04  0.7818609E-02  0.9206823E-01
       -2   -1    0    0    0  501  0.00000000000E+00  0.00000000000E+00  0.31018202832E+03  0.31018202833E+03  0.25500000920E-02 0.  1.
        2   -1    0    0  501    0  0.00000000000E+00  0.00000000000E+00 -0.97227092255E+03  0.97227092255E+03  0.25500000920E-02 0. -1.
    10030    2    1    2    0    0  0.00000000000E+00  0.00000000000E+00 -0.66208889422E+03  0.12824529509E+04  0.10983277595E+04 0.  0.
        4    1    3    3  502    0  0.29517840456E+03  0.26431502358E+03  0.11294592361E+03  0.41200863677E+03  0.12699999809E+01 0.  1.
       -4    1    3    3    0  502 -0.29517840456E+03 -0.26431502358E+03 -0.77503481784E+03  0.87044431411E+03  0.12699999809E+01 0. -1.
</event>
<event>
 5   0  0.5409500E-04  0.1084129E+04  0.7818609E-02  0.9220800E-01
        4   -1    0    0  501    0  0.00000000000E+00  0.00000000000E+00  0.42362205521E+03  0.42362395891E+03  0.12699999809E+01 0.  1.
       -4   -1    0    0    0  501  0.00000000000E+00  0.00000000000E+00 -0.69361899829E+03  0.69362016096E+03  0.12699999809E+01 0. -1.
    10030    2    1    2    0    0  0.00000000000E+00  0.00000000000E+00 -0.26999694308E+03  0.11172441199E+04  0.10841291778E+04 0.  0.
        3    1    3    3  502    0  0.21012149273E+03  0.49785098283E+02  0.37738504763E+03  0.43479774849E+03  0.10100000352E+00 0.  1.
       -3    1    3    3    0  502 -0.21012149273E+03 -0.49785098283E+02 -0.64738199071E+03  0.68244637138E+03  0.10100000352E+00 0. -1.
</event>
<event>
 5   0  0.8150924E-04  0.1094701E+04  0.7818609E-02  0.9210372E-01
       -1   -1    0    0    0  501  0.00000000000E+00  0.00000000000E+00  0.45047476338E+03  0.45047476341E+03  0.50400001928E-02 0. -1.
        1   -1    0    0  501    0  0.00000000000E+00  0.00000000000E+00 -0.66505994787E+03  0.66505994789E+03  0.50400001928E-02 0.  1.
    10030    2    1    2    0    0  0.00000000000E+00  0.00000000000E+00 -0.21458518449E+03  0.11155347113E+04  0.10947012792E+04 0.  0.
        3    1    3    3  502    0  0.41527960160E+02  0.40003517430E+03  0.27104116690E+03  0.48499075920E+03  0.10100000352E+00 0. -1.
       -3    1    3    3    0  502 -0.41527960160E+02 -0.40003517430E+03 -0.48562635139E+03  0.63054395209E+03  0.10100000352E+00 0.  1.
</event>
<event>
 5   0  0.8305271E-04  0.1100537E+04  0.7818609E-02  0.9204668E-01
        1   -1    0    0  501    0  0.00000000000E+00  0.00000000000E+00  0.19906089892E+03  0.19906089899E+03  0.50400001928E-02 0.  1.
       -1   -1    0    0    0  501  0.00000000000E+00  0.00000000000E+00 -0.15211204051E+04  0.15211204051E+04  0.50400001928E-02 0. -1.
    10030    2    1    2    0    0  0.00000000000E+00  0.00000000000E+00 -0.13220595062E+04  0.17201813041E+04  0.11005373147E+04 0.  0.
        5    1    3    3  502    0  0.43409288349E+03 -0.16093452581E+03 -0.11258513886E+04  0.12173331476E+04  0.46999998093E+01 0. -1.
       -5    1    3    3    0  502 -0.43409288349E+03  0.16093452581E+03 -0.19620811763E+03  0.50284815652E+03  0.46999998093E+01 0.  1.
</event>
<event>
 5   0  0.1396936E-03  0.1100137E+04  0.7818609E-02  0.9205058E-01
        2   -1    0    0  501    0  0.00000000000E+00  0.00000000000E+00  0.25317610932E+03  0.25317610933E+03  0.25500000920E-02 0. -1.
       -2   -1    0    0    0  501  0.00000000000E+00  0.00000000000E+00 -0.11951182865E+04  0.11951182865E+04  0.25500000920E-02 0.  1.
    10030    2    1    2    0    0  0.00000000000E+00  0.00000000000E+00 -0.94194217718E+03  0.14482943958E+04  0.11001370787E+04 0.  0.
        2    1    3    3  502    0 -0.27614681638E+03  0.46153420777E+03 -0.31912295061E+03  0.62538815687E+03  0.25500000920E-02 0.  1.
       -2    1    3    3    0  502  0.27614681638E+03 -0.46153420777E+03 -0.62281922657E+03  0.82290623897E+03  0.25500000920E-02 0. -1.
</event>
<event>
 5   0  0.1429680E-03  0.1096014E+04  0.7818609E-02  0.9209085E-01
        2   -1    0    0  501    0  0.00000000000E+00  0.00000000000E+00  0.10883788757E+04  0.10883788757E+04  0.25500000920E-02 0.  1.
       -2   -1    0    0    0  501  0.00000000000E+00  0.00000000000E+00 -0.27592575061E+03  0.27592575062E+03  0.25500000920E-02 0. -1.
    10030    2    1    2    0    0  0.00000000000E+00  0.00000000000E+00  0.81245312509E+03  0.13643046263E+04  0.10960141573E+04 0.  0.
        3    1    3    3  502    0  0.11682916938E+03 -0.32948298053E+03  0.93155584364E+03  0.99498964281E+03  0.10100000352E+00 0.  1.
       -3    1    3    3    0  502 -0.11682916938E+03  0.32948298053E+03 -0.11910271855E+03  0.36931498351E+03  0.10100000352E+00 0. -1.
</event>
<event>
 5   0  0.1425432E-03  0.1093924E+04  0.7818609E-02  0.9211135E-01
        2   -1    0    0  501    0  0.00000000000E+00  0.00000000000E+00  0.92360528789E+03  0.92360528789E+03  0.25500000920E-02 0. -1.
       -2   -1    0    0    0  501  0.00000000000E+00  0.00000000000E+00 -0.32391248195E+03  0.32391248196E+03  0.25500000920E-02 0.  1.
    10030    2    1    2    0    0  0.00000000000E+00  0.00000000000E+00  0.59969280594E+03  0.12475177699E+04  0.10939237289E+04 0.  0.
        1    1    3    3  502    0 -0.17150002954E+03 -0.76698938246E+02  0.88565615046E+03  0.90536280249E+03  0.50400001928E-02 0. -1.
       -1    1    3    3    0  502  0.17150002954E+03  0.76698938246E+02 -0.28596334452E+03  0.34215496736E+03  0.50400001928E-02 0.  1.
</event>
<event>
 5   0  0.1396936E-03  0.1118319E+04  0.7818609E-02  0.9187518E-01
       -2   -1    0    0    0  501  0.00000000000E+00  0.00000000000E+00  0.46976958738E+03  0.46976958739E+03  0.25500000920E-02 0. -1.
        2   -1    0    0  501    0  0.00000000000E+00  0.00000000000E+00 -0.66555916202E+03  0.66555916202E+03  0.25500000920E-02 0.  1.
    10030    2    1    2    0    0  0.00000000000E+00  0.00000000000E+00 -0.19578957463E+03  0.11353287494E+04  0.11183191904E+04 0.  0.
        2    1    3    3  502    0 -0.44425575620E+03  0.13868122262E+03 -0.41255057651E+03  0.62192735638E+03  0.25500000920E-02 0.  1.
       -2    1    3    3    0  502  0.44425575620E+03 -0.13868122262E+03  0.21676100188E+03  0.51340139303E+03  0.25500000920E-02 0. -1.
</event>
<event>
 5   0  0.1429680E-03  0.1099574E+04  0.7818609E-02  0.9205607E-01
       -2   -1    0    0    0  501  0.00000000000E+00  0.00000000000E+00  0.38321601818E+03  0.38321601819E+03  0.25500000920E-02 0. -1.
        2   -1    0    0  501    0  0.00000000000E+00  0.00000000000E+00 -0.78876108129E+03  0.78876108130E+03  0.25500000920E-02 0.  1.
    10030    2    1    2    0    0  0.00000000000E+00  0.00000000000E+00 -0.40554506312E+03  0.11719770995E+04  0.10995742465E+04 0.  0.
        3    1    3    3  502    0 -0.12229707867E+03  0.63807281204E+01  0.36849380271E+03  0.38831041961E+03  0.10100000352E+00 0. -1.
       -3    1    3    3    0  502  0.12229707867E+03 -0.63807281204E+01 -0.77403886582E+03  0.78366667988E+03  0.10100000352E+00 0.  1.
</event>
<event>
 5   0  0.8150924E-04  0.1098476E+04  0.7818609E-02  0.9206678E-01
       -1   -1    0    0    0  501  0.00000000000E+00  0.00000000000E+00  0.42220048406E+03  0.42220048409E+03  0.50400001928E-02 0. -1.
        1   -1    0    0  501    0  0.00000000000E+00  0.00000000000E+00 -0.71450058230E+03  0.71450058232E+03  0.50400001928E-02 0.  1.
    10030    2    1    2    0    0  0.00000000000E+00  0.00000000000E+00 -0.29230009825E+03  0.11367010664E+04  0.10984762023E+04 0.  0.
        3    1    3    3  502    0 -0.31861777105E+03  0.42320808400E+03  0.39495978448E+01  0.52975274980E+03  0.10100000352E+00 0. -1.
       -3    1    3    3    0  502  0.31861777105E+03 -0.42320808400E+03 -0.29624969609E+03  0.60694831661E+03  0.10100000352E+00 0.  1.
</event>
<event>
 5   0  0.1402775E-03  0.1100083E+04  0.7818609E-02  0.9205111E-01
        2   -1    0    0  501    0  0.00000000000E+00  0.00000000000E+00  0.11043556571E+04  0.11043556571E+04  0.25500000920E-02 0. -1.
       -2   -1    0    0    0  501  0.00000000000E+00  0.00000000000E+00 -0.27395659038E+03  0.27395659039E+03  0.25500000920E-02 0.  1.
    10030    2    1    2    0    0  0.00000000000E+00  0.00000000000E+00  0.83039906667E+03  0.13783122475E+04  0.11000827430E+04 0.  0.
        5    1    3    3  502    0 -0.53522945297E+03 -0.48814637644E+02  0.56168895679E+03  0.77741238114E+03  0.46999998093E+01 0. -1.
       -5    1    3    3    0  502  0.53522945297E+03  0.48814637644E+02  0.26871010989E+03  0.60089986631E+03  0.46999998093E+01 0.  1.
</event>
<event>
 5   0  0.8305271E-04  0.1104597E+04  0.7818609E-02  0.9200723E-01
        1   -1    0    0  501    0  0.00000000000E+00  0.00000000000E+00  0.11659753957E+04  0.11659753957E+04  0.50400001928E-02 0.  1.
       -1   -1    0    0    0  501  0.00000000000E+00  0.00000000000E+00 -0.26161252288E+03  0.26161252293E+03  0.50400001928E-02 0. -1.
    10030    2    1    2    0    0  0.00000000000E+00  0.00000000000E+00  0.90436287283E+03  0.14275879187E+04  0.11045972387E+04 0.  0.
        5    1    3    3  502    0  0.41025433965E+03 -0.36573024852E+03  0.38205204858E+03  0.66936768349E+03  0.46999998093E+01 0. -1.
       -5    1    3    3    0  502 -0.41025433965E+03  0.36573024852E+03  0.52231082425E+03  0.75822023517E+03  0.46999998093E+01 0.  1.
</event>
<event>
 5   0  0.8150924E-04  0.1060772E+04  0.7818609E-02  0.9244293E-01
       -1   -1    0    0    0  501  0.00000000000E+00  0.00000000000E+00  0.97602206443E+03  0.97602206444E+03  0.50400001928E-02 0.  1.
        1   -1    0    0  501    0  0.00000000000E+00  0.00000000000E+00 -0.28822029369E+03  0.28822029373E+03  0.50400001928E-02 0. -1.
    10030    2    1    2    0    0  0.00000000000E+00  0.00000000000E+00  0.68780177074E+03  0.12642423582E+04  0.10607721077E+04 0.  0.
        3    1    3    3  502    0  0.36545699999E+03  0.26076793850E+03  0.68047078838E+03  0.81522956315E+03  0.10100000352E+00 0.  1.
       -3    1    3    3    0  502 -0.36545699999E+03 -0.26076793850E+03  0.73309823585E+01  0.44901279503E+03  0.10100000352E+00 0. -1.
</event>
<event>
 5   0  0.1429680E-03  0.1102527E+04  0.7818609E-02  0.9202733E-01
       -2   -1    0    0    0  501  0.00000000000E+00  0.00000000000E+00  0.27443358196E+03  0.27443358197E+03  0.25500000920E-02 0.  1.
        2   -1    0    0  501    0  0.00000000000E+00  0.00000000000E+00 -0.11073398147E+04  0.11073398147E+04  0.25500000920E-02 0. -1.
    10030    2    1    2    0    0  0.00000000000E+00  0.00000000000E+00 -0.83290623273E+03  0.13817733967E+04  0.11025266107E+04 0.  0.
        3    1    3    3  502    0 -0.22223237190E+03  0.50281273385E+03 -0.46787344529E+03  0.72188187638E+03  0.10100000352E+00 0.  1.
       -3    1    3    3    0  502  0.22223237190E+03 -0.50281273385E+03 -0.36503278745E+03  0.65989152029E+03  0.10100000352E+00 0. -1.
</event>
<event>
 5   0  0.8009636E-04  0.1102305E+04  0.7818609E-02  0.9202949E-01
        1   -1    0    0  501    0  0.00000000000E+00  0.00000000000E+00  0.12473461502E+04  0.12473461503E+04  0.50400001928E-02 0.  1.
       -1   -1    0    0    0  501  0.00000000000E+00  0.00000000000E+00 -0.24353212572E+03  0.24353212577E+03  0.50400001928E-02 0. -1.
    10030    2    1    2    0    0  0.00000000000E+00  0.00000000000E+00  0.10038140245E+04  0.14908782760E+04  0.11023046031E+04 0.  0.
        1    1    3    3  502    0 -0.22545755691E+03  0.36107920872E+03  0.28413369427E+02  0.42663406396E+03  0.50400001928E-02 0. -1.
       -1    1    3    3    0  502  0.22545755691E+03 -0.36107920872E+03  0.97540065509E+03  0.10642442121E+04  0.50400001928E-02 0.  1.
</event>
<event>
 5   0  0.8150924E-04  0.1100580E+04  0.7818609E-02  0.9204627E-01
        1   -1    0    0  501    0  0.00000000000E+00  0.00000000000E+00  0.61745974017E+03  0.61745974019E+03  0.50400001928E-02 0.  1.
       -1   -1    0    0    0  501  0.00000000000E+00  0.00000000000E+00 -0.49042689464E+03  0.49042689466E+03  0.50400001928E-02 0. -1.
    10030    2    1    2    0    0  0.00000000000E+00  0.00000000000E+00  0.12703284553E+03  0.11078866348E+04  0.11005795981E+04 0.  0.
        3    1    3    3  502    0  0.32149407707E+03 -0.28989213743E+03  0.40551158980E+03  0.59315727476E+03  0.10100000352E+00 0.  1.
       -3    1    3    3    0  502 -0.32149407707E+03  0.28989213743E+03 -0.27847874427E+03  0.51472936009E+03  0.10100000352E+00 0. -1.
</event>
<event>
 5   0  0.8341767E-04  0.1099855E+04  0.7818609E-02  0.9205333E-01
        1   -1    0    0  501    0  0.00000000000E+00  0.00000000000E+00  0.12673789783E+04  0.12673789783E+04  0.50400001928E-02 0. -1.
       -1   -1    0    0    0  501  0.00000000000E+00  0.00000000000E+00 -0.23861860544E+03  0.23861860549E+03  0.50400001928E-02 0.  1.
    10030    2    1    2    0    0  0.00000000000E+00  0.00000000000E+00  0.10287603729E+04  0.15059975838E+04  0.10998549076E+04 0.  0.
        2    1    3    3  502    0  0.34749637718E+03  0.30954671526E+03  0.91557213333E+03  0.10270565868E+04  0.25500000920E-02 0. -1.
       -2    1    3    3    0  502 -0.34749637718E+03 -0.30954671526E+03  0.11318823954E+03  0.47894099705E+03  0.25500000920E-02 0.  1.
</event>
<event>
 5   0  0.8305271E-04  0.1096439E+04  0.7818609E-02  0.9208670E-01
        1   -1    0    0  501    0  0.00000000000E+00  0.00000000000E+00  0.60453176654E+03  0.60453176657E+03  0.50400001928E-02 0. -1.
       -1   -1    0    0    0  501  0.00000000000E+00  0.00000000000E+00 -0.49715248270E+03  0.49715248272E+03  0.50400001928E-02 0.  1.
    10030    2    1    2    0    0  0.00000000000E+00  0.00000000000E+00  0.10737928385E+03  0.11016842493E+04  0.10964387236E+04 0.  0.
        5    1    3    3  502    0 -0.37027178240E+03  0.35665020313E+03  0.24492046729E+03  0.56948106687E+03  0.46999998093E+01 0. -1.
       -5    1    3    3    0  502  0.37027178240E+03 -0.35665020313E+03 -0.13754118345E+03  0.53220318242E+03  0.46999998093E+01 0.  1.
</event>
<event>
 5   0  0.1372794E-03  0.1101262E+04  0.7818609E-02  0.9203963E-01
        2   -1    0    0  501    0  0.00000000000E+00  0.00000000000E+00  0.14400143142E+04  0.14400143142E+04  0.25500000920E-02 0. -1.
       -2   -1    0    0    0  501  0.00000000000E+00  0.00000000000E+00 -0.21054958330E+03  0.21054958332E+03  0.25500000920E-02 0.  1.
    10030    2    1    2    0    0  0.00000000000E+00  0.00000000000E+00  0.12294647309E+04  0.16505638975E+04  0.11012618468E+04 0.  0.
        4    1    3    3  502    0 -0.28470794712E+03  0.39694731635E+03  0.23388838225E+03  0.54160056810E+03  0.12699999809E+01 0.  1.
       -4    1    3    3    0  502  0.28470794712E+03 -0.39694731635E+03  0.99557634864E+03  0.11089633294E+04  0.12699999809E+01 0. -1.
</event>
<event>
 5   0  0.1425432E-03  0.1101170E+04  0.7818609E-02  0.9204052E-01
        2   -1    0    0  501    0  0.00000000000E+00  0.00000000000E+00  0.21868701883E+04  0.21868701883E+04  0.25500000920E-02 0. -1.
       -2   -1    0    0    0  501  0.00000000000E+00  0.00000000000E+00 -0.13861996740E+03  0.13861996743E+03  0.25500000920E-02 0.  1.
    10030    2    1    2    0    0  0.00000000000E+00  0.00000000000E+00  0.20482502209E+04  0.23254901557E+04  0.11011700582E+04 0.  0.
        1    1    3    3  502    0 -0.13380892225E+03  0.59623604025E+02  0.21449590077E+04  0.21499555685E+04  0.50400001928E-02 0. -1.
       -1    1    3    3    0  502  0.13380892225E+03 -0.59623604025E+02 -0.96708786820E+02  0.17553458720E+03  0.50400001928E-02 0.  1.
</event>
<event>
 5   0  0.7946038E-04  0.1096469E+04  0.7818609E-02  0.9208640E-01
       -1   -1    0    0    0  501  0.00000000000E+00  0.00000000000E+00  0.53272596008E+03  0.53272596011E+03  0.50400001928E-02 0. -1.
        1   -1    0    0  501    0  0.00000000000E+00  0.00000000000E+00 -0.56419496070E+03  0.56419496072E+03  0.50400001928E-02 0.  1.
    10030    2    1    2    0    0  0.00000000000E+00  0.00000000000E+00 -0.31469000613E+02  0.10969209208E+04  0.10964694289E+04 0.  0.
        4    1    3    3  502    0 -0.51505436553E+03  0.16782890786E+03 -0.10010277517E+03  0.55088085849E+03  0.12699999809E+01 0.  1.
       -4    1    3    3    0  502  0.51505436553E+03 -0.16782890786E+03  0.68633774556E+02  0.54604006233E+03  0.12699999809E+01 0. -1.
</event>
<event>
 5   0  0.1396936E-03  0.1103672E+04  0.7818609E-02  0.9201620E-01
       -2   -1    0    0    0  501  0.00000000000E+00  0.00000000000E+00  0.45660187426E+03  0.45660187427E+03  0.25500000920E-02 0.  1.
        2   -1    0    0  501    0  0.00000000000E+00  0.00000000000E+00 -0.66693319235E+03  0.66693319236E+03  0.25500000920E-02 0. -1.
    10030    2    1    2    0    0  0.00000000000E+00  0.00000000000E+00 -0.21033131809E+03  0.11235350666E+04  0.11036719542E+04 0.  0.
        2    1    3    3  502    0 -0.37527317817E+03 -0.19986763523E+03 -0.46327204199E+03  0.62880681832E+03  0.25500000920E-02 0. -1.
       -2    1    3    3    0  502  0.37527317817E+03  0.19986763523E+03  0.25294072390E+03  0.49472824831E+03  0.25500000920E-02 0.  1.
</event>
<event>
 5   0  0.8305271E-04  0.1100506E+04  0.7818609E-02  0.9204699E-01
       -1   -1    0    0    0  501  0.00000000000E+00  0.00000000000E+00  0.19972826260E+03  0.19972826266E+03  0.50400001928E-02 0. -1.
        1   -1    0    0  501    0  0.00000000000E+00  0.00000000000E+00 -0.15159522264E+04  0.15159522264E+04  0.50400001928E-02 0.  1.
    10030    2    1    2    0    0  0.00000000000E+00  0.00000000000E+00 -0.13162239638E+04  0.17156804891E+04  0.11005062552E+04 0.  0.
        5    1    3    3  502    0 -0.53925126880E+03  0.26196096539E+02 -0.82367552745E+03  0.98485614731E+03  0.46999998093E+01 0.  1.
       -5    1    3    3    0  502  0.53925126880E+03 -0.26196096539E+02 -0.49254843640E+03  0.73082434180E+03  0.46999998093E+01 0. -1.
</event>
<event>
 5   0  0.1396936E-03  0.1101427E+04  0.7818609E-02  0.9203802E-01
        2   -1    0    0  501    0  0.00000000000E+00  0.00000000000E+00  0.11899706848E+04  0.11899706848E+04  0.25500000920E-02 0. -1.
       -2   -1    0    0    0  501  0.00000000000E+00  0.00000000000E+00 -0.25486813673E+03  0.25486813674E+03  0.25500000920E-02 0.  1.
    10030    2    1    2    0    0  0.00000000000E+00  0.00000000000E+00  0.93510254807E+03  0.14448388215E+04  0.11014274578E+04 0.  0.
        2    1    3    3  502    0  0.98841752638E+02  0.23991592423E+03  0.11047564032E+04  0.11348198329E+04  0.25500000920E-02 0. -1.
       -2    1    3    3    0  502 -0.98841752638E+02 -0.23991592423E+03 -0.16965385511E+03  0.31001898865E+03  0.25500000920E-02 0.  1.
</event>
<event>
 5   0  0.7946038E-04  0.1098656E+04  0.7818609E-02  0.9206503E-01
       -1   -1    0    0    0  501  0.00000000000E+00  0.00000000000E+00  0.17419578987E+03  0.17419578994E+03  0.50400001928E-02 0.  1.
        1   -1    0    0  501    0  0.00000000000E+00  0.00000000000E+00 -0.17323117650E+04  0.17323117650E+04  0.50400001928E-02 0. -1.
    10030    2    1    2    0    0  0.00000000000E+00  0.00000000000E+00 -0.15581159751E+04  0.19065075549E+04  0.10986562998E+04 0.  0.
        4    1    3    3  502    0 -0.11188895512E+03 -0.43449145891E+03 -0.22905051214E+03  0.50375362644E+03  0.12699999809E+01 0.  1.
       -4    1    3    3    0  502  0.11188895512E+03  0.43449145891E+03 -0.13290654630E+04  0.14027539285E+04  0.12699999809E+01 0. -1.
</event>
<event>
 5   0  0.8341767E-04  0.1084710E+04  0.7818609E-02  0.9220224E-01
       -1   -1    0    0    0  501  0.00000000000E+00  0.00000000000E+00  0.27905986099E+03  0.27905986104E+03  0.50400001928E-02 0. -1.
        1   -1    0    0  501    0  0.00000000000E+00  0.00000000000E+00 -0.10540713213E+04  0.10540713213E+04  0.50400001928E-02 0.  1.
    10030    2    1    2    0    0  0.00000000000E+00  0.00000000000E+00 -0.77501146027E+03  0.13331311823E+04  0.10847100929E+04 0.  0.
        2    1    3    3  502    0 -0.41422845880E+02  0.34621340496E+03  0.12304761791E+03  0.36975706919E+03  0.25500000920E-02 0. -1.
       -2    1    3    3    0  502  0.41422845880E+02 -0.34621340496E+03 -0.89805907817E+03  0.96337411312E+03  0.25500000920E-02 0.  1.
</event>
<event>
 5   0  0.8341767E-04  0.1099967E+04  0.7818609E-02  0.9205224E-01
       -1   -1    0    0    0  501  0.00000000000E+00  0.00000000000E+00  0.10333324608E+04  0.10333324608E+04  0.50400001928E-02 0. -1.
        1   -1    0    0  501    0  0.00000000000E+00  0.00000000000E+00 -0.29272458916E+03  0.29272458920E+03  0.50400001928E-02 0.  1.
    10030    2    1    2    0    0  0.00000000000E+00  0.00000000000E+00  0.74060787162E+03  0.13260570500E+04  0.10999669451E+04 0.  0.
        2    1    3    3  502    0  0.38805400612E+03 -0.37989304829E+03  0.47524280603E+03  0.72163728042E+03  0.25500000920E-02 0. -1.
       -2    1    3    3    0  502 -0.38805400612E+03  0.37989304829E+03  0.26536506558E+03  0.60441976956E+03  0.25500000920E-02 0.  1.
</event>
<event>
 5   0  0.1396936E-03  0.1102546E+04  0.7818609E-02  0.9202713E-01
        2   -1    0    0  501    0  0.00000000000E+00  0.00000000000E+00  0.34859998458E+03  0.34859998459E+03  0.25500000920E-02 0. -1.
       -2   -1    0    0    0  501  0.00000000000E+00  0.00000000000E+00 -0.87177909323E+03  0.87177909324E+03  0.25500000920E-02 0.  1.
    10030    2    1    2    0    0  0.00000000000E+00  0.00000000000E+00 -0.52317910865E+03  0.12203790778E+04  0.11025464679E+04 0.  0.
        2    1    3    3  502    0  0.25622473956E+03 -0.22574179481E+03  0.21743427804E+03  0.40483100222E+03  0.25500000920E-02 0. -1.
       -2    1    3    3    0  502 -0.25622473956E+03  0.22574179481E+03 -0.74061338669E+03  0.81554807561E+03  0.25500000920E-02 0.  1.
</event>
<event>
 5   0  0.8305271E-04  0.1102504E+04  0.7818609E-02  0.9202755E-01
        1   -1    0    0  501    0  0.00000000000E+00  0.00000000000E+00  0.16174067897E+04  0.16174067897E+04  0.50400001928E-02 0. -1.
       -1   -1    0    0    0  501  0.00000000000E+00  0.00000000000E+00 -0.18788031080E+03  0.18788031086E+03  0.50400001928E-02 0.  1.
    10030    2    1    2    0    0  0.00000000000E+00  0.00000000000E+00  0.14295264789E+04  0.18052871006E+04  0.11025042230E+04 0.  0.
        5    1    3    3  502    0 -0.31384612092E+03 -0.36623537722E+02  0.14543655669E+04  0.14883017044E+04  0.46999998093E+01 0. -1.
       -5    1    3    3    0  502  0.31384612092E+03  0.36623537722E+02 -0.24839087947E+02  0.31698539622E+03  0.46999998093E+01 0.  1.
</event>
<event>
 5   0  0.1402775E-03  0.1087408E+04  0.7818609E-02  0.9217553E-01
       -2   -1    0    0    0  501  0.00000000000E+00  0.00000000000E+00  0.72451207540E+03  0.72451207540E+03  0.25500000920E-02 0. -1.
        2   -1    0    0  501    0  0.00000000000E+00  0.00000000000E+00 -0.40801785089E+03  0.40801785090E+03  0.25500000920E-02 0.  1.
    10030    2    1    2    0    0  0.00000000000E+00  0.00000000000E+00  0.31649422451E+03  0.11325299263E+04  0.10874076696E+04 0.  0.
        5    1    3    3  502    0 -0.30122312635E+03 -0.38314157730E+03  0.40919977508E+03  0.63639562069E+03  0.46999998093E+01 0. -1.
       -5    1    3    3    0  502  0.30122312635E+03  0.38314157730E+03 -0.92705550574E+02  0.49613430562E+03  0.46999998093E+01 0.  1.
</event>
<event>
 5   0  0.1402775E-03  0.1072680E+04  0.7818609E-02  0.9232236E-01
       -2   -1    0    0    0  501  0.00000000000E+00  0.00000000000E+00  0.10321645357E+04  0.10321645357E+04  0.25500000920E-02 0. -1.
        2   -1    0    0  501    0  0.00000000000E+00  0.00000000000E+00 -0.27869651672E+03  0.27869651673E+03  0.25500000920E-02 0.  1.
    10030    2    1    2    0    0  0.00000000000E+00  0.00000000000E+00  0.75346801895E+03  0.13108610524E+04  0.10726801215E+04 0.  0.
        5    1    3    3  502    0 -0.23242916699E+03  0.44094207914E+03  0.13482713239E+03  0.51638520549E+03  0.46999998093E+01 0.  1.
       -5    1    3    3    0  502  0.23242916699E+03 -0.44094207914E+03  0.61864088656E+03  0.79447584692E+03  0.46999998093E+01 0. -1.
</event>
<event>
 5   0  0.1372794E-03  0.1105664E+04  0.7818609E-02  0.9199689E-01
        2   -1    0    0  501    0  0.00000000000E+00  0.00000000000E+00  0.26717935643E+04  0.26717935644E+04  0.25500000920E-02 0.  1.
       -2   -1    0    0    0  501  0.00000000000E+00  0.00000000000E+00 -0.11438872874E+03  0.11438872877E+03  0.25500000920E-02 0. -1.
    10030    2    1    2    0    0  0.00000000000E+00  0.00000000000E+00  0.25574048356E+04  0.27861822931E+04  0.11056637270E+04 0.  0.
        4    1    3    3  502    0 -0.31598211168E+03  0.45305617892E+03  0.12214131805E+04  0.13405060114E+04  0.12699999809E+01 0.  1.
       -4    1    3    3    0  502  0.31598211168E+03 -0.45305617892E+03  0.13359916551E+04  0.14456762818E+04  0.12699999809E+01 0. -1.
</event>
<event>
 5   0  0.7946038E-04  0.1048327E+04  0.7818609E-02  0.9257073E-01
        1   -1    0    0  501    0  0.00000000000E+00  0.00000000000E+00  0.76353325812E+03  0.76353325814E+03  0.50400001928E-02 0.  1.
       -1   -1    0    0    0  501  0.00000000000E+00  0.00000000000E+00 -0.35983690777E+03  0.35983690780E+03  0.50400001928E-02 0. -1.
    10030    2    1    2    0    0  0.00000000000E+00  0.00000000000E+00  0.40369635035E+03  0.11233701659E+04  0.10483271371E+04 0.  0.
        4    1    3    3  502    0  0.37936798964E+03 -0.20317513897E+03  0.52251072664E+03  0.67691896192E+03  0.12699999809E+01 0.  1.
       -4    1    3    3    0  502 -0.37936798964E+03  0.20317513897E+03 -0.11881437628E+03  0.44645120402E+03  0.12699999809E+01 0. -1.
</event>
<event>
 5   0  0.8341767E-04  0.1093801E+04  0.7818609E-02  0.9211255E-01
        1   -1    0    0  501    0  0.00000000000E+00  0.00000000000E+00  0.94370153489E+03  0.94370153490E+03  0.50400001928E-02 0. -1.
       -1   -1    0    0    0  501  0.00000000000E+00  0.00000000000E+00 -0.31694379455E+03  0.31694379459E+03  0.50400001928E-02 0.  1.
    10030    2    1    2    0    0  0.00000000000E+00  0.00000000000E+00  0.62675774034E+03  0.12606453295E+04  0.10938013447E+04 0.  0.
        2    1    3    3  502    0 -0.29939230385E+03 -0.16958708637E+03  0.80331484217E+03  0.87390518200E+03  0.25500000920E-02 0. -1.
       -2    1    3    3    0  502  0.29939230385E+03  0.16958708637E+03 -0.17655710183E+03  0.38674014749E+03  0.25500000920E-02 0.  1.
</event>
<event>
 5   0  0.1396936E-03  0.1113824E+04  0.7818609E-02  0.9191822E-01
       -2   -1    0    0    0  501  0.00000000000E+00  0.00000000000E+00  0.44253354002E+03  0.44253354003E+03  0.25500000920E-02 0. -1.
        2   -1    0    0  501    0  0.00000000000E+00  0.00000000000E+00 -0.70085266212E+03  0.70085266212E+03  0.25500000920E-02 0.  1.
    10030    2    1    2    0    0  0.00000000000E+00  0.00000000000E+00 -0.25831912210E+03  0.11433862022E+04  0.11138237017E+04 0.  0.
        2    1    3    3  502    0  0.14170057330E+03 -0.35359532331E+03 -0.54619587001E+03  0.66591188123E+03  0.25500000920E-02 0.  1.
       -2    1    3    3    0  502 -0.14170057330E+03  0.35359532331E+03  0.28787674791E+03  0.47747432092E+03  0.25500000920E-02 0. -1.
</event>
<event>
 5   0  0.8341767E-04  0.1094243E+04  0.7818609E-02  0.9210821E-01
       -1   -1    0    0    0  501  0.00000000000E+00  0.00000000000E+00  0.21520979460E+03  0.21520979466E+03  0.50400001928E-02 0.  1.
        1   -1    0    0  501    0  0.00000000000E+00  0.00000000000E+00 -0.13909317078E+04  0.13909317078E+04  0.50400001928E-02 0. -1.
    10030    2    1    2    0    0  0.00000000000E+00  0.00000000000E+00 -0.11757219132E+04  0.16061415025E+04  0.10942433499E+04 0.  0.
        2    1    3    3  502    0  0.54336548067E+03  0.19354331079E+02 -0.49831862420E+03  0.73752429583E+03  0.25500000920E-02 0.  1.
       -2    1    3    3    0  502 -0.54336548067E+03 -0.19354331079E+02 -0.67740328902E+03  0.86861720665E+03  0.25500000920E-02 0. -1.
</event>
<event>
 5   0  0.1429680E-03  0.1101893E+04  0.7818609E-02  0.9203349E-01
       -2   -1    0    0    0  501  0.00000000000E+00  0.00000000000E+00  0.55419885048E+03  0.55419885048E+03  0.25500000920E-02 0. -1.
        2   -1    0    0  501    0  0.00000000000E+00  0.00000000000E+00 -0.54771322603E+03  0.54771322604E+03  0.25500000920E-02 0.  1.
    10030    2    1    2    0    0  0.00000000000E+00  0.00000000000E+00  0.64856244435E+01  0.11019120765E+04  0.11018929898E+04 0.  0.
        3    1    3    3  502    0 -0.47547095892E+03 -0.25556368982E+03  0.11350168435E+03  0.55160499896E+03  0.10100000352E+00 0.  1.
       -3    1    3    3    0  502  0.47547095892E+03  0.25556368982E+03 -0.10701605990E+03  0.55030707756E+03  0.10100000352E+00 0. -1.
</event>
<event>
 5   0  0.1402775E-03  0.1107393E+04  0.7818609E-02  0.9198016E-01
       -2   -1    0    0    0  501  0.00000000000E+00  0.00000000000E+00  0.82994405983E+03  0.82994405984E+03  0.25500000920E-02 0.  1.
        2   -1    0    0  501    0  0.00000000000E+00  0.00000000000E+00 -0.36939795381E+03  0.36939795382E+03  0.25500000920E-02 0. -1.
    10030    2    1    2    0    0  0.00000000000E+00  0.00000000000E+00  0.46054610603E+03  0.11993420137E+04  0.11073926810E+04 0.  0.
        5    1    3    3  502    0 -0.51043923231E+03  0.18762261646E+03  0.34286201390E+03  0.64290505260E+03  0.46999998093E+01 0.  1.
       -5    1    3    3    0  502  0.51043923231E+03 -0.18762261646E+03  0.11768409213E+03  0.55643696105E+03  0.46999998093E+01 0. -1.
</event>
<event>
 5   0  0.8305271E-04  0.1096447E+04  0.7818609E-02  0.9208662E-01
       -1   -1    0    0    0  501  0.00000000000E+00  0.00000000000E+00  0.25356277577E+03  0.25356277582E+03  0.50400001928E-02 0.  1.
        1   -1    0    0  501    0  0.00000000000E+00  0.00000000000E+00 -0.11853045578E+04  0.11853045578E+04  0.50400001928E-02 0. -1.
    10030    2    1    2    0    0  0.00000000000E+00  0.00000000000E+00 -0.93174178200E+03  0.14388673336E+04  0.10964471968E+04 0.  0.
        5    1    3    3  502    0 -0.27538091604E+02  0.20236889922E+03  0.20174732417E+03  0.28711598818E+03  0.46999998093E+01 0.  1.
       -5    1    3    3    0  502  0.27538091604E+02 -0.20236889922E+03 -0.11334891062E+04  0.11517513454E+04  0.46999998093E+01 0. -1.
</event>
<event>
 5   0  0.8150924E-04  0.1068223E+04  0.7818609E-02  0.9236729E-01
       -1   -1    0    0    0  501  0.00000000000E+00  0.00000000000E+00  0.14237639700E+04  0.14237639700E+04  0.50400001928E-02 0. -1.
        1   -1    0    0  501    0  0.00000000000E+00  0.00000000000E+00 -0.20036691101E+03  0.20036691107E+03  0.50400001928E-02 0.  1.
    10030    2    1    2    0    0  0.00000000000E+00  0.00000000000E+00  0.12233970590E+04  0.16241308810E+04  0.10682231765E+04 0.  0.
        3    1    3    3  502    0  0.17694480547E+03 -0.14550781485E+03 -0.12187586471E+03  0.25949128110E+03  0.10100000352E+00 0.  1.
       -3    1    3    3    0  502 -0.17694480547E+03  0.14550781485E+03  0.13452729237E+04  0.13646395999E+04  0.10100000352E+00 0. -1.
</event>
<event>
 5   0  0.1429680E-03  0.1123911E+04  0.7818609E-02  0.9182195E-01
       -2   -1    0    0    0  501  0.00000000000E+00  0.00000000000E+00  0.17705495707E+04  0.17705495707E+04  0.25500000920E-02 0.  1.
        2   -1    0    0  501    0  0.00000000000E+00  0.00000000000E+00 -0.17835937858E+03  0.17835937860E+03  0.25500000920E-02 0. -1.
    10030    2    1    2    0    0  0.00000000000E+00  0.00000000000E+00  0.15921901921E+04  0.19489089493E+04  0.11239112442E+04 0.  0.
        3    1    3    3  502    0 -0.21511347652E+02 -0.38523958540E+03  0.87633833782E+02  0.39566649500E+03  0.10100000352E+00 0. -1.
       -3    1    3    3    0  502  0.21511347652E+02  0.38523958540E+03  0.15045563583E+04  0.15532424543E+04  0.10100000352E+00 0.  1.
</event>
<event>
 5   0  0.1425432E-03  0.1098971E+04  0.7818609E-02  0.9206196E-01
        2   -1    0    0  501    0  0.00000000000E+00  0.00000000000E+00  0.10384523425E+04  0.10384523425E+04  0.25500000920E-02 0. -1.
       -2   -1    0    0    0  501  0.00000000000E+00  0.00000000000E+00 -0.29075397945E+03  0.29075397946E+03  0.25500000920E-02 0.  1.
    10030    2    1    2    0    0  0.00000000000E+00  0.00000000000E+00  0.74769836306E+03  0.13292063220E+04  0.10989707022E+04 0.  0.
        1    1    3    3  502    0 -0.10189194399E+03 -0.51560893156E+03  0.56774550349E+03  0.77367273140E+03  0.50400001928E-02 0. -1.
       -1    1    3    3    0  502  0.10189194399E+03  0.51560893156E+03  0.17995285958E+03  0.55553359057E+03  0.50400001928E-02 0.  1.
</event>
<event>
 5   0  0.1425432E-03  0.1098657E+04  0.7818609E-02  0.9206502E-01
       -2   -1    0    0    0  501  0.00000000000E+00  0.00000000000E+00  0.36484163375E+03  0.36484163376E+03  0.25500000920E-02 0.  1.
        2   -1    0    0  501    0  0.00000000000E+00  0.00000000000E+00 -0.82710332668E+03  0.82710332669E+03  0.25500000920E-02 0. -1.
    10030    2    1    2    0    0  0.00000000000E+00  0.00000000000E+00 -0.46226169293E+03  0.11919449604E+04  0.10986568691E+04 0.  0.
        1    1    3    3  502    0 -0.27889819433E+03 -0.45974601044E+03 -0.35296559269E+03  0.64322259488E+03  0.50400001928E-02 0. -1.
       -1    1    3    3    0  502  0.27889819433E+03  0.45974601044E+03 -0.10929610025E+03  0.54872236557E+03  0.50400001928E-02 0.  1.
</event>
<event>
 5   0  0.1396936E-03  0.1096825E+04  0.7818609E-02  0.9208292E-01
       -2   -1    0    0    0  501  0.00000000000E+00  0.00000000000E+00  0.21863802872E+03  0.21863802873E+03  0.25500000920E-02 0. -1.
        2   -1    0    0  501    0  0.00000000000E+00  0.00000000000E+00 -0.13755908348E+04  0.13755908348E+04  0.25500000920E-02 0.  1.
    10030    2    1    2    0    0  0.00000000000E+00  0.00000000000E+00 -0.11569528061E+04  0.15942288635E+04  0.10968253616E+04 0.  0.
        2    1    3    3  502    0  0.38156762818E+03 -0.38524864157E+03 -0.69785858117E+03  0.88375164499E+03  0.25500000920E-02 0. -1.
       -2    1    3    3    0  502 -0.38156762818E+03  0.38524864157E+03 -0.45909422490E+03  0.71047721853E+03  0.25500000920E-02 0.  1.
</event>
<event>
 5   0  0.8009636E-04  0.1078802E+04  0.7818609E-02  0.9226103E-01
       -1   -1    0    0    0  501  0.00000000000E+00  0.00000000000E+00  0.15271053665E+03  0.15271053673E+03  0.50400001928E-02 0. -1.
        1   -1    0    0  501    0  0.00000000000E+00  0.00000000000E+00 -0.19052609495E+04  0.19052609496E+04  0.50400001928E-02 0.  1.
    10030    2    1    2    0    0  0.00000000000E+00  0.00000000000E+00 -0.17525504129E+04  0.20579714863E+04  0.10788019691E+04 0.  0.
        1    1    3    3  502    0 -0.11279506480E+03 -0.47095287262E+03 -0.13294527441E+04  0.14149077474E+04  0.50400001928E-02 0.  1.
       -1    1    3    3    0  502  0.11279506480E+03  0.47095287262E+03 -0.42309766878E+03  0.64306373886E+03  0.50400001928E-02 0. -1.
</event>
<event>
 5   0  0.1425432E-03  0.1098791E+04  0.7818609E-02  0.9206371E-01
        2   -1    0    0  501    0  0.00000000000E+00  0.00000000000E+00  0.12881202599E+04  0.12881202599E+04  0.25500000920E-02 0.  1.
       -2   -1    0    0    0  501  0.00000000000E+00  0.00000000000E+00 -0.23432244805E+03  0.23432244807E+03  0.25500000920E-02 0. -1.
    10030    2    1    2    0    0  0.00000000000E+00  0.00000000000E+00  0.10537978118E+04  0.15224427080E+04  0.10987911407E+04 0.  0.
        1    1    3    3  502    0  0.28906726530E+03 -0.44123163251E+03  0.73970895388E+03  0.90852329297E+03  0.50400001928E-02 0.  1.
       -1    1    3    3    0  502 -0.28906726530E+03  0.44123163251E+03  0.31408885797E+03  0.61391941500E+03  0.50400001928E-02 0. -1.
</event>
<event>
 5   0  0.1372794E-03  0.1097062E+04  0.7818609E-02  0.9208060E-01
       -2   -1    0    0    0  501  0.00000000000E+00  0.00000000000E+00  0.55203798174E+03  0.55203798175E+03  0.25500000920E-02 0.  1.
        2   -1    0    0  501    0  0.00000000000E+00  0.00000000000E+00 -0.54504597063E+03  0.54504597064E+03  0.25500000920E-02 0. -1.
    10030    2    1    2    0    0  0.00000000000E+00  0.00000000000E+00  0.69920111136E+01  0.10970839524E+04  0.10970616712E+04 0.  0.
        4    1    3    3  502    0 -0.21490614528E+03 -0.31317555000E+03  0.39925761343E+03  0.55106427137E+03  0.12699999809E+01 0.  1.
       -4    1    3    3    0  502  0.21490614528E+03  0.31317555000E+03 -0.39226560231E+03  0.54601968102E+03  0.12699999809E+01 0. -1.
</event>
<event>
 5   0  0.1429680E-03  0.1098561E+04  0.7818609E-02  0.9206596E-01
        2   -1    0    0  501    0  0.00000000000E+00  0.00000000000E+00  0.97532265984E+03  0.97532265984E+03  0.25500000920E-02 0. -1.
       -2   -1    0    0    0  501  0.00000000000E+00  0.00000000000E+00 -0.30934264150E+03  0.30934264151E+03  0.25500000920E-02 0.  1.
    10030    2    1    2    0    0  0.00000000000E+00  0.00000000000E+00  0.66598001834E+03  0.12846653013E+04  0.10985606727E+04 0.  0.
        3    1    3    3  502    0  0.21447815929E+03  0.35769970721E+03  0.75097583624E+03  0.85901960290E+03  0.10100000352E+00 0. -1.
       -3    1    3    3    0  502 -0.21447815929E+03 -0.35769970721E+03 -0.84995817898E+02  0.42564569845E+03  0.10100000352E+00 0.  1.
</event>
<event>
 5   0  0.8150924E-04  0.1100894E+04  0.7818609E-02  0.9204321E-01
       -1   -1    0    0    0  501  0.00000000000E+00  0.00000000000E+00  0.50578991139E+03  0.50578991141E+03  0.50400001928E-02 0. -1.
        1   -1    0    0  501    0  0.00000000000E+00  0.00000000000E+00 -0.59904730515E+03  0.59904730517E+03  0.50400001928E-02 0.  1.
    10030    2    1    2    0    0  0.00000000000E+00  0.00000000000E+00 -0.93257393762E+02  0.11048372166E+04  0.11008943336E+04 0.  0.
        3    1    3    3  502    0  0.49276342548E+03 -0.64534288013E+02  0.19088664589E+03  0.53237035004E+03  0.10100000352E+00 0. -1.
       -3    1    3    3    0  502 -0.49276342548E+03  0.64534288013E+02 -0.28414403965E+03  0.57246686655E+03  0.10100000352E+00 0.  1.
</event>
<event>
 5   0  0.5409500E-04  0.1104098E+04  0.7818609E-02  0.9201207E-01
       -4   -1    0    0    0  501  0.00000000000E+00  0.00000000000E+00  0.63733682870E+03  0.63733809404E+03  0.12699999809E+01 0. -1.
        4   -1    0    0  501    0  0.00000000000E+00  0.00000000000E+00 -0.47817130003E+03  0.47817298655E+03  0.12699999809E+01 0.  1.
    10030    2    1    2    0    0  0.00000000000E+00  0.00000000000E+00  0.15916552867E+03  0.11155110806E+04  0.11040975072E+04 0.  0.
        3    1    3    3  502    0 -0.15411481441E+03 -0.52541608870E+03  0.15062589810E+03  0.56789225533E+03  0.10100000352E+00 0. -1.
       -3    1    3    3    0  502  0.15411481441E+03  0.52541608870E+03  0.85396305685E+01  0.54761882526E+03  0.10100000352E+00 0.  1.
</event>
<event>
 5   0  0.1425432E-03  0.1103662E+04  0.7818609E-02  0.9201630E-01
       -2   -1    0    0    0  501  0.00000000000E+00  0.00000000000E+00  0.19052891654E+03  0.19052891655E+03  0.25500000920E-02 0. -1.
        2   -1    0    0  501    0  0.00000000000E+00  0.00000000000E+00 -0.15982741123E+04  0.15982741123E+04  0.25500000920E-02 0.  1.
    10030    2    1    2    0    0  0.00000000000E+00  0.00000000000E+00 -0.14077451958E+04  0.17888030289E+04  0.11036619681E+04 0.  0.
        1    1    3    3  502    0  0.37105157166E+02 -0.17358120161E+02  0.18806113339E+03  0.19247100286E+03  0.50400001928E-02 0. -1.
       -1    1    3    3    0  502 -0.37105157166E+02  0.17358120161E+02 -0.15958063292E+04  0.15963320260E+04  0.50400001928E-02 0.  1.
</event>
<event>
 5   0  0.1372794E-03  0.1099866E+04  0.7818609E-02  0.9205323E-01
       -2   -1    0    0    0  501  0.00000000000E+00  0.00000000000E+00  0.26897632979E+03  0.26897632980E+03  0.25500000920E-02 0. -1.
        2   -1    0    0  501    0  0.00000000000E+00  0.00000000000E+00 -0.11243594096E+04  0.11243594096E+04  0.25500000920E-02 0.  1.
    10030    2    1    2    0    0  0.00000000000E+00  0.00000000000E+00 -0.85538307976E+03  0.13933357394E+04  0.10998655688E+04 0.  0.
        4    1    3    3  502    0 -0.28820980651E+03  0.61303746440E+02 -0.10159144985E+04  0.10577839681E+04  0.12699999809E+01 0.  1.
       -4    1    3    3    0  502  0.28820980651E+03 -0.61303746440E+02  0.16053141877E+03  0.33555177128E+03  0.12699999809E+01 0. -1.
</event>
<event>
 5   0  0.1429680E-03  0.1088892E+04  0.7818609E-02  0.9216087E-01
       -2   -1    0    0    0  501  0.00000000000E+00  0.00000000000E+00  0.44811839574E+03  0.44811839575E+03  0.25500000920E-02 0.  1.
        2   -1    0    0  501    0  0.00000000000E+00  0.00000000000E+00 -0.66147982661E+03  0.66147982662E+03  0.25500000920E-02 0. -1.
    10030    2    1    2    0    0  0.00000000000E+00  0.00000000000E+00 -0.21336143088E+03  0.11095982224E+04  0.10888916911E+04 0.  0.
        3    1    3    3  502    0  0.10855044026E+03 -0.45171543444E+03  0.18260366070E+03  0.49917345572E+03  0.10100000352E+00 0.  1.
       -3    1    3    3    0  502 -0.10855044026E+03  0.45171543444E+03 -0.39596509157E+03  0.61042476665E+03  0.10100000352E+00 0. -1.
</event>
<event>
 5   0  0.8009636E-04  0.1098493E+04  0.7818609E-02  0.9206662E-01
        1   -1    0    0  501    0  0.00000000000E+00  0.00000000000E+00  0.28130834018E+03  0.28130834022E+03  0.50400001928E-02 0.  1.
       -1   -1    0    0    0  501  0.00000000000E+00  0.00000000000E+00 -0.10723874496E+04  0.10723874496E+04  0.50400001928E-02 0. -1.
    10030    2    1    2    0    0  0.00000000000E+00  0.00000000000E+00 -0.79107910942E+03  0.13536957898E+04  0.10984926645E+04 0.  0.
        1    1    3    3  502    0  0.51259511558E+03 -0.89641387704E+02 -0.17897965043E+03  0.55029360000E+03  0.50400001928E-02 0.  1.
       -1    1    3    3    0  502 -0.51259511558E+03  0.89641387704E+02 -0.61209945899E+03  0.80340218983E+03  0.50400001928E-02 0. -1.
</event>
<event>
 5   0  0.1396936E-03  0.1097869E+04  0.7818609E-02  0.9207271E-01
        2   -1    0    0  501    0  0.00000000000E+00  0.00000000000E+00  0.90381844318E+03  0.90381844318E+03  0.25500000920E-02 0. -1.
       -2   -1    0    0    0  501  0.00000000000E+00  0.00000000000E+00 -0.33339577092E+03  0.33339577093E+03  0.25500000920E-02 0.  1.
    10030    2    1    2    0    0  0.00000000000E+00  0.00000000000E+00  0.57042267226E+03  0.12372142141E+04  0.10978692939E+04 0.  0.
        2    1    3    3  502    0 -0.33201387987E+02  0.51617039694E+03  0.78044269045E+02  0.52309188369E+03  0.25500000920E-02 0. -1.
       -2    1    3    3    0  502  0.33201387987E+02 -0.51617039694E+03  0.49237840322E+03  0.71412233042E+03  0.25500000920E-02 0.  1.
</event>
<event>
 5   0  0.8009636E-04  0.1103824E+04  0.7818609E-02  0.9201473E-01
       -1   -1    0    0    0  501  0.00000000000E+00  0.00000000000E+00  0.26008104692E+03  0.26008104697E+03  0.50400001928E-02 0.  1.
        1   -1    0    0  501    0  0.00000000000E+00  0.00000000000E+00 -0.11711989980E+04  0.11711989980E+04  0.50400001928E-02 0. -1.
    10030    2    1    2    0    0  0.00000000000E+00  0.00000000000E+00 -0.91111795107E+03  0.14312800450E+04  0.11038236482E+04 0.  0.
        1    1    3    3  502    0 -0.72945845342E+00  0.23529939187E+03  0.19178345968E+03  0.30355762444E+03  0.50400001928E-02 0.  1.
       -1    1    3    3    0  502  0.72945845342E+00 -0.23529939187E+03 -0.11029014107E+04  0.11277224205E+04  0.50400001928E-02 0. -1.
</event>
<event>
 5   0  0.8341767E-04  0.1041681E+04  0.7818609E-02  0.9263975E-01
        1   -1    0    0  501    0  0.00000000000E+00  0.00000000000E+00  0.38652325696E+03  0.38652325700E+03  0.50400001928E-02 0.  1.
       -1   -1    0    0    0  501  0.00000000000E+00  0.00000000000E+00 -0.70183321568E+03  0.70183321570E+03  0.50400001928E-02 0. -1.
    10030    2    1    2    0    0  0.00000000000E+00  0.00000000000E+00 -0.31530995872E+03  0.10883564727E+04  0.10416810652E+04 0.  0.
        2    1    3    3  502    0 -0.58336210917E+02 -0.21331439169E+03 -0.65034440328E+03  0.68691628754E+03  0.25500000920E-02 0. -1.
       -2    1    3    3    0  502  0.58336210917E+02  0.21331439169E+03  0.33503444456E+03  0.40144018515E+03  0.25500000920E-02 0.  1.
</event>
<event>
 5   0  0.1402775E-03  0.1102331E+04  0.7818609E-02  0.9202923E-01
        2   -1    0    0  501    0  0.00000000000E+00  0.00000000000E+00  0.13002418891E+04  0.13002418891E+04  0.25500000920E-02 0.  1.
       -2   -1    0    0    0  501  0.00000000000E+00  0.00000000000E+00 -0.23363623565E+03  0.23363623567E+03  0.25500000920E-02 0. -1.
    10030    2    1    2    0    0  0.00000000000E+00  0.00000000000E+00  0.10666056535E+04  0.15338781248E+04  0.11023313847E+04 0.  0.
        5    1    3    3  502    0  0.23674215085E+03  0.31834612451E+03  0.10656627514E+04  0.11371236919E+04  0.46999998093E+01 0.  1.
       -5    1    3    3    0  502 -0.23674215085E+03 -0.31834612451E+03  0.94290210776E+00  0.39675443292E+03  0.46999998093E+01 0. -1.
</event>
<event>
 5   0  0.8009636E-04  0.1100762E+04  0.7818609E-02  0.9204450E-01
       -1   -1    0    0    0  501  0.00000000000E+00  0.00000000000E+00  0.21803674937E+03  0.21803674943E+03  0.50400001928E-02 0. -1.
        1   -1    0    0  501    0  0.00000000000E+00  0.00000000000E+00 -0.13893031393E+04  0.13893031393E+04  0.50400001928E-02 0.  1.
    10030    2    1    2    0    0  0.00000000000E+00  0.00000000000E+00 -0.11712663899E+04  0.16073398887E+04  0.11007618097E+04 0.  0.
        1    1    3    3  502    0  0.41981759856E+02  0.16132628606E+03 -0.13515537749E+04  0.13617952289E+04  0.50400001928E-02 0.  1.
       -1    1    3    3    0  502 -0.41981759856E+02 -0.16132628606E+03  0.18028738506E+03  0.24554465983E+03  0.50400001928E-02 0. -1.
</event>
<event>
 5   0  0.1372794E-03  0.1101020E+04  0.7818609E-02  0.9204198E-01
        2   -1    0    0  501    0  0.00000000000E+00  0.00000000000E+00  0.25820095101E+04  0.25820095101E+04  0.25500000920E-02 0.  1.
       -2   -1    0    0    0  501  0.00000000000E+00  0.00000000000E+00 -0.11737424986E+03  0.11737424989E+03  0.25500000920E-02 0. -1.
    10030    2    1    2    0    0  0.00000000000E+00  0.00000000000E+00  0.24646352602E+04  0.26993837600E+04  0.11010203076E+04 0.  0.
        4    1    3    3  502    0  0.32288695795E+03  0.28825700532E+03  0.39833310795E+03  0.58823376860E+03  0.12699999809E+01 0. -1.
       -4    1    3    3    0  502 -0.32288695795E+03 -0.28825700532E+03  0.20663021523E+04  0.21111499914E+04  0.12699999809E+01 0.  1.
</event>
<event>
 5   0  0.5409500E-04  0.1097547E+04  0.7818609E-02  0.9207586E-01
        3   -1    0    0  501    0  0.00000000000E+00  0.00000000000E+00  0.95210950231E+03  0.95210950767E+03  0.10100000352E+00 0. -1.
       -3   -1    0    0    0  501  0.00000000000E+00  0.00000000000E+00 -0.31630016147E+03  0.31630017759E+03  0.10100000352E+00 0.  1.
    10030    2    1    2    0    0  0.00000000000E+00  0.00000000000E+00  0.63580934085E+03  0.12684096853E+04  0.10975470886E+04 0.  0.
        2    1    3    3  502    0  0.38694796647E+03  0.19342882712E+03  0.70812140040E+03  0.82980681947E+03  0.25500000920E-02 0. -1.
       -2    1    3    3    0  502 -0.38694796647E+03 -0.19342882712E+03 -0.72312059557E+02  0.43860286579E+03  0.25500000920E-02 0.  1.
</event>
<event>
 5   0  0.1429680E-03  0.1090335E+04  0.7818609E-02  0.9214664E-01
       -2   -1    0    0    0  501  0.00000000000E+00  0.00000000000E+00  0.50509664171E+03  0.50509664172E+03  0.25500000920E-02 0. -1.
        2   -1    0    0  501    0  0.00000000000E+00  0.00000000000E+00 -0.58841703475E+03  0.58841703476E+03  0.25500000920E-02 0.  1.
    10030    2    1    2    0    0  0.00000000000E+00  0.00000000000E+00 -0.83320393041E+02  0.10935136765E+04  0.10903347526E+04 0.  0.
        3    1    3    3  502    0 -0.44248138512E+03 -0.14001019798E+03  0.24520665748E+03  0.52489898722E+03  0.10100000352E+00 0. -1.
       -3    1    3    3    0  502  0.44248138512E+03  0.14001019798E+03 -0.32852705052E+03  0.56861468926E+03  0.10100000352E+00 0.  1.
</event>
<event>
 5   0  0.1429680E-03  0.1100439E+04  0.7818609E-02  0.9204764E-01
        2   -1    0    0  501    0  0.00000000000E+00  0.00000000000E+00  0.30918890900E+03  0.30918890901E+03  0.25500000920E-02 0.  1.
       -2   -1    0    0    0  501  0.00000000000E+00  0.00000000000E+00 -0.97914739590E+03  0.97914739590E+03  0.25500000920E-02 0. -1.
    10030    2    1    2    0    0  0.00000000000E+00  0.00000000000E+00 -0.66995848690E+03  0.12883363049E+04  0.11004390307E+04 0.  0.
        3    1    3    3  502    0  0.49771404737E+03  0.19733799894E+03 -0.18652057733E+03  0.56696692562E+03  0.10100000352E+00 0.  1.
       -3    1    3    3    0  502 -0.49771404737E+03 -0.19733799894E+03 -0.48343790957E+03  0.72136937930E+03  0.10100000352E+00 0. -1.
</event>
<event>
 5   0  0.8150924E-04  0.1100090E+04  0.7818609E-02  0.9205104E-01
       -1   -1    0    0    0  501  0.00000000000E+00  0.00000000000E+00  0.29695500147E+03  0.29695500152E+03  0.50400001928E-02 0.  1.
        1   -1    0    0  501    0  0.00000000000E+00  0.00000000000E+00 -0.10188402160E+04  0.10188402160E+04  0.50400001928E-02 0. -1.
    10030    2    1    2    0    0  0.00000000000E+00  0.00000000000E+00 -0.72188521453E+03  0.13157952175E+04  0.11000903561E+04 0.  0.
        3    1    3    3  502    0  0.17889287521E+03 -0.33087637017E+03 -0.84096818944E+03  0.92125422061E+03  0.10100000352E+00 0. -1.
       -3    1    3    3    0  502 -0.17889287521E+03  0.33087637017E+03  0.11908297491E+03  0.39454099692E+03  0.10100000352E+00 0.  1.
</event>
<event>
 5   0  0.1396936E-03  0.1099011E+04  0.7818609E-02  0.9206157E-01
        2   -1    0    0  501    0  0.00000000000E+00  0.00000000000E+00  0.11529618624E+04  0.11529618624E+04  0.25500000920E-02 0. -1.
       -2   -1    0    0    0  501  0.00000000000E+00  0.00000000000E+00 -0.26189599705E+03  0.26189599706E+03  0.25500000920E-02 0.  1.
    10030    2    1    2    0    0  0.00000000000E+00  0.00000000000E+00  0.89106586539E+03  0.14148578595E+04  0.10990106397E+04 0.  0.
        2    1    3    3  502    0  0.30558522600E+03  0.45060508581E+03  0.34980751913E+03  0.64714185010E+03  0.25500000920E-02 0.  1.
       -2    1    3    3    0  502 -0.30558522600E+03 -0.45060508581E+03  0.54125834627E+03  0.76771600942E+03  0.25500000920E-02 0. -1.
</event>
<event>
 5   0  0.1372794E-03  0.1102208E+04  0.7818609E-02  0.9203043E-01
        2   -1    0    0  501    0  0.00000000000E+00  0.00000000000E+00  0.42864172008E+03  0.42864172008E+03  0.25500000920E-02 0.  1.
       -2   -1    0    0    0  501  0.00000000000E+00  0.00000000000E+00 -0.70855321987E+03  0.70855321987E+03  0.25500000920E-02 0. -1.
    10030    2    1    2    0    0  0.00000000000E+00  0.00000000000E+00 -0.27991149979E+03  0.11371949400E+04  0.11022077317E+04 0.  0.
        4    1    3    3  502    0  0.52787944230E+03  0.13502656238E+03 -0.54719927959E+02  0.54761734958E+03  0.12699999809E+01 0. -1.
       -4    1    3    3    0  502 -0.52787944230E+03 -0.13502656238E+03 -0.22519157183E+03  0.58957759038E+03  0.12699999809E+01 0.  1.
</event>
<event>
 5   0  0.1372794E-03  0.1095981E+04  0.7818609E-02  0.9209118E-01
       -2   -1    0    0    0  501  0.00000000000E+00  0.00000000000E+00  0.25959790433E+03  0.25959790434E+03  0.25500000920E-02 0. -1.
        2   -1    0    0  501    0  0.00000000000E+00  0.00000000000E+00 -0.11567651701E+04  0.11567651701E+04  0.25500000920E-02 0.  1.
    10030    2    1    2    0    0  0.00000000000E+00  0.00000000000E+00 -0.89716726573E+03  0.14163630744E+04  0.10959814122E+04 0.  0.
        4    1    3    3  502    0 -0.14903694233E+03 -0.45662017962E+03 -0.10769854009E+03  0.49225459577E+03  0.12699999809E+01 0. -1.
       -4    1    3    3    0  502  0.14903694233E+03  0.45662017962E+03 -0.78946872564E+03  0.92410847864E+03  0.12699999809E+01 0.  1.
</event>
<event>
 5   0  0.7946038E-04  0.1101950E+04  0.7818609E-02  0.9203293E-01
       -1   -1    0    0    0  501  0.00000000000E+00  0.00000000000E+00  0.39296631374E+03  0.39296631377E+03  0.50400001928E-02 0. -1.
        1   -1    0    0  501    0  0.00000000000E+00  0.00000000000E+00 -0.77251832400E+03  0.77251832401E+03  0.50400001928E-02 0.  1.
    10030    2    1    2    0    0  0.00000000000E+00  0.00000000000E+00 -0.37955201026E+03  0.11654846378E+04  0.11019504129E+04 0.  0.
        4    1    3    3  502    0  0.49004988631E+03  0.19605751116E+03 -0.35695470052E+03  0.63718577345E+03  0.12699999809E+01 0.  1.
       -4    1    3    3    0  502 -0.49004988631E+03 -0.19605751116E+03 -0.22597309736E+02  0.52829886434E+03  0.12699999809E+01 0. -1.
</event>
<event>
 5   0  0.8150924E-04  0.1095692E+04  0.7818609E-02  0.9209401E-01
       -1   -1    0    0    0  501  0.00000000000E+00  0.00000000000E+00  0.44061996023E+03  0.44061996026E+03  0.50400001928E-02 0. -1.
        1   -1    0    0  501    0  0.00000000000E+00  0.00000000000E+00 -0.68116522053E+03  0.68116522055E+03  0.50400001928E-02 0.  1.
    10030    2    1    2    0    0  0.00000000000E+00  0.00000000000E+00 -0.24054526030E+03  0.11217851808E+04  0.10956915486E+04 0.  0.
        3    1    3    3  502    0  0.27835618108E+03  0.12449112948E+02 -0.60320274097E+03  0.66444766601E+03  0.10100000352E+00 0.  1.
       -3    1    3    3    0  502 -0.27835618108E+03 -0.12449112948E+02  0.36265748067E+03  0.45733751480E+03  0.10100000352E+00 0. -1.
</event>
<event>
 5   0  0.8009636E-04  0.1098395E+04  0.7818609E-02  0.9206758E-01
        1   -1    0    0  501    0  0.00000000000E+00  0.00000000000E+00  0.34298971255E+03  0.34298971259E+03  0.50400001928E-02 0.  1.
       -1   -1    0    0    0  501  0.00000000000E+00  0.00000000000E+00 -0.87937883020E+03  0.87937883021E+03  0.50400001928E-02 0. -1.
    10030    2    1    2    0    0  0.00000000000E+00  0.00000000000E+00 -0.53638911765E+03  0.12223685428E+04  0.10983949968E+04 0.  0.
        1    1    3    3  502    0 -0.49758526228E+02  0.25547590716E+03 -0.80638332690E+03  0.84734757921E+03  0.50400001928E-02 0. -1.
       -1    1    3    3    0  502  0.49758526228E+02 -0.25547590716E+03  0.26999420925E+03  0.37502096359E+03  0.50400001928E-02 0.  1.
</event>
<event>
 5   0  0.7946038E-04  0.1104831E+04  0.7818609E-02  0.9200496E-01
        1   -1    0    0  501    0  0.00000000000E+00  0.00000000000E+00  0.92397134970E+03  0.92397134971E+03  0.50400001928E-02 0.  1.
       -1   -1    0    0    0  501  0.00000000000E+00  0.00000000000E+00 -0.33027334769E+03  0.33027334773E+03  0.50400001928E-02 0. -1.
    10030    2    1    2    0    0  0.00000000000E+00  0.00000000000E+00  0.59369800201E+03  0.12542446974E+04  0.11048314095E+04 0.  0.
        4    1    3    3  502    0 -0.32738235429E+03 -0.20327914207E+03  0.74617873585E+03  0.83981303528E+03  0.12699999809E+01 0.  1.
       -4    1    3    3    0  502  0.32738235429E+03  0.20327914207E+03 -0.15248073384E+03  0.41443166215E+03  0.12699999809E+01 0. -1.
</event>
<event>
 5   0  0.8009636E-04  0.1102978E+04  0.7818609E-02  0.9202294E-01
       -1   -1    0    0    0  501  0.00000000000E+00  0.00000000000E+00  0.19163187370E+03  0.19163187377E+03  0.50400001928E-02 0. -1.
        1   -1    0    0  501    0  0.00000000000E+00  0.00000000000E+00 -0.15871053185E+04  0.15871053185E+04  0.50400001928E-02 0.  1.
    10030    2    1    2    0    0  0.00000000000E+00  0.00000000000E+00 -0.13954734448E+04  0.17787371922E+04  0.11029777260E+04 0.  0.
        1    1    3    3  502    0 -0.25516390049E+03 -0.49257255094E+01  0.90670208033E+02  0.27083937221E+03  0.50400001928E-02 0. -1.
       -1    1    3    3    0  502  0.25516390049E+03  0.49257255094E+01 -0.14861436528E+04  0.15078978200E+04  0.50400001928E-02 0.  1.
</event>
<event>
 5   0  0.1396936E-03  0.1098389E+04  0.7818609E-02  0.9206763E-01
       -2   -1    0    0    0  501  0.00000000000E+00  0.00000000000E+00  0.26256686152E+03  0.26256686154E+03  0.25500000920E-02 0.  1.
        2   -1    0    0  501    0  0.00000000000E+00  0.00000000000E+00 -0.11487156711E+04  0.11487156711E+04  0.25500000920E-02 0. -1.
    10030    2    1    2    0    0  0.00000000000E+00  0.00000000000E+00 -0.88614880953E+03  0.14112825326E+04  0.10983891269E+04 0.  0.
        2    1    3    3  502    0  0.37060652658E+03 -0.19128929088E+03  0.16027153127E+02  0.41736993183E+03  0.25500000920E-02 0.  1.
       -2    1    3    3    0  502 -0.37060652658E+03  0.19128929088E+03 -0.90217596266E+03  0.99391260077E+03  0.25500000920E-02 0. -1.
</event>
<event>
 5   0  0.7946038E-04  0.1099245E+04  0.7818609E-02  0.9205928E-01
       -1   -1    0    0    0  501  0.00000000000E+00  0.00000000000E+00  0.30270760951E+03  0.30270760955E+03  0.50400001928E-02 0.  1.
        1   -1    0    0  501    0  0.00000000000E+00  0.00000000000E+00 -0.99794270879E+03  0.99794270881E+03  0.50400001928E-02 0. -1.
    10030    2    1    2    0    0  0.00000000000E+00  0.00000000000E+00 -0.69523509929E+03  0.13006503184E+04  0.10992449260E+04 0.  0.
        4    1    3    3  502    0  0.36481643346E+03 -0.26125944452E+03  0.27923841706E+02  0.44958745680E+03  0.12699999809E+01 0. -1.
       -4    1    3    3    0  502 -0.36481643346E+03  0.26125944452E+03 -0.72315894099E+03  0.85106286155E+03  0.12699999809E+01 0.  1.
</event>
<event>
 5   0  0.1396936E-03  0.1083133E+04  0.7818609E-02  0.9221789E-01
        2   -1    0    0  501    0  0.00000000000E+00  0.00000000000E+00  0.28618528286E+04  0.28618528286E+04  0.25500000920E-02 0.  1.
       -2   -1    0    0    0  501  0.00000000000E+00  0.00000000000E+00 -0.10248404559E+03  0.10248404563E+03  0.25500000920E-02 0. -1.
    10030    2    1    2    0    0  0.00000000000E+00  0.00000000000E+00  0.27593687830E+04  0.29643368742E+04  0.10831329666E+04 0.  0.
        2    1    3    3  502    0  0.88848219841E+02  0.30425199414E+03  0.25814898691E+04  0.26008754731E+04  0.25500000920E-02 0.  1.
       -2    1    3    3    0  502 -0.88848219841E+02 -0.30425199414E+03  0.17787891387E+03  0.36346140113E+03  0.25500000920E-02 0. -1.
</event>
<event>
 5   0  0.8009636E-04  0.1097762E+04  0.7818609E-02  0.9207376E-01
       -1   -1    0    0    0  501  0.00000000000E+00  0.00000000000E+00  0.16085608272E+03  0.16085608279E+03  0.50400001928E-02 0. -1.
        1   -1    0    0  501    0  0.00000000000E+00  0.00000000000E+00 -0.18729192040E+04  0.18729192040E+04  0.50400001928E-02 0.  1.
    10030    2    1    2    0    0  0.00000000000E+00  0.00000000000E+00 -0.17120631213E+04  0.20337752868E+04  0.10977621719E+04 0.  0.
        1    1    3    3  502    0 -0.32314897578E+03  0.14960819764E+03 -0.82201063944E+02  0.36546530381E+03  0.50400001928E-02 0. -1.
       -1    1    3    3    0  502  0.32314897578E+03 -0.14960819764E+03 -0.16298620574E+04  0.16683099830E+04  0.50400001928E-02 0.  1.
</event>
<event>
 5   0  0.8150924E-04  0.1081302E+04  0.7818609E-02  0.9223611E-01
       -1   -1    0    0    0  501  0.00000000000E+00  0.00000000000E+00  0.15168189916E+03  0.15168189925E+03  0.50400001928E-02 0.  1.
        1   -1    0    0  501    0  0.00000000000E+00  0.00000000000E+00 -0.19270809892E+04  0.19270809892E+04  0.50400001928E-02 0. -1.
    10030    2    1    2    0    0  0.00000000000E+00  0.00000000000E+00 -0.17753990901E+04  0.20787628885E+04  0.10813016312E+04 0.  0.
        3    1    3    3  502    0 -0.24459342378E+03 -0.86115338204E+02 -0.17997286566E+04  0.18183137909E+04  0.10100000352E+00 0. -1.
       -3    1    3    3    0  502  0.24459342378E+03  0.86115338204E+02  0.24329566561E+02  0.26044909760E+03  0.10100000352E+00 0.  1.
</event>
<event>
 5   0  0.1396936E-03  0.1093297E+04  0.7818609E-02  0.9211750E-01
        2   -1    0    0  501    0  0.00000000000E+00  0.00000000000E+00  0.80663069476E+03  0.80663069477E+03  0.25500000920E-02 0. -1.
       -2   -1    0    0    0  501  0.00000000000E+00  0.00000000000E+00 -0.37046018877E+03  0.37046018878E+03  0.25500000920E-02 0.  1.
    10030    2    1    2    0    0  0.00000000000E+00  0.00000000000E+00  0.43617050600E+03  0.11770908835E+04  0.10932969577E+04 0.  0.
        2    1    3    3  502    0  0.58049415355E+02 -0.52528293746E+03  0.67614339802E+02  0.53278851147E+03  0.25500000920E-02 0.  1.
       -2    1    3    3    0  502 -0.58049415355E+02  0.52528293746E+03  0.36855616619E+03  0.64430237207E+03  0.25500000920E-02 0. -1.
</event>
<event>
 5   0  0.1425432E-03  0.1091066E+04  0.7818609E-02  0.9213943E-01
        2   -1    0    0  501    0  0.00000000000E+00  0.00000000000E+00  0.10510679447E+04  0.10510679447E+04  0.25500000920E-02 0. -1.
       -2   -1    0    0    0  501  0.00000000000E+00  0.00000000000E+00 -0.28314676315E+03  0.28314676316E+03  0.25500000920E-02 0.  1.
    10030    2    1    2    0    0  0.00000000000E+00  0.00000000000E+00  0.76792118150E+03  0.13342147078E+04  0.10910664258E+04 0.  0.
        1    1    3    3  502    0 -0.29236962650E+03 -0.39609016832E+03  0.67136782600E+03  0.83252758378E+03  0.50400001928E-02 0. -1.
       -1    1    3    3    0  502  0.29236962650E+03  0.39609016832E+03  0.96553355505E+02  0.50168712404E+03  0.50400001928E-02 0.  1.
</event>
<event>
 5   0  0.1402775E-03  0.1101165E+04  0.7818609E-02  0.9204057E-01
       -2   -1    0    0    0  501  0.00000000000E+00  0.00000000000E+00  0.25231170888E+03  0.25231170889E+03  0.25500000920E-02 0.  1.
        2   -1    0    0  501    0  0.00000000000E+00  0.00000000000E+00 -0.12014552158E+04  0.12014552158E+04  0.25500000920E-02 0. -1.
    10030    2    1    2    0    0  0.00000000000E+00  0.00000000000E+00 -0.94914350691E+03  0.14537669247E+04  0.11011652349E+04 0.  0.
        5    1    3    3  502    0  0.40209659578E+02 -0.54370167788E+03 -0.57589972186E+03  0.79303903491E+03  0.46999998093E+01 0. -1.
       -5    1    3    3    0  502 -0.40209659578E+02  0.54370167788E+03 -0.37324378505E+03  0.66072788977E+03  0.46999998093E+01 0.  1.
</event>
<event>
 5   0  0.7946038E-04  0.1099929E+04  0.7818609E-02  0.9205261E-01
        1   -1    0    0  501    0  0.00000000000E+00  0.00000000000E+00  0.52414040028E+03  0.52414040031E+03  0.50400001928E-02 0.  1.
       -1   -1    0    0    0  501  0.00000000000E+00  0.00000000000E+00 -0.57706063919E+03  0.57706063921E+03  0.50400001928E-02 0. -1.
    10030    2    1    2    0    0  0.00000000000E+00  0.00000000000E+00 -0.52920238902E+02  0.11012010395E+04  0.10999287148E+04 0.  0.
        4    1    3    3  502    0 -0.36668123068E+03  0.33341053809E+03  0.21223015400E+03  0.53912982018E+03  0.12699999809E+01 0.  1.
       -4    1    3    3    0  502  0.36668123068E+03 -0.33341053809E+03 -0.26515039290E+03  0.56207121933E+03  0.12699999809E+01 0. -1.
</event>
<event>
 5   0  0.8009636E-04  0.1103596E+04  0.7818609E-02  0.9201694E-01
       -1   -1    0    0    0  501  0.00000000000E+00  0.00000000000E+00  0.13633427354E+04  0.13633427354E+04  0.50400001928E-02 0. -1.
        1   -1    0    0  501    0  0.00000000000E+00  0.00000000000E+00 -0.22333433117E+03  0.22333433123E+03  0.50400001928E-02 0.  1.
    10030    2    1    2    0    0  0.00000000000E+00  0.00000000000E+00  0.11400084042E+04  0.15866770666E+04  0.11035963719E+04 0.  0.
        1    1    3    3  502    0  0.73835751714E+02  0.35113562598E+03  0.11727099078E+04  0.12263753397E+04  0.50400001928E-02 0. -1.
       -1    1    3    3    0  502 -0.73835751714E+02 -0.35113562598E+03 -0.32701503537E+02  0.36030172692E+03  0.50400001928E-02 0.  1.
</event>
<event>
 5   0  0.8150924E-04  0.1098423E+04  0.7818609E-02  0.9206730E-01
        1   -1    0    0  501    0  0.00000000000E+00  0.00000000000E+00  0.10689356404E+04  0.10689356404E+04  0.50400001928E-02 0.  1.
       -1   -1    0    0    0  501  0.00000000000E+00  0.00000000000E+00 -0.28218086907E+03  0.28218086911E+03  0.50400001928E-02 0. -1.
    10030    2    1    2    0    0  0.00000000000E+00  0.00000000000E+00  0.78675477130E+03  0.13511165095E+04  0.10984228476E+04 0.  0.
        3    1    3    3  502    0  0.32999208261E+03 -0.38324940673E+03  0.12996742285E+03  0.52217470597E+03  0.10100000352E+00 0.  1.
       -3    1    3    3    0  502 -0.32999208261E+03  0.38324940673E+03  0.65678734845E+03  0.82894180352E+03  0.10100000352E+00 0. -1.
</event>
<event>
 5   0  0.1429680E-03  0.1100589E+04  0.7818609E-02  0.9204618E-01
        2   -1    0    0  501    0  0.00000000000E+00  0.00000000000E+00  0.13559102564E+04  0.13559102564E+04  0.25500000920E-02 0. -1.
       -2   -1    0    0    0  501  0.00000000000E+00  0.00000000000E+00 -0.22333644877E+03  0.22333644879E+03  0.25500000920E-02 0.  1.
    10030    2    1    2    0    0  0.00000000000E+00  0.00000000000E+00  0.11325738076E+04  0.15792467051E+04  0.11005892631E+04 0.  0.
        3    1    3    3  502    0  0.56164207200E+02  0.83411989128E+02  0.13426146614E+04  0.13463751771E+04  0.10100000352E+00 0. -1.
       -3    1    3    3    0  502 -0.56164207200E+02 -0.83411989128E+02 -0.21004085386E+03  0.23287152808E+03  0.10100000352E+00 0.  1.
</event>
<event>
 5   0  0.1396936E-03  0.1100423E+04  0.7818609E-02  0.9204780E-01
       -2   -1    0    0    0  501  0.00000000000E+00  0.00000000000E+00  0.49744882842E+03  0.49744882843E+03  0.25500000920E-02 0. -1.
        2   -1    0    0  501    0  0.00000000000E+00  0.00000000000E+00 -0.60857025819E+03  0.60857025820E+03  0.25500000920E-02 0.  1.
    10030    2    1    2    0    0  0.00000000000E+00  0.00000000000E+00 -0.11112142977E+03  0.11060190866E+04  0.11004227587E+04 0.  0.
        2    1    3    3  502    0  0.41405190112E+03 -0.10368316770E+03 -0.40451999382E+03  0.58806938493E+03  0.25500000920E-02 0.  1.
       -2    1    3    3    0  502 -0.41405190112E+03  0.10368316770E+03  0.29339856405E+03  0.51794970169E+03  0.25500000920E-02 0. -1.
</event>
<event>
 5   0  0.5409500E-04  0.1092786E+04  0.7818609E-02  0.9212252E-01
       -4   -1    0    0    0  501  0.00000000000E+00  0.00000000000E+00  0.15253740514E+04  0.15253745801E+04  0.12699999809E+01 0. -1.
        4   -1    0    0  501    0  0.00000000000E+00  0.00000000000E+00 -0.19571675951E+03  0.19572087996E+03  0.12699999809E+01 0.  1.
    10030    2    1    2    0    0  0.00000000000E+00  0.00000000000E+00  0.13296572919E+04  0.17210954600E+04  0.10927859208E+04 0.  0.
        3    1    3    3  502    0  0.33733543185E+03 -0.38548811984E+03  0.96427418582E+03  0.10918887305E+04  0.10100000352E+00 0. -1.
       -3    1    3    3    0  502 -0.33733543185E+03  0.38548811984E+03  0.36538310603E+03  0.62920672954E+03  0.10100000352E+00 0.  1.
</event>
<event>
 5   0  0.8341767E-04  0.1100464E+04  0.7818609E-02  0.9204740E-01
       -1   -1    0    0    0  501  0.00000000000E+00  0.00000000000E+00  0.58479150949E+03  0.58479150951E+03  0.50400001928E-02 0.  1.
        1   -1    0    0  501    0  0.00000000000E+00  0.00000000000E+00 -0.51771497620E+03  0.51771497623E+03  0.50400001928E-02 0. -1.
    10030    2    1    2    0    0  0.00000000000E+00  0.00000000000E+00  0.67076533285E+02  0.11025064857E+04  0.11004641247E+04 0.  0.
        2    1    3    3  502    0 -0.51745347955E+02 -0.15546489560E+03 -0.49270642896E+03  0.51923649712E+03  0.25500000920E-02 0. -1.
       -2    1    3    3    0  502  0.51745347955E+02  0.15546489560E+03  0.55978296224E+03  0.58326998862E+03  0.25500000920E-02 0.  1.
</event>
<event>
 5   0  0.1372794E-03  0.1165711E+04  0.7818609E-02  0.9143410E-01
       -2   -1    0    0    0  501  0.00000000000E+00  0.00000000000E+00  0.29929630853E+03  0.29929630854E+03  0.25500000920E-02 0.  1.
        2   -1    0    0  501    0  0.00000000000E+00  0.00000000000E+00 -0.11350647312E+04  0.11350647312E+04  0.25500000920E-02 0. -1.
    10030    2    1    2    0    0  0.00000000000E+00  0.00000000000E+00 -0.83576842262E+03  0.14343610397E+04  0.11657112575E+04 0.  0.
        4    1    3    3  502    0 -0.48386264423E+03 -0.24692741614E+03 -0.67780810795E+03  0.86863205756E+03  0.12699999809E+01 0. -1.
       -4    1    3    3    0  502  0.48386264423E+03  0.24692741614E+03 -0.15796031467E+03  0.56572898214E+03  0.12699999809E+01 0.  1.
</event>
<event>
 5   0  0.8150924E-04  0.1098502E+04  0.7818609E-02  0.9206653E-01
        1   -1    0    0  501    0  0.00000000000E+00  0.00000000000E+00  0.12583586873E+04  0.12583586873E+04  0.50400001928E-02 0. -1.
       -1   -1    0    0    0  501  0.00000000000E+00  0.00000000000E+00 -0.23973818700E+03  0.23973818706E+03  0.50400001928E-02 0.  1.
    10030    2    1    2    0    0  0.00000000000E+00  0.00000000000E+00  0.10186205003E+04  0.14980968743E+04  0.10985019442E+04 0.  0.
        3    1    3    3  502    0  0.35136979399E+02 -0.44339441805E+03  0.94877953152E+03  0.10478625038E+04  0.10100000352E+00 0. -1.
       -3    1    3    3    0  502 -0.35136979399E+02  0.44339441805E+03  0.69840968751E+02  0.45023437052E+03  0.10100000352E+00 0.  1.
</event>
<event>
 5   0  0.1425432E-03  0.1119273E+04  0.7818609E-02  0.9186608E-01
        2   -1    0    0  501    0  0.00000000000E+00  0.00000000000E+00  0.76295127888E+03  0.76295127889E+03  0.25500000920E-02 0. -1.
       -2   -1    0    0    0  501  0.00000000000E+00  0.00000000000E+00 -0.41050233436E+03  0.41050233437E+03  0.25500000920E-02 0.  1.
    10030    2    1    2    0    0  0.00000000000E+00  0.00000000000E+00  0.35244894453E+03  0.11734536133E+04  0.11192734804E+04 0.  0.
        1    1    3    3  502    0 -0.15909395200E+03 -0.52539721399E+03  0.29030421999E+03  0.62099086805E+03  0.50400001928E-02 0. -1.
       -1    1    3    3    0  502  0.15909395200E+03  0.52539721399E+03  0.62144724530E+02  0.55246274521E+03  0.50400001928E-02 0.  1.
</event>
<event>
 5   0  0.5409500E-04  0.1099805E+04  0.7818609E-02  0.9205382E-01
       -4   -1    0    0    0  501  0.00000000000E+00  0.00000000000E+00  0.70162845784E+03  0.70162960724E+03  0.12699999809E+01 0. -1.
        4   -1    0    0  501    0  0.00000000000E+00  0.00000000000E+00 -0.43098444206E+03  0.43098631324E+03  0.12699999809E+01 0.  1.
    10030    2    1    2    0    0  0.00000000000E+00  0.00000000000E+00  0.27064401578E+03  0.11326159205E+04  0.10998048191E+04 0.  0.
        5    1    3    3  502    0  0.49272440838E+03  0.24156443229E+03  0.99059983430E+02  0.55764297528E+03  0.46999998093E+01 0.  1.
       -5    1    3    3    0  502 -0.49272440838E+03 -0.24156443229E+03  0.17158403235E+03  0.57497294520E+03  0.46999998093E+01 0. -1.
</event>
<event>
 5   0  0.7946038E-04  0.1107344E+04  0.7818609E-02  0.9198064E-01
       -1   -1    0    0    0  501  0.00000000000E+00  0.00000000000E+00  0.15392174837E+03  0.15392174845E+03  0.50400001928E-02 0. -1.
        1   -1    0    0  501    0  0.00000000000E+00  0.00000000000E+00 -0.19916128903E+04  0.19916128903E+04  0.50400001928E-02 0.  1.
    10030    2    1    2    0    0  0.00000000000E+00  0.00000000000E+00 -0.18376911419E+04  0.21455346388E+04  0.11073437375E+04 0.  0.
        4    1    3    3  502    0 -0.23832169903E+03  0.27142782879E+03 -0.10581127741E+03  0.37638801495E+03  0.12699999809E+01 0. -1.
       -4    1    3    3    0  502  0.23832169903E+03 -0.27142782879E+03 -0.17318798645E+04  0.17691466238E+04  0.12699999809E+01 0.  1.
</event>
<event>
 5   0  0.1372794E-03  0.1102279E+04  0.7818609E-02  0.9202973E-01
        2   -1    0    0  501    0  0.00000000000E+00  0.00000000000E+00  0.35964644304E+03  0.35964644305E+03  0.25500000920E-02 0. -1.
       -2   -1    0    0    0  501  0.00000000000E+00  0.00000000000E+00 -0.84459306727E+03  0.84459306728E+03  0.25500000920E-02 0.  1.
    10030    2    1    2    0    0  0.00000000000E+00  0.00000000000E+00 -0.48494662424E+03  0.12042395103E+04  0.11022792613E+04 0.  0.
        4    1    3    3  502    0  0.74682909651E+02  0.53657461648E+03 -0.13179376823E+03  0.55754916043E+03  0.12699999809E+01 0.  1.
       -4    1    3    3    0  502 -0.74682909651E+02 -0.53657461648E+03 -0.35315285600E+03  0.64669034990E+03  0.12699999809E+01 0. -1.
</event>
<event>
 5   0  0.1396936E-03  0.1100611E+04  0.7818609E-02  0.9204596E-01
       -2   -1    0    0    0  501  0.00000000000E+00  0.00000000000E+00  0.45551412001E+03  0.45551412001E+03  0.25500000920E-02 0.  1.
        2   -1    0    0  501    0  0.00000000000E+00  0.00000000000E+00 -0.66482298840E+03  0.66482298840E+03  0.25500000920E-02 0. -1.
    10030    2    1    2    0    0  0.00000000000E+00  0.00000000000E+00 -0.20930886839E+03  0.11203371084E+04  0.11006112093E+04 0.  0.
        2    1    3    3  502    0  0.46090772778E+03 -0.29590657830E+03 -0.50411265878E+02  0.55003448287E+03  0.25500000920E-02 0.  1.
       -2    1    3    3    0  502 -0.46090772778E+03  0.29590657830E+03 -0.15889760251E+03  0.57030262554E+03  0.25500000920E-02 0. -1.
</event>
<event>
 5   0  0.8305271E-04  0.1100623E+04  0.7818609E-02  0.9204584E-01
        1   -1    0    0  501    0  0.00000000000E+00  0.00000000000E+00  0.19682176818E+04  0.19682176818E+04  0.50400001928E-02 0.  1.
       -1   -1    0    0    0  501  0.00000000000E+00  0.00000000000E+00 -0.15386660286E+03  0.15386660294E+03  0.50400001928E-02 0. -1.
    10030    2    1    2    0    0  0.00000000000E+00  0.00000000000E+00  0.18143510790E+04  0.21220842848E+04  0.11006234024E+04 0.  0.
        5    1    3    3  502    0  0.50736038340E+02  0.53789717603E+03  0.11085957962E+04  0.12332535210E+04  0.46999998093E+01 0.  1.
       -5    1    3    3    0  502 -0.50736038340E+02 -0.53789717603E+03  0.70575528274E+03  0.88883076380E+03  0.46999998093E+01 0. -1.
</event>
<event>
 5   0  0.1402775E-03  0.1102055E+04  0.7818609E-02  0.9203191E-01
        2   -1    0    0  501    0  0.00000000000E+00  0.00000000000E+00  0.38557835572E+03  0.38557835573E+03  0.25500000920E-02 0.  1.
       -2   -1    0    0    0  501  0.00000000000E+00  0.00000000000E+00 -0.78746947404E+03  0.78746947405E+03  0.25500000920E-02 0. -1.
    10030    2    1    2    0    0  0.00000000000E+00  0.00000000000E+00 -0.40189111832E+03  0.11730478298E+04  0.11020547808E+04 0.  0.
        5    1    3    3  502    0  0.48248351011E+03 -0.26382059008E+03 -0.23808529122E+03  0.59924814323E+03  0.46999998093E+01 0. -1.
       -5    1    3    3    0  502 -0.48248351011E+03  0.26382059008E+03 -0.16380582711E+03  0.57379968654E+03  0.46999998093E+01 0.  1.
</event>
<event>
 5   0  0.1396936E-03  0.1098505E+04  0.7818609E-02  0.9206650E-01
        2   -1    0    0  501    0  0.00000000000E+00  0.00000000000E+00  0.20515064354E+03  0.20515064355E+03  0.25500000920E-02 0.  1.
       -2   -1    0    0    0  501  0.00000000000E+00  0.00000000000E+00 -0.14705214396E+04  0.14705214396E+04  0.25500000920E-02 0. -1.
    10030    2    1    2    0    0  0.00000000000E+00  0.00000000000E+00 -0.12653707960E+04  0.16756720831E+04  0.10985052019E+04 0.  0.
        2    1    3    3  502    0  0.15327503651E+03 -0.44734805152E+03 -0.20648403871E+03  0.51599338588E+03  0.25500000920E-02 0.  1.
       -2    1    3    3    0  502 -0.15327503651E+03  0.44734805152E+03 -0.10588867573E+04  0.11596786972E+04  0.25500000920E-02 0. -1.
</event>
<event>
 5   0  0.5409500E-04  0.1104750E+04  0.7818609E-02  0.9200575E-01
        4   -1    0    0  501    0  0.00000000000E+00  0.00000000000E+00  0.33007870295E+03  0.33008114614E+03  0.12699999809E+01 0.  1.
       -4   -1    0    0    0  501  0.00000000000E+00  0.00000000000E+00 -0.92437317190E+03  0.92437404433E+03  0.12699999809E+01 0. -1.
    10030    2    1    2    0    0  0.00000000000E+00  0.00000000000E+00 -0.59429446896E+03  0.12544551905E+04  0.11047497043E+04 0.  0.
        2    1    3    3  502    0 -0.27835196021E+03 -0.28993901917E+03 -0.72740473108E+03  0.83106082292E+03  0.25500000920E-02 0. -1.
       -2    1    3    3    0  502  0.27835196021E+03  0.28993901917E+03  0.13311026212E+03  0.42339436756E+03  0.25500000920E-02 0.  1.
</event>
<event>
 5   0  0.8150924E-04  0.1072317E+04  0.7818609E-02  0.9232602E-01
       -1   -1    0    0    0  501  0.00000000000E+00  0.00000000000E+00  0.49811564159E+03  0.49811564162E+03  0.50400001928E-02 0. -1.
        1   -1    0    0  501    0  0.00000000000E+00  0.00000000000E+00 -0.57710658711E+03  0.57710658714E+03  0.50400001928E-02 0.  1.
    10030    2    1    2    0    0  0.00000000000E+00  0.00000000000E+00 -0.78990945521E+02  0.10752222288E+04  0.10723167777E+04 0.  0.
        3    1    3    3  502    0 -0.37068144952E+03  0.63347965102E+02  0.34370240732E+03  0.50945957318E+03  0.10100000352E+00 0. -1.
       -3    1    3    3    0  502  0.37068144952E+03 -0.63347965102E+02 -0.42269335285E+03  0.56576265557E+03  0.10100000352E+00 0.  1.
</event>
<event>
 5   0  0.1425432E-03  0.1103199E+04  0.7818609E-02  0.9202079E-01
       -2   -1    0    0    0  501  0.00000000000E+00  0.00000000000E+00  0.40371502766E+03  0.40371502767E+03  0.25500000920E-02 0. -1.
        2   -1    0    0  501    0  0.00000000000E+00  0.00000000000E+00 -0.75365605307E+03  0.75365605308E+03  0.25500000920E-02 0.  1.
    10030    2    1    2    0    0  0.00000000000E+00  0.00000000000E+00 -0.34994102541E+03  0.11573710808E+04  0.11031994821E+04 0.  0.
        1    1    3    3  502    0 -0.47664646560E+03  0.22233720874E+03 -0.34937625475E+03  0.63141860518E+03  0.50400001928E-02 0. -1.
       -1    1    3    3    0  502  0.47664646560E+03 -0.22233720874E+03 -0.56477065759E+00  0.52595247557E+03  0.50400001928E-02 0.  1.
</event>
<event>
 5   0  0.8150924E-04  0.1103104E+04  0.7818609E-02  0.9202172E-01
       -1   -1    0    0    0  501  0.00000000000E+00  0.00000000000E+00  0.43475381991E+03  0.43475381994E+03  0.50400001928E-02 0.  1.
        1   -1    0    0  501    0  0.00000000000E+00  0.00000000000E+00 -0.69972802397E+03  0.69972802399E+03  0.50400001928E-02 0. -1.
    10030    2    1    2    0    0  0.00000000000E+00  0.00000000000E+00 -0.26497420406E+03  0.11344818439E+04  0.11031036784E+04 0.  0.
        3    1    3    3  502    0 -0.17399456388E+02 -0.84197455512E+02  0.42781976546E+03  0.43637336596E+03  0.10100000352E+00 0.  1.
       -3    1    3    3    0  502  0.17399456388E+02  0.84197455512E+02 -0.69279396953E+03  0.69810847797E+03  0.10100000352E+00 0. -1.
</event>
<event>
 5   0  0.1396936E-03  0.1096931E+04  0.7818609E-02  0.9208189E-01
       -2   -1    0    0    0  501  0.00000000000E+00  0.00000000000E+00  0.18447701231E+03  0.18447701232E+03  0.25500000920E-02 0. -1.
        2   -1    0    0  501    0  0.00000000000E+00  0.00000000000E+00 -0.16306326126E+04  0.16306326126E+04  0.25500000920E-02 0.  1.
    10030    2    1    2    0    0  0.00000000000E+00  0.00000000000E+00 -0.14461556003E+04  0.18151096250E+04  0.10969306862E+04 0.  0.
        2    1    3    3  502    0  0.13599829407E+03 -0.24660541339E+03  0.55702429696E+02  0.28707582027E+03  0.25500000920E-02 0. -1.
       -2    1    3    3    0  502 -0.13599829407E+03  0.24660541339E+03 -0.15018580300E+04  0.15280338047E+04  0.25500000920E-02 0.  1.
</event>
<event>
 5   0  0.1429680E-03  0.1112151E+04  0.7818609E-02  0.9193429E-01
        2   -1    0    0  501    0  0.00000000000E+00  0.00000000000E+00  0.73330449746E+03  0.73330449747E+03  0.25500000920E-02 0. -1.
       -2   -1    0    0    0  501  0.00000000000E+00  0.00000000000E+00 -0.42168025196E+03  0.42168025196E+03  0.25500000920E-02 0.  1.
    10030    2    1    2    0    0  0.00000000000E+00  0.00000000000E+00  0.31162424551E+03  0.11549847494E+04  0.11121511143E+04 0.  0.
        3    1    3    3  502    0 -0.20035692401E+03 -0.51137934373E+03  0.24615859168E+03  0.60186858421E+03  0.10100000352E+00 0. -1.
       -3    1    3    3    0  502  0.20035692401E+03  0.51137934373E+03  0.65465653821E+02  0.55311616522E+03  0.10100000352E+00 0.  1.
</event>
<event>
 5   0  0.1425432E-03  0.1097704E+04  0.7818609E-02  0.9207433E-01
       -2   -1    0    0    0  501  0.00000000000E+00  0.00000000000E+00  0.27534231098E+03  0.27534231099E+03  0.25500000920E-02 0.  1.
        2   -1    0    0  501    0  0.00000000000E+00  0.00000000000E+00 -0.10940508859E+04  0.10940508859E+04  0.25500000920E-02 0. -1.
    10030    2    1    2    0    0  0.00000000000E+00  0.00000000000E+00 -0.81870857492E+03  0.13693931969E+04  0.10977039660E+04 0.  0.
        1    1    3    3  502    0 -0.45604985103E+03  0.73611134907E+02 -0.39623833967E+02  0.46364869681E+03  0.50400001928E-02 0.  1.
       -1    1    3    3    0  502  0.45604985103E+03 -0.73611134907E+02 -0.77908474095E+03  0.90574450007E+03  0.50400001928E-02 0. -1.
</event>
<event>
 5   0  0.1402775E-03  0.1102736E+04  0.7818609E-02  0.9202529E-01
        2   -1    0    0  501    0  0.00000000000E+00  0.00000000000E+00  0.10720724207E+04  0.10720724207E+04  0.25500000920E-02 0. -1.
       -2   -1    0    0    0  501  0.00000000000E+00  0.00000000000E+00 -0.28356921306E+03  0.28356921308E+03  0.25500000920E-02 0.  1.
    10030    2    1    2    0    0  0.00000000000E+00  0.00000000000E+00  0.78850320767E+03  0.13556416338E+04  0.11027361111E+04 0.  0.
        5    1    3    3  502    0  0.54331510909E+03 -0.71071867087E+02  0.31904907817E+03  0.63407958675E+03  0.46999998093E+01 0.  1.
       -5    1    3    3    0  502 -0.54331510909E+03  0.71071867087E+02  0.46945412950E+03  0.72156204706E+03  0.46999998093E+01 0. -1.
</event>
<event>
 5   0  0.7946038E-04  0.1102171E+04  0.7818609E-02  0.9203079E-01
       -1   -1    0    0    0  501  0.00000000000E+00  0.00000000000E+00  0.28516634209E+03  0.28516634213E+03  0.50400001928E-02 0. -1.
        1   -1    0    0  501    0  0.00000000000E+00  0.00000000000E+00 -0.10649747823E+04  0.10649747823E+04  0.50400001928E-02 0.  1.
    10030    2    1    2    0    0  0.00000000000E+00  0.00000000000E+00 -0.77980844016E+03  0.13501411244E+04  0.11021705188E+04 0.  0.
        4    1    3    3  502    0  0.29228897352E+03 -0.34946525725E+03 -0.76971746215E+03  0.89444138685E+03  0.12699999809E+01 0.  1.
       -4    1    3    3    0  502 -0.29228897352E+03  0.34946525725E+03 -0.10090978015E+02  0.45569973755E+03  0.12699999809E+01 0. -1.
</event>
<event>
 5   0  0.8305271E-04  0.1098875E+04  0.7818609E-02  0.9206289E-01
        1   -1    0    0  501    0  0.00000000000E+00  0.00000000000E+00  0.29123859375E+03  0.29123859379E+03  0.50400001928E-02 0. -1.
       -1   -1    0    0    0  501  0.00000000000E+00  0.00000000000E+00 -0.10365441902E+04  0.10365441902E+04  0.50400001928E-02 0.  1.
    10030    2    1    2    0    0  0.00000000000E+00  0.00000000000E+00 -0.74530559643E+03  0.13277827840E+04  0.10988751928E+04 0.  0.
        5    1    3    3  502    0 -0.42483873067E+03  0.11597226423E+03 -0.76960096060E+03  0.88670470942E+03  0.46999998093E+01 0.  1.
       -5    1    3    3    0  502  0.42483873067E+03 -0.11597226423E+03  0.24295364171E+02  0.44107807457E+03  0.46999998093E+01 0. -1.
</event>
<event>
 5   0  0.5409500E-04  0.1103291E+04  0.7818609E-02  0.9201990E-01
       -3   -1    0    0    0  501  0.00000000000E+00  0.00000000000E+00  0.48905415752E+03  0.48905416795E+03  0.10100000352E+00 0. -1.
        3   -1    0    0  501    0  0.00000000000E+00  0.00000000000E+00 -0.62224796393E+03  0.62224797213E+03  0.10100000352E+00 0.  1.
    10030    2    1    2    0    0  0.00000000000E+00  0.00000000000E+00 -0.13319380641E+03  0.11113021401E+04  0.11032913742E+04 0.  0.
        5    1    3    3  502    0  0.26262770041E+03 -0.70592120980E+02  0.41681935460E+03  0.49771178500E+03  0.46999998093E+01 0. -1.
       -5    1    3    3    0  502 -0.26262770041E+03  0.70592120980E+02 -0.55001316101E+03  0.61359035508E+03  0.46999998093E+01 0.  1.
</event>
<event>
 5   0  0.1372794E-03  0.1088637E+04  0.7818609E-02  0.9216339E-01
        2   -1    0    0  501    0  0.00000000000E+00  0.00000000000E+00  0.11796595846E+04  0.11796595846E+04  0.25500000920E-02 0.  1.
       -2   -1    0    0    0  501  0.00000000000E+00  0.00000000000E+00 -0.25115925196E+03  0.25115925197E+03  0.25500000920E-02 0. -1.
    10030    2    1    2    0    0  0.00000000000E+00  0.00000000000E+00  0.92850033263E+03  0.14308188366E+04  0.10886366131E+04 0.  0.
        4    1    3    3  502    0  0.26223587870E+03 -0.11818426947E+03 -0.14311104843E+03  0.32127490208E+03  0.12699999809E+01 0. -1.
       -4    1    3    3    0  502 -0.26223587870E+03  0.11818426947E+03  0.10716113811E+04  0.11095439345E+04  0.12699999809E+01 0.  1.
</event>
<event>
 5   0  0.7946038E-04  0.1096700E+04  0.7818609E-02  0.9208414E-01
       -1   -1    0    0    0  501  0.00000000000E+00  0.00000000000E+00  0.14934899425E+03  0.14934899434E+03  0.50400001928E-02 0.  1.
        1   -1    0    0  501    0  0.00000000000E+00  0.00000000000E+00 -0.20133222749E+04  0.20133222749E+04  0.50400001928E-02 0. -1.
    10030    2    1    2    0    0  0.00000000000E+00  0.00000000000E+00 -0.18639732807E+04  0.21626712693E+04  0.10966998805E+04 0.  0.
        4    1    3    3  502    0 -0.18852414001E+03  0.17823922874E+03  0.20656659781E+02  0.26026694858E+03  0.12699999809E+01 0.  1.
       -4    1    3    3    0  502  0.18852414001E+03 -0.17823922874E+03 -0.18846299404E+04  0.19024043207E+04  0.12699999809E+01 0. -1.
</event>
<event>
 5   0  0.5409500E-04  0.1096134E+04  0.7818609E-02  0.9208968E-01
        3   -1    0    0  501    0  0.00000000000E+00  0.00000000000E+00  0.63748540586E+03  0.63748541386E+03  0.10100000352E+00 0. -1.
       -3   -1    0    0    0  501  0.00000000000E+00  0.00000000000E+00 -0.47119107278E+03  0.47119108360E+03  0.10100000352E+00 0.  1.
    10030    2    1    2    0    0  0.00000000000E+00  0.00000000000E+00  0.16629433308E+03  0.11086764975E+04  0.10961340113E+04 0.  0.
        5    1    3    3  502    0  0.53503983177E+03 -0.52491933066E+02  0.19081866505E+03  0.57048827994E+03  0.46999998093E+01 0. -1.
       -5    1    3    3    0  502 -0.53503983177E+03  0.52491933066E+02 -0.24524331965E+02  0.53818821752E+03  0.46999998093E+01 0.  1.
</event>
<event>
 5   0  0.8009636E-04  0.1097184E+04  0.7818609E-02  0.9207941E-01
        1   -1    0    0  501    0  0.00000000000E+00  0.00000000000E+00  0.21400092989E+04  0.21400092989E+04  0.50400001928E-02 0. -1.
       -1   -1    0    0    0  501  0.00000000000E+00  0.00000000000E+00 -0.14063175949E+03  0.14063175958E+03  0.50400001928E-02 0.  1.
    10030    2    1    2    0    0  0.00000000000E+00  0.00000000000E+00  0.19993775394E+04  0.22806410585E+04  0.10971841653E+04 0.  0.
        1    1    3    3  502    0 -0.22405766242E+03 -0.49984814963E+03  0.10621606877E+04  0.11950880032E+04  0.50400001928E-02 0.  1.
       -1    1    3    3    0  502  0.22405766242E+03  0.49984814963E+03  0.93721685171E+03  0.10855530553E+04  0.50400001928E-02 0. -1.
</event>
<event>
 5   0  0.1425432E-03  0.1100967E+04  0.7818609E-02  0.9204250E-01
       -2   -1    0    0    0  501  0.00000000000E+00  0.00000000000E+00  0.36451743272E+03  0.36451743273E+03  0.25500000920E-02 0. -1.
        2   -1    0    0  501    0  0.00000000000E+00  0.00000000000E+00 -0.83132368883E+03  0.83132368884E+03  0.25500000920E-02 0.  1.
    10030    2    1    2    0    0  0.00000000000E+00  0.00000000000E+00 -0.46680625611E+03  0.11958411216E+04  0.11009668057E+04 0.  0.
        1    1    3    3  502    0 -0.45025258812E+03  0.20620385886E+03 -0.49450208368E+03  0.69984265039E+03  0.50400001928E-02 0.  1.
       -1    1    3    3    0  502  0.45025258812E+03 -0.20620385886E+03  0.27695827574E+02  0.49599847117E+03  0.50400001928E-02 0. -1.
</event>
<event>
 5   0  0.8305271E-04  0.1098162E+04  0.7818609E-02  0.9206985E-01
       -1   -1    0    0    0  501  0.00000000000E+00  0.00000000000E+00  0.71974474997E+03  0.71974474998E+03  0.50400001928E-02 0. -1.
        1   -1    0    0  501    0  0.00000000000E+00  0.00000000000E+00 -0.41888489383E+03  0.41888489386E+03  0.50400001928E-02 0.  1.
    10030    2    1    2    0    0  0.00000000000E+00  0.00000000000E+00  0.30085985614E+03  0.11386296438E+04  0.10981624710E+04 0.  0.
        5    1    3    3  502    0  0.12586423784E+03 -0.26138132940E+03 -0.33290908915E+03  0.44160226150E+03  0.46999998093E+01 0.  1.
       -5    1    3    3    0  502 -0.12586423784E+03  0.26138132940E+03  0.63376894529E+03  0.69702738234E+03  0.46999998093E+01 0. -1.
</event>
<event>
 5   0  0.1372794E-03  0.1093799E+04  0.7818609E-02  0.9211256E-01
       -2   -1    0    0    0  501  0.00000000000E+00  0.00000000000E+00  0.19065171406E+03  0.19065171408E+03  0.25500000920E-02 0. -1.
        2   -1    0    0  501    0  0.00000000000E+00  0.00000000000E+00 -0.15688257244E+04  0.15688257244E+04  0.25500000920E-02 0.  1.
    10030    2    1    2    0    0  0.00000000000E+00  0.00000000000E+00 -0.13781740104E+04  0.17594774385E+04  0.10937994578E+04 0.  0.
        4    1    3    3  502    0  0.50342507549E+02 -0.46111818487E+03 -0.22305764055E+03  0.51470445150E+03  0.12699999809E+01 0. -1.
       -4    1    3    3    0  502 -0.50342507549E+02  0.46111818487E+03 -0.11551163698E+04  0.12447729870E+04  0.12699999809E+01 0.  1.
</event>
<event>
 5   0  0.1425432E-03  0.1100259E+04  0.7818609E-02  0.9204940E-01
       -2   -1    0    0    0  501  0.00000000000E+00  0.00000000000E+00  0.23765409413E+03  0.23765409415E+03  0.25500000920E-02 0.  1.
        2   -1    0    0  501    0  0.00000000000E+00  0.00000000000E+00 -0.12734573346E+04  0.12734573346E+04  0.25500000920E-02 0. -1.
    10030    2    1    2    0    0  0.00000000000E+00  0.00000000000E+00 -0.10358032405E+04  0.15111114288E+04  0.11002587864E+04 0.  0.
        1    1    3    3  502    0 -0.12018691285E+03  0.21234165320E+03  0.15927459625E+03  0.29137993881E+03  0.50400001928E-02 0.  1.
       -1    1    3    3    0  502  0.12018691285E+03 -0.21234165320E+03 -0.11950778367E+04  0.12197314900E+04  0.50400001928E-02 0. -1.
</event>
<event>
 5   0  0.1429680E-03  0.1097419E+04  0.7818609E-02  0.9207711E-01
        2   -1    0    0  501    0  0.00000000000E+00  0.00000000000E+00  0.62727075910E+03  0.62727075910E+03  0.25500000920E-02 0. -1.
       -2   -1    0    0    0  501  0.00000000000E+00  0.00000000000E+00 -0.47998719065E+03  0.47998719065E+03  0.25500000920E-02 0.  1.
    10030    2    1    2    0    0  0.00000000000E+00  0.00000000000E+00  0.14728356845E+03  0.11072579498E+04  0.10974186611E+04 0.  0.
        3    1    3    3  502    0 -0.30881450169E+03  0.12877206488E+03  0.51243554238E+03  0.61199578139E+03  0.10100000352E+00 0. -1.
       -3    1    3    3    0  502  0.30881450169E+03 -0.12877206488E+03 -0.36515197393E+03  0.49526216836E+03  0.10100000352E+00 0.  1.
</event>
<event>
 5   0  0.1396936E-03  0.1111190E+04  0.7818609E-02  0.9194353E-01
        2   -1    0    0  501    0  0.00000000000E+00  0.00000000000E+00  0.10097630746E+04  0.10097630746E+04  0.25500000920E-02 0.  1.
       -2   -1    0    0    0  501  0.00000000000E+00  0.00000000000E+00 -0.30570144698E+03  0.30570144699E+03  0.25500000920E-02 0. -1.
    10030    2    1    2    0    0  0.00000000000E+00  0.00000000000E+00  0.70406162761E+03  0.13154645216E+04  0.11111904122E+04 0.  0.
        2    1    3    3  502    0  0.41817466493E+03  0.20798853782E+03  0.70827769401E+03  0.84840236568E+03  0.25500000920E-02 0.  1.
       -2    1    3    3    0  502 -0.41817466493E+03 -0.20798853782E+03 -0.42160663959E+01  0.46706215590E+03  0.25500000920E-02 0. -1.
</event>
<event>
 5   0  0.1425432E-03  0.1101563E+04  0.7818609E-02  0.9203670E-01
       -2   -1    0    0    0  501  0.00000000000E+00  0.00000000000E+00  0.47040924644E+03  0.47040924645E+03  0.25500000920E-02 0.  1.
        2   -1    0    0  501    0  0.00000000000E+00  0.00000000000E+00 -0.64488573432E+03  0.64488573433E+03  0.25500000920E-02 0. -1.
    10030    2    1    2    0    0  0.00000000000E+00  0.00000000000E+00 -0.17447648788E+03  0.11152949808E+04  0.11015629121E+04 0.  0.
        1    1    3    3  502    0 -0.41424863601E+03 -0.17320917976E+03 -0.41020832360E+03  0.60817285467E+03  0.50400001928E-02 0. -1.
       -1    1    3    3    0  502  0.41424863601E+03  0.17320917976E+03  0.23573183572E+03  0.50712212611E+03  0.50400001928E-02 0.  1.
</event>
<event>
 5   0  0.1402775E-03  0.1054710E+04  0.7818609E-02  0.9250495E-01
       -2   -1    0    0    0  501  0.00000000000E+00  0.00000000000E+00  0.33794174901E+03  0.33794174902E+03  0.25500000920E-02 0.  1.
        2   -1    0    0  501    0  0.00000000000E+00  0.00000000000E+00 -0.82293219610E+03  0.82293219610E+03  0.25500000920E-02 0. -1.
    10030    2    1    2    0    0  0.00000000000E+00  0.00000000000E+00 -0.48499044708E+03  0.11608739451E+04  0.10547097149E+04 0.  0.
        5    1    3    3  502    0  0.44371133619E+03  0.15630572703E+03  0.19751999018E+02  0.47087520812E+03  0.46999998093E+01 0.  1.
       -5    1    3    3    0  502 -0.44371133619E+03 -0.15630572703E+03 -0.50474244610E+03  0.68999873700E+03  0.46999998093E+01 0. -1.
</event>
<event>
 5   0  0.1396936E-03  0.1099157E+04  0.7818609E-02  0.9206014E-01
       -2   -1    0    0    0  501  0.00000000000E+00  0.00000000000E+00  0.16825667924E+03  0.16825667926E+03  0.25500000920E-02 0.  1.
        2   -1    0    0  501    0  0.00000000000E+00  0.00000000000E+00 -0.17950924120E+04  0.17950924120E+04  0.25500000920E-02 0. -1.
    10030    2    1    2    0    0  0.00000000000E+00  0.00000000000E+00 -0.16268357327E+04  0.19633490912E+04  0.10991565643E+04 0.  0.
        2    1    3    3  502    0 -0.26243037816E+03 -0.43893825428E+03 -0.45394644118E+03  0.68381566663E+03  0.25500000920E-02 0.  1.
       -2    1    3    3    0  502  0.26243037816E+03  0.43893825428E+03 -0.11728892916E+04  0.12795334246E+04  0.25500000920E-02 0. -1.
</event>
<event>
 5   0  0.8150924E-04  0.1099516E+04  0.7818609E-02  0.9205664E-01
        1   -1    0    0  501    0  0.00000000000E+00  0.00000000000E+00  0.78341131258E+03  0.78341131260E+03  0.50400001928E-02 0. -1.
       -1   -1    0    0    0  501  0.00000000000E+00  0.00000000000E+00 -0.38579215926E+03  0.38579215929E+03  0.50400001928E-02 0.  1.
    10030    2    1    2    0    0  0.00000000000E+00  0.00000000000E+00  0.39761915332E+03  0.11692034719E+04  0.10995161516E+04 0.  0.
        3    1    3    3  502    0 -0.23801603538E+03  0.40888769807E+03 -0.98923810268E+02  0.48334947312E+03  0.10100000352E+00 0.  1.
       -3    1    3    3    0  502  0.23801603538E+03 -0.40888769807E+03  0.49654296359E+03  0.68585399876E+03  0.10100000352E+00 0. -1.
</event>
<event>
 5   0  0.8009636E-04  0.1101041E+04  0.7818609E-02  0.9204178E-01
       -1   -1    0    0    0  501  0.00000000000E+00  0.00000000000E+00  0.72277948301E+03  0.72277948303E+03  0.50400001928E-02 0. -1.
        1   -1    0    0  501    0  0.00000000000E+00  0.00000000000E+00 -0.41931576390E+03  0.41931576393E+03  0.50400001928E-02 0.  1.
    10030    2    1    2    0    0  0.00000000000E+00  0.00000000000E+00  0.30346371911E+03  0.11420952470E+04  0.11010410185E+04 0.  0.
        1    1    3    3  502    0 -0.45197262974E+03  0.27995421068E+03  0.35079293125E+01  0.53166335562E+03  0.50400001928E-02 0. -1.
       -1    1    3    3    0  502  0.45197262974E+03 -0.27995421068E+03  0.29995578980E+03  0.61043189134E+03  0.50400001928E-02 0.  1.
</event>
<event>
 5   0  0.1396936E-03  0.1098793E+04  0.7818609E-02  0.9206369E-01
        2   -1    0    0  501    0  0.00000000000E+00  0.00000000000E+00  0.40884365272E+03  0.40884365273E+03  0.25500000920E-02 0. -1.
       -2   -1    0    0    0  501  0.00000000000E+00  0.00000000000E+00 -0.73826844739E+03  0.73826844740E+03  0.25500000920E-02 0.  1.
    10030    2    1    2    0    0  0.00000000000E+00  0.00000000000E+00 -0.32942479467E+03  0.11471121001E+04  0.10987927352E+04 0.  0.
        2    1    3    3  502    0  0.14809063887E+03  0.38713942759E+01  0.38759924050E+03  0.41494457010E+03  0.25500000920E-02 0. -1.
       -2    1    3    3    0  502 -0.14809063887E+03 -0.38713942759E+01 -0.71702403517E+03  0.73216753003E+03  0.25500000920E-02 0.  1.
</event>
<event>
 5   0  0.1402775E-03  0.1092506E+04  0.7818609E-02  0.9212527E-01
        2   -1    0    0  501    0  0.00000000000E+00  0.00000000000E+00  0.86057030266E+03  0.86057030266E+03  0.25500000920E-02 0.  1.
       -2   -1    0    0    0  501  0.00000000000E+00  0.00000000000E+00 -0.34673759821E+03  0.34673759822E+03  0.25500000920E-02 0. -1.
    10030    2    1    2    0    0  0.00000000000E+00  0.00000000000E+00  0.51383270445E+03  0.12073079009E+04  0.10925055237E+04 0.  0.
        5    1    3    3  502    0  0.17444595649E+03 -0.23448737469E+03  0.76687807175E+03  0.82069469814E+03  0.46999998093E+01 0.  1.
       -5    1    3    3    0  502 -0.17444595649E+03  0.23448737469E+03 -0.25304536730E+03  0.38661320274E+03  0.46999998093E+01 0. -1.
</event>
<event>
 5   0  0.1402775E-03  0.1094385E+04  0.7818609E-02  0.9210682E-01
        2   -1    0    0  501    0  0.00000000000E+00  0.00000000000E+00  0.78768116879E+03  0.78768116879E+03  0.25500000920E-02 0. -1.
       -2   -1    0    0    0  501  0.00000000000E+00  0.00000000000E+00 -0.38012800815E+03  0.38012800816E+03  0.25500000920E-02 0.  1.
    10030    2    1    2    0    0  0.00000000000E+00  0.00000000000E+00  0.40755316063E+03  0.11678091770E+04  0.10943850762E+04 0.  0.
        5    1    3    3  502    0 -0.32186955932E+03 -0.20864319310E+03 -0.21261563770E+03  0.43858806942E+03  0.46999998093E+01 0.  1.
       -5    1    3    3    0  502  0.32186955932E+03  0.20864319310E+03  0.62016879833E+03  0.72922110753E+03  0.46999998093E+01 0. -1.
</event>
<event>
 5   0  0.7946038E-04  0.1098525E+04  0.7818609E-02  0.9206630E-01
        1   -1    0    0  501    0  0.00000000000E+00  0.00000000000E+00  0.92094994192E+03  0.92094994194E+03  0.50400001928E-02 0.  1.
       -1   -1    0    0    0  501  0.00000000000E+00  0.00000000000E+00 -0.32758517052E+03  0.32758517056E+03  0.50400001928E-02 0. -1.
    10030    2    1    2    0    0  0.00000000000E+00  0.00000000000E+00  0.59336477140E+03  0.12485351125E+04  0.10985254550E+04 0.  0.
        4    1    3    3  502    0 -0.13254000591E+03 -0.25653484787E+03 -0.23435903264E+03  0.37189077753E+03  0.12699999809E+01 0. -1.
       -4    1    3    3    0  502  0.13254000591E+03  0.25653484787E+03  0.82772380405E+03  0.87664433496E+03  0.12699999809E+01 0.  1.
</event>
<event>
 5   0  0.8305271E-04  0.1098860E+04  0.7818609E-02  0.9206304E-01
        1   -1    0    0  501    0  0.00000000000E+00  0.00000000000E+00  0.74808260750E+03  0.74808260752E+03  0.50400001928E-02 0. -1.
       -1   -1    0    0    0  501  0.00000000000E+00  0.00000000000E+00 -0.40352930991E+03  0.40352930994E+03  0.50400001928E-02 0.  1.
    10030    2    1    2    0    0  0.00000000000E+00  0.00000000000E+00  0.34455329759E+03  0.11516119175E+04  0.10988598789E+04 0.  0.
        5    1    3    3  502    0  0.26180300238E+03 -0.75968582308E+02  0.67218671409E+03  0.72537514856E+03  0.46999998093E+01 0. -1.
       -5    1    3    3    0  502 -0.26180300238E+03  0.75968582308E+02 -0.32763341650E+03  0.42623676889E+03  0.46999998093E+01 0.  1.
</event>
<event>
 5   0  0.1425432E-03  0.1108193E+04  0.7818609E-02  0.9197243E-01
       -2   -1    0    0    0  501  0.00000000000E+00  0.00000000000E+00  0.54744709175E+03  0.54744709175E+03  0.25500000920E-02 0.  1.
        2   -1    0    0  501    0  0.00000000000E+00  0.00000000000E+00 -0.56082704920E+03  0.56082704921E+03  0.25500000920E-02 0. -1.
    10030    2    1    2    0    0  0.00000000000E+00  0.00000000000E+00 -0.13379957459E+02  0.11082741410E+04  0.11081933713E+04 0.  0.
        1    1    3    3  502    0  0.46869208208E+03  0.23396344685E+03  0.17391104213E+03  0.55195671285E+03  0.50400001928E-02 0.  1.
       -1    1    3    3    0  502 -0.46869208208E+03 -0.23396344685E+03 -0.18729099959E+03  0.55631742811E+03  0.50400001928E-02 0. -1.
</event>
<event>
 5   0  0.1372794E-03  0.1101677E+04  0.7818609E-02  0.9203558E-01
       -2   -1    0    0    0  501  0.00000000000E+00  0.00000000000E+00  0.25436657870E+03  0.25436657872E+03  0.25500000920E-02 0. -1.
        2   -1    0    0  501    0  0.00000000000E+00  0.00000000000E+00 -0.11928582630E+04  0.11928582630E+04  0.25500000920E-02 0.  1.
    10030    2    1    2    0    0  0.00000000000E+00  0.00000000000E+00 -0.93849168434E+03  0.14472248418E+04  0.11016774033E+04 0.  0.
        4    1    3    3  502    0  0.25045811681E+03  0.48262397063E+03 -0.58501534229E+03  0.79868625186E+03  0.12699999809E+01 0.  1.
       -4    1    3    3    0  502 -0.25045811681E+03 -0.48262397063E+03 -0.35347634205E+03  0.64853858990E+03  0.12699999809E+01 0. -1.
</event>
<event>
 5   0  0.1396936E-03  0.1106249E+04  0.7818609E-02  0.9199122E-01
        2   -1    0    0  501    0  0.00000000000E+00  0.00000000000E+00  0.23896151269E+03  0.23896151270E+03  0.25500000920E-02 0. -1.
       -2   -1    0    0    0  501  0.00000000000E+00  0.00000000000E+00 -0.12803184527E+04  0.12803184527E+04  0.25500000920E-02 0.  1.
    10030    2    1    2    0    0  0.00000000000E+00  0.00000000000E+00 -0.10413569400E+04  0.15192799654E+04  0.11062492200E+04 0.  0.
        2    1    3    3  502    0  0.69983030138E+02 -0.40842221934E+03 -0.10238622283E+04  0.11045361906E+04  0.25500000920E-02 0.  1.
       -2    1    3    3    0  502 -0.69983030138E+02  0.40842221934E+03 -0.17494711636E+02  0.41474377475E+03  0.25500000920E-02 0. -1.
</event>
<event>
 5   0  0.1396936E-03  0.1098641E+04  0.7818609E-02  0.9206517E-01
        2   -1    0    0  501    0  0.00000000000E+00  0.00000000000E+00  0.13212261602E+04  0.13212261602E+04  0.25500000920E-02 0. -1.
       -2   -1    0    0    0  501  0.00000000000E+00  0.00000000000E+00 -0.22838869613E+03  0.22838869614E+03  0.25500000920E-02 0.  1.
    10030    2    1    2    0    0  0.00000000000E+00  0.00000000000E+00  0.10928374641E+04  0.15496148563E+04  0.10986411972E+04 0.  0.
        2    1    3    3  502    0  0.21246468957E+03 -0.14999662836E+03  0.12288839959E+04  0.12561035420E+04  0.25500000920E-02 0. -1.
       -2    1    3    3    0  502 -0.21246468957E+03  0.14999662836E+03 -0.13604653182E+03  0.29351131436E+03  0.25500000920E-02 0.  1.
</event>
<event>
 5   0  0.5409500E-04  0.1101235E+04  0.7818609E-02  0.9203989E-01
        4   -1    0    0  501    0  0.00000000000E+00  0.00000000000E+00  0.26997209220E+03  0.26997507935E+03  0.12699999809E+01 0. -1.
       -4   -1    0    0    0  501  0.00000000000E+00  0.00000000000E+00 -0.11229944108E+04  0.11229951290E+04  0.12699999809E+01 0.  1.
    10030    2    1    2    0    0  0.00000000000E+00  0.00000000000E+00 -0.85302231863E+03  0.13929702083E+04  0.11012351816E+04 0.  0.
        3    1    3    3  502    0 -0.22186626237E+03 -0.46187673233E+03 -0.17155925485E+03  0.54035853132E+03  0.10100000352E+00 0. -1.
       -3    1    3    3    0  502  0.22186626237E+03  0.46187673233E+03 -0.68146306378E+03  0.85261167699E+03  0.10100000352E+00 0.  1.
</event>
<event>
 5   0  0.8150924E-04  0.1099341E+04  0.7818609E-02  0.9205834E-01
       -1   -1    0    0    0  501  0.00000000000E+00  0.00000000000E+00  0.15630485777E+03  0.15630485785E+03  0.50400001928E-02 0.  1.
        1   -1    0    0  501    0  0.00000000000E+00  0.00000000000E+00 -0.19330032180E+04  0.19330032180E+04  0.50400001928E-02 0. -1.
    10030    2    1    2    0    0  0.00000000000E+00  0.00000000000E+00 -0.17766983602E+04  0.20893080759E+04  0.10993412448E+04 0.  0.
        3    1    3    3  502    0  0.72193259173E+02 -0.35273118751E+03 -0.98993295468E+02  0.37340439213E+03  0.10100000352E+00 0.  1.
       -3    1    3    3    0  502 -0.72193259173E+02  0.35273118751E+03 -0.16777050647E+04  0.17159036837E+04  0.10100000352E+00 0. -1.
</event>
<event>
 5   0  0.1402775E-03  0.1113094E+04  0.7818609E-02  0.9192522E-01
       -2   -1    0    0    0  501  0.00000000000E+00  0.00000000000E+00  0.81881015091E+03  0.81881015091E+03  0.25500000920E-02 0.  1.
        2   -1    0    0  501    0  0.00000000000E+00  0.00000000000E+00 -0.37828634585E+03  0.37828634586E+03  0.25500000920E-02 0. -1.
    10030    2    1    2    0    0  0.00000000000E+00  0.00000000000E+00  0.44052380506E+03  0.11970964968E+04  0.11130942457E+04 0.  0.
        5    1    3    3  502    0  0.44061441168E+03 -0.21203354766E+03  0.50606787635E+03  0.70372300700E+03  0.46999998093E+01 0.  1.
       -5    1    3    3    0  502 -0.44061441168E+03  0.21203354766E+03 -0.65544071290E+02  0.49337348976E+03  0.46999998093E+01 0. -1.
</event>
<event>
 5   0  0.1425432E-03  0.1102609E+04  0.7818609E-02  0.9202653E-01
       -2   -1    0    0    0  501  0.00000000000E+00  0.00000000000E+00  0.98323749392E+02  0.98323749425E+02  0.25500000920E-02 0. -1.
        2   -1    0    0  501    0  0.00000000000E+00  0.00000000000E+00 -0.30911835121E+04  0.30911835121E+04  0.25500000920E-02 0.  1.
    10030    2    1    2    0    0  0.00000000000E+00  0.00000000000E+00 -0.29928597627E+04  0.31895072615E+04  0.11026091838E+04 0.  0.
        1    1    3    3  502    0  0.89657371629E+02  0.54612394602E+02 -0.30620031066E+04  0.30638022101E+04  0.50400001928E-02 0.  1.
       -1    1    3    3    0  502 -0.89657371629E+02 -0.54612394602E+02  0.69143343855E+02  0.12570505144E+03  0.50400001928E-02 0. -1.
</event>
<event>
 5   0  0.7946038E-04  0.1146326E+04  0.7818609E-02  0.9161180E-01
       -1   -1    0    0    0  501  0.00000000000E+00  0.00000000000E+00  0.68300928324E+03  0.68300928325E+03  0.50400001928E-02 0. -1.
        1   -1    0    0  501    0  0.00000000000E+00  0.00000000000E+00 -0.48098267882E+03  0.48098267885E+03  0.50400001928E-02 0.  1.
    10030    2    1    2    0    0  0.00000000000E+00  0.00000000000E+00  0.20202660441E+03  0.11639919621E+04  0.11463256688E+04 0.  0.
        4    1    3    3  502    0 -0.16506489041E+03 -0.11696176833E+02 -0.45619753607E+03  0.48528447679E+03  0.12699999809E+01 0.  1.
       -4    1    3    3    0  502  0.16506489041E+03  0.11696176833E+02  0.65822414049E+03  0.67870748531E+03  0.12699999809E+01 0. -1.
</event>
<event>
 5   0  0.8150924E-04  0.1125722E+04  0.7818609E-02  0.9180477E-01
        1   -1    0    0  501    0  0.00000000000E+00  0.00000000000E+00  0.89641774561E+03  0.89641774563E+03  0.50400001928E-02 0.  1.
       -1   -1    0    0    0  501  0.00000000000E+00  0.00000000000E+00 -0.35342090385E+03  0.35342090388E+03  0.50400001928E-02 0. -1.
    10030    2    1    2    0    0  0.00000000000E+00  0.00000000000E+00  0.54299684177E+03  0.12498386495E+04  0.11257224701E+04 0.  0.
        3    1    3    3  502    0  0.35856426896E+03 -0.16166802613E+03  0.71851607047E+03  0.81912773080E+03  0.10100000352E+00 0.  1.
       -3    1    3    3    0  502 -0.35856426896E+03  0.16166802613E+03 -0.17551922870E+03  0.43071091871E+03  0.10100000352E+00 0. -1.
</event>
<event>
 5   0  0.1402775E-03  0.1107982E+04  0.7818609E-02  0.9197447E-01
        2   -1    0    0  501    0  0.00000000000E+00  0.00000000000E+00  0.18004679997E+04  0.18004679997E+04  0.25500000920E-02 0. -1.
       -2   -1    0    0    0  501  0.00000000000E+00  0.00000000000E+00 -0.17045894923E+03  0.17045894925E+03  0.25500000920E-02 0.  1.
    10030    2    1    2    0    0  0.00000000000E+00  0.00000000000E+00  0.16300090505E+04  0.19709269490E+04  0.11079817388E+04 0.  0.
        5    1    3    3  502    0  0.64385766770E+02 -0.53524143726E+03  0.10417975424E+04  0.11730273366E+04  0.46999998093E+01 0.  1.
       -5    1    3    3    0  502 -0.64385766770E+02  0.53524143726E+03  0.58821150809E+03  0.79789961234E+03  0.46999998093E+01 0. -1.
</event>
<event>
 5   0  0.1402775E-03  0.1101565E+04  0.7818609E-02  0.9203668E-01
        2   -1    0    0  501    0  0.00000000000E+00  0.00000000000E+00  0.54964556025E+03  0.54964556025E+03  0.25500000920E-02 0.  1.
       -2   -1    0    0    0  501  0.00000000000E+00  0.00000000000E+00 -0.55192196406E+03  0.55192196407E+03  0.25500000920E-02 0. -1.
    10030    2    1    2    0    0  0.00000000000E+00  0.00000000000E+00 -0.22764038129E+01  0.11015675243E+04  0.11015651722E+04 0.  0.
        5    1    3    3  502    0 -0.33668417188E+03 -0.32960841227E+03 -0.28634300112E+03  0.55137314164E+03  0.46999998093E+01 0.  1.
       -5    1    3    3    0  502  0.33668417188E+03  0.32960841227E+03  0.28406659730E+03  0.55019438268E+03  0.46999998093E+01 0. -1.
</event>
<event>
 5   0  0.1396936E-03  0.1086971E+04  0.7818609E-02  0.9217985E-01
       -2   -1    0    0    0  501  0.00000000000E+00  0.00000000000E+00  0.32260206032E+03  0.32260206033E+03  0.25500000920E-02 0.  1.
        2   -1    0    0  501    0  0.00000000000E+00  0.00000000000E+00 -0.91560598900E+03  0.91560598900E+03  0.25500000920E-02 0. -1.
    10030    2    1    2    0    0  0.00000000000E+00  0.00000000000E+00 -0.59300392868E+03  0.12382080493E+04  0.10869707972E+04 0.  0.
        2    1    3    3  502    0 -0.22763726982E+03 -0.14596781582E+03 -0.83353086212E+03  0.87629848110E+03  0.25500000920E-02 0. -1.
       -2    1    3    3    0  502  0.22763726982E+03  0.14596781582E+03  0.24052693343E+03  0.36190956823E+03  0.25500000920E-02 0.  1.
</event>
<event>
 5   0  0.1372794E-03  0.1099232E+04  0.7818609E-02  0.9205941E-01
       -2   -1    0    0    0  501  0.00000000000E+00  0.00000000000E+00  0.42665466408E+03  0.42665466409E+03  0.25500000920E-02 0. -1.
        2   -1    0    0  501    0  0.00000000000E+00  0.00000000000E+00 -0.70801467533E+03  0.70801467534E+03  0.25500000920E-02 0.  1.
    10030    2    1    2    0    0  0.00000000000E+00  0.00000000000E+00 -0.28136001125E+03  0.11346693394E+04  0.10992320291E+04 0.  0.
        4    1    3    3  502    0 -0.53096603977E+03 -0.12928150622E+03 -0.80159609467E+02  0.55232763749E+03  0.12699999809E+01 0.  1.
       -4    1    3    3    0  502  0.53096603977E+03  0.12928150622E+03 -0.20120040178E+03  0.58234170194E+03  0.12699999809E+01 0. -1.
</event>
<event>
 5   0  0.8009636E-04  0.1058494E+04  0.7818609E-02  0.9246618E-01
       -1   -1    0    0    0  501  0.00000000000E+00  0.00000000000E+00  0.21952998130E+03  0.21952998136E+03  0.50400001928E-02 0.  1.
        1   -1    0    0  501    0  0.00000000000E+00  0.00000000000E+00 -0.12759197604E+04  0.12759197604E+04  0.50400001928E-02 0. -1.
    10030    2    1    2    0    0  0.00000000000E+00  0.00000000000E+00 -0.10563897791E+04  0.14954497418E+04  0.10584944803E+04 0.  0.
        1    1    3    3  502    0 -0.40572197733E+03 -0.26198190301E+03 -0.22236905099E+03  0.53168866384E+03  0.50400001928E-02 0. -1.
       -1    1    3    3    0  502  0.40572197733E+03  0.26198190301E+03 -0.83402072814E+03  0.96376107796E+03  0.50400001928E-02 0.  1.
</event>
<event>
 5   0  0.8009636E-04  0.1100481E+04  0.7818609E-02  0.9204723E-01
        1   -1    0    0  501    0  0.00000000000E+00  0.00000000000E+00  0.15681124459E+04  0.15681124459E+04  0.50400001928E-02 0. -1.
       -1   -1    0    0    0  501  0.00000000000E+00  0.00000000000E+00 -0.19307585304E+03  0.19307585311E+03  0.50400001928E-02 0.  1.
    10030    2    1    2    0    0  0.00000000000E+00  0.00000000000E+00  0.13750365928E+04  0.17611882990E+04  0.11004810734E+04 0.  0.
        1    1    3    3  502    0  0.35324643717E+03 -0.12931850493E+03  0.44853828887E+02  0.37883794303E+03  0.50400001928E-02 0.  1.
       -1    1    3    3    0  502 -0.35324643717E+03  0.12931850493E+03  0.13301827640E+04  0.13823503560E+04  0.50400001928E-02 0. -1.
</event>
<event>
 5   0  0.8150924E-04  0.1099022E+04  0.7818609E-02  0.9206146E-01
        1   -1    0    0  501    0  0.00000000000E+00  0.00000000000E+00  0.92529978358E+03  0.92529978360E+03  0.50400001928E-02 0. -1.
       -1   -1    0    0    0  501  0.00000000000E+00  0.00000000000E+00 -0.32634001184E+03  0.32634001188E+03  0.50400001928E-02 0.  1.
    10030    2    1    2    0    0  0.00000000000E+00  0.00000000000E+00  0.59895977174E+03  0.12516397955E+04  0.10990220059E+04 0.  0.
        3    1    3    3  502    0  0.19123317894E+03  0.11995694195E+03  0.87005395285E+03  0.89886244093E+03  0.10100000352E+00 0. -1.
       -3    1    3    3    0  502 -0.19123317894E+03 -0.11995694195E+03 -0.27109418111E+03  0.35277735455E+03  0.10100000352E+00 0.  1.
</event>
<event>
 5   0  0.1425432E-03  0.1099242E+04  0.7818609E-02  0.9205931E-01
       -2   -1    0    0    0  501  0.00000000000E+00  0.00000000000E+00  0.32001318371E+03  0.32001318372E+03  0.25500000920E-02 0.  1.
        2   -1    0    0  501    0  0.00000000000E+00  0.00000000000E+00 -0.94397179877E+03  0.94397179877E+03  0.25500000920E-02 0. -1.
    10030    2    1    2    0    0  0.00000000000E+00  0.00000000000E+00 -0.62395861507E+03  0.12639849825E+04  0.10992423221E+04 0.  0.
        1    1    3    3  502    0  0.48652479145E+03 -0.41647561713E+02 -0.21896368967E+02  0.48879478628E+03  0.50400001928E-02 0.  1.
       -1    1    3    3    0  502 -0.48652479145E+03  0.41647561713E+02 -0.60206224610E+03  0.77519019621E+03  0.50400001928E-02 0. -1.
</event>
<event>
 5   0  0.5409500E-04  0.1108607E+04  0.7818609E-02  0.9196844E-01
       -3   -1    0    0    0  501  0.00000000000E+00  0.00000000000E+00  0.43368890380E+03  0.43368891556E+03  0.10100000352E+00 0. -1.
        3   -1    0    0  501    0  0.00000000000E+00  0.00000000000E+00 -0.70846200586E+03  0.70846201306E+03  0.10100000352E+00 0.  1.
    10030    2    1    2    0    0  0.00000000000E+00  0.00000000000E+00 -0.27477310206E+03  0.11421509286E+04  0.11086065515E+04 0.  0.
        1    1    3    3  502    0 -0.67194034394E+02 -0.52801201197E+03  0.22022047518E+02  0.53272572084E+03  0.50400001928E-02 0. -1.
       -1    1    3    3    0  502  0.67194034394E+02  0.52801201197E+03 -0.29679514958E+03  0.60942520778E+03  0.50400001928E-02 0.  1.
</event>
<event>
 5   0  0.1372794E-03  0.1096363E+04  0.7818609E-02  0.9208744E-01
        2   -1    0    0  501    0  0.00000000000E+00  0.00000000000E+00  0.77879133601E+03  0.77879133602E+03  0.25500000920E-02 0.  1.
       -2   -1    0    0    0  501  0.00000000000E+00  0.00000000000E+00 -0.38585789489E+03  0.38585789490E+03  0.25500000920E-02 0. -1.
    10030    2    1    2    0    0  0.00000000000E+00  0.00000000000E+00  0.39293344112E+03  0.11646492309E+04  0.10963626872E+04 0.  0.
        4    1    3    3  502    0  0.54287932408E+03  0.64241195083E+02  0.15323446468E+03  0.56773876539E+03  0.12699999809E+01 0. -1.
       -4    1    3    3    0  502 -0.54287932408E+03 -0.64241195083E+02  0.23969897644E+03  0.59691046553E+03  0.12699999809E+01 0.  1.
</event>
<event>
 5   0  0.7946038E-04  0.1099005E+04  0.7818609E-02  0.9206162E-01
        1   -1    0    0  501    0  0.00000000000E+00  0.00000000000E+00  0.14577665220E+04  0.14577665220E+04  0.50400001928E-02 0.  1.
       -1   -1    0    0    0  501  0.00000000000E+00  0.00000000000E+00 -0.20713416232E+03  0.20713416238E+03  0.50400001928E-02 0. -1.
    10030    2    1    2    0    0  0.00000000000E+00  0.00000000000E+00  0.12506323597E+04  0.16649006844E+04  0.10990054548E+04 0.  0.
        4    1    3    3  502    0  0.41657877584E+03 -0.35627870349E+03  0.68358125597E+03  0.87621763134E+03  0.12699999809E+01 0.  1.
       -4    1    3    3    0  502 -0.41657877584E+03  0.35627870349E+03  0.56705110368E+03  0.78868305303E+03  0.12699999809E+01 0. -1.
</event>
<event>
 5   0  0.8305271E-04  0.1099354E+04  0.7818609E-02  0.9205822E-01
        1   -1    0    0  501    0  0.00000000000E+00  0.00000000000E+00  0.11262938482E+04  0.11262938482E+04  0.50400001928E-02 0.  1.
       -1   -1    0    0    0  501  0.00000000000E+00  0.00000000000E+00 -0.26826461580E+03  0.26826461585E+03  0.50400001928E-02 0. -1.
    10030    2    1    2    0    0  0.00000000000E+00  0.00000000000E+00  0.85802923244E+03  0.13945584641E+04  0.10993539676E+04 0.  0.
        5    1    3    3  502    0 -0.41580601457E+03 -0.15470895539E+03  0.84063732613E+03  0.95053811429E+03  0.46999998093E+01 0.  1.
       -5    1    3    3    0  502  0.41580601457E+03  0.15470895539E+03  0.17391906302E+02  0.44402034980E+03  0.46999998093E+01 0. -1.
</event>
<event>
 5   0  0.1425432E-03  0.1099965E+04  0.7818609E-02  0.9205226E-01
       -2   -1    0    0    0  501  0.00000000000E+00  0.00000000000E+00  0.14087225203E+03  0.14087225206E+03  0.25500000920E-02 0. -1.
        2   -1    0    0  501    0  0.00000000000E+00  0.00000000000E+00 -0.21471981096E+04  0.21471981097E+04  0.25500000920E-02 0.  1.
    10030    2    1    2    0    0  0.00000000000E+00  0.00000000000E+00 -0.20063258576E+04  0.22880703617E+04  0.10999647873E+04 0.  0.
        1    1    3    3  502    0 -0.43917667598E+03 -0.32269293071E+03 -0.84926485233E+03  0.10090875431E+04  0.50400001928E-02 0. -1.
       -1    1    3    3    0  502  0.43917667598E+03  0.32269293071E+03 -0.11570610053E+04  0.12789828186E+04  0.50400001928E-02 0.  1.
</event>
<event>
 5   0  0.8150924E-04  0.1099997E+04  0.7818609E-02  0.9205195E-01
        1   -1    0    0  501    0  0.00000000000E+00  0.00000000000E+00  0.19796262060E+04  0.19796262060E+04  0.50400001928E-02 0.  1.
       -1   -1    0    0    0  501  0.00000000000E+00  0.00000000000E+00 -0.15280587167E+03  0.15280587175E+03  0.50400001928E-02 0. -1.
    10030    2    1    2    0    0  0.00000000000E+00  0.00000000000E+00  0.18268203343E+04  0.21324320777E+04  0.10999972874E+04 0.  0.
        3    1    3    3  502    0 -0.37819003902E+03 -0.39928807159E+03  0.92564445238E+03  0.10766969547E+04  0.10100000352E+00 0. -1.
       -3    1    3    3    0  502  0.37819003902E+03  0.39928807159E+03  0.90117588190E+03  0.10557351231E+04  0.10100000352E+00 0.  1.
</event>
<event>
 5   0  0.1396936E-03  0.1098310E+04  0.7818609E-02  0.9206841E-01
        2   -1    0    0  501    0  0.00000000000E+00  0.00000000000E+00  0.58423458485E+03  0.58423458485E+03  0.25500000920E-02 0.  1.
       -2   -1    0    0    0  501  0.00000000000E+00  0.00000000000E+00 -0.51618167568E+03  0.51618167568E+03  0.25500000920E-02 0. -1.
    10030    2    1    2    0    0  0.00000000000E+00  0.00000000000E+00  0.68052909171E+02  0.11004162605E+04  0.10983099508E+04 0.  0.
        2    1    3    3  502    0  0.54135408648E+03  0.65422280836E+02  0.99165483608E+02  0.55423651533E+03  0.25500000920E-02 0.  1.
       -2    1    3    3    0  502 -0.54135408648E+03 -0.65422280836E+02 -0.31112574437E+02  0.54617974521E+03  0.25500000920E-02 0. -1.
</event>
<event>
 5   0  0.1396936E-03  0.1093569E+04  0.7818609E-02  0.9211482E-01
        2   -1    0    0  501    0  0.00000000000E+00  0.00000000000E+00  0.56088832450E+03  0.56088832451E+03  0.25500000920E-02 0.  1.
       -2   -1    0    0    0  501  0.00000000000E+00  0.00000000000E+00 -0.53303554413E+03  0.53303554413E+03  0.25500000920E-02 0. -1.
    10030    2    1    2    0    0  0.00000000000E+00  0.00000000000E+00  0.27852780376E+02  0.10939238686E+04  0.10935692264E+04 0.  0.
        2    1    3    3  502    0  0.33133909620E+03 -0.43470663167E+03 -0.84189831856E+00  0.54658591373E+03  0.25500000920E-02 0. -1.
       -2    1    3    3    0  502 -0.33133909620E+03  0.43470663167E+03  0.28694678695E+02  0.54733795491E+03  0.25500000920E-02 0.  1.
</event>
<event>
 5   0  0.1372794E-03  0.1106922E+04  0.7818609E-02  0.9198472E-01
       -2   -1    0    0    0  501  0.00000000000E+00  0.00000000000E+00  0.12074786868E+04  0.12074786868E+04  0.25500000920E-02 0. -1.
        2   -1    0    0  501    0  0.00000000000E+00  0.00000000000E+00 -0.25368475444E+03  0.25368475445E+03  0.25500000920E-02 0.  1.
    10030    2    1    2    0    0  0.00000000000E+00  0.00000000000E+00  0.95379393233E+03  0.14611634412E+04  0.11069217392E+04 0.  0.
        4    1    3    3  502    0 -0.73289386291E+02 -0.49674381041E+03  0.16960743622E+03  0.52999437982E+03  0.12699999809E+01 0.  1.
       -4    1    3    3    0  502  0.73289386291E+02  0.49674381041E+03  0.78418649611E+03  0.93116906140E+03  0.12699999809E+01 0. -1.
</event>
<event>
 5   0  0.1402775E-03  0.1083319E+04  0.7818609E-02  0.9221605E-01
        2   -1    0    0  501    0  0.00000000000E+00  0.00000000000E+00  0.23976226785E+04  0.23976226785E+04  0.25500000920E-02 0. -1.
       -2   -1    0    0    0  501  0.00000000000E+00  0.00000000000E+00 -0.12236910605E+03  0.12236910608E+03  0.25500000920E-02 0.  1.
    10030    2    1    2    0    0  0.00000000000E+00  0.00000000000E+00  0.22752535724E+04  0.25199917845E+04  0.10833188706E+04 0.  0.
        5    1    3    3  502    0  0.13959704080E+03 -0.40278201041E+03  0.36034873391E+03  0.55820603879E+03  0.46999998093E+01 0.  1.
       -5    1    3    3    0  502 -0.13959704080E+03  0.40278201041E+03  0.19149048385E+04  0.19617857458E+04  0.46999998093E+01 0. -1.
</event>
<event>
 5   0  0.1425432E-03  0.1103865E+04  0.7818609E-02  0.9201433E-01
       -2   -1    0    0    0  501  0.00000000000E+00  0.00000000000E+00  0.40109795522E+03  0.40109795523E+03  0.25500000920E-02 0. -1.
        2   -1    0    0  501    0  0.00000000000E+00  0.00000000000E+00 -0.75948880131E+03  0.75948880132E+03  0.25500000920E-02 0.  1.
    10030    2    1    2    0    0  0.00000000000E+00  0.00000000000E+00 -0.35839084609E+03  0.11605867565E+04  0.11038648563E+04 0.  0.
        1    1    3    3  502    0 -0.15273027115E+03  0.47567918559E+03 -0.42583914727E+03  0.65645731217E+03  0.50400001928E-02 0.  1.
       -1    1    3    3    0  502  0.15273027115E+03 -0.47567918559E+03  0.67448301184E+02  0.50412944438E+03  0.50400001928E-02 0. -1.
</event>
<event>
 5   0  0.1402775E-03  0.1099329E+04  0.7818609E-02  0.9205847E-01
       -2   -1    0    0    0  501  0.00000000000E+00  0.00000000000E+00  0.27592269410E+03  0.27592269412E+03  0.25500000920E-02 0.  1.
        2   -1    0    0  501    0  0.00000000000E+00  0.00000000000E+00 -0.10949836600E+04  0.10949836600E+04  0.25500000920E-02 0. -1.
    10030    2    1    2    0    0  0.00000000000E+00  0.00000000000E+00 -0.81906096585E+03  0.13709063541E+04  0.10993285978E+04 0.  0.
        5    1    3    3  502    0 -0.30572621530E+03  0.34834750708E+03 -0.41085136811E+02  0.46532202063E+03  0.46999998093E+01 0.  1.
       -5    1    3    3    0  502  0.30572621530E+03 -0.34834750708E+03 -0.77797582904E+03  0.90558433345E+03  0.46999998093E+01 0. -1.
</event>
<event>
 5   0  0.7946038E-04  0.1098376E+04  0.7818609E-02  0.9206776E-01
       -1   -1    0    0    0  501  0.00000000000E+00  0.00000000000E+00  0.32517997393E+03  0.32517997397E+03  0.50400001928E-02 0.  1.
        1   -1    0    0  501    0  0.00000000000E+00  0.00000000000E+00 -0.92750934952E+03  0.92750934954E+03  0.50400001928E-02 0. -1.
    10030    2    1    2    0    0  0.00000000000E+00  0.00000000000E+00 -0.60232937560E+03  0.12526893235E+04  0.10983760124E+04 0.  0.
        4    1    3    3  502    0 -0.27950505026E+03  0.46935553491E+03 -0.23676814919E+03  0.59538093742E+03  0.12699999809E+01 0.  1.
       -4    1    3    3    0  502  0.27950505026E+03 -0.46935553491E+03 -0.36556122640E+03  0.65730838609E+03  0.12699999809E+01 0. -1.
</event>
<event>
 5   0  0.8305271E-04  0.1101313E+04  0.7818609E-02  0.9203913E-01
        1   -1    0    0  501    0  0.00000000000E+00  0.00000000000E+00  0.55570493904E+03  0.55570493906E+03  0.50400001928E-02 0.  1.
       -1   -1    0    0    0  501  0.00000000000E+00  0.00000000000E+00 -0.54565420195E+03  0.54565420198E+03  0.50400001928E-02 0. -1.
    10030    2    1    2    0    0  0.00000000000E+00  0.00000000000E+00  0.10050737083E+02  0.11013591410E+04  0.11013132798E+04 0.  0.
        5    1    3    3  502    0 -0.40084075301E+03  0.18263174026E+03  0.33545247981E+03  0.55369496840E+03  0.46999998093E+01 0.  1.
       -5    1    3    3    0  502  0.40084075301E+03 -0.18263174026E+03 -0.32540174273E+03  0.54766417264E+03  0.46999998093E+01 0. -1.
</event>
<event>
 5   0  0.1372794E-03  0.1097196E+04  0.7818609E-02  0.9207929E-01
       -2   -1    0    0    0  501  0.00000000000E+00  0.00000000000E+00  0.78848307009E+03  0.78848307009E+03  0.25500000920E-02 0. -1.
        2   -1    0    0  501    0  0.00000000000E+00  0.00000000000E+00 -0.38169445128E+03  0.38169445128E+03  0.25500000920E-02 0.  1.
    10030    2    1    2    0    0  0.00000000000E+00  0.00000000000E+00  0.40678861882E+03  0.11701775214E+04  0.10971957214E+04 0.  0.
        4    1    3    3  502    0 -0.38271877863E+03 -0.18136938744E+02  0.62213676927E+03  0.73065613297E+03  0.12699999809E+01 0. -1.
       -4    1    3    3    0  502  0.38271877863E+03  0.18136938744E+02 -0.21534815046E+03  0.43952138841E+03  0.12699999809E+01 0.  1.
</event>
<event>
 5   0  0.1396936E-03  0.1084061E+04  0.7818609E-02  0.9220868E-01
       -2   -1    0    0    0  501  0.00000000000E+00  0.00000000000E+00  0.80779225912E+03  0.80779225913E+03  0.25500000920E-02 0. -1.
        2   -1    0    0  501    0  0.00000000000E+00  0.00000000000E+00 -0.36370376577E+03  0.36370376578E+03  0.25500000920E-02 0.  1.
    10030    2    1    2    0    0  0.00000000000E+00  0.00000000000E+00  0.44408849335E+03  0.11714960249E+04  0.10840610437E+04 0.  0.
        2    1    3    3  502    0  0.17307523905E+03  0.34473413171E+03 -0.18945753630E+03  0.42975669629E+03  0.25500000920E-02 0.  1.
       -2    1    3    3    0  502 -0.17307523905E+03 -0.34473413171E+03  0.63354602965E+03  0.74173932862E+03  0.25500000920E-02 0. -1.
</event>
<event>
 5   0  0.8305271E-04  0.1101144E+04  0.7818609E-02  0.9204078E-01
       -1   -1    0    0    0  501  0.00000000000E+00  0.00000000000E+00  0.28209223413E+03  0.28209223418E+03  0.50400001928E-02 0.  1.
        1   -1    0    0  501    0  0.00000000000E+00  0.00000000000E+00 -0.10745752488E+04  0.10745752488E+04  0.50400001928E-02 0. -1.
    10030    2    1    2    0    0  0.00000000000E+00  0.00000000000E+00 -0.79248301468E+03  0.13566674830E+04  0.11011436468E+04 0.  0.
        5    1    3    3  502    0  0.18036626524E+03 -0.43802330898E+03 -0.50583441801E+02  0.47642122479E+03  0.46999998093E+01 0.  1.
       -5    1    3    3    0  502 -0.18036626524E+03  0.43802330898E+03 -0.74189957288E+03  0.88024625821E+03  0.46999998093E+01 0. -1.
</event>
<event>
 5   0  0.8341767E-04  0.1097737E+04  0.7818609E-02  0.9207400E-01
        1   -1    0    0  501    0  0.00000000000E+00  0.00000000000E+00  0.42266503486E+03  0.42266503489E+03  0.50400001928E-02 0.  1.
       -1   -1    0    0    0  501  0.00000000000E+00  0.00000000000E+00 -0.71275509630E+03  0.71275509631E+03  0.50400001928E-02 0. -1.
    10030    2    1    2    0    0  0.00000000000E+00  0.00000000000E+00 -0.29009006144E+03  0.11354201312E+04  0.10977370498E+04 0.  0.
        2    1    3    3  502    0  0.13132008893E+03 -0.20526108045E+02 -0.69585781031E+03  0.70843798532E+03  0.25500000920E-02 0. -1.
       -2    1    3    3    0  502 -0.13132008893E+03  0.20526108045E+02  0.40576774887E+03  0.42698214588E+03  0.25500000920E-02 0.  1.
</event>
<event>
 5   0  0.1402775E-03  0.1100226E+04  0.7818609E-02  0.9204972E-01
       -2   -1    0    0    0  501  0.00000000000E+00  0.00000000000E+00  0.40966206015E+03  0.40966206016E+03  0.25500000920E-02 0. -1.
        2   -1    0    0  501    0  0.00000000000E+00  0.00000000000E+00 -0.73871635159E+03  0.73871635159E+03  0.25500000920E-02 0.  1.
    10030    2    1    2    0    0  0.00000000000E+00  0.00000000000E+00 -0.32905429144E+03  0.11483784118E+04  0.11002255450E+04 0.  0.
        5    1    3    3  502    0  0.14740255619E+03 -0.35031327775E+03 -0.57961961064E+03  0.69312905665E+03  0.46999998093E+01 0.  1.
       -5    1    3    3    0  502 -0.14740255619E+03  0.35031327775E+03  0.25056531920E+03  0.45524935510E+03  0.46999998093E+01 0. -1.
</event>
<event>
 5   0  0.8341767E-04  0.1088342E+04  0.7818609E-02  0.9216630E-01
       -1   -1    0    0    0  501  0.00000000000E+00  0.00000000000E+00  0.23989114372E+03  0.23989114377E+03  0.50400001928E-02 0.  1.
        1   -1    0    0  501    0  0.00000000000E+00  0.00000000000E+00 -0.12344011166E+04  0.12344011166E+04  0.50400001928E-02 0. -1.
    10030    2    1    2    0    0  0.00000000000E+00  0.00000000000E+00 -0.99450997284E+03  0.14742922603E+04  0.10883416664E+04 0.  0.
        2    1    3    3  502    0 -0.91858869039E+02  0.37007438743E+03  0.28661079722E+02  0.38238012704E+03  0.25500000920E-02 0.  1.
       -2    1    3    3    0  502  0.91858869039E+02 -0.37007438743E+03 -0.10231710526E+04  0.10919121333E+04  0.25500000920E-02 0. -1.
</event>
<event>
 5   0  0.8150924E-04  0.1101431E+04  0.7818609E-02  0.9203798E-01
       -1   -1    0    0    0  501  0.00000000000E+00  0.00000000000E+00  0.60385514369E+03  0.60385514371E+03  0.50400001928E-02 0.  1.
        1   -1    0    0  501    0  0.00000000000E+00  0.00000000000E+00 -0.50225254741E+03  0.50225254744E+03  0.50400001928E-02 0. -1.
    10030    2    1    2    0    0  0.00000000000E+00  0.00000000000E+00  0.10160259628E+03  0.11061076912E+04  0.11014314036E+04 0.  0.
        3    1    3    3  502    0  0.28641036362E+03  0.55862948010E+02 -0.41823217488E+03  0.50997032036E+03  0.10100000352E+00 0. -1.
       -3    1    3    3    0  502 -0.28641036362E+03 -0.55862948010E+02  0.51983477115E+03  0.59613737079E+03  0.10100000352E+00 0.  1.
</event>
<event>
 5   0  0.8009636E-04  0.1101583E+04  0.7818609E-02  0.9203650E-01
        1   -1    0    0  501    0  0.00000000000E+00  0.00000000000E+00  0.74087417212E+03  0.74087417214E+03  0.50400001928E-02 0. -1.
       -1   -1    0    0    0  501  0.00000000000E+00  0.00000000000E+00 -0.40947762018E+03  0.40947762021E+03  0.50400001928E-02 0.  1.
    10030    2    1    2    0    0  0.00000000000E+00  0.00000000000E+00  0.33139655194E+03  0.11503517923E+04  0.11015832113E+04 0.  0.
        1    1    3    3  502    0  0.54836866505E+02 -0.44900283437E+03 -0.16247679600E+03  0.48063430637E+03  0.50400001928E-02 0.  1.
       -1    1    3    3    0  502 -0.54836866505E+02  0.44900283437E+03  0.49387334793E+03  0.66971748598E+03  0.50400001928E-02 0. -1.
</event>
<event>
 5   0  0.1425432E-03  0.1098404E+04  0.7818609E-02  0.9206749E-01
       -2   -1    0    0    0  501  0.00000000000E+00  0.00000000000E+00  0.15073788594E+03  0.15073788596E+03  0.25500000920E-02 0.  1.
        2   -1    0    0  501    0  0.00000000000E+00  0.00000000000E+00 -0.20009765979E+04  0.20009765979E+04  0.25500000920E-02 0. -1.
    10030    2    1    2    0    0  0.00000000000E+00  0.00000000000E+00 -0.18502387120E+04  0.21517144839E+04  0.10984042647E+04 0.  0.
        1    1    3    3  502    0  0.26112353066E+03  0.22030325163E+03 -0.17674750976E+04  0.18001908903E+04  0.50400001928E-02 0. -1.
       -1    1    3    3    0  502 -0.26112353066E+03 -0.22030325163E+03 -0.82763614402E+02  0.35152359357E+03  0.50400001928E-02 0.  1.
</event>
<event>
 5   0  0.5409500E-04  0.1102222E+04  0.7818609E-02  0.9203028E-01
        3   -1    0    0  501    0  0.00000000000E+00  0.00000000000E+00  0.14367047785E+04  0.14367047820E+04  0.10100000352E+00 0.  1.
       -3   -1    0    0    0  501  0.00000000000E+00  0.00000000000E+00 -0.21140291681E+03  0.21140294094E+03  0.10100000352E+00 0. -1.
    10030    2    1    2    0    0  0.00000000000E+00  0.00000000000E+00  0.12253018617E+04  0.16481077230E+04  0.11022224886E+04 0.  0.
        1    1    3    3  502    0  0.33377746509E+03 -0.24086693913E+03  0.11606164632E+04  0.12314442144E+04  0.50400001928E-02 0.  1.
       -1    1    3    3    0  502 -0.33377746509E+03  0.24086693913E+03  0.64685398497E+02  0.41666350857E+03  0.50400001928E-02 0. -1.
</event>
<event>
 5   0  0.1429680E-03  0.1083701E+04  0.7818609E-02  0.9221225E-01
       -2   -1    0    0    0  501  0.00000000000E+00  0.00000000000E+00  0.29507473925E+03  0.29507473926E+03  0.25500000920E-02 0. -1.
        2   -1    0    0  501    0  0.00000000000E+00  0.00000000000E+00 -0.99500876058E+03  0.99500876059E+03  0.25500000920E-02 0.  1.
    10030    2    1    2    0    0  0.00000000000E+00  0.00000000000E+00 -0.69993402134E+03  0.12900834998E+04  0.10837009746E+04 0.  0.
        3    1    3    3  502    0  0.17010827135E+03 -0.23205701030E+02  0.26183998261E+03  0.31310623634E+03  0.10100000352E+00 0. -1.
       -3    1    3    3    0  502 -0.17010827135E+03  0.23205701030E+02 -0.96177400395E+03  0.97697726351E+03  0.10100000352E+00 0.  1.
</event>
<event>
 5   0  0.1402775E-03  0.1099134E+04  0.7818609E-02  0.9206036E-01
        2   -1    0    0  501    0  0.00000000000E+00  0.00000000000E+00  0.47190608967E+03  0.47190608968E+03  0.25500000920E-02 0.  1.
       -2   -1    0    0    0  501  0.00000000000E+00  0.00000000000E+00 -0.64000876907E+03  0.64000876907E+03  0.25500000920E-02 0. -1.
    10030    2    1    2    0    0  0.00000000000E+00  0.00000000000E+00 -0.16810267940E+03  0.11119148587E+04  0.10991342695E+04 0.  0.
        5    1    3    3  502    0 -0.47805805175E+03 -0.25253192899E+03 -0.18363411661E+03  0.57101265729E+03  0.46999998093E+01 0. -1.
       -5    1    3    3    0  502  0.47805805175E+03  0.25253192899E+03  0.15531437204E+02  0.54090220146E+03  0.46999998093E+01 0.  1.
</event>
<event>
 5   0  0.1372794E-03  0.1110761E+04  0.7818609E-02  0.9194766E-01
       -2   -1    0    0    0  501  0.00000000000E+00  0.00000000000E+00  0.32981686415E+03  0.32981686416E+03  0.25500000920E-02 0.  1.
        2   -1    0    0  501    0  0.00000000000E+00  0.00000000000E+00 -0.93520913908E+03  0.93520913908E+03  0.25500000920E-02 0. -1.
    10030    2    1    2    0    0  0.00000000000E+00  0.00000000000E+00 -0.60539227493E+03  0.12650260032E+04  0.11107614426E+04 0.  0.
        4    1    3    3  502    0  0.16737806438E-01  0.39226105258E+03  0.14507042053E+03  0.41822933118E+03  0.12699999809E+01 0.  1.
       -4    1    3    3    0  502 -0.16737806438E-01 -0.39226105258E+03 -0.75046269545E+03  0.84679667206E+03  0.12699999809E+01 0. -1.
</event>
<event>
 5   0  0.1425432E-03  0.1099262E+04  0.7818609E-02  0.9205911E-01
        2   -1    0    0  501    0  0.00000000000E+00  0.00000000000E+00  0.80311039270E+03  0.80311039270E+03  0.25500000920E-02 0.  1.
       -2   -1    0    0    0  501  0.00000000000E+00  0.00000000000E+00 -0.37615563755E+03  0.37615563755E+03  0.25500000920E-02 0. -1.
    10030    2    1    2    0    0  0.00000000000E+00  0.00000000000E+00  0.42695475515E+03  0.11792660303E+04  0.10992624833E+04 0.  0.
        1    1    3    3  502    0  0.38248399818E+03 -0.30245770068E+03 -0.58593986283E+02  0.49112923434E+03  0.50400001928E-02 0. -1.
       -1    1    3    3    0  502 -0.38248399818E+03  0.30245770068E+03  0.48554874144E+03  0.68813679592E+03  0.50400001928E-02 0.  1.
</event>
<event>
 5   0  0.8341767E-04  0.1097867E+04  0.7818609E-02  0.9207274E-01
        1   -1    0    0  501    0  0.00000000000E+00  0.00000000000E+00  0.26659664232E+03  0.26659664236E+03  0.50400001928E-02 0.  1.
       -1   -1    0    0    0  501  0.00000000000E+00  0.00000000000E+00 -0.11302761218E+04  0.11302761218E+04  0.50400001928E-02 0. -1.
    10030    2    1    2    0    0  0.00000000000E+00  0.00000000000E+00 -0.86367947949E+03  0.13968727642E+04  0.10978666932E+04 0.  0.
        2    1    3    3  502    0  0.20208377649E+02  0.54163021531E+03 -0.54244035299E+03  0.76682019093E+03  0.25500000920E-02 0. -1.
       -2    1    3    3    0  502 -0.20208377649E+02 -0.54163021531E+03 -0.32123912650E+03  0.63005257325E+03  0.25500000920E-02 0.  1.
</event>
<event>
 5   0  0.8150924E-04  0.1102674E+04  0.7818609E-02  0.9202589E-01
        1   -1    0    0  501    0  0.00000000000E+00  0.00000000000E+00  0.72219152694E+03  0.72219152696E+03  0.50400001928E-02 0.  1.
       -1   -1    0    0    0  501  0.00000000000E+00  0.00000000000E+00 -0.42090299613E+03  0.42090299616E+03  0.50400001928E-02 0. -1.
    10030    2    1    2    0    0  0.00000000000E+00  0.00000000000E+00  0.30128853081E+03  0.11430945231E+04  0.11026741631E+04 0.  0.
        3    1    3    3  502    0  0.26183602028E+03 -0.38536234664E+03 -0.15496790041E+03  0.49099623225E+03  0.10100000352E+00 0.  1.
       -3    1    3    3    0  502 -0.26183602028E+03  0.38536234664E+03  0.45625643122E+03  0.65209829087E+03  0.10100000352E+00 0. -1.
</event>
<event>
 5   0  0.1429680E-03  0.1096027E+04  0.7818609E-02  0.9209073E-01
        2   -1    0    0  501    0  0.00000000000E+00  0.00000000000E+00  0.51260283437E+03  0.51260283437E+03  0.25500000920E-02 0.  1.
       -2   -1    0    0    0  501  0.00000000000E+00  0.00000000000E+00 -0.58586992999E+03  0.58586993000E+03  0.25500000920E-02 0. -1.
    10030    2    1    2    0    0  0.00000000000E+00  0.00000000000E+00 -0.73267095624E+02  0.10984727644E+04  0.10960266177E+04 0.  0.
        3    1    3    3  502    0  0.44003352926E+02 -0.54557318984E+03 -0.63752688353E+02  0.55104520324E+03  0.10100000352E+00 0. -1.
       -3    1    3    3    0  502 -0.44003352926E+02  0.54557318984E+03 -0.95144072705E+01  0.54742756113E+03  0.10100000352E+00 0.  1.
</event>
<event>
 5   0  0.1429680E-03  0.1118944E+04  0.7818609E-02  0.9186922E-01
       -2   -1    0    0    0  501  0.00000000000E+00  0.00000000000E+00  0.30035439474E+03  0.30035439475E+03  0.25500000920E-02 0. -1.
        2   -1    0    0  501    0  0.00000000000E+00  0.00000000000E+00 -0.10421326350E+04  0.10421326350E+04  0.25500000920E-02 0.  1.
    10030    2    1    2    0    0  0.00000000000E+00  0.00000000000E+00 -0.74177824031E+03  0.13424870298E+04  0.11189443540E+04 0.  0.
        3    1    3    3  502    0 -0.72298742333E+02  0.47298614699E+03 -0.71875518770E+03  0.86345355024E+03  0.10100000352E+00 0.  1.
       -3    1    3    3    0  502  0.72298742333E+02 -0.47298614699E+03 -0.23023052610E+02  0.47903347956E+03  0.10100000352E+00 0. -1.
</event>
<event>
 5   0  0.8341767E-04  0.1104921E+04  0.7818609E-02  0.9200409E-01
        1   -1    0    0  501    0  0.00000000000E+00  0.00000000000E+00  0.30514502133E+03  0.30514502137E+03  0.50400001928E-02 0. -1.
       -1   -1    0    0    0  501  0.00000000000E+00  0.00000000000E+00 -0.10002208901E+04  0.10002208901E+04  0.50400001928E-02 0.  1.
    10030    2    1    2    0    0  0.00000000000E+00  0.00000000000E+00 -0.69507586877E+03  0.13053659115E+04  0.11049206757E+04 0.  0.
        2    1    3    3  502    0  0.41772456791E+03  0.34257030068E+03 -0.21096248462E+03  0.57995982228E+03  0.25500000920E-02 0.  1.
       -2    1    3    3    0  502 -0.41772456791E+03 -0.34257030068E+03 -0.48411338415E+03  0.72540608921E+03  0.25500000920E-02 0. -1.
</event>
<event>
 5   0  0.8009636E-04  0.1090074E+04  0.7818609E-02  0.9214921E-01
       -1   -1    0    0    0  501  0.00000000000E+00  0.00000000000E+00  0.51717469286E+03  0.51717469289E+03  0.50400001928E-02 0.  1.
        1   -1    0    0  501    0  0.00000000000E+00  0.00000000000E+00 -0.57440059449E+03  0.57440059451E+03  0.50400001928E-02 0. -1.
    10030    2    1    2    0    0  0.00000000000E+00  0.00000000000E+00 -0.57225901624E+02  0.10915752874E+04  0.10900742196E+04 0.  0.
        1    1    3    3  502    0  0.34217037579E+03  0.42382724314E+03 -0.97361852021E+01  0.54479802810E+03  0.50400001928E-02 0. -1.
       -1    1    3    3    0  502 -0.34217037579E+03 -0.42382724314E+03 -0.47489716421E+02  0.54677725930E+03  0.50400001928E-02 0.  1.
</event>
<event>
 5   0  0.1402775E-03  0.1095737E+04  0.7818609E-02  0.9209357E-01
       -2   -1    0    0    0  501  0.00000000000E+00  0.00000000000E+00  0.32181143574E+03  0.32181143575E+03  0.25500000920E-02 0.  1.
        2   -1    0    0  501    0  0.00000000000E+00  0.00000000000E+00 -0.93271901923E+03  0.93271901923E+03  0.25500000920E-02 0. -1.
    10030    2    1    2    0    0  0.00000000000E+00  0.00000000000E+00 -0.61090758349E+03  0.12545304550E+04  0.10957365500E+04 0.  0.
        5    1    3    3  502    0 -0.54692138384E+03  0.31379447926E+02 -0.31171294101E+03  0.63031318997E+03  0.46999998093E+01 0. -1.
       -5    1    3    3    0  502  0.54692138384E+03 -0.31379447926E+02 -0.29919464248E+03  0.62421726501E+03  0.46999998093E+01 0.  1.
</event>
<event>
 5   0  0.7946038E-04  0.1098685E+04  0.7818609E-02  0.9206474E-01
        1   -1    0    0  501    0  0.00000000000E+00  0.00000000000E+00  0.16173793167E+04  0.16173793168E+04  0.50400001928E-02 0.  1.
       -1   -1    0    0    0  501  0.00000000000E+00  0.00000000000E+00 -0.18658414538E+03  0.18658414545E+03  0.50400001928E-02 0. -1.
    10030    2    1    2    0    0  0.00000000000E+00  0.00000000000E+00  0.14307951714E+04  0.18039634622E+04  0.10986852828E+04 0.  0.
        4    1    3    3  502    0 -0.20769074701E+03 -0.50061177669E+03  0.56828102699E+03  0.78529773710E+03  0.12699999809E+01 0.  1.
       -4    1    3    3    0  502  0.20769074701E+03  0.50061177669E+03  0.86251414437E+03  0.10186657251E+04  0.12699999809E+01 0. -1.
</event>
<event>
 5   0  0.8009636E-04  0.1098676E+04  0.7818609E-02  0.9206483E-01
       -1   -1    0    0    0  501  0.00000000000E+00  0.00000000000E+00  0.16984989300E+03  0.16984989308E+03  0.50400001928E-02 0. -1.
        1   -1    0    0  501    0  0.00000000000E+00  0.00000000000E+00 -0.17767008218E+04  0.17767008218E+04  0.50400001928E-02 0.  1.
    10030    2    1    2    0    0  0.00000000000E+00  0.00000000000E+00 -0.16068509288E+04  0.19465507149E+04  0.10986763756E+04 0.  0.
        1    1    3    3  502    0 -0.97738481530E+02 -0.42607950514E+02 -0.17581924225E+04  0.17614223919E+04  0.50400001928E-02 0.  1.
       -1    1    3    3    0  502  0.97738481530E+02  0.42607950514E+02  0.15134149371E+03  0.18512832296E+03  0.50400001928E-02 0. -1.
</event>
<event>
 5   0  0.1372794E-03  0.1084024E+04  0.7818609E-02  0.9220905E-01
        2   -1    0    0  501    0  0.00000000000E+00  0.00000000000E+00  0.40322918954E+03  0.40322918955E+03  0.25500000920E-02 0. -1.
       -2   -1    0    0    0  501  0.00000000000E+00  0.00000000000E+00 -0.72856032105E+03  0.72856032105E+03  0.25500000920E-02 0.  1.
    10030    2    1    2    0    0  0.00000000000E+00  0.00000000000E+00 -0.32533113151E+03  0.11317895106E+04  0.10840235935E+04 0.  0.
        4    1    3    3  502    0  0.47371457095E+02 -0.22894506847E+03 -0.67320652574E+03  0.71264895883E+03  0.12699999809E+01 0.  1.
       -4    1    3    3    0  502 -0.47371457095E+02  0.22894506847E+03  0.34787539423E+03  0.41914055177E+03  0.12699999809E+01 0. -1.
</event>
<event>
 5   0  0.8009636E-04  0.1104437E+04  0.7818609E-02  0.9200878E-01
       -1   -1    0    0    0  501  0.00000000000E+00  0.00000000000E+00  0.45726603462E+03  0.45726603465E+03  0.50400001928E-02 0. -1.
        1   -1    0    0  501    0  0.00000000000E+00  0.00000000000E+00 -0.66688798346E+03  0.66688798348E+03  0.50400001928E-02 0.  1.
    10030    2    1    2    0    0  0.00000000000E+00  0.00000000000E+00 -0.20962194883E+03  0.11241540181E+04  0.11044369131E+04 0.  0.
        1    1    3    3  502    0 -0.52088413949E+03 -0.51643817572E+02  0.74278606845E+02  0.52868202365E+03  0.50400001928E-02 0. -1.
       -1    1    3    3    0  502  0.52088413949E+03  0.51643817572E+02 -0.28390055568E+03  0.59547199448E+03  0.50400001928E-02 0.  1.
</event>
<event>
 5   0  0.8009636E-04  0.1096254E+04  0.7818609E-02  0.9208851E-01
        1   -1    0    0  501    0  0.00000000000E+00  0.00000000000E+00  0.19170173012E+03  0.19170173019E+03  0.50400001928E-02 0.  1.
       -1   -1    0    0    0  501  0.00000000000E+00  0.00000000000E+00 -0.15672430442E+04  0.15672430442E+04  0.50400001928E-02 0. -1.
    10030    2    1    2    0    0  0.00000000000E+00  0.00000000000E+00 -0.13755413141E+04  0.17589447744E+04  0.10962539909E+04 0.  0.
        1    1    3    3  502    0  0.42543647422E+03 -0.33924089158E+03 -0.58179281820E+03  0.79659491553E+03  0.50400001928E-02 0.  1.
       -1    1    3    3    0  502 -0.42543647422E+03  0.33924089158E+03 -0.79374849588E+03  0.96234985887E+03  0.50400001928E-02 0. -1.
</event>
<event>
 5   0  0.8009636E-04  0.1094164E+04  0.7818609E-02  0.9210899E-01
        1   -1    0    0  501    0  0.00000000000E+00  0.00000000000E+00  0.62536919253E+03  0.62536919255E+03  0.50400001928E-02 0.  1.
       -1   -1    0    0    0  501  0.00000000000E+00  0.00000000000E+00 -0.47859493262E+03  0.47859493265E+03  0.50400001928E-02 0. -1.
    10030    2    1    2    0    0  0.00000000000E+00  0.00000000000E+00  0.14677425991E+03  0.11039641252E+04  0.10941636561E+04 0.  0.
        1    1    3    3  502    0  0.88058351791E+02  0.46058812669E+03 -0.21092190973E+03  0.51418260161E+03  0.50400001928E-02 0. -1.
       -1    1    3    3    0  502 -0.88058351791E+02 -0.46058812669E+03  0.35769616964E+03  0.58978152359E+03  0.50400001928E-02 0.  1.
</event>
<event>
 5   0  0.8305271E-04  0.1101103E+04  0.7818609E-02  0.9204118E-01
        1   -1    0    0  501    0  0.00000000000E+00  0.00000000000E+00  0.61639535202E+03  0.61639535204E+03  0.50400001928E-02 0. -1.
       -1   -1    0    0    0  501  0.00000000000E+00  0.00000000000E+00 -0.49174078912E+03  0.49174078914E+03  0.50400001928E-02 0.  1.
    10030    2    1    2    0    0  0.00000000000E+00  0.00000000000E+00  0.12465456290E+03  0.11081361412E+04  0.11011026053E+04 0.  0.
        5    1    3    3  502    0 -0.44163984735E+03 -0.12669025887E+03 -0.24290609991E+03  0.51973227707E+03  0.46999998093E+01 0.  1.
       -5    1    3    3    0  502  0.44163984735E+03  0.12669025887E+03  0.36756066281E+03  0.58840386411E+03  0.46999998093E+01 0. -1.
</event>
<event>
 5   0  0.8305271E-04  0.1102749E+04  0.7818609E-02  0.9202517E-01
        1   -1    0    0  501    0  0.00000000000E+00  0.00000000000E+00  0.13092829009E+04  0.13092829009E+04  0.50400001928E-02 0. -1.
       -1   -1    0    0    0  501  0.00000000000E+00  0.00000000000E+00 -0.23219855208E+03  0.23219855213E+03  0.50400001928E-02 0.  1.
    10030    2    1    2    0    0  0.00000000000E+00  0.00000000000E+00  0.10770843488E+04  0.15414814530E+04  0.11027485550E+04 0.  0.
        5    1    3    3  502    0  0.44589017416E+03  0.62291237944E+02  0.98343159325E+03  0.10815997570E+04  0.46999998093E+01 0. -1.
       -5    1    3    3    0  502 -0.44589017416E+03 -0.62291237944E+02  0.93652755575E+02  0.45988169605E+03  0.46999998093E+01 0.  1.
</event>
<event>
 5   0  0.8341767E-04  0.1065271E+04  0.7818609E-02  0.9239718E-01
        1   -1    0    0  501    0  0.00000000000E+00  0.00000000000E+00  0.18337185661E+04  0.18337185661E+04  0.50400001928E-02 0. -1.
       -1   -1    0    0    0  501  0.00000000000E+00  0.00000000000E+00 -0.15471317229E+03  0.15471317237E+03  0.50400001928E-02 0.  1.
    10030    2    1    2    0    0  0.00000000000E+00  0.00000000000E+00  0.16790053938E+04  0.19884317385E+04  0.10652707009E+04 0.  0.
        2    1    3    3  502    0 -0.46435603322E+03  0.11896473552E+03  0.40606087685E+03  0.62822334373E+03  0.25500000920E-02 0.  1.
       -2    1    3    3    0  502  0.46435603322E+03 -0.11896473552E+03  0.12729445170E+04  0.13602083948E+04  0.25500000920E-02 0. -1.
</event>
<event>
 5   0  0.8341767E-04  0.1139528E+04  0.7818609E-02  0.9167499E-01
        1   -1    0    0  501    0  0.00000000000E+00  0.00000000000E+00  0.11771726514E+04  0.11771726514E+04  0.50400001928E-02 0.  1.
       -1   -1    0    0    0  501  0.00000000000E+00  0.00000000000E+00 -0.27577167584E+03  0.27577167588E+03  0.50400001928E-02 0. -1.
    10030    2    1    2    0    0  0.00000000000E+00  0.00000000000E+00  0.90140097557E+03  0.14529443273E+04  0.11395277528E+04 0.  0.
        2    1    3    3  502    0  0.31698394250E+02  0.25585828087E+03 -0.19714397717E+03  0.32455199249E+03  0.25500000920E-02 0. -1.
       -2    1    3    3    0  502 -0.31698394250E+02 -0.25585828087E+03  0.10985449527E+04  0.11283923348E+04  0.25500000920E-02 0.  1.
</event>
<event>
 5   0  0.8341767E-04  0.1099782E+04  0.7818609E-02  0.9205404E-01
       -1   -1    0    0    0  501  0.00000000000E+00  0.00000000000E+00  0.32597866313E+03  0.32597866317E+03  0.50400001928E-02 0.  1.
        1   -1    0    0  501    0  0.00000000000E+00  0.00000000000E+00 -0.92760784595E+03  0.92760784597E+03  0.50400001928E-02 0. -1.
    10030    2    1    2    0    0  0.00000000000E+00  0.00000000000E+00 -0.60162918282E+03  0.12535865091E+04  0.10997824613E+04 0.  0.
        2    1    3    3  502    0  0.17176922544E+03 -0.25090176440E+03 -0.82306473753E+03  0.87743485477E+03  0.25500000920E-02 0. -1.
       -2    1    3    3    0  502 -0.17176922544E+03  0.25090176440E+03  0.22143555470E+03  0.37615165437E+03  0.25500000920E-02 0.  1.
</event>
<event>
 5   0  0.1402775E-03  0.1099309E+04  0.7818609E-02  0.9205866E-01
       -2   -1    0    0    0  501  0.00000000000E+00  0.00000000000E+00  0.26439573830E+03  0.26439573831E+03  0.25500000920E-02 0.  1.
        2   -1    0    0  501    0  0.00000000000E+00  0.00000000000E+00 -0.11426805990E+04  0.11426805990E+04  0.25500000920E-02 0. -1.
    10030    2    1    2    0    0  0.00000000000E+00  0.00000000000E+00 -0.87828486072E+03  0.14070763373E+04  0.10993086566E+04 0.  0.
        5    1    3    3  502    0  0.10473395754E+03 -0.13231949875E+03  0.23039065276E+03  0.28562141812E+03  0.46999998093E+01 0.  1.
       -5    1    3    3    0  502 -0.10473395754E+03  0.13231949875E+03 -0.11086755135E+04  0.11214549192E+04  0.46999998093E+01 0. -1.
</event>
<event>
 5   0  0.8009636E-04  0.1132357E+04  0.7818609E-02  0.9174216E-01
       -1   -1    0    0    0  501  0.00000000000E+00  0.00000000000E+00  0.17098697027E+03  0.17098697034E+03  0.50400001928E-02 0.  1.
        1   -1    0    0  501    0  0.00000000000E+00  0.00000000000E+00 -0.18747523240E+04  0.18747523240E+04  0.50400001928E-02 0. -1.
    10030    2    1    2    0    0  0.00000000000E+00  0.00000000000E+00 -0.17037653538E+04  0.20457392944E+04  0.11323572227E+04 0.  0.
        1    1    3    3  502    0  0.19107881016E+03  0.53025662396E+03 -0.94875224051E+03  0.11035461082E+04  0.50400001928E-02 0. -1.
       -1    1    3    3    0  502 -0.19107881016E+03 -0.53025662396E+03 -0.75501311325E+03  0.94219318621E+03  0.50400001928E-02 0.  1.
</event>
<event>
 5   0  0.5409500E-04  0.1100557E+04  0.7818609E-02  0.9204650E-01
        3   -1    0    0  501    0  0.00000000000E+00  0.00000000000E+00  0.20009528420E+03  0.20009530970E+03  0.10100000352E+00 0.  1.
       -3   -1    0    0    0  501  0.00000000000E+00  0.00000000000E+00 -0.15133097389E+04  0.15133097423E+04  0.10100000352E+00 0. -1.
    10030    2    1    2    0    0  0.00000000000E+00  0.00000000000E+00 -0.13132144547E+04  0.17134050520E+04  0.11005565265E+04 0.  0.
        2    1    3    3  502    0 -0.34823252514E+03  0.90202850529E+02 -0.83059220124E+01  0.35982139202E+03  0.25500000920E-02 0.  1.
       -2    1    3    3    0  502  0.34823252514E+03 -0.90202850529E+02 -0.13049085327E+04  0.13535836600E+04  0.25500000920E-02 0. -1.
</event>
<event>
 5   0  0.1429680E-03  0.1100433E+04  0.7818609E-02  0.9204770E-01
       -2   -1    0    0    0  501  0.00000000000E+00  0.00000000000E+00  0.43496267971E+03  0.43496267972E+03  0.25500000920E-02 0. -1.
        2   -1    0    0  501    0  0.00000000000E+00  0.00000000000E+00 -0.69601005259E+03  0.69601005260E+03  0.25500000920E-02 0.  1.
    10030    2    1    2    0    0  0.00000000000E+00  0.00000000000E+00 -0.26104737288E+03  0.11309727323E+04  0.11004333648E+04 0.  0.
        3    1    3    3  502    0 -0.17993723771E+03 -0.37156829279E+03  0.24329843173E+03  0.47920198539E+03  0.10100000352E+00 0. -1.
       -3    1    3    3    0  502  0.17993723771E+03  0.37156829279E+03 -0.50434580460E+03  0.65177074692E+03  0.10100000352E+00 0.  1.
</event>
<event>
 5   0  0.7946038E-04  0.1102347E+04  0.7818609E-02  0.9202908E-01
       -1   -1    0    0    0  501  0.00000000000E+00  0.00000000000E+00  0.60394409005E+03  0.60394409007E+03  0.50400001928E-02 0.  1.
        1   -1    0    0  501    0  0.00000000000E+00  0.00000000000E+00 -0.50301355476E+03  0.50301355479E+03  0.50400001928E-02 0. -1.
    10030    2    1    2    0    0  0.00000000000E+00  0.00000000000E+00  0.10093053529E+03  0.11069576449E+04  0.11023467034E+04 0.  0.
        4    1    3    3  502    0  0.20234900748E+03  0.50732345327E+03 -0.23791617164E+02  0.54670820463E+03  0.12699999809E+01 0.  1.
       -4    1    3    3    0  502 -0.20234900748E+03 -0.50732345327E+03  0.12472215245E+03  0.56024944023E+03  0.12699999809E+01 0. -1.
</event>
<event>
 5   0  0.1372794E-03  0.1102912E+04  0.7818609E-02  0.9202358E-01
       -2   -1    0    0    0  501  0.00000000000E+00  0.00000000000E+00  0.17223118163E+03  0.17223118165E+03  0.25500000920E-02 0. -1.
        2   -1    0    0  501    0  0.00000000000E+00  0.00000000000E+00 -0.17656731989E+04  0.17656731989E+04  0.25500000920E-02 0.  1.
    10030    2    1    2    0    0  0.00000000000E+00  0.00000000000E+00 -0.15934420172E+04  0.19379043805E+04  0.11029124742E+04 0.  0.
        4    1    3    3  502    0  0.53264050704E+03  0.12196014342E+03 -0.66615002907E+03  0.86159019287E+03  0.12699999809E+01 0.  1.
       -4    1    3    3    0  502 -0.53264050704E+03 -0.12196014342E+03 -0.92729198816E+03  0.10763141876E+04  0.12699999809E+01 0. -1.
</event>
<event>
 5   0  0.1425432E-03  0.1103300E+04  0.7818609E-02  0.9201981E-01
        2   -1    0    0  501    0  0.00000000000E+00  0.00000000000E+00  0.88069290827E+03  0.88069290827E+03  0.25500000920E-02 0.  1.
       -2   -1    0    0    0  501  0.00000000000E+00  0.00000000000E+00 -0.34554352634E+03  0.34554352634E+03  0.25500000920E-02 0. -1.
    10030    2    1    2    0    0  0.00000000000E+00  0.00000000000E+00  0.53514938193E+03  0.12262364346E+04  0.11033000193E+04 0.  0.
        1    1    3    3  502    0  0.18729525908E+03 -0.50684403885E+03  0.14407459871E+03  0.55922078271E+03  0.50400001928E-02 0.  1.
       -1    1    3    3    0  502 -0.18729525908E+03  0.50684403885E+03  0.39107478323E+03  0.66701565191E+03  0.50400001928E-02 0. -1.
</event>
<event>
 5   0  0.8150924E-04  0.1101964E+04  0.7818609E-02  0.9203280E-01
       -1   -1    0    0    0  501  0.00000000000E+00  0.00000000000E+00  0.80117740368E+03  0.80117740370E+03  0.50400001928E-02 0.  1.
        1   -1    0    0  501    0  0.00000000000E+00  0.00000000000E+00 -0.37891870033E+03  0.37891870036E+03  0.50400001928E-02 0. -1.
    10030    2    1    2    0    0  0.00000000000E+00  0.00000000000E+00  0.42225870335E+03  0.11800961041E+04  0.11019638843E+04 0.  0.
        3    1    3    3  502    0  0.33568804011E+02 -0.47902355733E+03 -0.78194109988E+02  0.48652313626E+03  0.10100000352E+00 0. -1.
       -3    1    3    3    0  502 -0.33568804011E+02  0.47902355733E+03  0.50045281334E+03  0.69357296780E+03  0.10100000352E+00 0.  1.
</event>
<event>
 5   0  0.1429680E-03  0.1098318E+04  0.7818609E-02  0.9206832E-01
        2   -1    0    0  501    0  0.00000000000E+00  0.00000000000E+00  0.19016827083E+04  0.19016827083E+04  0.25500000920E-02 0.  1.
       -2   -1    0    0    0  501  0.00000000000E+00  0.00000000000E+00 -0.15858365400E+03  0.15858365402E+03  0.25500000920E-02 0. -1.
    10030    2    1    2    0    0  0.00000000000E+00  0.00000000000E+00  0.17430990543E+04  0.20602663623E+04  0.10983183375E+04 0.  0.
        3    1    3    3  502    0  0.10827832179E+03  0.35635422746E+03  0.11453068616E+03  0.38965345972E+03  0.10100000352E+00 0. -1.
       -3    1    3    3    0  502 -0.10827832179E+03 -0.35635422746E+03  0.16285683681E+04  0.16706129026E+04  0.10100000352E+00 0.  1.
</event>
<event>
 5   0  0.7946038E-04  0.1099578E+04  0.7818609E-02  0.9205603E-01
        1   -1    0    0  501    0  0.00000000000E+00  0.00000000000E+00  0.19442291207E+03  0.19442291213E+03  0.50400001928E-02 0.  1.
       -1   -1    0    0    0  501  0.00000000000E+00  0.00000000000E+00 -0.15546933370E+04  0.15546933370E+04  0.50400001928E-02 0. -1.
    10030    2    1    2    0    0  0.00000000000E+00  0.00000000000E+00 -0.13602704249E+04  0.17491162491E+04  0.10995781118E+04 0.  0.
        4    1    3    3  502    0  0.18197527379E+02  0.43798702277E+03 -0.15230846138E+03  0.46407247541E+03  0.12699999809E+01 0.  1.
       -4    1    3    3    0  502 -0.18197527379E+02 -0.43798702277E+03 -0.12079619635E+04  0.12850437737E+04  0.12699999809E+01 0. -1.
</event>
<event>
 5   0  0.1396936E-03  0.1100143E+04  0.7818609E-02  0.9205053E-01
       -2   -1    0    0    0  501  0.00000000000E+00  0.00000000000E+00  0.19987759371E+03  0.19987759372E+03  0.25500000920E-02 0. -1.
        2   -1    0    0  501    0  0.00000000000E+00  0.00000000000E+00 -0.15138196247E+04  0.15138196247E+04  0.25500000920E-02 0.  1.
    10030    2    1    2    0    0  0.00000000000E+00  0.00000000000E+00 -0.13139420310E+04  0.17136972184E+04  0.11001429433E+04 0.  0.
        2    1    3    3  502    0  0.17972160104E+03  0.48916494684E+03 -0.38272471576E+03  0.64657590981E+03  0.25500000920E-02 0. -1.
       -2    1    3    3    0  502 -0.17972160104E+03 -0.48916494684E+03 -0.93121731522E+03  0.10671213086E+04  0.25500000920E-02 0.  1.
</event>
<event>
 5   0  0.7946038E-04  0.1099249E+04  0.7818609E-02  0.9205925E-01
       -1   -1    0    0    0  501  0.00000000000E+00  0.00000000000E+00  0.68810993101E+03  0.68810993103E+03  0.50400001928E-02 0.  1.
        1   -1    0    0  501    0  0.00000000000E+00  0.00000000000E+00 -0.43900960961E+03  0.43900960963E+03  0.50400001928E-02 0. -1.
    10030    2    1    2    0    0  0.00000000000E+00  0.00000000000E+00  0.24910032141E+03  0.11271195407E+04  0.10992486019E+04 0.  0.
        4    1    3    3  502    0  0.35543715436E+02  0.37629176609E+03  0.53369926936E+03  0.65398422913E+03  0.12699999809E+01 0.  1.
       -4    1    3    3    0  502 -0.35543715436E+02 -0.37629176609E+03 -0.28459894796E+03  0.47313531153E+03  0.12699999809E+01 0. -1.
</event>
<event>
 5   0  0.7946038E-04  0.1099294E+04  0.7818609E-02  0.9205880E-01
        1   -1    0    0  501    0  0.00000000000E+00  0.00000000000E+00  0.79065560288E+03  0.79065560289E+03  0.50400001928E-02 0. -1.
       -1   -1    0    0    0  501  0.00000000000E+00  0.00000000000E+00 -0.38210314598E+03  0.38210314602E+03  0.50400001928E-02 0.  1.
    10030    2    1    2    0    0  0.00000000000E+00  0.00000000000E+00  0.40855245690E+03  0.11727587489E+04  0.10992943069E+04 0.  0.
        4    1    3    3  502    0  0.26767377522E+03  0.47180612238E+03  0.10969409490E+03  0.55342991825E+03  0.12699999809E+01 0.  1.
       -4    1    3    3    0  502 -0.26767377522E+03 -0.47180612238E+03  0.29885836200E+03  0.61932883066E+03  0.12699999809E+01 0. -1.
</event>
<event>
 5   0  0.8341767E-04  0.1052659E+04  0.7818609E-02  0.9252603E-01
       -1   -1    0    0    0  501  0.00000000000E+00  0.00000000000E+00  0.11999566358E+03  0.11999566369E+03  0.50400001928E-02 0. -1.
        1   -1    0    0  501    0  0.00000000000E+00  0.00000000000E+00 -0.23086046275E+04  0.23086046275E+04  0.50400001928E-02 0.  1.
    10030    2    1    2    0    0  0.00000000000E+00  0.00000000000E+00 -0.21886089639E+04  0.24286002911E+04  0.10526586234E+04 0.  0.
        2    1    3    3  502    0  0.12913191393E+03 -0.14312677743E+03  0.35619986820E+02  0.19603343868E+03  0.25500000920E-02 0. -1.
       -2    1    3    3    0  502 -0.12913191393E+03  0.14312677743E+03 -0.22242289507E+04  0.22325668525E+04  0.25500000920E-02 0.  1.
</event>
<event>
 5   0  0.1396936E-03  0.1099126E+04  0.7818609E-02  0.9206044E-01
       -2   -1    0    0    0  501  0.00000000000E+00  0.00000000000E+00  0.14489567854E+03  0.14489567856E+03  0.25500000920E-02 0. -1.
        2   -1    0    0  501    0  0.00000000000E+00  0.00000000000E+00 -0.20843933258E+04  0.20843933258E+04  0.25500000920E-02 0.  1.
    10030    2    1    2    0    0  0.00000000000E+00  0.00000000000E+00 -0.19394976473E+04  0.22292890044E+04  0.10991261717E+04 0.  0.
        2    1    3    3  502    0 -0.36183287178E+03  0.24756386877E+03 -0.29764374318E+03  0.52990819401E+03  0.25500000920E-02 0. -1.
       -2    1    3    3    0  502  0.36183287178E+03 -0.24756386877E+03 -0.16418539041E+04  0.16993808104E+04  0.25500000920E-02 0.  1.
</event>
<event>
 5   0  0.1425432E-03  0.1100518E+04  0.7818609E-02  0.9204687E-01
       -2   -1    0    0    0  501  0.00000000000E+00  0.00000000000E+00  0.12380996462E+04  0.12380996462E+04  0.25500000920E-02 0. -1.
        2   -1    0    0  501    0  0.00000000000E+00  0.00000000000E+00 -0.24455621471E+03  0.24455621473E+03  0.25500000920E-02 0.  1.
    10030    2    1    2    0    0  0.00000000000E+00  0.00000000000E+00  0.99354343144E+03  0.14826558609E+04  0.11005179924E+04 0.  0.
        1    1    3    3  502    0  0.43241889332E+03 -0.25345370483E+03  0.19085724869E+03  0.53633139866E+03  0.50400001928E-02 0.  1.
       -1    1    3    3    0  502 -0.43241889332E+03  0.25345370483E+03  0.80268618275E+03  0.94632446222E+03  0.50400001928E-02 0. -1.
</event>
<event>
 5   0  0.5409500E-04  0.1095275E+04  0.7818609E-02  0.9209809E-01
        4   -1    0    0  501    0  0.00000000000E+00  0.00000000000E+00  0.88413999254E+03  0.88414090467E+03  0.12699999809E+01 0. -1.
       -4   -1    0    0    0  501  0.00000000000E+00  0.00000000000E+00 -0.33920516178E+03  0.33920753924E+03  0.12699999809E+01 0.  1.
    10030    2    1    2    0    0  0.00000000000E+00  0.00000000000E+00  0.54493483076E+03  0.12233484439E+04  0.10952750547E+04 0.  0.
        2    1    3    3  502    0 -0.23329127556E+03  0.31816122991E+03  0.69668935785E+03  0.80064189799E+03  0.25500000920E-02 0. -1.
       -2    1    3    3    0  502  0.23329127556E+03 -0.31816122991E+03 -0.15175452708E+03  0.42270654592E+03  0.25500000920E-02 0.  1.
</event>
<event>
 5   0  0.1425432E-03  0.1094315E+04  0.7818609E-02  0.9210751E-01
        2   -1    0    0  501    0  0.00000000000E+00  0.00000000000E+00  0.11484477373E+04  0.11484477373E+04  0.25500000920E-02 0. -1.
       -2   -1    0    0    0  501  0.00000000000E+00  0.00000000000E+00 -0.26068350006E+03  0.26068350007E+03  0.25500000920E-02 0.  1.
    10030    2    1    2    0    0  0.00000000000E+00  0.00000000000E+00  0.88776423724E+03  0.14091312374E+04  0.10943150841E+04 0.  0.
        1    1    3    3  502    0 -0.73914072079E+02  0.14415759681E+03 -0.22909308777E+03  0.28058571891E+03  0.50400001928E-02 0.  1.
       -1    1    3    3    0  502  0.73914072079E+02 -0.14415759681E+03  0.11168573250E+04  0.11285455185E+04  0.50400001928E-02 0. -1.
</event>
<event>
 5   0  0.8009636E-04  0.1094741E+04  0.7818609E-02  0.9210333E-01
        1   -1    0    0  501    0  0.00000000000E+00  0.00000000000E+00  0.82047065491E+03  0.82047065493E+03  0.50400001928E-02 0. -1.
       -1   -1    0    0    0  501  0.00000000000E+00  0.00000000000E+00 -0.36517367603E+03  0.36517367607E+03  0.50400001928E-02 0.  1.
    10030    2    1    2    0    0  0.00000000000E+00  0.00000000000E+00  0.45529697888E+03  0.11856443310E+04  0.10947406728E+04 0.  0.
        1    1    3    3  502    0  0.40783616130E+03 -0.22122772805E+03 -0.86884171229E+02  0.47203908880E+03  0.50400001928E-02 0.  1.
       -1    1    3    3    0  502 -0.40783616130E+03  0.22122772805E+03  0.54218115011E+03  0.71360524219E+03  0.50400001928E-02 0. -1.
</event>
<event>
 5   0  0.1402775E-03  0.1104676E+04  0.7818609E-02  0.9200646E-01
        2   -1    0    0  501    0  0.00000000000E+00  0.00000000000E+00  0.59760193271E+03  0.59760193272E+03  0.25500000920E-02 0.  1.
       -2   -1    0    0    0  501  0.00000000000E+00  0.00000000000E+00 -0.51050261939E+03  0.51050261940E+03  0.25500000920E-02 0. -1.
    10030    2    1    2    0    0  0.00000000000E+00  0.00000000000E+00  0.87099313321E+02  0.11081045521E+04  0.11046761553E+04 0.  0.
        5    1    3    3  502    0  0.24126815902E+02  0.34258934011E+03 -0.39034996507E+03  0.51994686693E+03  0.46999998093E+01 0. -1.
       -5    1    3    3    0  502 -0.24126815902E+02 -0.34258934011E+03  0.47744927840E+03  0.58815768518E+03  0.46999998093E+01 0.  1.
</event>
<event>
 5   0  0.5409500E-04  0.1102780E+04  0.7818609E-02  0.9202487E-01
       -3   -1    0    0    0  501  0.00000000000E+00  0.00000000000E+00  0.42731359747E+03  0.42731360940E+03  0.10100000352E+00 0.  1.
        3   -1    0    0  501    0  0.00000000000E+00  0.00000000000E+00 -0.71149336822E+03  0.71149337539E+03  0.10100000352E+00 0. -1.
    10030    2    1    2    0    0  0.00000000000E+00  0.00000000000E+00 -0.28417977076E+03  0.11388069848E+04  0.11027797634E+04 0.  0.
        4    1    3    3  502    0  0.15428143068E+03 -0.42543359893E+02 -0.68697985361E+03  0.70537623258E+03  0.12699999809E+01 0. -1.
       -4    1    3    3    0  502 -0.15428143068E+03  0.42543359893E+02  0.40280008285E+03  0.43343075222E+03  0.12699999809E+01 0.  1.
</event>
<event>
 5   0  0.1372794E-03  0.1098112E+04  0.7818609E-02  0.9207034E-01
        2   -1    0    0  501    0  0.00000000000E+00  0.00000000000E+00  0.29558880280E+03  0.29558880281E+03  0.25500000920E-02 0. -1.
       -2   -1    0    0    0  501  0.00000000000E+00  0.00000000000E+00 -0.10198718060E+04  0.10198718060E+04  0.25500000920E-02 0.  1.
    10030    2    1    2    0    0  0.00000000000E+00  0.00000000000E+00 -0.72428300321E+03  0.13154606088E+04  0.10981123552E+04 0.  0.
        4    1    3    3  502    0  0.94142994290E+02  0.53171904516E+03 -0.24311155741E+03  0.59219328652E+03  0.12699999809E+01 0. -1.
       -4    1    3    3    0  502 -0.94142994290E+02 -0.53171904516E+03 -0.48117144581E+03  0.72326732231E+03  0.12699999809E+01 0.  1.
</event>
<event>
 5   0  0.1372794E-03  0.1100960E+04  0.7818609E-02  0.9204257E-01
        2   -1    0    0  501    0  0.00000000000E+00  0.00000000000E+00  0.10975524344E+04  0.10975524344E+04  0.25500000920E-02 0. -1.
       -2   -1    0    0    0  501  0.00000000000E+00  0.00000000000E+00 -0.27609454206E+03  0.27609454207E+03  0.25500000920E-02 0.  1.
    10030    2    1    2    0    0  0.00000000000E+00  0.00000000000E+00  0.82145789233E+03  0.13736469765E+04  0.11009600116E+04 0.  0.
        4    1    3    3  502    0  0.54708373400E+03  0.21604638366E+02  0.33949901512E+03  0.64422710791E+03  0.12699999809E+01 0. -1.
       -4    1    3    3    0  502 -0.54708373400E+03 -0.21604638366E+02  0.48195887721E+03  0.72941986855E+03  0.12699999809E+01 0.  1.
</event>
<event>
 5   0  0.8341767E-04  0.1091805E+04  0.7818609E-02  0.9213216E-01
       -1   -1    0    0    0  501  0.00000000000E+00  0.00000000000E+00  0.16864308438E+03  0.16864308446E+03  0.50400001928E-02 0. -1.
        1   -1    0    0  501    0  0.00000000000E+00  0.00000000000E+00 -0.17671027209E+04  0.17671027209E+04  0.50400001928E-02 0.  1.
    10030    2    1    2    0    0  0.00000000000E+00  0.00000000000E+00 -0.15984596365E+04  0.19357458053E+04  0.10918052085E+04 0.  0.
        2    1    3    3  502    0  0.71129117117E+02 -0.46897379957E+03 -0.32015221185E+03  0.57227022878E+03  0.25500000920E-02 0. -1.
       -2    1    3    3    0  502 -0.71129117117E+02  0.46897379957E+03 -0.12783074246E+04  0.13634755766E+04  0.25500000920E-02 0.  1.
</event>
<event>
 5   0  0.8009636E-04  0.1099891E+04  0.7818609E-02  0.9205298E-01
        1   -1    0    0  501    0  0.00000000000E+00  0.00000000000E+00  0.12421101446E+04  0.12421101446E+04  0.50400001928E-02 0. -1.
       -1   -1    0    0    0  501  0.00000000000E+00  0.00000000000E+00 -0.24348883331E+03  0.24348883336E+03  0.50400001928E-02 0.  1.
    10030    2    1    2    0    0  0.00000000000E+00  0.00000000000E+00  0.99862131128E+03  0.14855989780E+04  0.10998908128E+04 0.  0.
        1    1    3    3  502    0  0.26004017259E+03  0.13426821244E+03  0.11281978445E+04  0.11655381678E+04  0.50400001928E-02 0. -1.
       -1    1    3    3    0  502 -0.26004017259E+03 -0.13426821244E+03 -0.12957653320E+03  0.32006081018E+03  0.50400001928E-02 0.  1.
</event>
<event>
 5   0  0.8305271E-04  0.1105704E+04  0.7818609E-02  0.9199650E-01
       -1   -1    0    0    0  501  0.00000000000E+00  0.00000000000E+00  0.29700567707E+03  0.29700567712E+03  0.50400001928E-02 0. -1.
        1   -1    0    0  501    0  0.00000000000E+00  0.00000000000E+00 -0.10290888934E+04  0.10290888934E+04  0.50400001928E-02 0.  1.
    10030    2    1    2    0    0  0.00000000000E+00  0.00000000000E+00 -0.73208321635E+03  0.13260945706E+04  0.11057038367E+04 0.  0.
        5    1    3    3  502    0  0.10298846660E+03  0.38283397666E+03  0.96054829598E+02  0.40794251828E+03  0.46999998093E+01 0. -1.
       -5    1    3    3    0  502 -0.10298846660E+03 -0.38283397666E+03 -0.82813804595E+03  0.91815205227E+03  0.46999998093E+01 0.  1.
</event>
<event>
 5   0  0.1372794E-03  0.1100417E+04  0.7818609E-02  0.9204786E-01
       -2   -1    0    0    0  501  0.00000000000E+00  0.00000000000E+00  0.77243261368E+03  0.77243261369E+03  0.25500000920E-02 0. -1.
        2   -1    0    0  501    0  0.00000000000E+00  0.00000000000E+00 -0.39191672473E+03  0.39191672474E+03  0.25500000920E-02 0.  1.
    10030    2    1    2    0    0  0.00000000000E+00  0.00000000000E+00  0.38051588895E+03  0.11643493384E+04  0.11004167575E+04 0.  0.
        4    1    3    3  502    0 -0.44672933749E+02 -0.54670100135E+03  0.14474751405E+03  0.56730160551E+03  0.12699999809E+01 0. -1.
       -4    1    3    3    0  502  0.44672933749E+02  0.54670100135E+03  0.23576837490E+03  0.59704773292E+03  0.12699999809E+01 0.  1.
</event>
<event>
 5   0  0.1402775E-03  0.1104171E+04  0.7818609E-02  0.9201136E-01
        2   -1    0    0  501    0  0.00000000000E+00  0.00000000000E+00  0.15916961160E+04  0.15916961160E+04  0.25500000920E-02 0. -1.
       -2   -1    0    0    0  501  0.00000000000E+00  0.00000000000E+00 -0.19149275397E+03  0.19149275399E+03  0.25500000920E-02 0.  1.
    10030    2    1    2    0    0  0.00000000000E+00  0.00000000000E+00  0.14002033620E+04  0.17831888700E+04  0.11041707708E+04 0.  0.
        5    1    3    3  502    0 -0.23945365190E+03 -0.49605494150E+03  0.75982512310E+03  0.93849073735E+03  0.46999998093E+01 0. -1.
       -5    1    3    3    0  502  0.23945365190E+03  0.49605494150E+03  0.64037823893E+03  0.84469813265E+03  0.46999998093E+01 0.  1.
</event>
<event>
 5   0  0.1425432E-03  0.1101655E+04  0.7818609E-02  0.9203580E-01
        2   -1    0    0  501    0  0.00000000000E+00  0.00000000000E+00  0.16202367867E+04  0.16202367867E+04  0.25500000920E-02 0. -1.
       -2   -1    0    0    0  501  0.00000000000E+00  0.00000000000E+00 -0.18726345701E+03  0.18726345703E+03  0.25500000920E-02 0.  1.
    10030    2    1    2    0    0  0.00000000000E+00  0.00000000000E+00  0.14329733297E+04  0.18075002438E+04  0.11016553760E+04 0.  0.
        1    1    3    3  502    0  0.42527934152E+03 -0.22020902036E+03  0.11629795297E+04  0.12577264875E+04  0.50400001928E-02 0.  1.
       -1    1    3    3    0  502 -0.42527934152E+03  0.22020902036E+03  0.26999380007E+03  0.54977375626E+03  0.50400001928E-02 0. -1.
</event>
<event>
 5   0  0.1425432E-03  0.1083845E+04  0.7818609E-02  0.9221082E-01
        2   -1    0    0  501    0  0.00000000000E+00  0.00000000000E+00  0.99505593947E+03  0.99505593947E+03  0.25500000920E-02 0.  1.
       -2   -1    0    0    0  501  0.00000000000E+00  0.00000000000E+00 -0.29513941628E+03  0.29513941629E+03  0.25500000920E-02 0. -1.
    10030    2    1    2    0    0  0.00000000000E+00  0.00000000000E+00  0.69991652319E+03  0.12901953558E+04  0.10838454302E+04 0.  0.
        1    1    3    3  502    0 -0.16976931705E+03 -0.28500638701E+03  0.86006363933E+03  0.92182412931E+03  0.50400001928E-02 0.  1.
       -1    1    3    3    0  502  0.16976931705E+03  0.28500638701E+03 -0.16014711615E+03  0.36837122646E+03  0.50400001928E-02 0. -1.
</event>
<event>
 5   0  0.8305271E-04  0.1102847E+04  0.7818609E-02  0.9202421E-01
       -1   -1    0    0    0  501  0.00000000000E+00  0.00000000000E+00  0.63030504730E+03  0.63030504732E+03  0.50400001928E-02 0.  1.
        1   -1    0    0  501    0  0.00000000000E+00  0.00000000000E+00 -0.48241418875E+03  0.48241418877E+03  0.50400001928E-02 0. -1.
    10030    2    1    2    0    0  0.00000000000E+00  0.00000000000E+00  0.14789085856E+03  0.11127192361E+04  0.11028474021E+04 0.  0.
        5    1    3    3  502    0  0.28418078834E+03  0.45454788713E+03  0.20422719491E+03  0.57367529081E+03  0.46999998093E+01 0.  1.
       -5    1    3    3    0  502 -0.28418078834E+03 -0.45454788713E+03 -0.56336336352E+02  0.53904394528E+03  0.46999998093E+01 0. -1.
</event>
<event>
 5   0  0.8305271E-04  0.1099927E+04  0.7818609E-02  0.9205263E-01
        1   -1    0    0  501    0  0.00000000000E+00  0.00000000000E+00  0.18795475698E+03  0.18795475705E+03  0.50400001928E-02 0.  1.
       -1   -1    0    0    0  501  0.00000000000E+00  0.00000000000E+00 -0.16092173788E+04  0.16092173788E+04  0.50400001928E-02 0. -1.
    10030    2    1    2    0    0  0.00000000000E+00  0.00000000000E+00 -0.14212626218E+04  0.17971721358E+04  0.10999273820E+04 0.  0.
        5    1    3    3  502    0  0.29866200516E+02 -0.17236352555E+03 -0.15625139833E+04  0.15722828031E+04  0.46999998093E+01 0. -1.
       -5    1    3    3    0  502 -0.29866200516E+02  0.17236352555E+03  0.14125136148E+03  0.22488933277E+03  0.46999998093E+01 0.  1.
</event>
<event>
 5   0  0.1372794E-03  0.1103604E+04  0.7818609E-02  0.9201686E-01
       -2   -1    0    0    0  501  0.00000000000E+00  0.00000000000E+00  0.23503147549E+03  0.23503147550E+03  0.25500000920E-02 0. -1.
        2   -1    0    0  501    0  0.00000000000E+00  0.00000000000E+00 -0.12955099841E+04  0.12955099841E+04  0.25500000920E-02 0.  1.
    10030    2    1    2    0    0  0.00000000000E+00  0.00000000000E+00 -0.10604785086E+04  0.15305414596E+04  0.11036043187E+04 0.  0.
        4    1    3    3  502    0  0.40025966696E+03  0.36721916677E+03 -0.66488795552E+03  0.85856585288E+03  0.12699999809E+01 0. -1.
       -4    1    3    3    0  502 -0.40025966696E+03 -0.36721916677E+03 -0.39559055307E+03  0.67197560671E+03  0.12699999809E+01 0.  1.
</event>
<event>
 5   0  0.7946038E-04  0.1101240E+04  0.7818609E-02  0.9203985E-01
        1   -1    0    0  501    0  0.00000000000E+00  0.00000000000E+00  0.49474128651E+03  0.49474128654E+03  0.50400001928E-02 0.  1.
       -1   -1    0    0    0  501  0.00000000000E+00  0.00000000000E+00 -0.61280942994E+03  0.61280942996E+03  0.50400001928E-02 0. -1.
    10030    2    1    2    0    0  0.00000000000E+00  0.00000000000E+00 -0.11806814343E+03  0.11075507165E+04  0.11012395303E+04 0.  0.
        4    1    3    3  502    0  0.48520035504E+03 -0.10393272693E+03  0.18099478276E+03  0.52818758083E+03  0.12699999809E+01 0.  1.
       -4    1    3    3    0  502 -0.48520035504E+03  0.10393272693E+03 -0.29906292619E+03  0.57936313567E+03  0.12699999809E+01 0. -1.
</event>
<event>
 5   0  0.1372794E-03  0.1095318E+04  0.7818609E-02  0.9209768E-01
        2   -1    0    0  501    0  0.00000000000E+00  0.00000000000E+00  0.27664886705E+04  0.27664886705E+04  0.25500000920E-02 0. -1.
       -2   -1    0    0    0  501  0.00000000000E+00  0.00000000000E+00 -0.10841546006E+03  0.10841546009E+03  0.25500000920E-02 0.  1.
    10030    2    1    2    0    0  0.00000000000E+00  0.00000000000E+00  0.26580732104E+04  0.28749041306E+04  0.10953175649E+04 0.  0.
        4    1    3    3  502    0  0.32906371801E+03 -0.20826915214E+03  0.31836675012E+03  0.50300891714E+03  0.12699999809E+01 0. -1.
       -4    1    3    3    0  502 -0.32906371801E+03  0.20826915214E+03  0.23397064603E+04  0.23718952134E+04  0.12699999809E+01 0.  1.
</event>
<event>
 5   0  0.8150924E-04  0.1101142E+04  0.7818609E-02  0.9204079E-01
        1   -1    0    0  501    0  0.00000000000E+00  0.00000000000E+00  0.17530514253E+04  0.17530514253E+04  0.50400001928E-02 0.  1.
       -1   -1    0    0    0  501  0.00000000000E+00  0.00000000000E+00 -0.17291484817E+03  0.17291484824E+03  0.50400001928E-02 0. -1.
    10030    2    1    2    0    0  0.00000000000E+00  0.00000000000E+00  0.15801365771E+04  0.19259662735E+04  0.11011423543E+04 0.  0.
        3    1    3    3  502    0 -0.37835760414E+03 -0.39602342928E+03  0.69206495872E+03  0.88257744728E+03  0.10100000352E+00 0. -1.
       -3    1    3    3    0  502  0.37835760414E+03  0.39602342928E+03  0.88807161837E+03  0.10433888262E+04  0.10100000352E+00 0.  1.
</event>
<event>
 5   0  0.7946038E-04  0.1099563E+04  0.7818609E-02  0.9205618E-01
       -1   -1    0    0    0  501  0.00000000000E+00  0.00000000000E+00  0.27651380919E+03  0.27651380924E+03  0.50400001928E-02 0. -1.
        1   -1    0    0  501    0  0.00000000000E+00  0.00000000000E+00 -0.10931087922E+04  0.10931087923E+04  0.50400001928E-02 0.  1.
    10030    2    1    2    0    0  0.00000000000E+00  0.00000000000E+00 -0.81659498305E+03  0.13696226015E+04  0.10995629605E+04 0.  0.
        4    1    3    3  502    0 -0.83902805904E+02  0.13208320978E+03 -0.10647833330E+04  0.10762206160E+04  0.12699999809E+01 0.  1.
       -4    1    3    3    0  502  0.83902805904E+02 -0.13208320978E+03  0.24818834995E+03  0.29340198550E+03  0.12699999809E+01 0. -1.
</event>
<event>
 5   0  0.8341767E-04  0.1096841E+04  0.7818609E-02  0.9208276E-01
        1   -1    0    0  501    0  0.00000000000E+00  0.00000000000E+00  0.57271830998E+03  0.57271831000E+03  0.50400001928E-02 0.  1.
       -1   -1    0    0    0  501  0.00000000000E+00  0.00000000000E+00 -0.52515383351E+03  0.52515383353E+03  0.50400001928E-02 0. -1.
    10030    2    1    2    0    0  0.00000000000E+00  0.00000000000E+00  0.47564476470E+02  0.10978721435E+04  0.10968413122E+04 0.  0.
        2    1    3    3  502    0 -0.24888116444E+03  0.29931041667E+03 -0.36289242984E+03  0.53218368556E+03  0.25500000920E-02 0. -1.
       -2    1    3    3    0  502  0.24888116444E+03 -0.29931041667E+03  0.41045690631E+03  0.56568845797E+03  0.25500000920E-02 0.  1.
</event>
<event>
 5   0  0.1425432E-03  0.1176157E+04  0.7818609E-02  0.9133986E-01
        2   -1    0    0  501    0  0.00000000000E+00  0.00000000000E+00  0.63899863152E+03  0.63899863153E+03  0.25500000920E-02 0.  1.
       -2   -1    0    0    0  501  0.00000000000E+00  0.00000000000E+00 -0.54121607840E+03  0.54121607841E+03  0.25500000920E-02 0. -1.
    10030    2    1    2    0    0  0.00000000000E+00  0.00000000000E+00  0.97782553121E+02  0.11802147099E+04  0.11761570192E+04 0.  0.
        1    1    3    3  502    0  0.17657360348E+03 -0.24390569646E+03  0.55577566387E+03  0.63210348424E+03  0.50400001928E-02 0.  1.
       -1    1    3    3    0  502 -0.17657360348E+03  0.24390569646E+03 -0.45799311075E+03  0.54811122570E+03  0.50400001928E-02 0. -1.
</event>
<event>
 5   0  0.8009636E-04  0.1100739E+04  0.7818609E-02  0.9204472E-01
        1   -1    0    0  501    0  0.00000000000E+00  0.00000000000E+00  0.87630743307E+03  0.87630743308E+03  0.50400001928E-02 0. -1.
       -1   -1    0    0    0  501  0.00000000000E+00  0.00000000000E+00 -0.34566254379E+03  0.34566254382E+03  0.50400001928E-02 0.  1.
    10030    2    1    2    0    0  0.00000000000E+00  0.00000000000E+00  0.53064488928E+03  0.12219699769E+04  0.11007391271E+04 0.  0.
        1    1    3    3  502    0 -0.95769405114E+02 -0.54196904379E+03  0.26298506793E+03  0.60996997415E+03  0.50400001928E-02 0. -1.
       -1    1    3    3    0  502  0.95769405114E+02  0.54196904379E+03  0.26765982136E+03  0.61200000276E+03  0.50400001928E-02 0.  1.
</event>
<event>
 5   0  0.1425432E-03  0.1099830E+04  0.7818609E-02  0.9205357E-01
        2   -1    0    0  501    0  0.00000000000E+00  0.00000000000E+00  0.43640139972E+03  0.43640139973E+03  0.25500000920E-02 0. -1.
       -2   -1    0    0    0  501  0.00000000000E+00  0.00000000000E+00 -0.69295539603E+03  0.69295539604E+03  0.25500000920E-02 0.  1.
    10030    2    1    2    0    0  0.00000000000E+00  0.00000000000E+00 -0.25655399631E+03  0.11293567958E+04  0.10998303592E+04 0.  0.
        1    1    3    3  502    0 -0.91526554873E+02  0.85488313401E+02  0.42156192060E+03  0.43977245809E+03  0.50400001928E-02 0. -1.
       -1    1    3    3    0  502  0.91526554873E+02 -0.85488313401E+02 -0.67811591691E+03  0.68958433767E+03  0.50400001928E-02 0.  1.
</event>
<event>
 5   0  0.1396936E-03  0.1107519E+04  0.7818609E-02  0.9197894E-01
        2   -1    0    0  501    0  0.00000000000E+00  0.00000000000E+00  0.10344566034E+04  0.10344566034E+04  0.25500000920E-02 0. -1.
       -2   -1    0    0    0  501  0.00000000000E+00  0.00000000000E+00 -0.29643564262E+03  0.29643564263E+03  0.25500000920E-02 0.  1.
    10030    2    1    2    0    0  0.00000000000E+00  0.00000000000E+00  0.73802096074E+03  0.13308922460E+04  0.11075194048E+04 0.  0.
        2    1    3    3  502    0  0.18784407268E+03 -0.33163698152E+03  0.85175592999E+03  0.93314342275E+03  0.25500000920E-02 0. -1.
       -2    1    3    3    0  502 -0.18784407268E+03  0.33163698152E+03 -0.11373496925E+03  0.39774882324E+03  0.25500000920E-02 0.  1.
</event>
<event>
 5   0  0.1372794E-03  0.1098821E+04  0.7818609E-02  0.9206342E-01
       -2   -1    0    0    0  501  0.00000000000E+00  0.00000000000E+00  0.20598408018E+03  0.20598408019E+03  0.25500000920E-02 0. -1.
        2   -1    0    0  501    0  0.00000000000E+00  0.00000000000E+00 -0.14654130551E+04  0.14654130551E+04  0.25500000920E-02 0.  1.
    10030    2    1    2    0    0  0.00000000000E+00  0.00000000000E+00 -0.12594289749E+04  0.16713971353E+04  0.10988207502E+04 0.  0.
        4    1    3    3  502    0 -0.26342267829E+03 -0.46232916778E+03 -0.83777713074E+03  0.99247765743E+03  0.12699999809E+01 0.  1.
       -4    1    3    3    0  502  0.26342267829E+03  0.46232916778E+03 -0.42165184418E+03  0.67891947786E+03  0.12699999809E+01 0. -1.
</event>
<event>
 5   0  0.8341767E-04  0.1103684E+04  0.7818609E-02  0.9201608E-01
       -1   -1    0    0    0  501  0.00000000000E+00  0.00000000000E+00  0.12373124760E+03  0.12373124771E+03  0.50400001928E-02 0.  1.
        1   -1    0    0  501    0  0.00000000000E+00  0.00000000000E+00 -0.24612188412E+04  0.24612188412E+04  0.50400001928E-02 0. -1.
    10030    2    1    2    0    0  0.00000000000E+00  0.00000000000E+00 -0.23374875936E+04  0.25849500889E+04  0.11036841541E+04 0.  0.
        2    1    3    3  502    0  0.51631139866E+03 -0.11984665962E+03 -0.80902587066E+03  0.96719364226E+03  0.25500000920E-02 0.  1.
       -2    1    3    3    0  502 -0.51631139866E+03  0.11984665962E+03 -0.15284617229E+04  0.16177564466E+04  0.25500000920E-02 0. -1.
</event>
<event>
 5   0  0.8009636E-04  0.1104434E+04  0.7818609E-02  0.9200881E-01
       -1   -1    0    0    0  501  0.00000000000E+00  0.00000000000E+00  0.13955906133E+04  0.13955906133E+04  0.50400001928E-02 0.  1.
        1   -1    0    0  501    0  0.00000000000E+00  0.00000000000E+00 -0.21850487925E+03  0.21850487931E+03  0.50400001928E-02 0. -1.
    10030    2    1    2    0    0  0.00000000000E+00  0.00000000000E+00  0.11770857341E+04  0.16140954926E+04  0.11044335353E+04 0.  0.
        1    1    3    3  502    0 -0.46767522566E+03 -0.12578440916E+03  0.97631863837E+03  0.10898348122E+04  0.50400001928E-02 0.  1.
       -1    1    3    3    0  502  0.46767522566E+03  0.12578440916E+03  0.20076709571E+03  0.52426068041E+03  0.50400001928E-02 0. -1.
</event>
<event>
 5   0  0.1372794E-03  0.1097721E+04  0.7818609E-02  0.9207416E-01
       -2   -1    0    0    0  501  0.00000000000E+00  0.00000000000E+00  0.29204178163E+03  0.29204178164E+03  0.25500000920E-02 0. -1.
        2   -1    0    0  501    0  0.00000000000E+00  0.00000000000E+00 -0.10315226990E+04  0.10315226990E+04  0.25500000920E-02 0.  1.
    10030    2    1    2    0    0  0.00000000000E+00  0.00000000000E+00 -0.73948091736E+03  0.13235644806E+04  0.10977207784E+04 0.  0.
        4    1    3    3  502    0 -0.27673472883E+03  0.40320501082E+03 -0.67018414379E+03  0.82964136250E+03  0.12699999809E+01 0.  1.
       -4    1    3    3    0  502  0.27673472883E+03 -0.40320501082E+03 -0.69296773571E+02  0.49392311813E+03  0.12699999809E+01 0. -1.
</event>
<event>
 5   0  0.1402775E-03  0.1103287E+04  0.7818609E-02  0.9201994E-01
        2   -1    0    0  501    0  0.00000000000E+00  0.00000000000E+00  0.17017319330E+04  0.17017319330E+04  0.25500000920E-02 0. -1.
       -2   -1    0    0    0  501  0.00000000000E+00  0.00000000000E+00 -0.17882417091E+03  0.17882417093E+03  0.25500000920E-02 0.  1.
    10030    2    1    2    0    0  0.00000000000E+00  0.00000000000E+00  0.15229077621E+04  0.18805561039E+04  0.11032874549E+04 0.  0.
        5    1    3    3  502    0  0.23499936754E+03  0.30164704414E+03  0.14391368301E+04  0.14890777507E+04  0.46999998093E+01 0. -1.
       -5    1    3    3    0  502 -0.23499936754E+03 -0.30164704414E+03  0.83770932004E+02  0.39147835321E+03  0.46999998093E+01 0.  1.
</event>
<event>
 5   0  0.8341767E-04  0.1092304E+04  0.7818609E-02  0.9212725E-01
       -1   -1    0    0    0  501  0.00000000000E+00  0.00000000000E+00  0.82278213578E+03  0.82278213579E+03  0.50400001928E-02 0.  1.
        1   -1    0    0  501    0  0.00000000000E+00  0.00000000000E+00 -0.36252884888E+03  0.36252884892E+03  0.50400001928E-02 0. -1.
    10030    2    1    2    0    0  0.00000000000E+00  0.00000000000E+00  0.46025328689E+03  0.11853109847E+04  0.10923044641E+04 0.  0.
        2    1    3    3  502    0 -0.13535157986E+03  0.41248285353E+03  0.58973479675E+03  0.73229043769E+03  0.25500000920E-02 0.  1.
       -2    1    3    3    0  502  0.13535157986E+03 -0.41248285353E+03 -0.12948150986E+03  0.45302054702E+03  0.25500000920E-02 0. -1.
</event>
<event>
 5   0  0.5409500E-04  0.1103614E+04  0.7818609E-02  0.9201676E-01
        3   -1    0    0  501    0  0.00000000000E+00  0.00000000000E+00  0.90453367677E+03  0.90453368241E+03  0.10100000352E+00 0.  1.
       -3   -1    0    0    0  501  0.00000000000E+00  0.00000000000E+00 -0.33662761187E+03  0.33662762702E+03  0.10100000352E+00 0. -1.
    10030    2    1    2    0    0  0.00000000000E+00  0.00000000000E+00  0.56790606490E+03  0.12411613094E+04  0.11036141071E+04 0.  0.
        3    1    3    3  502    0 -0.49781847652E+03  0.20605432565E+03  0.41801289075E+03  0.68192111546E+03  0.10100000352E+00 0. -1.
       -3    1    3    3    0  502  0.49781847652E+03 -0.20605432565E+03  0.14989317416E+03  0.55924019396E+03  0.10100000352E+00 0.  1.
</event>
<event>
 5   0  0.8150924E-04  0.1138571E+04  0.7818609E-02  0.9168392E-01
       -1   -1    0    0    0  501  0.00000000000E+00  0.00000000000E+00  0.97641480691E+03  0.97641480692E+03  0.50400001928E-02 0. -1.
        1   -1    0    0  501    0  0.00000000000E+00  0.00000000000E+00 -0.33191451934E+03  0.33191451938E+03  0.50400001928E-02 0.  1.
    10030    2    1    2    0    0  0.00000000000E+00  0.00000000000E+00  0.64450028757E+03  0.13083293263E+04  0.11385714757E+04 0.  0.
        3    1    3    3  502    0 -0.57913194911E+01  0.55522864279E+03  0.17793041215E+03  0.58307085926E+03  0.10100000352E+00 0.  1.
       -3    1    3    3    0  502  0.57913194911E+01 -0.55522864279E+03  0.46656987542E+03  0.72525846703E+03  0.10100000352E+00 0. -1.
</event>
<event>
 5   0  0.1396936E-03  0.1097876E+04  0.7818609E-02  0.9207264E-01
       -2   -1    0    0    0  501  0.00000000000E+00  0.00000000000E+00  0.15015584899E+03  0.15015584901E+03  0.25500000920E-02 0.  1.
        2   -1    0    0  501    0  0.00000000000E+00  0.00000000000E+00 -0.20068019942E+04  0.20068019942E+04  0.25500000920E-02 0. -1.
    10030    2    1    2    0    0  0.00000000000E+00  0.00000000000E+00 -0.18566461452E+04  0.21569578432E+04  0.10978762357E+04 0.  0.
        2    1    3    3  502    0  0.18622076314E+03 -0.56941744318E+02 -0.19366618778E+04  0.19464274361E+04  0.25500000920E-02 0. -1.
       -2    1    3    3    0  502 -0.18622076314E+03  0.56941744318E+02  0.80015732587E+02  0.21053040716E+03  0.25500000920E-02 0.  1.
</event>
<event>
 5   0  0.1372794E-03  0.1091945E+04  0.7818609E-02  0.9213079E-01
       -2   -1    0    0    0  501  0.00000000000E+00  0.00000000000E+00  0.10926803208E+03  0.10926803211E+03  0.25500000920E-02 0.  1.
        2   -1    0    0  501    0  0.00000000000E+00  0.00000000000E+00 -0.27280251310E+04  0.27280251310E+04  0.25500000920E-02 0. -1.
    10030    2    1    2    0    0  0.00000000000E+00  0.00000000000E+00 -0.26187570990E+04  0.28372931632E+04  0.10919449392E+04 0.  0.
        4    1    3    3  502    0  0.31246606460E+03  0.12097163874E+03 -0.18931148524E+03  0.38485013999E+03  0.12699999809E+01 0.  1.
       -4    1    3    3    0  502 -0.31246606460E+03 -0.12097163874E+03 -0.24294456137E+04  0.24524430232E+04  0.12699999809E+01 0. -1.
</event>
<event>
 5   0  0.8009636E-04  0.1100948E+04  0.7818609E-02  0.9204269E-01
        1   -1    0    0  501    0  0.00000000000E+00  0.00000000000E+00  0.27568753721E+03  0.27568753726E+03  0.50400001928E-02 0. -1.
       -1   -1    0    0    0  501  0.00000000000E+00  0.00000000000E+00 -0.10991481735E+04  0.10991481735E+04  0.50400001928E-02 0.  1.
    10030    2    1    2    0    0  0.00000000000E+00  0.00000000000E+00 -0.82346063627E+03  0.13748357107E+04  0.11009476882E+04 0.  0.
        1    1    3    3  502    0 -0.13815996796E+03 -0.51021878227E+03 -0.21984896959E+03  0.57249013265E+03  0.50400001928E-02 0. -1.
       -1    1    3    3    0  502  0.13815996796E+03  0.51021878227E+03 -0.60361166668E+03  0.80234557810E+03  0.50400001928E-02 0.  1.
</event>
<event>
 5   0  0.8009636E-04  0.1101402E+04  0.7818609E-02  0.9203827E-01
        1   -1    0    0  501    0  0.00000000000E+00  0.00000000000E+00  0.62596913517E+03  0.62596913519E+03  0.50400001928E-02 0.  1.
       -1   -1    0    0    0  501  0.00000000000E+00  0.00000000000E+00 -0.48448288577E+03  0.48448288580E+03  0.50400001928E-02 0. -1.
    10030    2    1    2    0    0  0.00000000000E+00  0.00000000000E+00  0.14148624940E+03  0.11104520210E+04  0.11014015308E+04 0.  0.
        1    1    3    3  502    0  0.33634899738E+03 -0.11697937346E+03  0.49426219166E+03  0.60918793158E+03  0.50400001928E-02 0.  1.
       -1    1    3    3    0  502 -0.33634899738E+03  0.11697937346E+03 -0.35277594226E+03  0.50126408940E+03  0.50400001928E-02 0. -1.
</event>
<event>
 5   0  0.1429680E-03  0.1140313E+04  0.7818609E-02  0.9166767E-01
        2   -1    0    0  501    0  0.00000000000E+00  0.00000000000E+00  0.13401096325E+04  0.13401096325E+04  0.25500000920E-02 0. -1.
       -2   -1    0    0    0  501  0.00000000000E+00  0.00000000000E+00 -0.24257583013E+03  0.24257583015E+03  0.25500000920E-02 0.  1.
    10030    2    1    2    0    0  0.00000000000E+00  0.00000000000E+00  0.10975338024E+04  0.15826854627E+04  0.11403126003E+04 0.  0.
        3    1    3    3  502    0  0.53701233735E+03 -0.84645496460E+02  0.31025481111E+03  0.62594342281E+03  0.10100000352E+00 0.  1.
       -3    1    3    3    0  502 -0.53701233735E+03  0.84645496460E+02  0.78727899130E+03  0.95674203989E+03  0.10100000352E+00 0. -1.
</event>
<event>
 5   0  0.7946038E-04  0.1102767E+04  0.7818609E-02  0.9202499E-01
        1   -1    0    0  501    0  0.00000000000E+00  0.00000000000E+00  0.54446913094E+03  0.54446913097E+03  0.50400001928E-02 0. -1.
       -1   -1    0    0    0  501  0.00000000000E+00  0.00000000000E+00 -0.55838576841E+03  0.55838576843E+03  0.50400001928E-02 0.  1.
    10030    2    1    2    0    0  0.00000000000E+00  0.00000000000E+00 -0.13916637464E+02  0.11028548994E+04  0.11027670907E+04 0.  0.
        4    1    3    3  502    0  0.57229456899E+02  0.41817623447E+03 -0.36177612277E+03  0.55590480275E+03  0.12699999809E+01 0.  1.
       -4    1    3    3    0  502 -0.57229456899E+02 -0.41817623447E+03  0.34785948531E+03  0.54695009665E+03  0.12699999809E+01 0. -1.
</event>
<event>
 5   0  0.8009636E-04  0.1097747E+04  0.7818609E-02  0.9207391E-01
        1   -1    0    0  501    0  0.00000000000E+00  0.00000000000E+00  0.15114184487E+04  0.15114184487E+04  0.50400001928E-02 0.  1.
       -1   -1    0    0    0  501  0.00000000000E+00  0.00000000000E+00 -0.19932402234E+03  0.19932402240E+03  0.50400001928E-02 0. -1.
    10030    2    1    2    0    0  0.00000000000E+00  0.00000000000E+00  0.13120944263E+04  0.17107424711E+04  0.10977467917E+04 0.  0.
        1    1    3    3  502    0 -0.19445059868E+03  0.45970459819E+03  0.10118388308E+04  0.11282540372E+04  0.50400001928E-02 0.  1.
       -1    1    3    3    0  502  0.19445059868E+03 -0.45970459819E+03  0.30025559555E+03  0.58248843389E+03  0.50400001928E-02 0. -1.
</event>
<event>
 5   0  0.5409500E-04  0.1114784E+04  0.7818609E-02  0.9190901E-01
        3   -1    0    0  501    0  0.00000000000E+00  0.00000000000E+00  0.51926654898E+03  0.51926655880E+03  0.10100000352E+00 0. -1.
       -3   -1    0    0    0  501  0.00000000000E+00  0.00000000000E+00 -0.59831709823E+03  0.59831710675E+03  0.10100000352E+00 0.  1.
    10030    2    1    2    0    0  0.00000000000E+00  0.00000000000E+00 -0.79050549248E+02  0.11175836656E+04  0.11147844008E+04 0.  0.
        5    1    3    3  502    0 -0.21436560120E+01  0.52832638767E+03  0.13848920717E+03  0.54620025418E+03  0.46999998093E+01 0.  1.
       -5    1    3    3    0  502  0.21436560120E+01 -0.52832638767E+03 -0.21753975642E+03  0.57138341137E+03  0.46999998093E+01 0. -1.
</event>
<event>
 5   0  0.8009636E-04  0.1095709E+04  0.7818609E-02  0.9209384E-01
        1   -1    0    0  501    0  0.00000000000E+00  0.00000000000E+00  0.25630845230E+03  0.25630845235E+03  0.50400001928E-02 0. -1.
       -1   -1    0    0    0  501  0.00000000000E+00  0.00000000000E+00 -0.11710288058E+04  0.11710288058E+04  0.50400001928E-02 0.  1.
    10030    2    1    2    0    0  0.00000000000E+00  0.00000000000E+00 -0.91472035346E+03  0.14273372581E+04  0.10957090505E+04 0.  0.
        1    1    3    3  502    0 -0.24608945301E+03 -0.34554589084E+03 -0.57620312662E+01  0.42425839130E+03  0.50400001928E-02 0. -1.
       -1    1    3    3    0  502  0.24608945301E+03  0.34554589084E+03 -0.90895832220E+03  0.10030788668E+04  0.50400001928E-02 0.  1.
</event>
<event>
 5   0  0.8150924E-04  0.1101182E+04  0.7818609E-02  0.9204041E-01
        1   -1    0    0  501    0  0.00000000000E+00  0.00000000000E+00  0.94418400185E+03  0.94418400186E+03  0.50400001928E-02 0. -1.
       -1   -1    0    0    0  501  0.00000000000E+00  0.00000000000E+00 -0.32107133981E+03  0.32107133985E+03  0.50400001928E-02 0.  1.
    10030    2    1    2    0    0  0.00000000000E+00  0.00000000000E+00  0.62311266204E+03  0.12652553417E+04  0.11011819514E+04 0.  0.
        3    1    3    3  502    0  0.50211068404E+03  0.21908607139E+03  0.37487189831E+03  0.66380930699E+03  0.10100000352E+00 0. -1.
       -3    1    3    3    0  502 -0.50211068404E+03 -0.21908607139E+03  0.24824076373E+03  0.60144603472E+03  0.10100000352E+00 0.  1.
</event>
<event>
 5   0  0.1402775E-03  0.1097371E+04  0.7818609E-02  0.9207758E-01
        2   -1    0    0  501    0  0.00000000000E+00  0.00000000000E+00  0.19701642134E+03  0.19701642136E+03  0.25500000920E-02 0.  1.
       -2   -1    0    0    0  501  0.00000000000E+00  0.00000000000E+00 -0.15280733410E+04  0.15280733410E+04  0.25500000920E-02 0. -1.
    10030    2    1    2    0    0  0.00000000000E+00  0.00000000000E+00 -0.13310569197E+04  0.17250897624E+04  0.10973705686E+04 0.  0.
        5    1    3    3  502    0 -0.31140483234E+03 -0.40788353610E+03 -0.36033156183E+03  0.62705890717E+03  0.46999998093E+01 0.  1.
       -5    1    3    3    0  502  0.31140483234E+03  0.40788353610E+03 -0.97072535787E+03  0.10980308552E+04  0.46999998093E+01 0. -1.
</event>
<event>
 5   0  0.7946038E-04  0.1104541E+04  0.7818609E-02  0.9200778E-01
        1   -1    0    0  501    0  0.00000000000E+00  0.00000000000E+00  0.20314099574E+03  0.20314099580E+03  0.50400001928E-02 0.  1.
       -1   -1    0    0    0  501  0.00000000000E+00  0.00000000000E+00 -0.15014324438E+04  0.15014324438E+04  0.50400001928E-02 0. -1.
    10030    2    1    2    0    0  0.00000000000E+00  0.00000000000E+00 -0.12982914481E+04  0.17045734396E+04  0.11045405954E+04 0.  0.
        4    1    3    3  502    0 -0.53465826158E+03 -0.24694463844E+02 -0.85922849749E+03  0.10122966448E+04  0.12699999809E+01 0. -1.
       -4    1    3    3    0  502  0.53465826158E+03  0.24694463844E+02 -0.43906295059E+03  0.69227679486E+03  0.12699999809E+01 0.  1.
</event>
<event>
 5   0  0.8009636E-04  0.1100348E+04  0.7818609E-02  0.9204853E-01
       -1   -1    0    0    0  501  0.00000000000E+00  0.00000000000E+00  0.12232934952E+04  0.12232934952E+04  0.50400001928E-02 0. -1.
        1   -1    0    0  501    0  0.00000000000E+00  0.00000000000E+00 -0.24743972290E+03  0.24743972296E+03  0.50400001928E-02 0.  1.
    10030    2    1    2    0    0  0.00000000000E+00  0.00000000000E+00  0.97585377225E+03  0.14707332181E+04  0.11003479514E+04 0.  0.
        1    1    3    3  502    0 -0.50337839656E+03  0.15879660663E+03  0.28049320657E+03  0.59773122000E+03  0.50400001928E-02 0.  1.
       -1    1    3    3    0  502  0.50337839656E+03 -0.15879660663E+03  0.69536056568E+03  0.87300199812E+03  0.50400001928E-02 0. -1.
</event>
<event>
 5   0  0.8009636E-04  0.1104119E+04  0.7818609E-02  0.9201186E-01
       -1   -1    0    0    0  501  0.00000000000E+00  0.00000000000E+00  0.36073843252E+03  0.36073843256E+03  0.50400001928E-02 0.  1.
        1   -1    0    0  501    0  0.00000000000E+00  0.00000000000E+00 -0.84484971198E+03  0.84484971199E+03  0.50400001928E-02 0. -1.
    10030    2    1    2    0    0  0.00000000000E+00  0.00000000000E+00 -0.48411127946E+03  0.12055881446E+04  0.11041191255E+04 0.  0.
        1    1    3    3  502    0  0.37713653340E+03 -0.40186420226E+03 -0.27731842736E+03  0.61695405992E+03  0.50400001928E-02 0. -1.
       -1    1    3    3    0  502 -0.37713653340E+03  0.40186420226E+03 -0.20679285210E+03  0.58863408463E+03  0.50400001928E-02 0.  1.
</event>
<event>
 5   0  0.1402775E-03  0.1106537E+04  0.7818609E-02  0.9198844E-01
        2   -1    0    0  501    0  0.00000000000E+00  0.00000000000E+00  0.52490149135E+03  0.52490149135E+03  0.25500000920E-02 0.  1.
       -2   -1    0    0    0  501  0.00000000000E+00  0.00000000000E+00 -0.58316847716E+03  0.58316847717E+03  0.25500000920E-02 0. -1.
    10030    2    1    2    0    0  0.00000000000E+00  0.00000000000E+00 -0.58266985811E+02  0.11080699685E+04  0.11065369463E+04 0.  0.
        5    1    3    3  502    0  0.33839137340E+03  0.27379535050E+03  0.31282357121E+03  0.53605344161E+03  0.46999998093E+01 0.  1.
       -5    1    3    3    0  502 -0.33839137340E+03 -0.27379535050E+03 -0.37109055703E+03  0.57201652691E+03  0.46999998093E+01 0. -1.
</event>
<event>
 5   0  0.1372794E-03  0.1106729E+04  0.7818609E-02  0.9198658E-01
        2   -1    0    0  501    0  0.00000000000E+00  0.00000000000E+00  0.16999027279E+04  0.16999027279E+04  0.25500000920E-02 0. -1.
       -2   -1    0    0    0  501  0.00000000000E+00  0.00000000000E+00 -0.18013515126E+03  0.18013515127E+03  0.25500000920E-02 0.  1.
    10030    2    1    2    0    0  0.00000000000E+00  0.00000000000E+00  0.15197675766E+04  0.18800378792E+04  0.11067289371E+04 0.  0.
        4    1    3    3  502    0 -0.35655168526E+03  0.20069937919E+03  0.12700277749E+03  0.42841646030E+03  0.12699999809E+01 0.  1.
       -4    1    3    3    0  502  0.35655168526E+03 -0.20069937919E+03  0.13927647992E+04  0.14516214189E+04  0.12699999809E+01 0. -1.
</event>
<event>
 5   0  0.8305271E-04  0.1099822E+04  0.7818609E-02  0.9205366E-01
        1   -1    0    0  501    0  0.00000000000E+00  0.00000000000E+00  0.81893556357E+03  0.81893556358E+03  0.50400001928E-02 0. -1.
       -1   -1    0    0    0  501  0.00000000000E+00  0.00000000000E+00 -0.36926228260E+03  0.36926228263E+03  0.50400001928E-02 0.  1.
    10030    2    1    2    0    0  0.00000000000E+00  0.00000000000E+00  0.44967328097E+03  0.11881978462E+04  0.10998218320E+04 0.  0.
        5    1    3    3  502    0  0.43564000511E+03  0.33307685345E+03  0.18085251439E+03  0.57745313776E+03  0.46999998093E+01 0.  1.
       -5    1    3    3    0  502 -0.43564000511E+03 -0.33307685345E+03  0.26882076658E+03  0.61074470845E+03  0.46999998093E+01 0. -1.
</event>
<event>
 5   0  0.1372794E-03  0.1107375E+04  0.7818609E-02  0.9198033E-01
        2   -1    0    0  501    0  0.00000000000E+00  0.00000000000E+00  0.13731703771E+04  0.13731703771E+04  0.25500000920E-02 0.  1.
       -2   -1    0    0    0  501  0.00000000000E+00  0.00000000000E+00 -0.22325702193E+03  0.22325702194E+03  0.25500000920E-02 0. -1.
    10030    2    1    2    0    0  0.00000000000E+00  0.00000000000E+00  0.11499133552E+04  0.15964273991E+04  0.11073751469E+04 0.  0.
        4    1    3    3  502    0  0.39656896492E+02 -0.43534933090E+03  0.10648286611E+04  0.11510705451E+04  0.12699999809E+01 0.  1.
       -4    1    3    3    0  502 -0.39656896492E+02  0.43534933090E+03  0.85084694132E+02  0.44535685403E+03  0.12699999809E+01 0. -1.
</event>
<event>
 5   0  0.8150924E-04  0.1100455E+04  0.7818609E-02  0.9204749E-01
       -1   -1    0    0    0  501  0.00000000000E+00  0.00000000000E+00  0.23219510466E+03  0.23219510472E+03  0.50400001928E-02 0.  1.
        1   -1    0    0  501    0  0.00000000000E+00  0.00000000000E+00 -0.13038607942E+04  0.13038607942E+04  0.50400001928E-02 0. -1.
    10030    2    1    2    0    0  0.00000000000E+00  0.00000000000E+00 -0.10716656895E+04  0.15360558989E+04  0.11004546217E+04 0.  0.
        3    1    3    3  502    0  0.40704157529E+03  0.17345011026E+03 -0.79280219622E+02  0.44950322378E+03  0.10100000352E+00 0.  1.
       -3    1    3    3    0  502 -0.40704157529E+03 -0.17345011026E+03 -0.99238546987E+03  0.10865526751E+04  0.10100000352E+00 0. -1.
</event>
<event>
 5   0  0.1396936E-03  0.1095359E+04  0.7818609E-02  0.9209727E-01
        2   -1    0    0  501    0  0.00000000000E+00  0.00000000000E+00  0.15447733339E+04  0.15447733339E+04  0.25500000920E-02 0. -1.
       -2   -1    0    0    0  501  0.00000000000E+00  0.00000000000E+00 -0.19417282681E+03  0.19417282683E+03  0.25500000920E-02 0.  1.
    10030    2    1    2    0    0  0.00000000000E+00  0.00000000000E+00  0.13506005071E+04  0.17389461608E+04  0.10953593110E+04 0.  0.
        2    1    3    3  502    0  0.21095615927E+03  0.38936631098E+03  0.11868890561E+04  0.12668126368E+04  0.25500000920E-02 0. -1.
       -2    1    3    3    0  502 -0.21095615927E+03 -0.38936631098E+03  0.16371145105E+03  0.47213352399E+03  0.25500000920E-02 0.  1.
</event>
<event>
 5   0  0.1425432E-03  0.1102153E+04  0.7818609E-02  0.9203095E-01
       -2   -1    0    0    0  501  0.00000000000E+00  0.00000000000E+00  0.89482498846E+03  0.89482498846E+03  0.25500000920E-02 0. -1.
        2   -1    0    0  501    0  0.00000000000E+00  0.00000000000E+00 -0.33937984961E+03  0.33937984962E+03  0.25500000920E-02 0.  1.
    10030    2    1    2    0    0  0.00000000000E+00  0.00000000000E+00  0.55544513885E+03  0.12342048381E+04  0.11021534739E+04 0.  0.
        1    1    3    3  502    0  0.43187678685E+03 -0.13342770448E+03 -0.75267117664E+02  0.45824191250E+03  0.50400001928E-02 0.  1.
       -1    1    3    3    0  502 -0.43187678685E+03  0.13342770448E+03  0.63071225651E+03  0.77596292559E+03  0.50400001928E-02 0. -1.
</event>
<event>
 5   0  0.7946038E-04  0.1101523E+04  0.7818609E-02  0.9203709E-01
        1   -1    0    0  501    0  0.00000000000E+00  0.00000000000E+00  0.54805475865E+03  0.54805475867E+03  0.50400001928E-02 0. -1.
       -1   -1    0    0    0  501  0.00000000000E+00  0.00000000000E+00 -0.55348143864E+03  0.55348143867E+03  0.50400001928E-02 0.  1.
    10030    2    1    2    0    0  0.00000000000E+00  0.00000000000E+00 -0.54266799967E+01  0.11015361973E+04  0.11015228301E+04 0.  0.
        4    1    3    3  502    0 -0.61061970633E+02 -0.29764146689E+03 -0.46208534378E+03  0.55303117896E+03  0.12699999809E+01 0.  1.
       -4    1    3    3    0  502  0.61061970633E+02  0.29764146689E+03  0.45665866379E+03  0.54850501837E+03  0.12699999809E+01 0. -1.
</event>
<event>
 5   0  0.1425432E-03  0.1095206E+04  0.7818609E-02  0.9209877E-01
        2   -1    0    0  501    0  0.00000000000E+00  0.00000000000E+00  0.11535951158E+04  0.11535951158E+04  0.25500000920E-02 0.  1.
       -2   -1    0    0    0  501  0.00000000000E+00  0.00000000000E+00 -0.25994325946E+03  0.25994325948E+03  0.25500000920E-02 0. -1.
    10030    2    1    2    0    0  0.00000000000E+00  0.00000000000E+00  0.89365185632E+03  0.14135383753E+04  0.10952064180E+04 0.  0.
        1    1    3    3  502    0  0.24034570146E+03 -0.34146936148E+03 -0.10406224280E+02  0.41770284960E+03  0.50400001928E-02 0. -1.
       -1    1    3    3    0  502 -0.24034570146E+03  0.34146936148E+03  0.90405808060E+03  0.99583552566E+03  0.50400001928E-02 0.  1.
</event>
<event>
 5   0  0.5409500E-04  0.1098234E+04  0.7818609E-02  0.9206914E-01
       -4   -1    0    0    0  501  0.00000000000E+00  0.00000000000E+00  0.22512097260E+03  0.22512455487E+03  0.12699999809E+01 0. -1.
        4   -1    0    0  501    0  0.00000000000E+00  0.00000000000E+00 -0.13393973836E+04  0.13393979857E+04  0.12699999809E+01 0.  1.
    10030    2    1    2    0    0  0.00000000000E+00  0.00000000000E+00 -0.11142764110E+04  0.15645225406E+04  0.10982344285E+04 0.  0.
        5    1    3    3  502    0  0.41769750457E+03 -0.25573605697E+03 -0.91081143868E+03  0.10341526497E+04  0.46999998093E+01 0.  1.
       -5    1    3    3    0  502 -0.41769750457E+03  0.25573605697E+03 -0.20346497236E+03  0.53036989086E+03  0.46999998093E+01 0. -1.
</event>
<event>
 5   0  0.1372794E-03  0.1099869E+04  0.7818609E-02  0.9205320E-01
       -2   -1    0    0    0  501  0.00000000000E+00  0.00000000000E+00  0.17904448892E+03  0.17904448894E+03  0.25500000920E-02 0. -1.
        2   -1    0    0  501    0  0.00000000000E+00  0.00000000000E+00 -0.16891214789E+04  0.16891214789E+04  0.25500000920E-02 0.  1.
    10030    2    1    2    0    0  0.00000000000E+00  0.00000000000E+00 -0.15100769900E+04  0.18681659679E+04  0.10998688866E+04 0.  0.
        4    1    3    3  502    0  0.34525711717E+03 -0.33949659756E+03 -0.11978510800E+04  0.12920175074E+04  0.12699999809E+01 0.  1.
       -4    1    3    3    0  502 -0.34525711717E+03  0.33949659756E+03 -0.31222591000E+03  0.57614846045E+03  0.12699999809E+01 0. -1.
</event>
<event>
 5   0  0.1429680E-03  0.1100058E+04  0.7818609E-02  0.9205136E-01
        2   -1    0    0  501    0  0.00000000000E+00  0.00000000000E+00  0.39050687664E+03  0.39050687665E+03  0.25500000920E-02 0. -1.
       -2   -1    0    0    0  501  0.00000000000E+00  0.00000000000E+00 -0.77471535906E+03  0.77471535907E+03  0.25500000920E-02 0.  1.
    10030    2    1    2    0    0  0.00000000000E+00  0.00000000000E+00 -0.38420848242E+03  0.11652222357E+04  0.11000575897E+04 0.  0.
        3    1    3    3  502    0  0.41414999678E+03 -0.51699686410E+02  0.18736097255E+03  0.45749013283E+03  0.10100000352E+00 0. -1.
       -3    1    3    3    0  502 -0.41414999678E+03  0.51699686410E+02 -0.57156945496E+03  0.70773210288E+03  0.10100000352E+00 0.  1.
</event>
<event>
 5   0  0.8341767E-04  0.1101763E+04  0.7818609E-02  0.9203476E-01
        1   -1    0    0  501    0  0.00000000000E+00  0.00000000000E+00  0.23766075433E+04  0.23766075433E+04  0.50400001928E-02 0. -1.
       -1   -1    0    0    0  501  0.00000000000E+00  0.00000000000E+00 -0.12769048074E+03  0.12769048084E+03  0.50400001928E-02 0.  1.
    10030    2    1    2    0    0  0.00000000000E+00  0.00000000000E+00  0.22489170625E+04  0.25042980241E+04  0.11017625150E+04 0.  0.
        2    1    3    3  502    0 -0.43405034478E+01 -0.10832204647E+03  0.23521221184E+04  0.23546190701E+04  0.25500000920E-02 0. -1.
       -2    1    3    3    0  502  0.43405034478E+01  0.10832204647E+03 -0.10320505581E+03  0.14967895401E+03  0.25500000920E-02 0.  1.
</event>
<event>
 5   0  0.7946038E-04  0.1102372E+04  0.7818609E-02  0.9202883E-01
        1   -1    0    0  501    0  0.00000000000E+00  0.00000000000E+00  0.78888379258E+03  0.78888379260E+03  0.50400001928E-02 0. -1.
       -1   -1    0    0    0  501  0.00000000000E+00  0.00000000000E+00 -0.38510845744E+03  0.38510845748E+03  0.50400001928E-02 0.  1.
    10030    2    1    2    0    0  0.00000000000E+00  0.00000000000E+00  0.40377533514E+03  0.11739922501E+04  0.11023716624E+04 0.  0.
        4    1    3    3  502    0  0.22902142470E+03  0.34252348850E+03 -0.18800036635E+03  0.45290054515E+03  0.12699999809E+01 0.  1.
       -4    1    3    3    0  502 -0.22902142470E+03 -0.34252348850E+03  0.59177570149E+03  0.72109170493E+03  0.12699999809E+01 0. -1.
</event>
<event>
 5   0  0.8150924E-04  0.1106334E+04  0.7818609E-02  0.9199040E-01
       -1   -1    0    0    0  501  0.00000000000E+00  0.00000000000E+00  0.30515025399E+03  0.30515025403E+03  0.50400001928E-02 0.  1.
        1   -1    0    0  501    0  0.00000000000E+00  0.00000000000E+00 -0.10027642152E+04  0.10027642152E+04  0.50400001928E-02 0. -1.
    10030    2    1    2    0    0  0.00000000000E+00  0.00000000000E+00 -0.69761396118E+03  0.13079144692E+04  0.11063340454E+04 0.  0.
        3    1    3    3  502    0  0.68027683848E+02 -0.10976810738E+03  0.28708009769E+03  0.31478849384E+03  0.10100000352E+00 0.  1.
       -3    1    3    3    0  502 -0.68027683848E+02  0.10976810738E+03 -0.98469405887E+03  0.99312597536E+03  0.10100000352E+00 0. -1.
</event>
<event>
 5   0  0.8150924E-04  0.1099029E+04  0.7818609E-02  0.9206139E-01
       -1   -1    0    0    0  501  0.00000000000E+00  0.00000000000E+00  0.12892965684E+03  0.12892965694E+03  0.50400001928E-02 0.  1.
        1   -1    0    0  501    0  0.00000000000E+00  0.00000000000E+00 -0.23420981807E+04  0.23420981807E+04  0.50400001928E-02 0. -1.
    10030    2    1    2    0    0  0.00000000000E+00  0.00000000000E+00 -0.22131685238E+04  0.24710278376E+04  0.10990285071E+04 0.  0.
        3    1    3    3  502    0 -0.48131812361E+03  0.11301968642E+03 -0.56732427303E+03  0.75252735937E+03  0.10100000352E+00 0.  1.
       -3    1    3    3    0  502  0.48131812361E+03 -0.11301968642E+03 -0.16458442508E+04  0.17185004782E+04  0.10100000352E+00 0. -1.
</event>
<event>
 5   0  0.1425432E-03  0.1121091E+04  0.7818609E-02  0.9184875E-01
        2   -1    0    0  501    0  0.00000000000E+00  0.00000000000E+00  0.82311271327E+03  0.82311271328E+03  0.25500000920E-02 0.  1.
       -2   -1    0    0    0  501  0.00000000000E+00  0.00000000000E+00 -0.38173555004E+03  0.38173555005E+03  0.25500000920E-02 0. -1.
    10030    2    1    2    0    0  0.00000000000E+00  0.00000000000E+00  0.44137716323E+03  0.12048482633E+04  0.11210912262E+04 0.  0.
        1    1    3    3  502    0  0.48995196784E+03 -0.25699686570E+03  0.31747854628E+03  0.63788160903E+03  0.50400001928E-02 0. -1.
       -1    1    3    3    0  502 -0.48995196784E+03  0.25699686570E+03  0.12389861695E+03  0.56696665429E+03  0.50400001928E-02 0.  1.
</event>
<event>
 5   0  0.1402775E-03  0.1106580E+04  0.7818609E-02  0.9198802E-01
        2   -1    0    0  501    0  0.00000000000E+00  0.00000000000E+00  0.14961045301E+04  0.14961045301E+04  0.25500000920E-02 0.  1.
       -2   -1    0    0    0  501  0.00000000000E+00  0.00000000000E+00 -0.20461792891E+03  0.20461792892E+03  0.25500000920E-02 0. -1.
    10030    2    1    2    0    0  0.00000000000E+00  0.00000000000E+00  0.12914866012E+04  0.17007224591E+04  0.11065799752E+04 0.  0.
        5    1    3    3  502    0 -0.10975405895E+03 -0.34046273580E+03 -0.29505268493E+01  0.35775916974E+03  0.46999998093E+01 0. -1.
       -5    1    3    3    0  502  0.10975405895E+03  0.34046273580E+03  0.12944371281E+04  0.13429632893E+04  0.46999998093E+01 0.  1.
</event>
<event>
 5   0  0.1396936E-03  0.1095257E+04  0.7818609E-02  0.9209827E-01
       -2   -1    0    0    0  501  0.00000000000E+00  0.00000000000E+00  0.19669893909E+03  0.19669893911E+03  0.25500000920E-02 0.  1.
        2   -1    0    0  501    0  0.00000000000E+00  0.00000000000E+00 -0.15246505918E+04  0.15246505918E+04  0.25500000920E-02 0. -1.
    10030    2    1    2    0    0  0.00000000000E+00  0.00000000000E+00 -0.13279516527E+04  0.17213495309E+04  0.10952573285E+04 0.  0.
        2    1    3    3  502    0 -0.65510225718E+02 -0.46278417936E+03 -0.21547619058E+03  0.51467540747E+03  0.25500000920E-02 0.  1.
       -2    1    3    3    0  502  0.65510225718E+02  0.46278417936E+03 -0.11124754621E+04  0.12066741234E+04  0.25500000920E-02 0. -1.
</event>
<event>
 5   0  0.8009636E-04  0.1099002E+04  0.7818609E-02  0.9206165E-01
        1   -1    0    0  501    0  0.00000000000E+00  0.00000000000E+00  0.82560010019E+03  0.82560010020E+03  0.50400001928E-02 0. -1.
       -1   -1    0    0    0  501  0.00000000000E+00  0.00000000000E+00 -0.36573591259E+03  0.36573591262E+03  0.50400001928E-02 0.  1.
    10030    2    1    2    0    0  0.00000000000E+00  0.00000000000E+00  0.45986418760E+03  0.11913360128E+04  0.10990024679E+04 0.  0.
        1    1    3    3  502    0  0.85896386916E+02  0.24641428974E+03  0.75414469976E+03  0.79801780661E+03  0.50400001928E-02 0. -1.
       -1    1    3    3    0  502 -0.85896386916E+02 -0.24641428974E+03 -0.29428051216E+03  0.39331820621E+03  0.50400001928E-02 0.  1.
</event>
<event>
 5   0  0.1396936E-03  0.1097701E+04  0.7818609E-02  0.9207435E-01
        2   -1    0    0  501    0  0.00000000000E+00  0.00000000000E+00  0.46653096090E+03  0.46653096091E+03  0.25500000920E-02 0.  1.
       -2   -1    0    0    0  501  0.00000000000E+00  0.00000000000E+00 -0.64569558961E+03  0.64569558962E+03  0.25500000920E-02 0. -1.
    10030    2    1    2    0    0  0.00000000000E+00  0.00000000000E+00 -0.17916462871E+03  0.11122265505E+04  0.10977012050E+04 0.  0.
        2    1    3    3  502    0 -0.54127508179E+03 -0.20016532029E+02  0.23380789831E+00  0.54164511481E+03  0.25500000920E-02 0.  1.
       -2    1    3    3    0  502  0.54127508179E+03  0.20016532029E+02 -0.17939843661E+03  0.57058143572E+03  0.25500000920E-02 0. -1.
</event>
<event>
 5   0  0.8009636E-04  0.1105022E+04  0.7818609E-02  0.9200311E-01
        1   -1    0    0  501    0  0.00000000000E+00  0.00000000000E+00  0.77222370569E+03  0.77222370571E+03  0.50400001928E-02 0.  1.
       -1   -1    0    0    0  501  0.00000000000E+00  0.00000000000E+00 -0.39531056840E+03  0.39531056843E+03  0.50400001928E-02 0. -1.
    10030    2    1    2    0    0  0.00000000000E+00  0.00000000000E+00  0.37691313729E+03  0.11675342741E+04  0.11050216144E+04 0.  0.
        1    1    3    3  502    0  0.51895009951E+03  0.14055472288E+03  0.32295008682E+03  0.62718545463E+03  0.50400001928E-02 0.  1.
       -1    1    3    3    0  502 -0.51895009951E+03 -0.14055472288E+03  0.53963050478E+02  0.54034881951E+03  0.50400001928E-02 0. -1.
</event>
<event>
 5   0  0.8305271E-04  0.1089444E+04  0.7818609E-02  0.9215541E-01
        1   -1    0    0  501    0  0.00000000000E+00  0.00000000000E+00  0.29971039513E+03  0.29971039518E+03  0.50400001928E-02 0. -1.
       -1   -1    0    0    0  501  0.00000000000E+00  0.00000000000E+00 -0.99003012054E+03  0.99003012056E+03  0.50400001928E-02 0.  1.
    10030    2    1    2    0    0  0.00000000000E+00  0.00000000000E+00 -0.69031972541E+03  0.12897405157E+04  0.10894444798E+04 0.  0.
        5    1    3    3  502    0  0.50447212707E+02  0.26123554891E+03 -0.90784599668E+03  0.94604195307E+03  0.46999998093E+01 0.  1.
       -5    1    3    3    0  502 -0.50447212707E+02 -0.26123554891E+03  0.21752627127E+03  0.34369856266E+03  0.46999998093E+01 0. -1.
</event>
<event>
 5   0  0.1372794E-03  0.1110329E+04  0.7818609E-02  0.9195183E-01
        2   -1    0    0  501    0  0.00000000000E+00  0.00000000000E+00  0.43990018938E+03  0.43990018938E+03  0.25500000920E-02 0. -1.
       -2   -1    0    0    0  501  0.00000000000E+00  0.00000000000E+00 -0.70063029013E+03  0.70063029014E+03  0.25500000920E-02 0.  1.
    10030    2    1    2    0    0  0.00000000000E+00  0.00000000000E+00 -0.26073010076E+03  0.11405304795E+04  0.11103285952E+04 0.  0.
        4    1    3    3  502    0  0.12705857739E+03 -0.67480691849E+02 -0.68114805798E+03  0.69617656931E+03  0.12699999809E+01 0.  1.
       -4    1    3    3    0  502 -0.12705857739E+03  0.67480691849E+02  0.42041795723E+03  0.44435391021E+03  0.12699999809E+01 0. -1.
</event>
<event>
 5   0  0.8009636E-04  0.1098314E+04  0.7818609E-02  0.9206837E-01
        1   -1    0    0  501    0  0.00000000000E+00  0.00000000000E+00  0.62182307351E+03  0.62182307353E+03  0.50400001928E-02 0. -1.
       -1   -1    0    0    0  501  0.00000000000E+00  0.00000000000E+00 -0.48498255309E+03  0.48498255311E+03  0.50400001928E-02 0.  1.
    10030    2    1    2    0    0  0.00000000000E+00  0.00000000000E+00  0.13684052042E+03  0.11068056266E+04  0.10983138746E+04 0.  0.
        1    1    3    3  502    0  0.27011415560E+03  0.41531889046E+03  0.30715250756E+03  0.58291860560E+03  0.50400001928E-02 0. -1.
       -1    1    3    3    0  502 -0.27011415560E+03 -0.41531889046E+03 -0.17031198714E+03  0.52388702104E+03  0.50400001928E-02 0.  1.
</event>
<event>
 5   0  0.5409500E-04  0.1103153E+04  0.7818609E-02  0.9202124E-01
        3   -1    0    0  501    0  0.00000000000E+00  0.00000000000E+00  0.11416675248E+04  0.11416675293E+04  0.10100000352E+00 0.  1.
       -3   -1    0    0    0  501  0.00000000000E+00  0.00000000000E+00 -0.26648452665E+03  0.26648454579E+03  0.10100000352E+00 0. -1.
    10030    2    1    2    0    0  0.00000000000E+00  0.00000000000E+00  0.87518299819E+03  0.14081520751E+04  0.11031532016E+04 0.  0.
        2    1    3    3  502    0  0.35726526992E+03  0.96831656785E+02 -0.84396251242E+02  0.37965454044E+03  0.25500000920E-02 0. -1.
       -2    1    3    3    0  502 -0.35726526992E+03 -0.96831656785E+02  0.95957924943E+03  0.10284975347E+04  0.25500000920E-02 0.  1.
</event>
<event>
 5   0  0.8009636E-04  0.1098024E+04  0.7818609E-02  0.9207120E-01
       -1   -1    0    0    0  501  0.00000000000E+00  0.00000000000E+00  0.85334448427E+03  0.85334448429E+03  0.50400001928E-02 0.  1.
        1   -1    0    0  501    0  0.00000000000E+00  0.00000000000E+00 -0.35321499209E+03  0.35321499213E+03  0.50400001928E-02 0. -1.
    10030    2    1    2    0    0  0.00000000000E+00  0.00000000000E+00  0.50012949218E+03  0.12065594764E+04  0.10980237981E+04 0.  0.
        1    1    3    3  502    0 -0.15366344364E+03  0.49915919488E+03  0.43603198797E+03  0.68036479208E+03  0.50400001928E-02 0. -1.
       -1    1    3    3    0  502  0.15366344364E+03 -0.49915919488E+03  0.64097504210E+02  0.52619468433E+03  0.50400001928E-02 0.  1.
</event>
<event>
 5   0  0.8341767E-04  0.1102489E+04  0.7818609E-02  0.9202769E-01
        1   -1    0    0  501    0  0.00000000000E+00  0.00000000000E+00  0.15207180153E+04  0.15207180153E+04  0.50400001928E-02 0. -1.
       -1   -1    0    0    0  501  0.00000000000E+00  0.00000000000E+00 -0.19982054774E+03  0.19982054781E+03  0.50400001928E-02 0.  1.
    10030    2    1    2    0    0  0.00000000000E+00  0.00000000000E+00  0.13208974676E+04  0.17205385632E+04  0.11024893775E+04 0.  0.
        2    1    3    3  502    0  0.39642525570E+03  0.16152584984E+03  0.12024652031E+04  0.12763879301E+04  0.25500000920E-02 0. -1.
       -2    1    3    3    0  502 -0.39642525570E+03 -0.16152584984E+03  0.11843226448E+03  0.44415063301E+03  0.25500000920E-02 0.  1.
</event>
<event>
 5   0  0.7946038E-04  0.1102233E+04  0.7818609E-02  0.9203018E-01
       -1   -1    0    0    0  501  0.00000000000E+00  0.00000000000E+00  0.24946413762E+03  0.24946413768E+03  0.50400001928E-02 0.  1.
        1   -1    0    0  501    0  0.00000000000E+00  0.00000000000E+00 -0.12175269161E+04  0.12175269161E+04  0.50400001928E-02 0. -1.
    10030    2    1    2    0    0  0.00000000000E+00  0.00000000000E+00 -0.96806277844E+03  0.14669910537E+04  0.11022328288E+04 0.  0.
        4    1    3    3  502    0 -0.26157380974E+03 -0.26404405551E+03  0.57555306850E+02  0.37610417099E+03  0.12699999809E+01 0.  1.
       -4    1    3    3    0  502  0.26157380974E+03  0.26404405551E+03 -0.10256180853E+04  0.10908868828E+04  0.12699999809E+01 0. -1.
</event>
<event>
 5   0  0.8305271E-04  0.1113679E+04  0.7818609E-02  0.9191961E-01
       -1   -1    0    0    0  501  0.00000000000E+00  0.00000000000E+00  0.41369086595E+03  0.41369086598E+03  0.50400001928E-02 0. -1.
        1   -1    0    0  501    0  0.00000000000E+00  0.00000000000E+00 -0.74952099245E+03  0.74952099247E+03  0.50400001928E-02 0.  1.
    10030    2    1    2    0    0  0.00000000000E+00  0.00000000000E+00 -0.33583012650E+03  0.11632118585E+04  0.11136785684E+04 0.  0.
        5    1    3    3  502    0 -0.44714469365E+03 -0.88454997628E+02  0.16613028778E+03  0.48516391681E+03  0.46999998093E+01 0. -1.
       -5    1    3    3    0  502  0.44714469365E+03  0.88454997628E+02 -0.50196041428E+03  0.67804794164E+03  0.46999998093E+01 0.  1.
</event>
<event>
 5   0  0.1425432E-03  0.1102388E+04  0.7818609E-02  0.9202868E-01
        2   -1    0    0  501    0  0.00000000000E+00  0.00000000000E+00  0.16304661049E+04  0.16304661049E+04  0.25500000920E-02 0. -1.
       -2   -1    0    0    0  501  0.00000000000E+00  0.00000000000E+00 -0.18633616738E+03  0.18633616740E+03  0.25500000920E-02 0.  1.
    10030    2    1    2    0    0  0.00000000000E+00  0.00000000000E+00  0.14441299376E+04  0.18168022723E+04  0.11023879627E+04 0.  0.
        1    1    3    3  502    0  0.12587391895E+03  0.19721295040E+01  0.16064559719E+04  0.16113810606E+04  0.50400001928E-02 0. -1.
       -1    1    3    3    0  502 -0.12587391895E+03 -0.19721295040E+01 -0.16232603437E+03  0.20542121172E+03  0.50400001928E-02 0.  1.
</event>
<event>
 5   0  0.8341767E-04  0.1101927E+04  0.7818609E-02  0.9203316E-01
        1   -1    0    0  501    0  0.00000000000E+00  0.00000000000E+00  0.15310178468E+04  0.15310178468E+04  0.50400001928E-02 0. -1.
       -1   -1    0    0    0  501  0.00000000000E+00  0.00000000000E+00 -0.19827386777E+03  0.19827386783E+03  0.50400001928E-02 0.  1.
    10030    2    1    2    0    0  0.00000000000E+00  0.00000000000E+00  0.13327439791E+04  0.17292917147E+04  0.11019270941E+04 0.  0.
        2    1    3    3  502    0  0.11266139879E+03  0.51969205989E+03  0.44010252178E+03  0.69026274532E+03  0.25500000920E-02 0.  1.
       -2    1    3    3    0  502 -0.11266139879E+03 -0.51969205989E+03  0.89264145727E+03  0.10390289693E+04  0.25500000920E-02 0. -1.
</event>
<event>
 5   0  0.1429680E-03  0.1104515E+04  0.7818609E-02  0.9200803E-01
       -2   -1    0    0    0  501  0.00000000000E+00  0.00000000000E+00  0.62456419147E+03  0.62456419148E+03  0.25500000920E-02 0.  1.
        2   -1    0    0  501    0  0.00000000000E+00  0.00000000000E+00 -0.48832142376E+03  0.48832142377E+03  0.25500000920E-02 0. -1.
    10030    2    1    2    0    0  0.00000000000E+00  0.00000000000E+00  0.13624276771E+03  0.11128856152E+04  0.11045145091E+04 0.  0.
        3    1    3    3  502    0  0.85729309670E+02  0.97143697602E+02  0.60903428155E+03  0.62266297371E+03  0.10100000352E+00 0.  1.
       -3    1    3    3    0  502 -0.85729309670E+02 -0.97143697602E+02 -0.47279151384E+03  0.49022264154E+03  0.10100000352E+00 0. -1.
</event>
<event>
 5   0  0.7946038E-04  0.1091576E+04  0.7818609E-02  0.9213442E-01
       -1   -1    0    0    0  501  0.00000000000E+00  0.00000000000E+00  0.18979130612E+03  0.18979130619E+03  0.50400001928E-02 0. -1.
        1   -1    0    0  501    0  0.00000000000E+00  0.00000000000E+00 -0.15695371322E+04  0.15695371322E+04  0.50400001928E-02 0.  1.
    10030    2    1    2    0    0  0.00000000000E+00  0.00000000000E+00 -0.13797458261E+04  0.17593284384E+04  0.10915759294E+04 0.  0.
        4    1    3    3  502    0  0.50470518783E+03 -0.15819014311E+03 -0.90689760030E+03  0.10498649048E+04  0.12699999809E+01 0.  1.
       -4    1    3    3    0  502 -0.50470518783E+03  0.15819014311E+03 -0.47284822581E+03  0.70946353363E+03  0.12699999809E+01 0. -1.
</event>
<event>
 5   0  0.1425432E-03  0.1102210E+04  0.7818609E-02  0.9203041E-01
       -2   -1    0    0    0  501  0.00000000000E+00  0.00000000000E+00  0.27361228757E+03  0.27361228758E+03  0.25500000920E-02 0. -1.
        2   -1    0    0  501    0  0.00000000000E+00  0.00000000000E+00 -0.11100259188E+04  0.11100259188E+04  0.25500000920E-02 0.  1.
    10030    2    1    2    0    0  0.00000000000E+00  0.00000000000E+00 -0.83641363119E+03  0.13836382063E+04  0.11022100179E+04 0.  0.
        1    1    3    3  502    0  0.47050392161E+03  0.66755046145E+02 -0.76854658325E+03  0.90360059046E+03  0.50400001928E-02 0.  1.
       -1    1    3    3    0  502 -0.47050392161E+03 -0.66755046145E+02 -0.67867047934E+02  0.48003761587E+03  0.50400001928E-02 0. -1.
</event>
<event>
 5   0  0.8150924E-04  0.1097164E+04  0.7818609E-02  0.9207961E-01
        1   -1    0    0  501    0  0.00000000000E+00  0.00000000000E+00  0.10377421710E+04  0.10377421710E+04  0.50400001928E-02 0.  1.
       -1   -1    0    0    0  501  0.00000000000E+00  0.00000000000E+00 -0.28999698854E+03  0.28999698858E+03  0.50400001928E-02 0. -1.
    10030    2    1    2    0    0  0.00000000000E+00  0.00000000000E+00  0.74774518242E+03  0.13277391595E+04  0.10971638064E+04 0.  0.
        3    1    3    3  502    0 -0.41678944693E+03 -0.13143071388E+03  0.77515306735E+03  0.88985940667E+03  0.10100000352E+00 0.  1.
       -3    1    3    3    0  502  0.41678944693E+03  0.13143071388E+03 -0.27407884928E+02  0.43787975288E+03  0.10100000352E+00 0. -1.
</event>
<event>
 5   0  0.1372794E-03  0.1103206E+04  0.7818609E-02  0.9202073E-01
        2   -1    0    0  501    0  0.00000000000E+00  0.00000000000E+00  0.12283639532E+04  0.12283639532E+04  0.25500000920E-02 0. -1.
       -2   -1    0    0    0  501  0.00000000000E+00  0.00000000000E+00 -0.24770001757E+03  0.24770001758E+03  0.25500000920E-02 0.  1.
    10030    2    1    2    0    0  0.00000000000E+00  0.00000000000E+00  0.98066393563E+03  0.14760639708E+04  0.11032058245E+04 0.  0.
        4    1    3    3  502    0 -0.77278289714E+02 -0.38337434717E+02 -0.23861682106E+03  0.25373469048E+03  0.12699999809E+01 0.  1.
       -4    1    3    3    0  502  0.77278289714E+02  0.38337434717E+02  0.12192807567E+04  0.12223292803E+04  0.12699999809E+01 0. -1.
</event>
<event>
 5   0  0.5409500E-04  0.1103616E+04  0.7818609E-02  0.9201675E-01
        3   -1    0    0  501    0  0.00000000000E+00  0.00000000000E+00  0.10620766409E+04  0.10620766457E+04  0.10100000352E+00 0. -1.
       -3   -1    0    0    0  501  0.00000000000E+00  0.00000000000E+00 -0.28669501637E+03  0.28669503416E+03  0.10100000352E+00 0.  1.
    10030    2    1    2    0    0  0.00000000000E+00  0.00000000000E+00  0.77538162452E+03  0.13487716799E+04  0.11036160477E+04 0.  0.
        1    1    3    3  502    0  0.39683515142E+03  0.35659365135E+03  0.55989930410E+03  0.77338502723E+03  0.50400001928E-02 0. -1.
       -1    1    3    3    0  502 -0.39683515142E+03 -0.35659365135E+03  0.21548232042E+03  0.57538665263E+03  0.50400001928E-02 0.  1.
</event>
<event>
 5   0  0.1372794E-03  0.1090232E+04  0.7818609E-02  0.9214765E-01
        2   -1    0    0  501    0  0.00000000000E+00  0.00000000000E+00  0.96554324886E+03  0.96554324887E+03  0.25500000920E-02 0. -1.
       -2   -1    0    0    0  501  0.00000000000E+00  0.00000000000E+00 -0.30775594870E+03  0.30775594871E+03  0.25500000920E-02 0.  1.
    10030    2    1    2    0    0  0.00000000000E+00  0.00000000000E+00  0.65778730016E+03  0.12732991976E+04  0.10902324130E+04 0.  0.
        4    1    3    3  502    0  0.12648168046E+03 -0.50070328492E+03  0.53268959776E+03  0.74193073496E+03  0.12699999809E+01 0. -1.
       -4    1    3    3    0  502 -0.12648168046E+03  0.50070328492E+03  0.12509770240E+03  0.53136846262E+03  0.12699999809E+01 0.  1.
</event>
<event>
 5   0  0.1402775E-03  0.1055584E+04  0.7818609E-02  0.9249598E-01
        2   -1    0    0  501    0  0.00000000000E+00  0.00000000000E+00  0.74045354733E+03  0.74045354733E+03  0.25500000920E-02 0.  1.
       -2   -1    0    0    0  501  0.00000000000E+00  0.00000000000E+00 -0.37620796181E+03  0.37620796182E+03  0.25500000920E-02 0. -1.
    10030    2    1    2    0    0  0.00000000000E+00  0.00000000000E+00  0.36424558552E+03  0.11166615092E+04  0.10555842361E+04 0.  0.
        5    1    3    3  502    0  0.31831545561E+03 -0.54191377956E+02 -0.25950222314E+03  0.41427639148E+03  0.46999998093E+01 0. -1.
       -5    1    3    3    0  502 -0.31831545561E+03  0.54191377956E+02  0.62374780866E+03  0.70238511767E+03  0.46999998093E+01 0.  1.
</event>
<event>
 5   0  0.1396936E-03  0.1101197E+04  0.7818609E-02  0.9204026E-01
        2   -1    0    0  501    0  0.00000000000E+00  0.00000000000E+00  0.16003925125E+04  0.16003925125E+04  0.25500000920E-02 0.  1.
       -2   -1    0    0    0  501  0.00000000000E+00  0.00000000000E+00 -0.18942768919E+03  0.18942768921E+03  0.25500000920E-02 0. -1.
    10030    2    1    2    0    0  0.00000000000E+00  0.00000000000E+00  0.14109648233E+04  0.17898202017E+04  0.11011969042E+04 0.  0.
        2    1    3    3  502    0  0.38110733844E+03 -0.11192785006E+03  0.85743567840E+02  0.40635281034E+03  0.25500000920E-02 0. -1.
       -2    1    3    3    0  502 -0.38110733844E+03  0.11192785006E+03  0.13252212554E+04  0.13834673913E+04  0.25500000920E-02 0.  1.
</event>
<event>
 5   0  0.1429680E-03  0.1102890E+04  0.7818609E-02  0.9202380E-01
        2   -1    0    0  501    0  0.00000000000E+00  0.00000000000E+00  0.45103097065E+03  0.45103097066E+03  0.25500000920E-02 0.  1.
       -2   -1    0    0    0  501  0.00000000000E+00  0.00000000000E+00 -0.67421425242E+03  0.67421425243E+03  0.25500000920E-02 0. -1.
    10030    2    1    2    0    0  0.00000000000E+00  0.00000000000E+00 -0.22318328177E+03  0.11252452231E+04  0.11028898562E+04 0.  0.
        3    1    3    3  502    0 -0.49820023516E+03 -0.97240106464E+02 -0.33144116791E+03  0.60622798567E+03  0.10100000352E+00 0. -1.
       -3    1    3    3    0  502  0.49820023516E+03  0.97240106464E+02  0.10825788614E+03  0.51901723742E+03  0.10100000352E+00 0.  1.
</event>
<event>
 5   0  0.1429680E-03  0.1098985E+04  0.7818609E-02  0.9206182E-01
       -2   -1    0    0    0  501  0.00000000000E+00  0.00000000000E+00  0.14829923186E+03  0.14829923188E+03  0.25500000920E-02 0. -1.
        2   -1    0    0  501    0  0.00000000000E+00  0.00000000000E+00 -0.20360315588E+04  0.20360315588E+04  0.25500000920E-02 0.  1.
    10030    2    1    2    0    0  0.00000000000E+00  0.00000000000E+00 -0.18877323270E+04  0.21843307907E+04  0.10989848338E+04 0.  0.
        3    1    3    3  502    0  0.39951041919E+03  0.37429067113E+03 -0.10379323861E+04  0.11734588743E+04  0.10100000352E+00 0.  1.
       -3    1    3    3    0  502 -0.39951041919E+03 -0.37429067113E+03 -0.84979994093E+03  0.10108719164E+04  0.10100000352E+00 0. -1.
</event>
<event>
 5   0  0.1396936E-03  0.1105090E+04  0.7818609E-02  0.9200245E-01
       -2   -1    0    0    0  501  0.00000000000E+00  0.00000000000E+00  0.75579926777E+03  0.75579926777E+03  0.25500000920E-02 0.  1.
        2   -1    0    0  501    0  0.00000000000E+00  0.00000000000E+00 -0.40395087680E+03  0.40395087681E+03  0.25500000920E-02 0. -1.
    10030    2    1    2    0    0  0.00000000000E+00  0.00000000000E+00  0.35184839097E+03  0.11597501446E+04  0.11050896378E+04 0.  0.
        2    1    3    3  502    0  0.43338106862E+03  0.20602664204E+03  0.46340729975E+03  0.66709253731E+03  0.25500000920E-02 0.  1.
       -2    1    3    3    0  502 -0.43338106862E+03 -0.20602664204E+03 -0.11155890878E+03  0.49265760727E+03  0.25500000920E-02 0. -1.
</event>
<event>
 5   0  0.5409500E-04  0.1101467E+04  0.7818609E-02  0.9203763E-01
        3   -1    0    0  501    0  0.00000000000E+00  0.00000000000E+00  0.17405001040E+03  0.17405003971E+03  0.10100000352E+00 0. -1.
       -3   -1    0    0    0  501  0.00000000000E+00  0.00000000000E+00 -0.17426458638E+04  0.17426458667E+04  0.10100000352E+00 0.  1.
    10030    2    1    2    0    0  0.00000000000E+00  0.00000000000E+00 -0.15685958534E+04  0.19166959064E+04  0.11014673152E+04 0.  0.
        4    1    3    3  502    0 -0.47689637146E+03 -0.26440382411E+03 -0.64988581105E+03  0.84834704669E+03  0.12699999809E+01 0. -1.
       -4    1    3    3    0  502  0.47689637146E+03  0.26440382411E+03 -0.91871004236E+03  0.10683488598E+04  0.12699999809E+01 0.  1.
</event>
<event>
 5   0  0.5409500E-04  0.1097528E+04  0.7818609E-02  0.9207605E-01
       -4   -1    0    0    0  501  0.00000000000E+00  0.00000000000E+00  0.62484982835E+03  0.62485111898E+03  0.12699999809E+01 0.  1.
        4   -1    0    0  501    0  0.00000000000E+00  0.00000000000E+00 -0.48194022869E+03  0.48194190203E+03  0.12699999809E+01 0. -1.
    10030    2    1    2    0    0  0.00000000000E+00  0.00000000000E+00  0.14290959965E+03  0.11067930210E+04  0.10975279667E+04 0.  0.
        2    1    3    3  502    0  0.10637344683E+03 -0.20718091895E+03 -0.42963285835E+03  0.48869585260E+03  0.25500000920E-02 0. -1.
       -2    1    3    3    0  502 -0.10637344683E+03  0.20718091895E+03  0.57254245801E+03  0.61809716841E+03  0.25500000920E-02 0.  1.
</event>
<event>
 5   0  0.1429680E-03  0.1107871E+04  0.7818609E-02  0.9197554E-01
       -2   -1    0    0    0  501  0.00000000000E+00  0.00000000000E+00  0.17572020524E+03  0.17572020526E+03  0.25500000920E-02 0.  1.
        2   -1    0    0  501    0  0.00000000000E+00  0.00000000000E+00 -0.17462097481E+04  0.17462097481E+04  0.25500000920E-02 0. -1.
    10030    2    1    2    0    0  0.00000000000E+00  0.00000000000E+00 -0.15704895429E+04  0.19219299534E+04  0.11078706339E+04 0.  0.
        3    1    3    3  502    0  0.51826107832E+03 -0.98367193574E+02 -0.10784904059E+04  0.12005882791E+04  0.10100000352E+00 0.  1.
       -3    1    3    3    0  502 -0.51826107832E+03  0.98367193574E+02 -0.49199913701E+03  0.72134167431E+03  0.10100000352E+00 0. -1.
</event>
<event>
 5   0  0.7946038E-04  0.1100020E+04  0.7818609E-02  0.9205173E-01
        1   -1    0    0  501    0  0.00000000000E+00  0.00000000000E+00  0.85609643929E+03  0.85609643931E+03  0.50400001928E-02 0.  1.
       -1   -1    0    0    0  501  0.00000000000E+00  0.00000000000E+00 -0.35336068497E+03  0.35336068500E+03  0.50400001928E-02 0. -1.
    10030    2    1    2    0    0  0.00000000000E+00  0.00000000000E+00  0.50273575432E+03  0.12094571243E+04  0.11000196802E+04 0.  0.
        4    1    3    3  502    0 -0.82166102676E+02 -0.50254723353E+03  0.22832672047E+02  0.50973319901E+03  0.12699999809E+01 0. -1.
       -4    1    3    3    0  502  0.82166102676E+02  0.50254723353E+03  0.47990308228E+03  0.69972392530E+03  0.12699999809E+01 0.  1.
</event>
<event>
 5   0  0.1425432E-03  0.1100637E+04  0.7818609E-02  0.9204571E-01
       -2   -1    0    0    0  501  0.00000000000E+00  0.00000000000E+00  0.27477620392E+03  0.27477620393E+03  0.25500000920E-02 0. -1.
        2   -1    0    0  501    0  0.00000000000E+00  0.00000000000E+00 -0.11021718071E+04  0.11021718071E+04  0.25500000920E-02 0.  1.
    10030    2    1    2    0    0  0.00000000000E+00  0.00000000000E+00 -0.82739560319E+03  0.13769480110E+04  0.11006372431E+04 0.  0.
        1    1    3    3  502    0 -0.19689705471E+03  0.12581472481E+03  0.20963561217E+03  0.31391859622E+03  0.50400001928E-02 0. -1.
       -1    1    3    3    0  502  0.19689705471E+03 -0.12581472481E+03 -0.10370312154E+04  0.10630294148E+04  0.50400001928E-02 0.  1.
</event>
<event>
 5   0  0.1396936E-03  0.1087560E+04  0.7818609E-02  0.9217402E-01
        2   -1    0    0  501    0  0.00000000000E+00  0.00000000000E+00  0.11002411699E+04  0.11002411699E+04  0.25500000920E-02 0. -1.
       -2   -1    0    0    0  501  0.00000000000E+00  0.00000000000E+00 -0.26875626839E+03  0.26875626840E+03  0.25500000920E-02 0.  1.
    10030    2    1    2    0    0  0.00000000000E+00  0.00000000000E+00  0.83148490151E+03  0.13689974383E+04  0.10875600419E+04 0.  0.
        2    1    3    3  502    0 -0.22842259157E+03 -0.47788651771E+03  0.26083436212E+03  0.59041254104E+03  0.25500000920E-02 0.  1.
       -2    1    3    3    0  502  0.22842259157E+03  0.47788651771E+03  0.57065053939E+03  0.77858489727E+03  0.25500000920E-02 0. -1.
</event>
<event>
 5   0  0.8341767E-04  0.1100877E+04  0.7818609E-02  0.9204337E-01
        1   -1    0    0  501    0  0.00000000000E+00  0.00000000000E+00  0.66387170842E+03  0.66387170844E+03  0.50400001928E-02 0.  1.
       -1   -1    0    0    0  501  0.00000000000E+00  0.00000000000E+00 -0.45638744958E+03  0.45638744961E+03  0.50400001928E-02 0. -1.
    10030    2    1    2    0    0  0.00000000000E+00  0.00000000000E+00  0.20748425884E+03  0.11202591580E+04  0.11008773154E+04 0.  0.
        2    1    3    3  502    0 -0.33830124857E+03 -0.12310206862E+03 -0.31997903668E+03  0.48165178085E+03  0.25500000920E-02 0. -1.
       -2    1    3    3    0  502  0.33830124857E+03  0.12310206862E+03  0.52746329552E+03  0.63860737719E+03  0.25500000920E-02 0.  1.
</event>
<event>
 5   0  0.1402775E-03  0.1103221E+04  0.7818609E-02  0.9202058E-01
        2   -1    0    0  501    0  0.00000000000E+00  0.00000000000E+00  0.91029223153E+03  0.91029223154E+03  0.25500000920E-02 0. -1.
       -2   -1    0    0    0  501  0.00000000000E+00  0.00000000000E+00 -0.33425997528E+03  0.33425997529E+03  0.25500000920E-02 0.  1.
    10030    2    1    2    0    0  0.00000000000E+00  0.00000000000E+00  0.57603225626E+03  0.12445522068E+04  0.11032212087E+04 0.  0.
        5    1    3    3  502    0 -0.19399355281E+03  0.44074400772E+03  0.59148207821E+03  0.76273318907E+03  0.46999998093E+01 0. -1.
       -5    1    3    3    0  502  0.19399355281E+03 -0.44074400772E+03 -0.15449821953E+02  0.48181901775E+03  0.46999998093E+01 0.  1.
</event>
<event>
 5   0  0.8150924E-04  0.1098250E+04  0.7818609E-02  0.9206899E-01
       -1   -1    0    0    0  501  0.00000000000E+00  0.00000000000E+00  0.28520316114E+03  0.28520316118E+03  0.50400001928E-02 0. -1.
        1   -1    0    0  501    0  0.00000000000E+00  0.00000000000E+00 -0.10572755710E+04  0.10572755710E+04  0.50400001928E-02 0.  1.
    10030    2    1    2    0    0  0.00000000000E+00  0.00000000000E+00 -0.77207240984E+03  0.13424787322E+04  0.10982501265E+04 0.  0.
        3    1    3    3  502    0 -0.42018276381E+03  0.34053134775E+03 -0.26992189436E+03  0.60446091111E+03  0.10100000352E+00 0.  1.
       -3    1    3    3    0  502  0.42018276381E+03 -0.34053134775E+03 -0.50215051548E+03  0.73801782106E+03  0.10100000352E+00 0. -1.
</event>
<event>
 5   0  0.8150924E-04  0.1098062E+04  0.7818609E-02  0.9207083E-01
       -1   -1    0    0    0  501  0.00000000000E+00  0.00000000000E+00  0.34146880222E+03  0.34146880225E+03  0.50400001928E-02 0. -1.
        1   -1    0    0  501    0  0.00000000000E+00  0.00000000000E+00 -0.88275960990E+03  0.88275960991E+03  0.50400001928E-02 0.  1.
    10030    2    1    2    0    0  0.00000000000E+00  0.00000000000E+00 -0.54129080768E+03  0.12242284122E+04  0.10980616862E+04 0.  0.
        3    1    3    3  502    0 -0.21448935498E+03 -0.14969274623E+02 -0.83386840899E+03  0.86114243671E+03  0.10100000352E+00 0.  1.
       -3    1    3    3    0  502  0.21448935498E+03  0.14969274623E+02  0.29257760131E+03  0.36308597546E+03  0.10100000352E+00 0. -1.
</event>
<event>
 5   0  0.7946038E-04  0.1097963E+04  0.7818609E-02  0.9207179E-01
       -1   -1    0    0    0  501  0.00000000000E+00  0.00000000000E+00  0.91985579092E+03  0.91985579094E+03  0.50400001928E-02 0. -1.
        1   -1    0    0  501    0  0.00000000000E+00  0.00000000000E+00 -0.32763911167E+03  0.32763911171E+03  0.50400001928E-02 0.  1.
    10030    2    1    2    0    0  0.00000000000E+00  0.00000000000E+00  0.59221667925E+03  0.12474949026E+04  0.10979630854E+04 0.  0.
        4    1    3    3  502    0  0.25953843648E+03 -0.25701806727E+03  0.76175317882E+03  0.84480057129E+03  0.12699999809E+01 0. -1.
       -4    1    3    3    0  502 -0.25953843648E+03  0.25701806727E+03 -0.16953649957E+03  0.40269433135E+03  0.12699999809E+01 0.  1.
</event>
<event>
 5   0  0.1372794E-03  0.1112153E+04  0.7818609E-02  0.9193427E-01
       -2   -1    0    0    0  501  0.00000000000E+00  0.00000000000E+00  0.66849996212E+03  0.66849996213E+03  0.25500000920E-02 0.  1.
        2   -1    0    0  501    0  0.00000000000E+00  0.00000000000E+00 -0.46255924382E+03  0.46255924383E+03  0.25500000920E-02 0. -1.
    10030    2    1    2    0    0  0.00000000000E+00  0.00000000000E+00  0.20594071830E+03  0.11310592060E+04  0.11121525740E+04 0.  0.
        4    1    3    3  502    0 -0.35870853821E+03 -0.10540560152E+03 -0.31565466078E+03  0.48930730016E+03  0.12699999809E+01 0. -1.
       -4    1    3    3    0  502  0.35870853821E+03  0.10540560152E+03  0.52159537908E+03  0.64175190580E+03  0.12699999809E+01 0.  1.
</event>
<event>
 5   0  0.1396936E-03  0.1099967E+04  0.7818609E-02  0.9205224E-01
        2   -1    0    0  501    0  0.00000000000E+00  0.00000000000E+00  0.14314968338E+04  0.14314968338E+04  0.25500000920E-02 0.  1.
       -2   -1    0    0    0  501  0.00000000000E+00  0.00000000000E+00 -0.21130468862E+03  0.21130468863E+03  0.25500000920E-02 0. -1.
    10030    2    1    2    0    0  0.00000000000E+00  0.00000000000E+00  0.12201921452E+04  0.16428015224E+04  0.10999672590E+04 0.  0.
        2    1    3    3  502    0  0.20219150889E+03 -0.79391773762E+02 -0.14452451086E+03  0.26090571909E+03  0.25500000920E-02 0. -1.
       -2    1    3    3    0  502 -0.20219150889E+03  0.79391773762E+02  0.13647166560E+04  0.13818958033E+04  0.25500000920E-02 0.  1.
</event>
<event>
 5   0  0.1372794E-03  0.1113739E+04  0.7818609E-02  0.9191904E-01
       -2   -1    0    0    0  501  0.00000000000E+00  0.00000000000E+00  0.26835903600E+03  0.26835903602E+03  0.25500000920E-02 0.  1.
        2   -1    0    0  501    0  0.00000000000E+00  0.00000000000E+00 -0.11555547468E+04  0.11555547468E+04  0.25500000920E-02 0. -1.
    10030    2    1    2    0    0  0.00000000000E+00  0.00000000000E+00 -0.88719571081E+03  0.14239137828E+04  0.11137388525E+04 0.  0.
        4    1    3    3  502    0 -0.17548123320E+03  0.39167699314E+03 -0.89723512717E+03  0.99460394957E+03  0.12699999809E+01 0. -1.
       -4    1    3    3    0  502  0.17548123320E+03 -0.39167699314E+03  0.10039416364E+02  0.42930983327E+03  0.12699999809E+01 0.  1.
</event>
<event>
 5   0  0.1425432E-03  0.1101352E+04  0.7818609E-02  0.9203875E-01
        2   -1    0    0  501    0  0.00000000000E+00  0.00000000000E+00  0.10029432502E+04  0.10029432502E+04  0.25500000920E-02 0. -1.
       -2   -1    0    0    0  501  0.00000000000E+00  0.00000000000E+00 -0.30235436869E+03  0.30235436870E+03  0.25500000920E-02 0.  1.
    10030    2    1    2    0    0  0.00000000000E+00  0.00000000000E+00  0.70058888148E+03  0.13052976189E+04  0.11013523927E+04 0.  0.
        1    1    3    3  502    0 -0.43975031055E+03  0.10495402852E+02  0.74293304528E+03  0.86338867198E+03  0.50400001928E-02 0. -1.
       -1    1    3    3    0  502  0.43975031055E+03 -0.10495402852E+02 -0.42344163801E+02  0.44190894689E+03  0.50400001928E-02 0.  1.
</event>
<event>
 5   0  0.1429680E-03  0.1091790E+04  0.7818609E-02  0.9213231E-01
       -2   -1    0    0    0  501  0.00000000000E+00  0.00000000000E+00  0.54628149509E+03  0.54628149510E+03  0.25500000920E-02 0.  1.
        2   -1    0    0  501    0  0.00000000000E+00  0.00000000000E+00 -0.54550900409E+03  0.54550900410E+03  0.25500000920E-02 0. -1.
    10030    2    1    2    0    0  0.00000000000E+00  0.00000000000E+00  0.77249100274E+00  0.10917904992E+04  0.10917902259E+04 0.  0.
        3    1    3    3  502    0  0.62362801069E+02 -0.49630986052E+03 -0.21822045949E+03  0.54574057550E+03  0.10100000352E+00 0. -1.
       -3    1    3    3    0  502 -0.62362801069E+02  0.49630986052E+03  0.21899295050E+03  0.54604992370E+03  0.10100000352E+00 0.  1.
</event>
<event>
 5   0  0.8009636E-04  0.1097249E+04  0.7818609E-02  0.9207877E-01
       -1   -1    0    0    0  501  0.00000000000E+00  0.00000000000E+00  0.49121071171E+03  0.49121071174E+03  0.50400001928E-02 0.  1.
        1   -1    0    0  501    0  0.00000000000E+00  0.00000000000E+00 -0.61274879472E+03  0.61274879474E+03  0.50400001928E-02 0. -1.
    10030    2    1    2    0    0  0.00000000000E+00  0.00000000000E+00 -0.12153808300E+03  0.11039595065E+04  0.10972488716E+04 0.  0.
        1    1    3    3  502    0  0.52107414590E+03 -0.12973874024E+03 -0.17387707531E+03  0.56443214259E+03  0.50400001928E-02 0. -1.
       -1    1    3    3    0  502 -0.52107414590E+03  0.12973874024E+03  0.52338992313E+02  0.53952736389E+03  0.50400001928E-02 0.  1.
</event>
<event>
 5   0  0.1396936E-03  0.1085300E+04  0.7818609E-02  0.9219640E-01
        2   -1    0    0  501    0  0.00000000000E+00  0.00000000000E+00  0.81140228062E+03  0.81140228062E+03  0.25500000920E-02 0.  1.
       -2   -1    0    0    0  501  0.00000000000E+00  0.00000000000E+00 -0.36291341742E+03  0.36291341743E+03  0.25500000920E-02 0. -1.
    10030    2    1    2    0    0  0.00000000000E+00  0.00000000000E+00  0.44848886320E+03  0.11743156981E+04  0.10852995431E+04 0.  0.
        2    1    3    3  502    0 -0.32944951972E+03  0.39291613841E+03  0.32056568598E+02  0.51375840768E+03  0.25500000920E-02 0. -1.
       -2    1    3    3    0  502  0.32944951972E+03 -0.39291613841E+03  0.41643229460E+03  0.66055729037E+03  0.25500000920E-02 0.  1.
</event>
<event>
 5   0  0.8341767E-04  0.1096629E+04  0.7818609E-02  0.9208484E-01
        1   -1    0    0  501    0  0.00000000000E+00  0.00000000000E+00  0.58258378657E+03  0.58258378659E+03  0.50400001928E-02 0. -1.
       -1   -1    0    0    0  501  0.00000000000E+00  0.00000000000E+00 -0.51606102024E+03  0.51606102026E+03  0.50400001928E-02 0.  1.
    10030    2    1    2    0    0  0.00000000000E+00  0.00000000000E+00  0.66522766332E+02  0.10986448069E+04  0.10966289861E+04 0.  0.
        2    1    3    3  502    0 -0.37979069934E+03  0.30776086693E+03 -0.21557202683E+03  0.53425558048E+03  0.25500000920E-02 0.  1.
       -2    1    3    3    0  502  0.37979069934E+03 -0.30776086693E+03  0.28209479316E+03  0.56438922638E+03  0.25500000920E-02 0. -1.
</event>
<event>
 5   0  0.1396936E-03  0.1100274E+04  0.7818609E-02  0.9204924E-01
       -2   -1    0    0    0  501  0.00000000000E+00  0.00000000000E+00  0.25174752421E+03  0.25174752422E+03  0.25500000920E-02 0. -1.
        2   -1    0    0  501    0  0.00000000000E+00  0.00000000000E+00 -0.12022003501E+04  0.12022003501E+04  0.25500000920E-02 0.  1.
    10030    2    1    2    0    0  0.00000000000E+00  0.00000000000E+00 -0.95045282587E+03  0.14539478743E+04  0.11002744417E+04 0.  0.
        2    1    3    3  502    0  0.44803125658E+03 -0.21916780787E+03 -0.78197279275E+03  0.92749554365E+03  0.25500000920E-02 0. -1.
       -2    1    3    3    0  502 -0.44803125658E+03  0.21916780787E+03 -0.16848003312E+03  0.52645233065E+03  0.25500000920E-02 0.  1.
</event>
<event>
 5   0  0.1372794E-03  0.1100472E+04  0.7818609E-02  0.9204732E-01
        2   -1    0    0  501    0  0.00000000000E+00  0.00000000000E+00  0.10806825638E+04  0.10806825638E+04  0.25500000920E-02 0. -1.
       -2   -1    0    0    0  501  0.00000000000E+00  0.00000000000E+00 -0.28015575991E+03  0.28015575992E+03  0.25500000920E-02 0.  1.
    10030    2    1    2    0    0  0.00000000000E+00  0.00000000000E+00  0.80052680389E+03  0.13608383237E+04  0.11004716169E+04 0.  0.
        4    1    3    3  502    0  0.36927426022E+03  0.39495285829E+03  0.52641186365E+03  0.75462726072E+03  0.12699999809E+01 0. -1.
       -4    1    3    3    0  502 -0.36927426022E+03 -0.39495285829E+03  0.27411494024E+03  0.60621106299E+03  0.12699999809E+01 0.  1.
</event>
<event>
 5   0  0.8009636E-04  0.1100628E+04  0.7818609E-02  0.9204580E-01
       -1   -1    0    0    0  501  0.00000000000E+00  0.00000000000E+00  0.55579145970E+03  0.55579145972E+03  0.50400001928E-02 0.  1.
        1   -1    0    0  501    0  0.00000000000E+00  0.00000000000E+00 -0.54489054210E+03  0.54489054213E+03  0.50400001928E-02 0. -1.
    10030    2    1    2    0    0  0.00000000000E+00  0.00000000000E+00  0.10900917594E+02  0.11006820018E+04  0.11006280204E+04 0.  0.
        1    1    3    3  502    0  0.47850204320E+03  0.83512155381E+02 -0.25322614923E+03  0.54777912348E+03  0.50400001928E-02 0. -1.
       -1    1    3    3    0  502 -0.47850204320E+03 -0.83512155381E+02  0.26412706682E+03  0.55290287836E+03  0.50400001928E-02 0.  1.
</event>
<event>
 5   0  0.8150924E-04  0.1100054E+04  0.7818609E-02  0.9205139E-01
       -1   -1    0    0    0  501  0.00000000000E+00  0.00000000000E+00  0.81699628278E+03  0.81699628280E+03  0.50400001928E-02 0. -1.
        1   -1    0    0  501    0  0.00000000000E+00  0.00000000000E+00 -0.37029517340E+03  0.37029517343E+03  0.50400001928E-02 0.  1.
    10030    2    1    2    0    0  0.00000000000E+00  0.00000000000E+00  0.44670110938E+03  0.11872914562E+04  0.11000541445E+04 0.  0.
        3    1    3    3  502    0  0.32530430972E+03  0.20888087212E+03 -0.19892539526E+03  0.43477055528E+03  0.10100000352E+00 0. -1.
       -3    1    3    3    0  502 -0.32530430972E+03 -0.20888087212E+03  0.64562650464E+03  0.75252090094E+03  0.10100000352E+00 0.  1.
</event>
<event>
 5   0  0.1429680E-03  0.1100817E+04  0.7818609E-02  0.9204396E-01
        2   -1    0    0  501    0  0.00000000000E+00  0.00000000000E+00  0.44984319185E+03  0.44984319186E+03  0.25500000920E-02 0.  1.
       -2   -1    0    0    0  501  0.00000000000E+00  0.00000000000E+00 -0.67345555303E+03  0.67345555304E+03  0.25500000920E-02 0. -1.
    10030    2    1    2    0    0  0.00000000000E+00  0.00000000000E+00 -0.22361236118E+03  0.11232987449E+04  0.11008167796E+04 0.  0.
        3    1    3    3  502    0 -0.12979550807E+03  0.36266541639E+03  0.28938529505E+03  0.48178515684E+03  0.10100000352E+00 0.  1.
       -3    1    3    3    0  502  0.12979550807E+03 -0.36266541639E+03 -0.51299765623E+03  0.64151358806E+03  0.10100000352E+00 0. -1.
</event>
<event>
 5   0  0.8305271E-04  0.1099360E+04  0.7818609E-02  0.9205816E-01
       -1   -1    0    0    0  501  0.00000000000E+00  0.00000000000E+00  0.59530591107E+03  0.59530591109E+03  0.50400001928E-02 0. -1.
        1   -1    0    0  501    0  0.00000000000E+00  0.00000000000E+00 -0.50755117016E+03  0.50755117018E+03  0.50400001928E-02 0.  1.
    10030    2    1    2    0    0  0.00000000000E+00  0.00000000000E+00  0.87754740910E+02  0.11028570813E+04  0.10993601990E+04 0.  0.
        5    1    3    3  502    0  0.22806134749E+03  0.15911531018E+03 -0.43175780119E+03  0.51358207624E+03  0.46999998093E+01 0.  1.
       -5    1    3    3    0  502 -0.22806134749E+03 -0.15911531018E+03  0.51951254210E+03  0.58927500503E+03  0.46999998093E+01 0. -1.
</event>
<event>
 5   0  0.7946038E-04  0.1096793E+04  0.7818609E-02  0.9208323E-01
        1   -1    0    0  501    0  0.00000000000E+00  0.00000000000E+00  0.74623833096E+03  0.74623833098E+03  0.50400001928E-02 0. -1.
       -1   -1    0    0    0  501  0.00000000000E+00  0.00000000000E+00 -0.40300626811E+03  0.40300626814E+03  0.50400001928E-02 0.  1.
    10030    2    1    2    0    0  0.00000000000E+00  0.00000000000E+00  0.34323206285E+03  0.11492445991E+04  0.10967930067E+04 0.  0.
        4    1    3    3  502    0 -0.23770418930E+03 -0.47471680032E+03  0.31558316995E+03  0.61761935865E+03  0.12699999809E+01 0.  1.
       -4    1    3    3    0  502  0.23770418930E+03  0.47471680032E+03  0.27648892904E+02  0.53162524047E+03  0.12699999809E+01 0. -1.
</event>
<event>
 5   0  0.1372794E-03  0.1095799E+04  0.7818609E-02  0.9209296E-01
        2   -1    0    0  501    0  0.00000000000E+00  0.00000000000E+00  0.41062757680E+03  0.41062757681E+03  0.25500000920E-02 0.  1.
       -2   -1    0    0    0  501  0.00000000000E+00  0.00000000000E+00 -0.73106109839E+03  0.73106109839E+03  0.25500000920E-02 0. -1.
    10030    2    1    2    0    0  0.00000000000E+00  0.00000000000E+00 -0.32043352159E+03  0.11416886752E+04  0.10957989730E+04 0.  0.
        4    1    3    3  502    0  0.50405691509E+03  0.19866787527E+03 -0.24517891994E+03  0.59469035136E+03  0.12699999809E+01 0. -1.
       -4    1    3    3    0  502 -0.50405691509E+03 -0.19866787527E+03 -0.75254601653E+02  0.54699832384E+03  0.12699999809E+01 0.  1.
</event>
<event>
 5   0  0.1425432E-03  0.1097822E+04  0.7818609E-02  0.9207317E-01
       -2   -1    0    0    0  501  0.00000000000E+00  0.00000000000E+00  0.28182809230E+03  0.28182809231E+03  0.25500000920E-02 0. -1.
        2   -1    0    0  501    0  0.00000000000E+00  0.00000000000E+00 -0.10691036448E+04  0.10691036448E+04  0.25500000920E-02 0.  1.
    10030    2    1    2    0    0  0.00000000000E+00  0.00000000000E+00 -0.78727555247E+03  0.13509317371E+04  0.10978222820E+04 0.  0.
        1    1    3    3  502    0 -0.26949709049E+03  0.47279600851E+03 -0.48184978433E+03  0.72687272760E+03  0.50400001928E-02 0.  1.
       -1    1    3    3    0  502  0.26949709049E+03 -0.47279600851E+03 -0.30542576814E+03  0.62405900948E+03  0.50400001928E-02 0. -1.
</event>
<event>
 5   0  0.8341767E-04  0.1103575E+04  0.7818609E-02  0.9201715E-01
        1   -1    0    0  501    0  0.00000000000E+00  0.00000000000E+00  0.62113205128E+03  0.62113205130E+03  0.50400001928E-02 0. -1.
       -1   -1    0    0    0  501  0.00000000000E+00  0.00000000000E+00 -0.49018437653E+03  0.49018437655E+03  0.50400001928E-02 0.  1.
    10030    2    1    2    0    0  0.00000000000E+00  0.00000000000E+00  0.13094767475E+03  0.11113164279E+04  0.11035746052E+04 0.  0.
        2    1    3    3  502    0 -0.20378386164E+03 -0.39140796558E+03 -0.26812215774E+03  0.51635021958E+03  0.25500000920E-02 0.  1.
       -2    1    3    3    0  502  0.20378386164E+03  0.39140796558E+03  0.39906983248E+03  0.59496620827E+03  0.25500000920E-02 0. -1.
</event>
<event>
 5   0  0.1396936E-03  0.1103256E+04  0.7818609E-02  0.9202024E-01
        2   -1    0    0  501    0  0.00000000000E+00  0.00000000000E+00  0.10834188146E+04  0.10834188146E+04  0.25500000920E-02 0. -1.
       -2   -1    0    0    0  501  0.00000000000E+00  0.00000000000E+00 -0.28086408313E+03  0.28086408314E+03  0.25500000920E-02 0.  1.
    10030    2    1    2    0    0  0.00000000000E+00  0.00000000000E+00  0.80255473147E+03  0.13642828977E+04  0.11032559667E+04 0.  0.
        2    1    3    3  502    0 -0.54689892947E+03  0.18212388557E+02  0.31504034122E+03  0.63141155101E+03  0.25500000920E-02 0.  1.
       -2    1    3    3    0  502  0.54689892947E+03 -0.18212388557E+02  0.48751439025E+03  0.73287134673E+03  0.25500000920E-02 0. -1.
</event>
<event>
 5   0  0.1425432E-03  0.1100422E+04  0.7818609E-02  0.9204780E-01
       -2   -1    0    0    0  501  0.00000000000E+00  0.00000000000E+00  0.29954428571E+03  0.29954428572E+03  0.25500000920E-02 0.  1.
        2   -1    0    0  501    0  0.00000000000E+00  0.00000000000E+00 -0.10106430122E+04  0.10106430122E+04  0.25500000920E-02 0. -1.
    10030    2    1    2    0    0  0.00000000000E+00  0.00000000000E+00 -0.71109872648E+03  0.13101872979E+04  0.11004223538E+04 0.  0.
        1    1    3    3  502    0  0.30912466749E+03 -0.32724020580E+03 -0.73222303142E+03  0.85953172141E+03  0.50400001928E-02 0. -1.
       -1    1    3    3    0  502 -0.30912466749E+03  0.32724020580E+03  0.21124304944E+02  0.45065557650E+03  0.50400001928E-02 0.  1.
</event>
<event>
 5   0  0.1429680E-03  0.1102612E+04  0.7818609E-02  0.9202649E-01
       -2   -1    0    0    0  501  0.00000000000E+00  0.00000000000E+00  0.42182370287E+03  0.42182370288E+03  0.25500000920E-02 0.  1.
        2   -1    0    0  501    0  0.00000000000E+00  0.00000000000E+00 -0.72053437143E+03  0.72053437143E+03  0.25500000920E-02 0. -1.
    10030    2    1    2    0    0  0.00000000000E+00  0.00000000000E+00 -0.29871066855E+03  0.11423580743E+04  0.11026123101E+04 0.  0.
        3    1    3    3  502    0 -0.27203689667E+03  0.79612061511E+02 -0.63926018291E+03  0.69928230718E+03  0.10100000352E+00 0. -1.
       -3    1    3    3    0  502  0.27203689667E+03 -0.79612061511E+02  0.34054951435E+03  0.44307576713E+03  0.10100000352E+00 0.  1.
</event>
<event>
 5   0  0.1396936E-03  0.1102689E+04  0.7818609E-02  0.9202575E-01
       -2   -1    0    0    0  501  0.00000000000E+00  0.00000000000E+00  0.50130831623E+03  0.50130831624E+03  0.25500000920E-02 0.  1.
        2   -1    0    0  501    0  0.00000000000E+00  0.00000000000E+00 -0.60637431913E+03  0.60637431914E+03  0.25500000920E-02 0. -1.
    10030    2    1    2    0    0  0.00000000000E+00  0.00000000000E+00 -0.10506600290E+03  0.11076826354E+04  0.11026885126E+04 0.  0.
        2    1    3    3  502    0 -0.12258916083E+03  0.29020954050E+03 -0.50705415345E+03  0.59695359475E+03  0.25500000920E-02 0. -1.
       -2    1    3    3    0  502  0.12258916083E+03 -0.29020954050E+03  0.40198815054E+03  0.51072904062E+03  0.25500000920E-02 0.  1.
</event>
<event>
 5   0  0.8305271E-04  0.1096791E+04  0.7818609E-02  0.9208325E-01
        1   -1    0    0  501    0  0.00000000000E+00  0.00000000000E+00  0.10389630704E+04  0.10389630704E+04  0.50400001928E-02 0. -1.
       -1   -1    0    0    0  501  0.00000000000E+00  0.00000000000E+00 -0.28945950717E+03  0.28945950721E+03  0.50400001928E-02 0.  1.
    10030    2    1    2    0    0  0.00000000000E+00  0.00000000000E+00  0.74950356319E+03  0.13284225776E+04  0.10967912077E+04 0.  0.
        5    1    3    3  502    0  0.22742376200E+03  0.15540942324E+03 -0.19956433002E+03  0.34017887672E+03  0.46999998093E+01 0.  1.
       -5    1    3    3    0  502 -0.22742376200E+03 -0.15540942324E+03  0.94906789321E+03  0.98824370085E+03  0.46999998093E+01 0. -1.
</event>
<event>
 5   0  0.1372794E-03  0.1100202E+04  0.7818609E-02  0.9204995E-01
       -2   -1    0    0    0  501  0.00000000000E+00  0.00000000000E+00  0.15000152023E+03  0.15000152025E+03  0.25500000920E-02 0. -1.
        2   -1    0    0  501    0  0.00000000000E+00  0.00000000000E+00 -0.20173868791E+04  0.20173868791E+04  0.25500000920E-02 0.  1.
    10030    2    1    2    0    0  0.00000000000E+00  0.00000000000E+00 -0.18673853588E+04  0.21673883993E+04  0.11002019792E+04 0.  0.
        4    1    3    3  502    0  0.37062397804E+03  0.33317762257E+03 -0.13924935798E+04  0.14789893319E+04  0.12699999809E+01 0.  1.
       -4    1    3    3    0  502 -0.37062397804E+03 -0.33317762257E+03 -0.47489177903E+03  0.68839906738E+03  0.12699999809E+01 0. -1.
</event>
<event>
 5   0  0.8150924E-04  0.1097900E+04  0.7818609E-02  0.9207241E-01
       -1   -1    0    0    0  501  0.00000000000E+00  0.00000000000E+00  0.32061313871E+03  0.32061313875E+03  0.50400001928E-02 0. -1.
        1   -1    0    0  501    0  0.00000000000E+00  0.00000000000E+00 -0.93990504541E+03  0.93990504543E+03  0.50400001928E-02 0.  1.
    10030    2    1    2    0    0  0.00000000000E+00  0.00000000000E+00 -0.61929190671E+03  0.12605181842E+04  0.10978996434E+04 0.  0.
        3    1    3    3  502    0  0.33203381762E+03 -0.39040039769E+03 -0.53546929485E+03  0.74120597845E+03  0.10100000352E+00 0.  1.
       -3    1    3    3    0  502 -0.33203381762E+03  0.39040039769E+03 -0.83822611858E+02  0.51931220573E+03  0.10100000352E+00 0. -1.
</event>
<event>
 5   0  0.8009636E-04  0.1101530E+04  0.7818609E-02  0.9203702E-01
       -1   -1    0    0    0  501  0.00000000000E+00  0.00000000000E+00  0.37304898682E+03  0.37304898686E+03  0.50400001928E-02 0. -1.
        1   -1    0    0  501    0  0.00000000000E+00  0.00000000000E+00 -0.81314303226E+03  0.81314303228E+03  0.50400001928E-02 0.  1.
    10030    2    1    2    0    0  0.00000000000E+00  0.00000000000E+00 -0.44009404544E+03  0.11861920191E+04  0.11015301800E+04 0.  0.
        1    1    3    3  502    0  0.17893421028E+03 -0.47242696440E+03 -0.45631254200E+03  0.68075386471E+03  0.50400001928E-02 0.  1.
       -1    1    3    3    0  502 -0.17893421028E+03  0.47242696440E+03  0.16218496564E+02  0.50543815443E+03  0.50400001928E-02 0. -1.
</event>
<event>
 5   0  0.1429680E-03  0.1095441E+04  0.7818609E-02  0.9209647E-01
       -2   -1    0    0    0  501  0.00000000000E+00  0.00000000000E+00  0.33474234625E+03  0.33474234626E+03  0.25500000920E-02 0.  1.
        2   -1    0    0  501    0  0.00000000000E+00  0.00000000000E+00 -0.89620540724E+03  0.89620540725E+03  0.25500000920E-02 0. -1.
    10030    2    1    2    0    0  0.00000000000E+00  0.00000000000E+00 -0.56146306099E+03  0.12309477535E+04  0.10954412823E+04 0.  0.
        3    1    3    3  502    0  0.49875210998E+03  0.22637131464E+03 -0.28016828727E+03  0.61521696880E+03  0.10100000352E+00 0.  1.
       -3    1    3    3    0  502 -0.49875210998E+03 -0.22637131464E+03 -0.28129477373E+03  0.61573078471E+03  0.10100000352E+00 0. -1.
</event>
<event>
 5   0  0.5409500E-04  0.1101697E+04  0.7818609E-02  0.9203539E-01
        3   -1    0    0  501    0  0.00000000000E+00  0.00000000000E+00  0.95115135422E+03  0.95115135958E+03  0.10100000352E+00 0. -1.
       -3   -1    0    0    0  501  0.00000000000E+00  0.00000000000E+00 -0.31901766812E+03  0.31901768411E+03  0.10100000352E+00 0.  1.
    10030    2    1    2    0    0  0.00000000000E+00  0.00000000000E+00  0.63213368610E+03  0.12701690437E+04  0.11016970557E+04 0.  0.
        2    1    3    3  502    0 -0.25533959469E+02 -0.33902600423E+02 -0.31712974862E+03  0.31995725788E+03  0.25500000920E-02 0.  1.
       -2    1    3    3    0  502  0.25533959469E+02  0.33902600423E+02  0.94926343472E+03  0.95021178582E+03  0.25500000920E-02 0. -1.
</event>
<event>
 5   0  0.8150924E-04  0.1098851E+04  0.7818609E-02  0.9206313E-01
        1   -1    0    0  501    0  0.00000000000E+00  0.00000000000E+00  0.14353192623E+04  0.14353192623E+04  0.50400001928E-02 0.  1.
       -1   -1    0    0    0  501  0.00000000000E+00  0.00000000000E+00 -0.21031435041E+03  0.21031435047E+03  0.50400001928E-02 0. -1.
    10030    2    1    2    0    0  0.00000000000E+00  0.00000000000E+00  0.12250049119E+04  0.16456336128E+04  0.10988507421E+04 0.  0.
        3    1    3    3  502    0 -0.10287310620E+03  0.53913728404E+03  0.57532282972E+03  0.79514039994E+03  0.10100000352E+00 0.  1.
       -3    1    3    3    0  502  0.10287310620E+03 -0.53913728404E+03  0.64968208220E+03  0.85049321287E+03  0.10100000352E+00 0. -1.
</event>
<event>
 5   0  0.7946038E-04  0.1101261E+04  0.7818609E-02  0.9203964E-01
       -1   -1    0    0    0  501  0.00000000000E+00  0.00000000000E+00  0.38640833490E+03  0.38640833494E+03  0.50400001928E-02 0.  1.
        1   -1    0    0  501    0  0.00000000000E+00  0.00000000000E+00 -0.78464590856E+03  0.78464590857E+03  0.50400001928E-02 0. -1.
    10030    2    1    2    0    0  0.00000000000E+00  0.00000000000E+00 -0.39823757365E+03  0.11710542435E+04  0.11012605850E+04 0.  0.
        4    1    3    3  502    0 -0.47452455923E+02  0.20675900826E+03 -0.73944686475E+03  0.76927517947E+03  0.12699999809E+01 0. -1.
       -4    1    3    3    0  502  0.47452455923E+02 -0.20675900826E+03  0.34120929109E+03  0.40177906404E+03  0.12699999809E+01 0.  1.
</event>
<event>
 5   0  0.8305271E-04  0.1107335E+04  0.7818609E-02  0.9198072E-01
       -1   -1    0    0    0  501  0.00000000000E+00  0.00000000000E+00  0.88102345702E+03  0.88102345703E+03  0.50400001928E-02 0.  1.
        1   -1    0    0  501    0  0.00000000000E+00  0.00000000000E+00 -0.34794484413E+03  0.34794484417E+03  0.50400001928E-02 0. -1.
    10030    2    1    2    0    0  0.00000000000E+00  0.00000000000E+00  0.53307861289E+03  0.12289683012E+04  0.11073347632E+04 0.  0.
        5    1    3    3  502    0 -0.31536180730E+03 -0.12918858378E+03 -0.21771725116E+03  0.40443250504E+03  0.46999998093E+01 0. -1.
       -5    1    3    3    0  502  0.31536180730E+03  0.12918858378E+03  0.75079586405E+03  0.82453579616E+03  0.46999998093E+01 0.  1.
</event>
<event>
 5   0  0.7946038E-04  0.1109156E+04  0.7818609E-02  0.9196313E-01
        1   -1    0    0  501    0  0.00000000000E+00  0.00000000000E+00  0.33497323016E+03  0.33497323020E+03  0.50400001928E-02 0. -1.
       -1   -1    0    0    0  501  0.00000000000E+00  0.00000000000E+00 -0.91815387996E+03  0.91815387998E+03  0.50400001928E-02 0.  1.
    10030    2    1    2    0    0  0.00000000000E+00  0.00000000000E+00 -0.58318064980E+03  0.12531271102E+04  0.11091563839E+04 0.  0.
        4    1    3    3  502    0 -0.44181769258E+03 -0.37104395892E+02 -0.66796152490E+03  0.80171929085E+03  0.12699999809E+01 0.  1.
       -4    1    3    3    0  502  0.44181769258E+03  0.37104395892E+02  0.84780875098E+02  0.45140781933E+03  0.12699999809E+01 0. -1.
</event>
<event>
 5   0  0.1429680E-03  0.1099296E+04  0.7818609E-02  0.9205878E-01
       -2   -1    0    0    0  501  0.00000000000E+00  0.00000000000E+00  0.39971821807E+03  0.39971821808E+03  0.25500000920E-02 0. -1.
        2   -1    0    0  501    0  0.00000000000E+00  0.00000000000E+00 -0.75581466888E+03  0.75581466889E+03  0.25500000920E-02 0.  1.
    10030    2    1    2    0    0  0.00000000000E+00  0.00000000000E+00 -0.35609645081E+03  0.11555328870E+04  0.10992959431E+04 0.  0.
        3    1    3    3  502    0  0.19015446547E+03 -0.50554189454E+03 -0.28515054596E+03  0.61077178384E+03  0.10100000352E+00 0. -1.
       -3    1    3    3    0  502 -0.19015446547E+03  0.50554189454E+03 -0.70945904853E+02  0.54476110313E+03  0.10100000352E+00 0.  1.
</event>
<event>
 5   0  0.7946038E-04  0.1108426E+04  0.7818609E-02  0.9197018E-01
        1   -1    0    0  501    0  0.00000000000E+00  0.00000000000E+00  0.38331424551E+03  0.38331424554E+03  0.50400001928E-02 0. -1.
       -1   -1    0    0    0  501  0.00000000000E+00  0.00000000000E+00 -0.80130617946E+03  0.80130617948E+03  0.50400001928E-02 0.  1.
    10030    2    1    2    0    0  0.00000000000E+00  0.00000000000E+00 -0.41799193396E+03  0.11846204250E+04  0.11084260438E+04 0.  0.
        4    1    3    3  502    0 -0.30283911108E+03 -0.11443489513E+03  0.27175173683E+03  0.42267894648E+03  0.12699999809E+01 0. -1.
       -4    1    3    3    0  502  0.30283911108E+03  0.11443489513E+03 -0.68974367079E+03  0.76194147854E+03  0.12699999809E+01 0.  1.
</event>
<event>
 5   0  0.1429680E-03  0.1142152E+04  0.7818609E-02  0.9165054E-01
        2   -1    0    0  501    0  0.00000000000E+00  0.00000000000E+00  0.35188929380E+03  0.35188929380E+03  0.25500000920E-02 0. -1.
       -2   -1    0    0    0  501  0.00000000000E+00  0.00000000000E+00 -0.92679084194E+03  0.92679084194E+03  0.25500000920E-02 0.  1.
    10030    2    1    2    0    0  0.00000000000E+00  0.00000000000E+00 -0.57490154814E+03  0.12786801357E+04  0.11421519599E+04 0.  0.
        3    1    3    3  502    0 -0.47378832164E+03  0.13035548132E+03 -0.61319501736E+03  0.78579645249E+03  0.10100000352E+00 0. -1.
       -3    1    3    3    0  502  0.47378832164E+03 -0.13035548132E+03  0.38293469219E+02  0.49288368325E+03  0.10100000352E+00 0.  1.
</event>
<event>
 5   0  0.1372794E-03  0.1103062E+04  0.7818609E-02  0.9202212E-01
        2   -1    0    0  501    0  0.00000000000E+00  0.00000000000E+00  0.15086206833E+04  0.15086206833E+04  0.25500000920E-02 0.  1.
       -2   -1    0    0    0  501  0.00000000000E+00  0.00000000000E+00 -0.20163223181E+03  0.20163223182E+03  0.25500000920E-02 0. -1.
    10030    2    1    2    0    0  0.00000000000E+00  0.00000000000E+00  0.13069884515E+04  0.17102529151E+04  0.11030622019E+04 0.  0.
        4    1    3    3  502    0 -0.32891714916E+03  0.29641407326E+03  0.11633505294E+04  0.12447625721E+04  0.12699999809E+01 0.  1.
       -4    1    3    3    0  502  0.32891714916E+03 -0.29641407326E+03  0.14363792208E+03  0.46549034297E+03  0.12699999809E+01 0. -1.
</event>
<event>
 5   0  0.7946038E-04  0.1097475E+04  0.7818609E-02  0.9207656E-01
        1   -1    0    0  501    0  0.00000000000E+00  0.00000000000E+00  0.10692945240E+04  0.10692945240E+04  0.50400001928E-02 0. -1.
       -1   -1    0    0    0  501  0.00000000000E+00  0.00000000000E+00 -0.28159962764E+03  0.28159962769E+03  0.50400001928E-02 0.  1.
    10030    2    1    2    0    0  0.00000000000E+00  0.00000000000E+00  0.78769489634E+03  0.13508941517E+04  0.10974751748E+04 0.  0.
        4    1    3    3  502    0 -0.95928738406E+02 -0.36139534676E+03  0.88821167975E+03  0.96370665685E+03  0.12699999809E+01 0. -1.
       -4    1    3    3    0  502  0.95928738406E+02  0.36139534676E+03 -0.10051678341E+03  0.38718749484E+03  0.12699999809E+01 0.  1.
</event>
<event>
 5   0  0.8009636E-04  0.1100822E+04  0.7818609E-02  0.9204391E-01
       -1   -1    0    0    0  501  0.00000000000E+00  0.00000000000E+00  0.15024835935E+03  0.15024835943E+03  0.50400001928E-02 0.  1.
        1   -1    0    0  501    0  0.00000000000E+00  0.00000000000E+00 -0.20163427056E+04  0.20163427057E+04  0.50400001928E-02 0. -1.
    10030    2    1    2    0    0  0.00000000000E+00  0.00000000000E+00 -0.18660943463E+04  0.21665910651E+04  0.11008218448E+04 0.  0.
        1    1    3    3  502    0  0.50366013284E+03 -0.80679321574E+02 -0.52601662853E+03  0.73271834688E+03  0.50400001928E-02 0.  1.
       -1    1    3    3    0  502 -0.50366013284E+03  0.80679321574E+02 -0.13400777178E+04  0.14338727182E+04  0.50400001928E-02 0. -1.
</event>
<event>
 5   0  0.1396936E-03  0.1108600E+04  0.7818609E-02  0.9196850E-01
       -2   -1    0    0    0  501  0.00000000000E+00  0.00000000000E+00  0.84219276613E+03  0.84219276614E+03  0.25500000920E-02 0.  1.
        2   -1    0    0  501    0  0.00000000000E+00  0.00000000000E+00 -0.36481979804E+03  0.36481979805E+03  0.25500000920E-02 0. -1.
    10030    2    1    2    0    0  0.00000000000E+00  0.00000000000E+00  0.47737296809E+03  0.12070125642E+04  0.11086001892E+04 0.  0.
        2    1    3    3  502    0  0.13556268736E+03  0.35199447174E+03  0.68090911883E+03  0.77840515058E+03  0.25500000920E-02 0.  1.
       -2    1    3    3    0  502 -0.13556268736E+03 -0.35199447174E+03 -0.20353615074E+03  0.42860741361E+03  0.25500000920E-02 0. -1.
</event>
<event>
 5   0  0.1429680E-03  0.1100005E+04  0.7818609E-02  0.9205187E-01
       -2   -1    0    0    0  501  0.00000000000E+00  0.00000000000E+00  0.50190990046E+03  0.50190990046E+03  0.25500000920E-02 0.  1.
        2   -1    0    0  501    0  0.00000000000E+00  0.00000000000E+00 -0.60270306297E+03  0.60270306298E+03  0.25500000920E-02 0. -1.
    10030    2    1    2    0    0  0.00000000000E+00  0.00000000000E+00 -0.10079316252E+03  0.11046129634E+04  0.11000047897E+04 0.  0.
        3    1    3    3  502    0 -0.21887807263E+03 -0.10099318888E+03  0.44603804244E+03  0.50700806738E+03  0.10100000352E+00 0.  1.
       -3    1    3    3    0  502  0.21887807263E+03  0.10099318888E+03 -0.54683120496E+03  0.59760489606E+03  0.10100000352E+00 0. -1.
</event>
<event>
 5   0  0.7946038E-04  0.1099819E+04  0.7818609E-02  0.9205368E-01
        1   -1    0    0  501    0  0.00000000000E+00  0.00000000000E+00  0.14279062007E+04  0.14279062007E+04  0.50400001928E-02 0. -1.
       -1   -1    0    0    0  501  0.00000000000E+00  0.00000000000E+00 -0.21177897869E+03  0.21177897875E+03  0.50400001928E-02 0.  1.
    10030    2    1    2    0    0  0.00000000000E+00  0.00000000000E+00  0.12161272220E+04  0.16396851794E+04  0.10998191067E+04 0.  0.
        4    1    3    3  502    0  0.46352350266E+03 -0.76440465829E+02  0.18192114458E+03  0.50377981110E+03  0.12699999809E+01 0.  1.
       -4    1    3    3    0  502 -0.46352350266E+03  0.76440465829E+02  0.10342060774E+04  0.11359053683E+04  0.12699999809E+01 0. -1.
</event>
<event>
 5   0  0.8341767E-04  0.1098395E+04  0.7818609E-02  0.9206758E-01
       -1   -1    0    0    0  501  0.00000000000E+00  0.00000000000E+00  0.40587040225E+03  0.40587040228E+03  0.50400001928E-02 0. -1.
        1   -1    0    0  501    0  0.00000000000E+00  0.00000000000E+00 -0.74313841099E+03  0.74313841101E+03  0.50400001928E-02 0.  1.
    10030    2    1    2    0    0  0.00000000000E+00  0.00000000000E+00 -0.33726800874E+03  0.11490088133E+04  0.10983949851E+04 0.  0.
        2    1    3    3  502    0 -0.48882418957E+03 -0.15462823503E+03  0.37310674870E+02  0.51405356321E+03  0.25500000920E-02 0. -1.
       -2    1    3    3    0  502  0.48882418957E+03  0.15462823503E+03 -0.37457868361E+03  0.63495525008E+03  0.25500000920E-02 0.  1.
</event>
<event>
 5   0  0.8009636E-04  0.1104027E+04  0.7818609E-02  0.9201276E-01
        1   -1    0    0  501    0  0.00000000000E+00  0.00000000000E+00  0.49713624280E+03  0.49713624282E+03  0.50400001928E-02 0. -1.
       -1   -1    0    0    0  501  0.00000000000E+00  0.00000000000E+00 -0.61294843108E+03  0.61294843110E+03  0.50400001928E-02 0.  1.
    10030    2    1    2    0    0  0.00000000000E+00  0.00000000000E+00 -0.11581218828E+03  0.11100846739E+04  0.11040269563E+04 0.  0.
        1    1    3    3  502    0  0.11299461762E+03  0.49196389715E+03  0.16675357534E+03  0.53160418981E+03  0.50400001928E-02 0.  1.
       -1    1    3    3    0  502 -0.11299461762E+03 -0.49196389715E+03 -0.28256576362E+03  0.57848048412E+03  0.50400001928E-02 0. -1.
</event>
<event>
 5   0  0.1396936E-03  0.1100474E+04  0.7818609E-02  0.9204730E-01
        2   -1    0    0  501    0  0.00000000000E+00  0.00000000000E+00  0.20770901963E+04  0.20770901963E+04  0.25500000920E-02 0.  1.
       -2   -1    0    0    0  501  0.00000000000E+00  0.00000000000E+00 -0.14576185273E+03  0.14576185276E+03  0.25500000920E-02 0. -1.
    10030    2    1    2    0    0  0.00000000000E+00  0.00000000000E+00  0.19313283436E+04  0.22228520490E+04  0.11004735623E+04 0.  0.
        2    1    3    3  502    0  0.31891653878E+03 -0.37281952558E+03  0.14688531084E+04  0.15486224884E+04  0.25500000920E-02 0. -1.
       -2    1    3    3    0  502 -0.31891653878E+03  0.37281952558E+03  0.46247523513E+03  0.67422956067E+03  0.25500000920E-02 0.  1.
</event>
<event>
 5   0  0.8305271E-04  0.1095417E+04  0.7818609E-02  0.9209670E-01
        1   -1    0    0  501    0  0.00000000000E+00  0.00000000000E+00  0.73018010088E+03  0.73018010089E+03  0.50400001928E-02 0.  1.
       -1   -1    0    0    0  501  0.00000000000E+00  0.00000000000E+00 -0.41083631391E+03  0.41083631394E+03  0.50400001928E-02 0. -1.
    10030    2    1    2    0    0  0.00000000000E+00  0.00000000000E+00  0.31934378697E+03  0.11410164148E+04  0.10954168178E+04 0.  0.
        5    1    3    3  502    0  0.45503937241E+03 -0.35432678868E+02  0.47500494701E+03  0.65876254816E+03  0.46999998093E+01 0.  1.
       -5    1    3    3    0  502 -0.45503937241E+03  0.35432678868E+02 -0.15566116004E+03  0.48225386667E+03  0.46999998093E+01 0. -1.
</event>
<event>
 5   0  0.8150924E-04  0.1103671E+04  0.7818609E-02  0.9201621E-01
       -1   -1    0    0    0  501  0.00000000000E+00  0.00000000000E+00  0.64901397822E+03  0.64901397824E+03  0.50400001928E-02 0. -1.
        1   -1    0    0  501    0  0.00000000000E+00  0.00000000000E+00 -0.46920820796E+03  0.46920820799E+03  0.50400001928E-02 0.  1.
    10030    2    1    2    0    0  0.00000000000E+00  0.00000000000E+00  0.17980577025E+03  0.11182221862E+04  0.11036714832E+04 0.  0.
        3    1    3    3  502    0 -0.40584567951E+03  0.30958470962E+03  0.30235590007E+03  0.59327271007E+03  0.10100000352E+00 0. -1.
       -3    1    3    3    0  502  0.40584567951E+03 -0.30958470962E+03 -0.12255012982E+03  0.52494947616E+03  0.10100000352E+00 0.  1.
</event>
<event>
 5   0  0.1429680E-03  0.1093702E+04  0.7818609E-02  0.9211352E-01
        2   -1    0    0  501    0  0.00000000000E+00  0.00000000000E+00  0.20162491909E+04  0.20162491909E+04  0.25500000920E-02 0. -1.
       -2   -1    0    0    0  501  0.00000000000E+00  0.00000000000E+00 -0.14831794212E+03  0.14831794214E+03  0.25500000920E-02 0.  1.
    10030    2    1    2    0    0  0.00000000000E+00  0.00000000000E+00  0.18679312488E+04  0.21645671330E+04  0.10937018439E+04 0.  0.
        3    1    3    3  502    0 -0.10157776731E+03 -0.20415949452E+02  0.19966462727E+04  0.19993326893E+04  0.10100000352E+00 0. -1.
       -3    1    3    3    0  502  0.10157776731E+03  0.20415949452E+02 -0.12871502397E+03  0.16523444375E+03  0.10100000352E+00 0.  1.
</event>
<event>
 5   0  0.1429680E-03  0.1096913E+04  0.7818609E-02  0.9208206E-01
       -2   -1    0    0    0  501  0.00000000000E+00  0.00000000000E+00  0.22195795363E+03  0.22195795364E+03  0.25500000920E-02 0. -1.
        2   -1    0    0  501    0  0.00000000000E+00  0.00000000000E+00 -0.13552308336E+04  0.13552308336E+04  0.25500000920E-02 0.  1.
    10030    2    1    2    0    0  0.00000000000E+00  0.00000000000E+00 -0.11332728799E+04  0.15771887872E+04  0.10969125080E+04 0.  0.
        3    1    3    3  502    0  0.54028487774E+03 -0.10806686289E+02 -0.43191026064E+03  0.69178827471E+03  0.10100000352E+00 0. -1.
       -3    1    3    3    0  502 -0.54028487774E+03  0.10806686289E+02 -0.70136261931E+03  0.88540051251E+03  0.10100000352E+00 0.  1.
</event>
<event>
 5   0  0.8009636E-04  0.1100668E+04  0.7818609E-02  0.9204541E-01
        1   -1    0    0  501    0  0.00000000000E+00  0.00000000000E+00  0.78739970818E+03  0.78739970820E+03  0.50400001928E-02 0. -1.
       -1   -1    0    0    0  501  0.00000000000E+00  0.00000000000E+00 -0.38464245475E+03  0.38464245478E+03  0.50400001928E-02 0.  1.
    10030    2    1    2    0    0  0.00000000000E+00  0.00000000000E+00  0.40275725343E+03  0.11720421630E+04  0.11006677185E+04 0.  0.
        1    1    3    3  502    0 -0.20325581279E+03 -0.32460045046E+03  0.62221396257E+03  0.73063574585E+03  0.50400001928E-02 0. -1.
       -1    1    3    3    0  502  0.20325581279E+03  0.32460045046E+03 -0.21945670914E+03  0.44140641713E+03  0.50400001928E-02 0.  1.
</event>
<event>
 5   0  0.1425432E-03  0.1084616E+04  0.7818609E-02  0.9220317E-01
       -2   -1    0    0    0  501  0.00000000000E+00  0.00000000000E+00  0.23342847779E+03  0.23342847781E+03  0.25500000920E-02 0. -1.
        2   -1    0    0  501    0  0.00000000000E+00  0.00000000000E+00 -0.12599065548E+04  0.12599065548E+04  0.25500000920E-02 0.  1.
    10030    2    1    2    0    0  0.00000000000E+00  0.00000000000E+00 -0.10264780770E+04  0.14933350326E+04  0.10846161888E+04 0.  0.
        1    1    3    3  502    0  0.92365842851E+02 -0.78936954026E+02 -0.12409255044E+04  0.12468594946E+04  0.50400001928E-02 0.  1.
       -1    1    3    3    0  502 -0.92365842851E+02  0.78936954026E+02  0.21444742749E+03  0.24647553797E+03  0.50400001928E-02 0. -1.
</event>
<event>
 5   0  0.8341767E-04  0.1095845E+04  0.7818609E-02  0.9209251E-01
       -1   -1    0    0    0  501  0.00000000000E+00  0.00000000000E+00  0.41719110662E+03  0.41719110665E+03  0.50400001928E-02 0. -1.
        1   -1    0    0  501    0  0.00000000000E+00  0.00000000000E+00 -0.71962014597E+03  0.71962014598E+03  0.50400001928E-02 0.  1.
    10030    2    1    2    0    0  0.00000000000E+00  0.00000000000E+00 -0.30242903935E+03  0.11368112526E+04  0.10958451078E+04 0.  0.
        2    1    3    3  502    0 -0.33358133404E+03  0.24121168789E+03  0.22391037209E+03  0.46861011463E+03  0.25500000920E-02 0. -1.
       -2    1    3    3    0  502  0.33358133404E+03 -0.24121168789E+03 -0.52633941143E+03  0.66820113801E+03  0.25500000920E-02 0.  1.
</event>
<event>
 5   0  0.8009636E-04  0.1100342E+04  0.7818609E-02  0.9204859E-01
       -1   -1    0    0    0  501  0.00000000000E+00  0.00000000000E+00  0.28722812504E+03  0.28722812508E+03  0.50400001928E-02 0. -1.
        1   -1    0    0  501    0  0.00000000000E+00  0.00000000000E+00 -0.10538239041E+04  0.10538239041E+04  0.50400001928E-02 0.  1.
    10030    2    1    2    0    0  0.00000000000E+00  0.00000000000E+00 -0.76659577904E+03  0.13410520292E+04  0.11003415181E+04 0.  0.
        1    1    3    3  502    0 -0.16571674355E+03  0.50309364601E+03 -0.56457221300E+03  0.77414923592E+03  0.50400001928E-02 0.  1.
       -1    1    3    3    0  502  0.16571674355E+03 -0.50309364601E+03 -0.20202356604E+03  0.56690279326E+03  0.50400001928E-02 0. -1.
</event>
<event>
 5   0  0.5409500E-04  0.1099528E+04  0.7818609E-02  0.9205653E-01
        4   -1    0    0  501    0  0.00000000000E+00  0.00000000000E+00  0.49166634133E+03  0.49166798157E+03  0.12699999809E+01 0. -1.
       -4   -1    0    0    0  501  0.00000000000E+00  0.00000000000E+00 -0.61472289248E+03  0.61472420437E+03  0.12699999809E+01 0.  1.
    10030    2    1    2    0    0  0.00000000000E+00  0.00000000000E+00 -0.12305655115E+03  0.11063921859E+04  0.10995275141E+04 0.  0.
        4    1    3    3  502    0  0.32249163209E+03 -0.39499643186E+03  0.14521870792E+03  0.53020101846E+03  0.12699999809E+01 0.  1.
       -4    1    3    3    0  502 -0.32249163209E+03  0.39499643186E+03 -0.26827525907E+03  0.57619116748E+03  0.12699999809E+01 0. -1.
</event>
<event>
 5   0  0.1425432E-03  0.1101393E+04  0.7818609E-02  0.9203836E-01
        2   -1    0    0  501    0  0.00000000000E+00  0.00000000000E+00  0.19500752666E+04  0.19500752666E+04  0.25500000920E-02 0. -1.
       -2   -1    0    0    0  501  0.00000000000E+00  0.00000000000E+00 -0.15551522316E+03  0.15551522318E+03  0.25500000920E-02 0.  1.
    10030    2    1    2    0    0  0.00000000000E+00  0.00000000000E+00  0.17945600435E+04  0.21055904898E+04  0.11013925554E+04 0.  0.
        1    1    3    3  502    0 -0.47204367868E+03 -0.20391174895E+03  0.52041171006E+03  0.73159659918E+03  0.50400001928E-02 0.  1.
       -1    1    3    3    0  502  0.47204367868E+03  0.20391174895E+03  0.12741483334E+04  0.13739938906E+04  0.50400001928E-02 0. -1.
</event>
<event>
 5   0  0.8341767E-04  0.1082086E+04  0.7818609E-02  0.9222830E-01
       -1   -1    0    0    0  501  0.00000000000E+00  0.00000000000E+00  0.63453026151E+03  0.63453026153E+03  0.50400001928E-02 0. -1.
        1   -1    0    0  501    0  0.00000000000E+00  0.00000000000E+00 -0.46132926595E+03  0.46132926598E+03  0.50400001928E-02 0.  1.
    10030    2    1    2    0    0  0.00000000000E+00  0.00000000000E+00  0.17320099556E+03  0.10958595275E+04  0.10820857264E+04 0.  0.
        2    1    3    3  502    0  0.29080998349E+03  0.15744634445E+03  0.52026562323E+03  0.61647069403E+03  0.25500000920E-02 0. -1.
       -2    1    3    3    0  502 -0.29080998349E+03 -0.15744634445E+03 -0.34706462767E+03  0.47938883348E+03  0.25500000920E-02 0.  1.
</event>
<event>
 5   0  0.8341767E-04  0.1099202E+04  0.7818609E-02  0.9205970E-01
       -1   -1    0    0    0  501  0.00000000000E+00  0.00000000000E+00  0.94877457906E+03  0.94877457908E+03  0.50400001928E-02 0.  1.
        1   -1    0    0  501    0  0.00000000000E+00  0.00000000000E+00 -0.31837013084E+03  0.31837013088E+03  0.50400001928E-02 0. -1.
    10030    2    1    2    0    0  0.00000000000E+00  0.00000000000E+00  0.63040444822E+03  0.12671447100E+04  0.10992024143E+04 0.  0.
        2    1    3    3  502    0 -0.49849492135E+03  0.23123441036E+03  0.30396934992E+03  0.62798400047E+03  0.25500000920E-02 0.  1.
       -2    1    3    3    0  502  0.49849492135E+03 -0.23123441036E+03  0.32643509831E+03  0.63916070949E+03  0.25500000920E-02 0. -1.
</event>
<event>
 5   0  0.1396936E-03  0.1090382E+04  0.7818609E-02  0.9214617E-01
       -2   -1    0    0    0  501  0.00000000000E+00  0.00000000000E+00  0.18975790881E+03  0.18975790883E+03  0.25500000920E-02 0. -1.
        2   -1    0    0  501    0  0.00000000000E+00  0.00000000000E+00 -0.15663821432E+04  0.15663821432E+04  0.25500000920E-02 0.  1.
    10030    2    1    2    0    0  0.00000000000E+00  0.00000000000E+00 -0.13766242343E+04  0.17561400520E+04  0.10903823181E+04 0.  0.
        2    1    3    3  502    0  0.38772417333E+02  0.18370060730E+03  0.13604973532E+03  0.23185931932E+03  0.25500000920E-02 0. -1.
       -2    1    3    3    0  502 -0.38772417333E+02 -0.18370060730E+03 -0.15126739697E+04  0.15242807327E+04  0.25500000920E-02 0.  1.
</event>
<event>
 5   0  0.5409500E-04  0.1109243E+04  0.7818609E-02  0.9196230E-01
        3   -1    0    0  501    0  0.00000000000E+00  0.00000000000E+00  0.11415758720E+04  0.11415758765E+04  0.10100000352E+00 0. -1.
       -3   -1    0    0    0  501  0.00000000000E+00  0.00000000000E+00 -0.26945640483E+03  0.26945642376E+03  0.10100000352E+00 0.  1.
    10030    2    1    2    0    0  0.00000000000E+00  0.00000000000E+00  0.87211946716E+03  0.14110323002E+04  0.11092428892E+04 0.  0.
        3    1    3    3  502    0  0.41619415972E+03  0.15932338434E+03  0.85604142533E+03  0.96509504789E+03  0.10100000352E+00 0. -1.
       -3    1    3    3    0  502 -0.41619415972E+03 -0.15932338434E+03  0.16078041826E+02  0.44593725233E+03  0.10100000352E+00 0.  1.
</event>
<event>
 5   0  0.8150924E-04  0.1101635E+04  0.7818609E-02  0.9203599E-01
        1   -1    0    0  501    0  0.00000000000E+00  0.00000000000E+00  0.79336483140E+03  0.79336483142E+03  0.50400001928E-02 0.  1.
       -1   -1    0    0    0  501  0.00000000000E+00  0.00000000000E+00 -0.38242191504E+03  0.38242191507E+03  0.50400001928E-02 0. -1.
    10030    2    1    2    0    0  0.00000000000E+00  0.00000000000E+00  0.41094291636E+03  0.11757867465E+04  0.11016353266E+04 0.  0.
        3    1    3    3  502    0 -0.14871706776E+03  0.30701028372E+03  0.66704831966E+03  0.74921662523E+03  0.10100000352E+00 0.  1.
       -3    1    3    3    0  502  0.14871706776E+03 -0.30701028372E+03 -0.25610540330E+03  0.42657012126E+03  0.10100000352E+00 0. -1.
</event>
<event>
 5   0  0.1402775E-03  0.1098205E+04  0.7818609E-02  0.9206943E-01
        2   -1    0    0  501    0  0.00000000000E+00  0.00000000000E+00  0.12277971126E+04  0.12277971126E+04  0.25500000920E-02 0.  1.
       -2   -1    0    0    0  501  0.00000000000E+00  0.00000000000E+00 -0.24557274462E+03  0.24557274463E+03  0.25500000920E-02 0. -1.
    10030    2    1    2    0    0  0.00000000000E+00  0.00000000000E+00  0.98222436795E+03  0.14733698572E+04  0.10982049113E+04 0.  0.
        5    1    3    3  502    0 -0.49282595285E+03  0.24153757538E+03  0.46892083045E+03  0.72189102734E+03  0.46999998093E+01 0. -1.
       -5    1    3    3    0  502  0.49282595285E+03 -0.24153757538E+03  0.51330353750E+03  0.75147882986E+03  0.46999998093E+01 0.  1.
</event>
<event>
 5   0  0.8150924E-04  0.1101541E+04  0.7818609E-02  0.9203691E-01
        1   -1    0    0  501    0  0.00000000000E+00  0.00000000000E+00  0.87125013777E+03  0.87125013778E+03  0.50400001928E-02 0.  1.
       -1   -1    0    0    0  501  0.00000000000E+00  0.00000000000E+00 -0.34817589871E+03  0.34817589874E+03  0.50400001928E-02 0. -1.
    10030    2    1    2    0    0  0.00000000000E+00  0.00000000000E+00  0.52307423906E+03  0.12194260365E+04  0.11015412834E+04 0.  0.
        3    1    3    3  502    0  0.46265573428E+03 -0.22861252461E+02  0.59137521866E+03  0.75119746057E+03  0.10100000352E+00 0.  1.
       -3    1    3    3    0  502 -0.46265573428E+03  0.22861252461E+02 -0.68300979599E+02  0.46822857595E+03  0.10100000352E+00 0. -1.
</event>
<event>
 5   0  0.1396936E-03  0.1099602E+04  0.7818609E-02  0.9205580E-01
       -2   -1    0    0    0  501  0.00000000000E+00  0.00000000000E+00  0.25578822746E+03  0.25578822747E+03  0.25500000920E-02 0. -1.
        2   -1    0    0  501    0  0.00000000000E+00  0.00000000000E+00 -0.11817628648E+04  0.11817628648E+04  0.25500000920E-02 0.  1.
    10030    2    1    2    0    0  0.00000000000E+00  0.00000000000E+00 -0.92597463738E+03  0.14375510923E+04  0.10996017979E+04 0.  0.
        2    1    3    3  502    0  0.31037443745E+03  0.41634852156E+03 -0.22693173944E+03  0.56672426911E+03  0.25500000920E-02 0. -1.
       -2    1    3    3    0  502 -0.31037443745E+03 -0.41634852156E+03 -0.69904289794E+03  0.87082682320E+03  0.25500000920E-02 0.  1.
</event>
<event>
 5   0  0.1396936E-03  0.1128961E+04  0.7818609E-02  0.9177416E-01
        2   -1    0    0  501    0  0.00000000000E+00  0.00000000000E+00  0.80350309888E+03  0.80350309889E+03  0.25500000920E-02 0. -1.
       -2   -1    0    0    0  501  0.00000000000E+00  0.00000000000E+00 -0.39656104840E+03  0.39656104841E+03  0.25500000920E-02 0.  1.
    10030    2    1    2    0    0  0.00000000000E+00  0.00000000000E+00  0.40694205048E+03  0.12000641473E+04  0.11289606393E+04 0.  0.
        2    1    3    3  502    0 -0.32381335385E+03  0.25920102301E+03  0.61046628079E+03  0.73804426591E+03  0.25500000920E-02 0.  1.
       -2    1    3    3    0  502  0.32381335385E+03 -0.25920102301E+03 -0.20352423031E+03  0.46201988138E+03  0.25500000920E-02 0. -1.
</event>
<event>
 5   0  0.8009636E-04  0.1099281E+04  0.7818609E-02  0.9205893E-01
       -1   -1    0    0    0  501  0.00000000000E+00  0.00000000000E+00  0.11254204216E+03  0.11254204227E+03  0.50400001928E-02 0.  1.
        1   -1    0    0  501    0  0.00000000000E+00  0.00000000000E+00 -0.26843735678E+04  0.26843735678E+04  0.50400001928E-02 0. -1.
    10030    2    1    2    0    0  0.00000000000E+00  0.00000000000E+00 -0.25718315256E+04  0.27969156100E+04  0.10992813714E+04 0.  0.
        1    1    3    3  502    0  0.48605558907E+03 -0.12722541062E+03 -0.18529525077E+04  0.19198618014E+04  0.50400001928E-02 0. -1.
       -1    1    3    3    0  502 -0.48605558907E+03  0.12722541062E+03 -0.71887901788E+03  0.87705380858E+03  0.50400001928E-02 0.  1.
</event>
<event>
 5   0  0.1429680E-03  0.1080783E+04  0.7818609E-02  0.9224127E-01
       -2   -1    0    0    0  501  0.00000000000E+00  0.00000000000E+00  0.27205642448E+03  0.27205642449E+03  0.25500000920E-02 0.  1.
        2   -1    0    0  501    0  0.00000000000E+00  0.00000000000E+00 -0.10733904736E+04  0.10733904736E+04  0.25500000920E-02 0. -1.
    10030    2    1    2    0    0  0.00000000000E+00  0.00000000000E+00 -0.80133404911E+03  0.13454468981E+04  0.10807826319E+04 0.  0.
        3    1    3    3  502    0 -0.21773260714E+03 -0.18529884125E+03 -0.97152331593E+03  0.10127194638E+04  0.10100000352E+00 0. -1.
       -3    1    3    3    0  502  0.21773260714E+03  0.18529884125E+03  0.17018926682E+03  0.33272743428E+03  0.10100000352E+00 0.  1.
</event>
<event>
 5   0  0.1396936E-03  0.1098556E+04  0.7818609E-02  0.9206601E-01
       -2   -1    0    0    0  501  0.00000000000E+00  0.00000000000E+00  0.32461009184E+03  0.32461009185E+03  0.25500000920E-02 0.  1.
        2   -1    0    0  501    0  0.00000000000E+00  0.00000000000E+00 -0.92944138075E+03  0.92944138076E+03  0.25500000920E-02 0. -1.
    10030    2    1    2    0    0  0.00000000000E+00  0.00000000000E+00 -0.60483128891E+03  0.12540514726E+04  0.10985555097E+04 0.  0.
        2    1    3    3  502    0  0.38611255979E+03 -0.31872563083E+03 -0.44524507986E+02  0.50264437567E+03  0.25500000920E-02 0. -1.
       -2    1    3    3    0  502 -0.38611255979E+03  0.31872563083E+03 -0.56030678093E+03  0.75140709694E+03  0.25500000920E-02 0.  1.
</event>
<event>
 5   0  0.8150924E-04  0.1100652E+04  0.7818609E-02  0.9204556E-01
        1   -1    0    0  501    0  0.00000000000E+00  0.00000000000E+00  0.55026223265E+03  0.55026223267E+03  0.50400001928E-02 0. -1.
       -1   -1    0    0    0  501  0.00000000000E+00  0.00000000000E+00 -0.55039001798E+03  0.55039001800E+03  0.50400001928E-02 0.  1.
    10030    2    1    2    0    0  0.00000000000E+00  0.00000000000E+00 -0.12778532840E+00  0.11006522507E+04  0.11006522432E+04 0.  0.
        3    1    3    3  502    0  0.28037774773E+02 -0.44611543679E+03  0.32095593783E+03  0.55028885505E+03  0.10100000352E+00 0. -1.
       -3    1    3    3    0  502 -0.28037774773E+02  0.44611543679E+03 -0.32108372316E+03  0.55036339562E+03  0.10100000352E+00 0.  1.
</event>
<event>
 5   0  0.8150924E-04  0.1104972E+04  0.7818609E-02  0.9200360E-01
        1   -1    0    0  501    0  0.00000000000E+00  0.00000000000E+00  0.47737922165E+03  0.47737922168E+03  0.50400001928E-02 0.  1.
       -1   -1    0    0    0  501  0.00000000000E+00  0.00000000000E+00 -0.63940889901E+03  0.63940889903E+03  0.50400001928E-02 0. -1.
    10030    2    1    2    0    0  0.00000000000E+00  0.00000000000E+00 -0.16202967736E+03  0.11167881207E+04  0.11049715337E+04 0.  0.
        3    1    3    3  502    0  0.38734710303E+03  0.27743428813E+03  0.20167783215E+03  0.51737947451E+03  0.10100000352E+00 0.  1.
       -3    1    3    3    0  502 -0.38734710303E+03 -0.27743428813E+03 -0.36370750951E+03  0.59940864620E+03  0.10100000352E+00 0. -1.
</event>
<event>
 5   0  0.7946038E-04  0.1100971E+04  0.7818609E-02  0.9204246E-01
        1   -1    0    0  501    0  0.00000000000E+00  0.00000000000E+00  0.14864625175E+04  0.14864625175E+04  0.50400001928E-02 0. -1.
       -1   -1    0    0    0  501  0.00000000000E+00  0.00000000000E+00 -0.20386277191E+03  0.20386277197E+03  0.50400001928E-02 0.  1.
    10030    2    1    2    0    0  0.00000000000E+00  0.00000000000E+00  0.12825997456E+04  0.16903252895E+04  0.11009711517E+04 0.  0.
        4    1    3    3  502    0  0.15581469838E+03  0.26779813297E+02  0.14508540938E+04  0.14594432477E+04  0.12699999809E+01 0. -1.
       -4    1    3    3    0  502 -0.15581469838E+03 -0.26779813297E+02 -0.16825434825E+03  0.23088204182E+03  0.12699999809E+01 0.  1.
</event>
<event>
 5   0  0.1429680E-03  0.1098053E+04  0.7818609E-02  0.9207091E-01
        2   -1    0    0  501    0  0.00000000000E+00  0.00000000000E+00  0.53550442933E+03  0.53550442934E+03  0.25500000920E-02 0.  1.
       -2   -1    0    0    0  501  0.00000000000E+00  0.00000000000E+00 -0.56289043197E+03  0.56289043197E+03  0.25500000920E-02 0. -1.
    10030    2    1    2    0    0  0.00000000000E+00  0.00000000000E+00 -0.27386002639E+02  0.10983948613E+04  0.10980534041E+04 0.  0.
        3    1    3    3  502    0  0.19040768158E+03  0.41705966645E+03  0.28845466201E+03  0.54166405901E+03  0.10100000352E+00 0. -1.
       -3    1    3    3    0  502 -0.19040768158E+03 -0.41705966645E+03 -0.31584066464E+03  0.55673080230E+03  0.10100000352E+00 0.  1.
</event>
<event>
 5   0  0.1396936E-03  0.1103232E+04  0.7818609E-02  0.9202047E-01
       -2   -1    0    0    0  501  0.00000000000E+00  0.00000000000E+00  0.24570548087E+03  0.24570548088E+03  0.25500000920E-02 0.  1.
        2   -1    0    0  501    0  0.00000000000E+00  0.00000000000E+00 -0.12383945223E+04  0.12383945223E+04  0.25500000920E-02 0. -1.
    10030    2    1    2    0    0  0.00000000000E+00  0.00000000000E+00 -0.99268904147E+03  0.14841000032E+04  0.11032321997E+04 0.  0.
        2    1    3    3  502    0  0.46868640240E+03  0.17586499857E+03 -0.18465497872E+03  0.53356621209E+03  0.25500000920E-02 0. -1.
       -2    1    3    3    0  502 -0.46868640240E+03 -0.17586499857E+03 -0.80803406275E+03  0.95053379113E+03  0.25500000920E-02 0.  1.
</event>
<event>
 5   0  0.1372794E-03  0.1102655E+04  0.7818609E-02  0.9202608E-01
       -2   -1    0    0    0  501  0.00000000000E+00  0.00000000000E+00  0.28901636625E+03  0.28901636626E+03  0.25500000920E-02 0. -1.
        2   -1    0    0  501    0  0.00000000000E+00  0.00000000000E+00 -0.10517129378E+04  0.10517129378E+04  0.25500000920E-02 0.  1.
    10030    2    1    2    0    0  0.00000000000E+00  0.00000000000E+00 -0.76269657156E+03  0.13407293041E+04  0.11026554342E+04 0.  0.
        4    1    3    3  502    0  0.28800491285E+03 -0.25840085161E+03 -0.85888167428E+03  0.94201760772E+03  0.12699999809E+01 0.  1.
       -4    1    3    3    0  502 -0.28800491285E+03  0.25840085161E+03  0.96185102718E+02  0.39871169637E+03  0.12699999809E+01 0. -1.
</event>
<event>
 5   0  0.8341767E-04  0.1086630E+04  0.7818609E-02  0.9218322E-01
       -1   -1    0    0    0  501  0.00000000000E+00  0.00000000000E+00  0.27010777122E+03  0.27010777126E+03  0.50400001928E-02 0.  1.
        1   -1    0    0  501    0  0.00000000000E+00  0.00000000000E+00 -0.10928652198E+04  0.10928652198E+04  0.50400001928E-02 0. -1.
    10030    2    1    2    0    0  0.00000000000E+00  0.00000000000E+00 -0.82275744859E+03  0.13629729911E+04  0.10866303673E+04 0.  0.
        2    1    3    3  502    0  0.12835924034E+03  0.52627590002E+03 -0.46383491495E+03  0.71315162894E+03  0.25500000920E-02 0. -1.
       -2    1    3    3    0  502 -0.12835924034E+03 -0.52627590002E+03 -0.35892253363E+03  0.64982136213E+03  0.25500000920E-02 0.  1.
</event>
<event>
 5   0  0.5409500E-04  0.1107241E+04  0.7818609E-02  0.9198163E-01
       -3   -1    0    0    0  501  0.00000000000E+00  0.00000000000E+00  0.12881094205E+04  0.12881094245E+04  0.10100000352E+00 0. -1.
        3   -1    0    0  501    0  0.00000000000E+00  0.00000000000E+00 -0.23794224848E+03  0.23794226991E+03  0.10100000352E+00 0.  1.
    10030    2    1    2    0    0  0.00000000000E+00  0.00000000000E+00  0.10501671720E+04  0.15260516944E+04  0.11072410238E+04 0.  0.
        4    1    3    3  502    0 -0.31721999890E+03  0.38401350936E+03  0.19201754137E+03  0.53382324056E+03  0.12699999809E+01 0.  1.
       -4    1    3    3    0  502  0.31721999890E+03 -0.38401350936E+03  0.85814963066E+03  0.99222845382E+03  0.12699999809E+01 0. -1.
</event>
<event>
 5   0  0.1425432E-03  0.1118087E+04  0.7818609E-02  0.9187741E-01
        2   -1    0    0  501    0  0.00000000000E+00  0.00000000000E+00  0.77469924911E+03  0.77469924912E+03  0.25500000920E-02 0.  1.
       -2   -1    0    0    0  501  0.00000000000E+00  0.00000000000E+00 -0.40342035278E+03  0.40342035279E+03  0.25500000920E-02 0. -1.
    10030    2    1    2    0    0  0.00000000000E+00  0.00000000000E+00  0.37127889633E+03  0.11781196019E+04  0.11180866592E+04 0.  0.
        1    1    3    3  502    0 -0.19722502352E+03 -0.21800964049E+03 -0.31539500277E+03  0.43116113119E+03  0.50400001928E-02 0. -1.
       -1    1    3    3    0  502  0.19722502352E+03  0.21800964049E+03  0.68667389910E+03  0.74695847072E+03  0.50400001928E-02 0.  1.
</event>
<event>
 5   0  0.1396936E-03  0.1102743E+04  0.7818609E-02  0.9202522E-01
       -2   -1    0    0    0  501  0.00000000000E+00  0.00000000000E+00  0.15565099773E+03  0.15565099775E+03  0.25500000920E-02 0.  1.
        2   -1    0    0  501    0  0.00000000000E+00  0.00000000000E+00 -0.19531552378E+04  0.19531552378E+04  0.25500000920E-02 0. -1.
    10030    2    1    2    0    0  0.00000000000E+00  0.00000000000E+00 -0.17975042400E+04  0.21088062355E+04  0.11027430553E+04 0.  0.
        2    1    3    3  502    0 -0.31718229663E+03 -0.12728232954E+03 -0.71341188902E+02  0.34913459575E+03  0.25500000920E-02 0.  1.
       -2    1    3    3    0  502  0.31718229663E+03  0.12728232954E+03 -0.17261630511E+04  0.17596716398E+04  0.25500000920E-02 0. -1.
</event>
<event>
 5   0  0.8009636E-04  0.1097097E+04  0.7818609E-02  0.9208026E-01
       -1   -1    0    0    0  501  0.00000000000E+00  0.00000000000E+00  0.44254822198E+03  0.44254822201E+03  0.50400001928E-02 0.  1.
        1   -1    0    0  501    0  0.00000000000E+00  0.00000000000E+00 -0.67993767055E+03  0.67993767057E+03  0.50400001928E-02 0. -1.
    10030    2    1    2    0    0  0.00000000000E+00  0.00000000000E+00 -0.23738944857E+03  0.11224858926E+04  0.10970965449E+04 0.  0.
        1    1    3    3  502    0 -0.41904468601E+03  0.43785311779E+02 -0.47809245511E+03  0.63725034175E+03  0.50400001928E-02 0. -1.
       -1    1    3    3    0  502  0.41904468601E+03 -0.43785311779E+02  0.24070300654E+03  0.48523555082E+03  0.50400001928E-02 0.  1.
</event>
<event>
 5   0  0.8150924E-04  0.1110962E+04  0.7818609E-02  0.9194573E-01
        1   -1    0    0  501    0  0.00000000000E+00  0.00000000000E+00  0.42175318255E+03  0.42175318258E+03  0.50400001928E-02 0.  1.
       -1   -1    0    0    0  501  0.00000000000E+00  0.00000000000E+00 -0.73161007210E+03  0.73161007212E+03  0.50400001928E-02 0. -1.
    10030    2    1    2    0    0  0.00000000000E+00  0.00000000000E+00 -0.30985688954E+03  0.11533632547E+04  0.11109615229E+04 0.  0.
        3    1    3    3  502    0 -0.32196720761E+03  0.18275600099E+02 -0.62447597297E+03  0.70282795288E+03  0.10100000352E+00 0. -1.
       -3    1    3    3    0  502  0.32196720761E+03 -0.18275600099E+02  0.31461908342E+03  0.45053530182E+03  0.10100000352E+00 0.  1.
</event>
<event>
 5   0  0.7946038E-04  0.1099217E+04  0.7818609E-02  0.9205956E-01
        1   -1    0    0  501    0  0.00000000000E+00  0.00000000000E+00  0.68202964729E+03  0.68202964731E+03  0.50400001928E-02 0. -1.
       -1   -1    0    0    0  501  0.00000000000E+00  0.00000000000E+00 -0.44289750860E+03  0.44289750863E+03  0.50400001928E-02 0.  1.
    10030    2    1    2    0    0  0.00000000000E+00  0.00000000000E+00  0.23913213869E+03  0.11249271559E+04  0.10992165057E+04 0.  0.
        4    1    3    3  502    0  0.26404286631E+03 -0.47132355548E+03  0.22293904263E+03  0.58443815655E+03  0.12699999809E+01 0. -1.
       -4    1    3    3    0  502 -0.26404286631E+03  0.47132355548E+03  0.16193096064E+02  0.54048899939E+03  0.12699999809E+01 0.  1.
</event>
<event>
 5   0  0.5409500E-04  0.1098668E+04  0.7818609E-02  0.9206492E-01
       -3   -1    0    0    0  501  0.00000000000E+00  0.00000000000E+00  0.20495929808E+03  0.20495932297E+03  0.10100000352E+00 0. -1.
        3   -1    0    0  501    0  0.00000000000E+00  0.00000000000E+00 -0.14723292571E+04  0.14723292606E+04  0.10100000352E+00 0.  1.
    10030    2    1    2    0    0  0.00000000000E+00  0.00000000000E+00 -0.12673699590E+04  0.16772885835E+04  0.10986675473E+04 0.  0.
        3    1    3    3  502    0 -0.84082651171E+02 -0.11249171638E+03 -0.14444581950E+04  0.14512697082E+04  0.10100000352E+00 0.  1.
       -3    1    3    3    0  502  0.84082651171E+02  0.11249171638E+03  0.17708823601E+03  0.22601887536E+03  0.10100000352E+00 0. -1.
</event>
<event>
 5   0  0.8009636E-04  0.1094987E+04  0.7818609E-02  0.9210092E-01
       -1   -1    0    0    0  501  0.00000000000E+00  0.00000000000E+00  0.71964693614E+03  0.71964693616E+03  0.50400001928E-02 0. -1.
        1   -1    0    0  501    0  0.00000000000E+00  0.00000000000E+00 -0.41652248173E+03  0.41652248176E+03  0.50400001928E-02 0.  1.
    10030    2    1    2    0    0  0.00000000000E+00  0.00000000000E+00  0.30312445441E+03  0.11361694179E+04  0.10949869914E+04 0.  0.
        1    1    3    3  502    0 -0.14229976158E+03  0.33963375157E+03  0.57195284863E+03  0.68024287459E+03  0.50400001928E-02 0. -1.
       -1    1    3    3    0  502  0.14229976158E+03 -0.33963375157E+03 -0.26882839421E+03  0.45592654333E+03  0.50400001928E-02 0.  1.
</event>
<event>
 5   0  0.1429680E-03  0.1097316E+04  0.7818609E-02  0.9207811E-01
        2   -1    0    0  501    0  0.00000000000E+00  0.00000000000E+00  0.13850140501E+04  0.13850140501E+04  0.25500000920E-02 0.  1.
       -2   -1    0    0    0  501  0.00000000000E+00  0.00000000000E+00 -0.21734498449E+03  0.21734498450E+03  0.25500000920E-02 0. -1.
    10030    2    1    2    0    0  0.00000000000E+00  0.00000000000E+00  0.11676690656E+04  0.16023590346E+04  0.10973164671E+04 0.  0.
        3    1    3    3  502    0  0.38860554599E+03 -0.22339059478E+03  0.10458566905E+04  0.11378637244E+04  0.10100000352E+00 0.  1.
       -3    1    3    3    0  502 -0.38860554599E+03  0.22339059478E+03  0.12181237513E+03  0.46449531014E+03  0.10100000352E+00 0. -1.
</event>
<event>
 5   0  0.8341767E-04  0.1097560E+04  0.7818609E-02  0.9207573E-01
       -1   -1    0    0    0  501  0.00000000000E+00  0.00000000000E+00  0.20793472039E+03  0.20793472045E+03  0.50400001928E-02 0.  1.
        1   -1    0    0  501    0  0.00000000000E+00  0.00000000000E+00 -0.14483377552E+04  0.14483377552E+04  0.50400001928E-02 0. -1.
    10030    2    1    2    0    0  0.00000000000E+00  0.00000000000E+00 -0.12404030348E+04  0.16562724757E+04  0.10975603969E+04 0.  0.
        2    1    3    3  502    0 -0.21904805562E+03  0.10394999505E+03  0.12272289315E+03  0.27175091656E+03  0.25500000920E-02 0.  1.
       -2    1    3    3    0  502  0.21904805562E+03 -0.10394999505E+03 -0.13631259279E+04  0.13845215591E+04  0.25500000920E-02 0. -1.
</event>
<event>
 5   0  0.1425432E-03  0.1093100E+04  0.7818609E-02  0.9211943E-01
       -2   -1    0    0    0  501  0.00000000000E+00  0.00000000000E+00  0.14391339528E+03  0.14391339530E+03  0.25500000920E-02 0. -1.
        2   -1    0    0  501    0  0.00000000000E+00  0.00000000000E+00 -0.20756722700E+04  0.20756722700E+04  0.25500000920E-02 0.  1.
    10030    2    1    2    0    0  0.00000000000E+00  0.00000000000E+00 -0.19317588748E+04  0.22195856653E+04  0.10931002587E+04 0.  0.
        1    1    3    3  502    0  0.42705460744E+03  0.25555520866E+03 -0.14245883884E+04  0.15090182831E+04  0.50400001928E-02 0.  1.
       -1    1    3    3    0  502 -0.42705460744E+03 -0.25555520866E+03 -0.50717048636E+03  0.71056738222E+03  0.50400001928E-02 0. -1.
</event>
<event>
 5   0  0.8341767E-04  0.1102970E+04  0.7818609E-02  0.9202302E-01
        1   -1    0    0  501    0  0.00000000000E+00  0.00000000000E+00  0.53331819797E+03  0.53331819799E+03  0.50400001928E-02 0. -1.
       -1   -1    0    0    0  501  0.00000000000E+00  0.00000000000E+00 -0.57027085631E+03  0.57027085633E+03  0.50400001928E-02 0.  1.
    10030    2    1    2    0    0  0.00000000000E+00  0.00000000000E+00 -0.36952658340E+02  0.11035890543E+04  0.11029702180E+04 0.  0.
        2    1    3    3  502    0  0.60103653078E+02  0.24191234983E+03 -0.51068911268E+03  0.56827581678E+03  0.25500000920E-02 0.  1.
       -2    1    3    3    0  502 -0.60103653078E+02 -0.24191234983E+03  0.47373645434E+03  0.53531323755E+03  0.25500000920E-02 0. -1.
</event>
<event>
 5   0  0.8150924E-04  0.1098785E+04  0.7818609E-02  0.9206377E-01
       -1   -1    0    0    0  501  0.00000000000E+00  0.00000000000E+00  0.13494040472E+03  0.13494040481E+03  0.50400001928E-02 0.  1.
        1   -1    0    0  501    0  0.00000000000E+00  0.00000000000E+00 -0.22367819676E+04  0.22367819677E+04  0.50400001928E-02 0. -1.
    10030    2    1    2    0    0  0.00000000000E+00  0.00000000000E+00 -0.21018415629E+04  0.23717223725E+04  0.10987852640E+04 0.  0.
        3    1    3    3  502    0 -0.46109353379E+03  0.14727742734E+03 -0.16118569436E+04  0.16829678263E+04  0.10100000352E+00 0. -1.
       -3    1    3    3    0  502  0.46109353379E+03 -0.14727742734E+03 -0.48998461937E+03  0.68875454622E+03  0.10100000352E+00 0.  1.
</event>
<event>
 5   0  0.1372794E-03  0.1102571E+04  0.7818609E-02  0.9202689E-01
       -2   -1    0    0    0  501  0.00000000000E+00  0.00000000000E+00  0.26071076287E+03  0.26071076289E+03  0.25500000920E-02 0. -1.
        2   -1    0    0  501    0  0.00000000000E+00  0.00000000000E+00 -0.11657207956E+04  0.11657207956E+04  0.25500000920E-02 0.  1.
    10030    2    1    2    0    0  0.00000000000E+00  0.00000000000E+00 -0.90501003271E+03  0.14264315585E+04  0.11025714633E+04 0.  0.
        4    1    3    3  502    0  0.24315857900E+03 -0.30509469400E+03 -0.95640555499E+03  0.10329191960E+04  0.12699999809E+01 0.  1.
       -4    1    3    3    0  502 -0.24315857900E+03  0.30509469400E+03  0.51395522279E+02  0.39351236252E+03  0.12699999809E+01 0. -1.
</event>
<event>
 5   0  0.7946038E-04  0.1099328E+04  0.7818609E-02  0.9205847E-01
        1   -1    0    0  501    0  0.00000000000E+00  0.00000000000E+00  0.65612216260E+03  0.65612216262E+03  0.50400001928E-02 0.  1.
       -1   -1    0    0    0  501  0.00000000000E+00  0.00000000000E+00 -0.46047881475E+03  0.46047881478E+03  0.50400001928E-02 0. -1.
    10030    2    1    2    0    0  0.00000000000E+00  0.00000000000E+00  0.19564334785E+03  0.11166009774E+04  0.10993277142E+04 0.  0.
        4    1    3    3  502    0  0.28591847529E+03  0.42823901340E+03  0.29317337374E+03  0.59252870570E+03  0.12699999809E+01 0. -1.
       -4    1    3    3    0  502 -0.28591847529E+03 -0.42823901340E+03 -0.97530025890E+02  0.52407227169E+03  0.12699999809E+01 0.  1.
</event>
<event>
 5   0  0.1396936E-03  0.1100572E+04  0.7818609E-02  0.9204635E-01
       -2   -1    0    0    0  501  0.00000000000E+00  0.00000000000E+00  0.29201217866E+03  0.29201217867E+03  0.25500000920E-02 0.  1.
        2   -1    0    0  501    0  0.00000000000E+00  0.00000000000E+00 -0.10369925937E+04  0.10369925938E+04  0.25500000920E-02 0. -1.
    10030    2    1    2    0    0  0.00000000000E+00  0.00000000000E+00 -0.74498041509E+03  0.13290047724E+04  0.11005716089E+04 0.  0.
        2    1    3    3  502    0 -0.54148500284E+02 -0.48160117265E+03 -0.57730096236E+02  0.48806199770E+03  0.25500000920E-02 0.  1.
       -2    1    3    3    0  502  0.54148500284E+02  0.48160117265E+03 -0.68725031886E+03  0.84094277472E+03  0.25500000920E-02 0. -1.
</event>
<event>
 5   0  0.8305271E-04  0.1099217E+04  0.7818609E-02  0.9205956E-01
        1   -1    0    0  501    0  0.00000000000E+00  0.00000000000E+00  0.10646093626E+04  0.10646093626E+04  0.50400001928E-02 0. -1.
       -1   -1    0    0    0  501  0.00000000000E+00  0.00000000000E+00 -0.28373732995E+03  0.28373733000E+03  0.50400001928E-02 0.  1.
    10030    2    1    2    0    0  0.00000000000E+00  0.00000000000E+00  0.78087203264E+03  0.13483466926E+04  0.10992168449E+04 0.  0.
        5    1    3    3  502    0  0.25959968852E+03 -0.14891307282E+03  0.95586420960E+03  0.10016314585E+04  0.46999998093E+01 0. -1.
       -5    1    3    3    0  502 -0.25959968852E+03  0.14891307282E+03 -0.17499217696E+03  0.34671523406E+03  0.46999998093E+01 0.  1.
</event>
<event>
 5   0  0.1429680E-03  0.1099726E+04  0.7818609E-02  0.9205459E-01
        2   -1    0    0  501    0  0.00000000000E+00  0.00000000000E+00  0.80805580611E+03  0.80805580611E+03  0.25500000920E-02 0.  1.
       -2   -1    0    0    0  501  0.00000000000E+00  0.00000000000E+00 -0.37416907253E+03  0.37416907253E+03  0.25500000920E-02 0. -1.
    10030    2    1    2    0    0  0.00000000000E+00  0.00000000000E+00  0.43388673358E+03  0.11822248786E+04  0.10997263142E+04 0.  0.
        3    1    3    3  502    0 -0.60015177951E+02 -0.50421388569E+02  0.80201887929E+03  0.80584020187E+03  0.10100000352E+00 0.  1.
       -3    1    3    3    0  502  0.60015177951E+02  0.50421388569E+02 -0.36813214571E+03  0.37638467678E+03  0.10100000352E+00 0. -1.
</event>
<event>
 5   0  0.8341767E-04  0.1112997E+04  0.7818609E-02  0.9192616E-01
        1   -1    0    0  501    0  0.00000000000E+00  0.00000000000E+00  0.44021209305E+03  0.44021209308E+03  0.50400001928E-02 0.  1.
       -1   -1    0    0    0  501  0.00000000000E+00  0.00000000000E+00 -0.70350260340E+03  0.70350260342E+03  0.50400001928E-02 0. -1.
    10030    2    1    2    0    0  0.00000000000E+00  0.00000000000E+00 -0.26329051035E+03  0.11437146965E+04  0.11129965921E+04 0.  0.
        2    1    3    3  502    0  0.35151628506E+03 -0.25828255456E+02 -0.57418112178E+03  0.67373196306E+03  0.25500000920E-02 0. -1.
       -2    1    3    3    0  502 -0.35151628506E+03  0.25828255456E+02  0.31089061143E+03  0.46998273343E+03  0.25500000920E-02 0.  1.
</event>
<event>
 5   0  0.1396936E-03  0.1096889E+04  0.7818609E-02  0.9208230E-01
       -2   -1    0    0    0  501  0.00000000000E+00  0.00000000000E+00  0.22339214997E+03  0.22339214998E+03  0.25500000920E-02 0. -1.
        2   -1    0    0  501    0  0.00000000000E+00  0.00000000000E+00 -0.13464714788E+04  0.13464714788E+04  0.25500000920E-02 0.  1.
    10030    2    1    2    0    0  0.00000000000E+00  0.00000000000E+00 -0.11230793289E+04  0.15698636288E+04  0.10968886152E+04 0.  0.
        2    1    3    3  502    0  0.11919731826E+03 -0.27905319998E+02  0.20358797871E+03  0.23756004009E+03  0.25500000920E-02 0. -1.
       -2    1    3    3    0  502 -0.11919731826E+03  0.27905319998E+02 -0.13266673076E+04  0.13323035887E+04  0.25500000920E-02 0.  1.
</event>
<event>
 5   0  0.1425432E-03  0.1097873E+04  0.7818609E-02  0.9207268E-01
       -2   -1    0    0    0  501  0.00000000000E+00  0.00000000000E+00  0.12475253022E+04  0.12475253022E+04  0.25500000920E-02 0.  1.
        2   -1    0    0  501    0  0.00000000000E+00  0.00000000000E+00 -0.24154319757E+03  0.24154319759E+03  0.25500000920E-02 0. -1.
    10030    2    1    2    0    0  0.00000000000E+00  0.00000000000E+00  0.10059821046E+04  0.14890684997E+04  0.10978729445E+04 0.  0.
        1    1    3    3  502    0 -0.19590876435E+03 -0.42978751207E+02  0.11960484730E+04  0.12127486825E+04  0.50400001928E-02 0.  1.
       -1    1    3    3    0  502  0.19590876435E+03  0.42978751207E+02 -0.19006636841E+03  0.27631981730E+03  0.50400001928E-02 0. -1.
</event>
<event>
 5   0  0.8150924E-04  0.1099869E+04  0.7818609E-02  0.9205319E-01
       -1   -1    0    0    0  501  0.00000000000E+00  0.00000000000E+00  0.64855119237E+03  0.64855119239E+03  0.50400001928E-02 0.  1.
        1   -1    0    0  501    0  0.00000000000E+00  0.00000000000E+00 -0.46631354817E+03  0.46631354820E+03  0.50400001928E-02 0. -1.
    10030    2    1    2    0    0  0.00000000000E+00  0.00000000000E+00  0.18223764420E+03  0.11148647406E+04  0.10998694608E+04 0.  0.
        3    1    3    3  502    0 -0.16213809224E+03  0.83008671459E+02  0.61708532228E+03  0.64340772895E+03  0.10100000352E+00 0.  1.
       -3    1    3    3    0  502  0.16213809224E+03 -0.83008671459E+02 -0.43484767808E+03  0.47145701165E+03  0.10100000352E+00 0. -1.
</event>
<event>
 5   0  0.8341767E-04  0.1099385E+04  0.7818609E-02  0.9205791E-01
       -1   -1    0    0    0  501  0.00000000000E+00  0.00000000000E+00  0.11423944047E+04  0.11423944047E+04  0.50400001928E-02 0. -1.
        1   -1    0    0  501    0  0.00000000000E+00  0.00000000000E+00 -0.26449884575E+03  0.26449884580E+03  0.50400001928E-02 0.  1.
    10030    2    1    2    0    0  0.00000000000E+00  0.00000000000E+00  0.87789555892E+03  0.14068932505E+04  0.10993852855E+04 0.  0.
        2    1    3    3  502    0 -0.26864968101E+03  0.19964065411E+03  0.99695514356E+03  0.10516409084E+04  0.25500000920E-02 0. -1.
       -2    1    3    3    0  502  0.26864968101E+03 -0.19964065411E+03 -0.11905958464E+03  0.35525234212E+03  0.25500000920E-02 0.  1.
</event>
<event>
 5   0  0.1396936E-03  0.1095921E+04  0.7818609E-02  0.9209176E-01
        2   -1    0    0  501    0  0.00000000000E+00  0.00000000000E+00  0.68977791289E+03  0.68977791290E+03  0.25500000920E-02 0. -1.
       -2   -1    0    0    0  501  0.00000000000E+00  0.00000000000E+00 -0.43530071040E+03  0.43530071040E+03  0.25500000920E-02 0.  1.
    10030    2    1    2    0    0  0.00000000000E+00  0.00000000000E+00  0.25447720250E+03  0.11250786233E+04  0.10959211933E+04 0.  0.
        2    1    3    3  502    0 -0.27468143154E+03  0.26921353129E+03 -0.27344668772E+03  0.47190984869E+03  0.25500000920E-02 0.  1.
       -2    1    3    3    0  502  0.27468143154E+03 -0.26921353129E+03  0.52792389021E+03  0.65316877461E+03  0.25500000920E-02 0. -1.
</event>
<event>
 5   0  0.1372794E-03  0.1105038E+04  0.7818609E-02  0.9200296E-01
       -2   -1    0    0    0  501  0.00000000000E+00  0.00000000000E+00  0.39785379525E+03  0.39785379526E+03  0.25500000920E-02 0.  1.
        2   -1    0    0  501    0  0.00000000000E+00  0.00000000000E+00 -0.76730972412E+03  0.76730972412E+03  0.25500000920E-02 0. -1.
    10030    2    1    2    0    0  0.00000000000E+00  0.00000000000E+00 -0.36945592887E+03  0.11651635194E+04  0.11050377114E+04 0.  0.
        4    1    3    3  502    0  0.12139024356E+03 -0.51341705970E+03 -0.35780170486E+03  0.63746085474E+03  0.12699999809E+01 0. -1.
       -4    1    3    3    0  502 -0.12139024356E+03  0.51341705970E+03 -0.11654224011E+02  0.52770266464E+03  0.12699999809E+01 0.  1.
</event>
<event>
 5   0  0.1429680E-03  0.1100689E+04  0.7818609E-02  0.9204521E-01
        2   -1    0    0  501    0  0.00000000000E+00  0.00000000000E+00  0.76928410221E+03  0.76928410221E+03  0.25500000920E-02 0.  1.
       -2   -1    0    0    0  501  0.00000000000E+00  0.00000000000E+00 -0.39371553627E+03  0.39371553628E+03  0.25500000920E-02 0. -1.
    10030    2    1    2    0    0  0.00000000000E+00  0.00000000000E+00  0.37556856594E+03  0.11629996385E+04  0.11006890621E+04 0.  0.
        3    1    3    3  502    0  0.29767451175E+03 -0.41256019836E+02  0.67493435083E+03  0.73881564835E+03  0.10100000352E+00 0.  1.
       -3    1    3    3    0  502 -0.29767451175E+03  0.41256019836E+02 -0.29936578490E+03  0.42418399014E+03  0.10100000352E+00 0. -1.
</event>
<event>
 5   0  0.1402775E-03  0.1099828E+04  0.7818609E-02  0.9205360E-01
       -2   -1    0    0    0  501  0.00000000000E+00  0.00000000000E+00  0.24759421753E+03  0.24759421754E+03  0.25500000920E-02 0. -1.
        2   -1    0    0  501    0  0.00000000000E+00  0.00000000000E+00 -0.12213741686E+04  0.12213741686E+04  0.25500000920E-02 0.  1.
    10030    2    1    2    0    0  0.00000000000E+00  0.00000000000E+00 -0.97377995105E+03  0.14689683861E+04  0.10998275894E+04 0.  0.
        5    1    3    3  502    0  0.11221676148E+03  0.44267806459E+03 -0.89601013319E+03  0.10056901706E+04  0.46999998093E+01 0. -1.
       -5    1    3    3    0  502 -0.11221676148E+03 -0.44267806459E+03 -0.77769817855E+02  0.46327821554E+03  0.46999998093E+01 0.  1.
</event>
<event>
 5   0  0.7946038E-04  0.1045831E+04  0.7818609E-02  0.9259659E-01
        1   -1    0    0  501    0  0.00000000000E+00  0.00000000000E+00  0.13604037509E+04  0.13604037509E+04  0.50400001928E-02 0. -1.
       -1   -1    0    0    0  501  0.00000000000E+00  0.00000000000E+00 -0.20099958792E+03  0.20099958798E+03  0.50400001928E-02 0.  1.
    10030    2    1    2    0    0  0.00000000000E+00  0.00000000000E+00  0.11594041630E+04  0.15614033389E+04  0.10458309488E+04 0.  0.
        4    1    3    3  502    0  0.25837176181E+03  0.34484832047E+03  0.10219934622E+04  0.11091206341E+04  0.12699999809E+01 0. -1.
       -4    1    3    3    0  502 -0.25837176181E+03 -0.34484832047E+03  0.13741070081E+03  0.45228270476E+03  0.12699999809E+01 0.  1.
</event>
<event>
 5   0  0.8150924E-04  0.1093490E+04  0.7818609E-02  0.9211561E-01
       -1   -1    0    0    0  501  0.00000000000E+00  0.00000000000E+00  0.31568367803E+03  0.31568367807E+03  0.50400001928E-02 0.  1.
        1   -1    0    0  501    0  0.00000000000E+00  0.00000000000E+00 -0.94692859609E+03  0.94692859610E+03  0.50400001928E-02 0. -1.
    10030    2    1    2    0    0  0.00000000000E+00  0.00000000000E+00 -0.63124491806E+03  0.12626122742E+04  0.10934896471E+04 0.  0.
        3    1    3    3  502    0  0.33946933869E+02  0.15784222150E+03 -0.91877605207E+03  0.93285368910E+03  0.10100000352E+00 0. -1.
       -3    1    3    3    0  502 -0.33946933869E+02 -0.15784222150E+03  0.28753113400E+03  0.32975858507E+03  0.10100000352E+00 0.  1.
</event>
<event>
 5   0  0.8009636E-04  0.1110769E+04  0.7818609E-02  0.9194759E-01
       -1   -1    0    0    0  501  0.00000000000E+00  0.00000000000E+00  0.35725631983E+03  0.35725631986E+03  0.50400001928E-02 0.  1.
        1   -1    0    0  501    0  0.00000000000E+00  0.00000000000E+00 -0.86339091943E+03  0.86339091944E+03  0.50400001928E-02 0. -1.
    10030    2    1    2    0    0  0.00000000000E+00  0.00000000000E+00 -0.50613459960E+03  0.12206472393E+04  0.11107688553E+04 0.  0.
        1    1    3    3  502    0 -0.13004257529E+03 -0.41238500837E+03 -0.63608407107E+03  0.76913939699E+03  0.50400001928E-02 0. -1.
       -1    1    3    3    0  502  0.13004257529E+03  0.41238500837E+03  0.12994947146E+03  0.45150784232E+03  0.50400001928E-02 0.  1.
</event>
<event>
 5   0  0.1372794E-03  0.1100229E+04  0.7818609E-02  0.9204968E-01
        2   -1    0    0  501    0  0.00000000000E+00  0.00000000000E+00  0.81166832440E+03  0.81166832440E+03  0.25500000920E-02 0. -1.
       -2   -1    0    0    0  501  0.00000000000E+00  0.00000000000E+00 -0.37284459378E+03  0.37284459379E+03  0.25500000920E-02 0.  1.
    10030    2    1    2    0    0  0.00000000000E+00  0.00000000000E+00  0.43882373062E+03  0.11845129182E+04  0.11002293337E+04 0.  0.
        4    1    3    3  502    0 -0.51783571149E+03  0.39165813498E+02  0.41479944143E+03  0.66464123747E+03  0.12699999809E+01 0. -1.
       -4    1    3    3    0  502  0.51783571149E+03 -0.39165813498E+02  0.24024289185E+02  0.51987168072E+03  0.12699999809E+01 0.  1.
</event>
<event>
 5   0  0.1372794E-03  0.1098627E+04  0.7818609E-02  0.9206531E-01
       -2   -1    0    0    0  501  0.00000000000E+00  0.00000000000E+00  0.15372764844E+03  0.15372764846E+03  0.25500000920E-02 0. -1.
        2   -1    0    0  501    0  0.00000000000E+00  0.00000000000E+00 -0.19628583205E+04  0.19628583205E+04  0.25500000920E-02 0.  1.
    10030    2    1    2    0    0  0.00000000000E+00  0.00000000000E+00 -0.18091306721E+04  0.21165859690E+04  0.10986274962E+04 0.  0.
        4    1    3    3  502    0  0.54628855551E+03 -0.38616602024E+02 -0.82233986530E+03  0.98801158637E+03  0.12699999809E+01 0. -1.
       -4    1    3    3    0  502 -0.54628855551E+03  0.38616602024E+02 -0.98679080677E+03  0.11285743826E+04  0.12699999809E+01 0.  1.
</event>
<event>
 5   0  0.8305271E-04  0.1096722E+04  0.7818609E-02  0.9208393E-01
       -1   -1    0    0    0  501  0.00000000000E+00  0.00000000000E+00  0.54274418206E+03  0.54274418208E+03  0.50400001928E-02 0.  1.
        1   -1    0    0  501    0  0.00000000000E+00  0.00000000000E+00 -0.55403586592E+03  0.55403586594E+03  0.50400001928E-02 0. -1.
    10030    2    1    2    0    0  0.00000000000E+00  0.00000000000E+00 -0.11291683861E+02  0.10967800480E+04  0.10967219208E+04 0.  0.
        5    1    3    3  502    0  0.19707979998E+03  0.27856184317E+03  0.42360936794E+03  0.54397071119E+03  0.46999998093E+01 0.  1.
       -5    1    3    3    0  502 -0.19707979998E+03 -0.27856184317E+03 -0.43490105180E+03  0.55280933683E+03  0.46999998093E+01 0. -1.
</event>
<event>
 5   0  0.1396936E-03  0.1102646E+04  0.7818609E-02  0.9202617E-01
        2   -1    0    0  501    0  0.00000000000E+00  0.00000000000E+00  0.12568912498E+04  0.12568912498E+04  0.25500000920E-02 0. -1.
       -2   -1    0    0    0  501  0.00000000000E+00  0.00000000000E+00 -0.24183222376E+03  0.24183222377E+03  0.25500000920E-02 0.  1.
    10030    2    1    2    0    0  0.00000000000E+00  0.00000000000E+00  0.10150590260E+04  0.14987234736E+04  0.11026455568E+04 0.  0.
        2    1    3    3  502    0  0.36781129414E+03 -0.30317521415E+03  0.88409716504E+03  0.10044043786E+04  0.25500000920E-02 0. -1.
       -2    1    3    3    0  502 -0.36781129414E+03  0.30317521415E+03  0.13096186098E+03  0.49431909493E+03  0.25500000920E-02 0.  1.
</event>
<event>
 5   0  0.8341767E-04  0.1099990E+04  0.7818609E-02  0.9205202E-01
        1   -1    0    0  501    0  0.00000000000E+00  0.00000000000E+00  0.13786645330E+04  0.13786645330E+04  0.50400001928E-02 0.  1.
       -1   -1    0    0    0  501  0.00000000000E+00  0.00000000000E+00 -0.21941121341E+03  0.21941121347E+03  0.50400001928E-02 0. -1.
    10030    2    1    2    0    0  0.00000000000E+00  0.00000000000E+00  0.11592533196E+04  0.15980757465E+04  0.10999899238E+04 0.  0.
        2    1    3    3  502    0  0.43071667224E+03 -0.44569852697E+02  0.10722793209E+04  0.11564109415E+04  0.25500000920E-02 0.  1.
       -2    1    3    3    0  502 -0.43071667224E+03  0.44569852697E+02  0.86973998669E+02  0.44166480499E+03  0.25500000920E-02 0. -1.
</event>
<event>
 5   0  0.8150924E-04  0.1104032E+04  0.7818609E-02  0.9201270E-01
        1   -1    0    0  501    0  0.00000000000E+00  0.00000000000E+00  0.50245973264E+03  0.50245973266E+03  0.50400001928E-02 0. -1.
       -1   -1    0    0    0  501  0.00000000000E+00  0.00000000000E+00 -0.60646035906E+03  0.60646035908E+03  0.50400001928E-02 0.  1.
    10030    2    1    2    0    0  0.00000000000E+00  0.00000000000E+00 -0.10400062642E+03  0.11089200917E+04  0.11040324450E+04 0.  0.
        3    1    3    3  502    0 -0.50404784378E+03 -0.19194298632E+03 -0.17006028531E+03  0.56553235951E+03  0.10100000352E+00 0.  1.
       -3    1    3    3    0  502  0.50404784378E+03  0.19194298632E+03  0.66059658884E+02  0.54338773224E+03  0.10100000352E+00 0. -1.
</event>
<event>
 5   0  0.1402775E-03  0.1093804E+04  0.7818609E-02  0.9211252E-01
       -2   -1    0    0    0  501  0.00000000000E+00  0.00000000000E+00  0.24721615194E+03  0.24721615195E+03  0.25500000920E-02 0. -1.
        2   -1    0    0  501    0  0.00000000000E+00  0.00000000000E+00 -0.12098798492E+04  0.12098798492E+04  0.25500000920E-02 0.  1.
    10030    2    1    2    0    0  0.00000000000E+00  0.00000000000E+00 -0.96266369728E+03  0.14570960012E+04  0.10938040787E+04 0.  0.
        5    1    3    3  502    0 -0.43505017747E+03 -0.12036245772E+03 -0.89262331074E+03  0.10002770831E+04  0.46999998093E+01 0.  1.
       -5    1    3    3    0  502  0.43505017747E+03  0.12036245772E+03 -0.70040386541E+02  0.45681891805E+03  0.46999998093E+01 0. -1.
</event>
<event>
 5   0  0.1425432E-03  0.1099714E+04  0.7818609E-02  0.9205471E-01
       -2   -1    0    0    0  501  0.00000000000E+00  0.00000000000E+00  0.40822748490E+03  0.40822748491E+03  0.25500000920E-02 0. -1.
        2   -1    0    0  501    0  0.00000000000E+00  0.00000000000E+00 -0.74062322900E+03  0.74062322900E+03  0.25500000920E-02 0.  1.
    10030    2    1    2    0    0  0.00000000000E+00  0.00000000000E+00 -0.33239574409E+03  0.11488507139E+04  0.10997140684E+04 0.  0.
        1    1    3    3  502    0 -0.43702371179E+03  0.33076529758E+03 -0.21229840704E+03  0.58776357527E+03  0.50400001928E-02 0. -1.
       -1    1    3    3    0  502  0.43702371179E+03 -0.33076529758E+03 -0.12009733706E+03  0.56108713864E+03  0.50400001928E-02 0.  1.
</event>
<event>
 5   0  0.7946038E-04  0.1091603E+04  0.7818609E-02  0.9213415E-01
       -1   -1    0    0    0  501  0.00000000000E+00  0.00000000000E+00  0.55232015650E+03  0.55232015653E+03  0.50400001928E-02 0. -1.
        1   -1    0    0  501    0  0.00000000000E+00  0.00000000000E+00 -0.53935987145E+03  0.53935987147E+03  0.50400001928E-02 0.  1.
    10030    2    1    2    0    0  0.00000000000E+00  0.00000000000E+00  0.12960285052E+02  0.10916800280E+04  0.10916030939E+04 0.  0.
        4    1    3    3  502    0 -0.53654961526E+03 -0.97765029254E+02 -0.14833918064E+02  0.54558697621E+03  0.12699999809E+01 0. -1.
       -4    1    3    3    0  502  0.53654961526E+03  0.97765029254E+02  0.27794203116E+02  0.54609305179E+03  0.12699999809E+01 0.  1.
</event>
<event>
 5   0  0.7946038E-04  0.1092149E+04  0.7818609E-02  0.9212878E-01
       -1   -1    0    0    0  501  0.00000000000E+00  0.00000000000E+00  0.60342553592E+03  0.60342553594E+03  0.50400001928E-02 0. -1.
        1   -1    0    0  501    0  0.00000000000E+00  0.00000000000E+00 -0.49417435299E+03  0.49417435301E+03  0.50400001928E-02 0.  1.
    10030    2    1    2    0    0  0.00000000000E+00  0.00000000000E+00  0.10925118293E+03  0.10975998890E+04  0.10921491177E+04 0.  0.
        4    1    3    3  502    0  0.69996655835E+01 -0.31979155570E+03 -0.39016680904E+03  0.50452689343E+03  0.12699999809E+01 0.  1.
       -4    1    3    3    0  502 -0.69996655835E+01  0.31979155570E+03  0.49941799197E+03  0.59307299552E+03  0.12699999809E+01 0. -1.
</event>
<event>
 5   0  0.8150924E-04  0.1093472E+04  0.7818609E-02  0.9211578E-01
       -1   -1    0    0    0  501  0.00000000000E+00  0.00000000000E+00  0.23930834353E+03  0.23930834358E+03  0.50400001928E-02 0.  1.
        1   -1    0    0  501    0  0.00000000000E+00  0.00000000000E+00 -0.12490997632E+04  0.12490997632E+04  0.50400001928E-02 0. -1.
    10030    2    1    2    0    0  0.00000000000E+00  0.00000000000E+00 -0.10097914197E+04  0.14884081068E+04  0.10934715273E+04 0.  0.
        3    1    3    3  502    0 -0.13969044450E+03 -0.52379340244E+02  0.21106644223E+03  0.25846869986E+03  0.10100000352E+00 0.  1.
       -3    1    3    3    0  502  0.13969044450E+03  0.52379340244E+02 -0.12208578619E+04  0.12299394069E+04  0.10100000352E+00 0. -1.
</event>
<event>
 5   0  0.1372794E-03  0.1099658E+04  0.7818609E-02  0.9205525E-01
        2   -1    0    0  501    0  0.00000000000E+00  0.00000000000E+00  0.10240271017E+04  0.10240271017E+04  0.25500000920E-02 0. -1.
       -2   -1    0    0    0  501  0.00000000000E+00  0.00000000000E+00 -0.29521891098E+03  0.29521891099E+03  0.25500000920E-02 0.  1.
    10030    2    1    2    0    0  0.00000000000E+00  0.00000000000E+00  0.72880819068E+03  0.13192460126E+04  0.10996584302E+04 0.  0.
        4    1    3    3  502    0  0.36344783320E+03  0.15968296311E+03 -0.91978026421E+02  0.40749790969E+03  0.12699999809E+01 0.  1.
       -4    1    3    3    0  502 -0.36344783320E+03 -0.15968296311E+03  0.82078621710E+03  0.91174810295E+03  0.12699999809E+01 0. -1.
</event>
<event>
 5   0  0.8305271E-04  0.1099697E+04  0.7818609E-02  0.9205487E-01
       -1   -1    0    0    0  501  0.00000000000E+00  0.00000000000E+00  0.45342939456E+03  0.45342939458E+03  0.50400001928E-02 0.  1.
        1   -1    0    0  501    0  0.00000000000E+00  0.00000000000E+00 -0.66677066507E+03  0.66677066509E+03  0.50400001928E-02 0. -1.
    10030    2    1    2    0    0  0.00000000000E+00  0.00000000000E+00 -0.21334127051E+03  0.11202000597E+04  0.10996970837E+04 0.  0.
        5    1    3    3  502    0  0.60272012717E+01  0.41462541382E+03 -0.47445729569E+03  0.63014472653E+03  0.46999998093E+01 0. -1.
       -5    1    3    3    0  502 -0.60272012717E+01 -0.41462541382E+03  0.26111602518E+03  0.49005533314E+03  0.46999998093E+01 0.  1.
</event>
<event>
 5   0  0.1429680E-03  0.1104630E+04  0.7818609E-02  0.9200691E-01
       -2   -1    0    0    0  501  0.00000000000E+00  0.00000000000E+00  0.50793743271E+03  0.50793743272E+03  0.25500000920E-02 0.  1.
        2   -1    0    0  501    0  0.00000000000E+00  0.00000000000E+00 -0.60056961689E+03  0.60056961690E+03  0.25500000920E-02 0. -1.
    10030    2    1    2    0    0  0.00000000000E+00  0.00000000000E+00 -0.92632184183E+02  0.11085070496E+04  0.11046298735E+04 0.  0.
        3    1    3    3  502    0 -0.36069246818E+03 -0.16741352032E+03 -0.43097001775E+03  0.58639705813E+03  0.10100000352E+00 0. -1.
       -3    1    3    3    0  502  0.36069246818E+03  0.16741352032E+03  0.33833783357E+03  0.52210999149E+03  0.10100000352E+00 0.  1.
</event>
<event>
 5   0  0.1429680E-03  0.1083292E+04  0.7818609E-02  0.9221631E-01
       -2   -1    0    0    0  501  0.00000000000E+00  0.00000000000E+00  0.19478291352E+03  0.19478291354E+03  0.25500000920E-02 0. -1.
        2   -1    0    0  501    0  0.00000000000E+00  0.00000000000E+00 -0.15061917992E+04  0.15061917992E+04  0.25500000920E-02 0.  1.
    10030    2    1    2    0    0  0.00000000000E+00  0.00000000000E+00 -0.13114088857E+04  0.17009747127E+04  0.10832920695E+04 0.  0.
        3    1    3    3  502    0 -0.15631887198E+03 -0.49007533687E+03 -0.38936854533E+03  0.64514905242E+03  0.10100000352E+00 0. -1.
       -3    1    3    3    0  502  0.15631887198E+03  0.49007533687E+03 -0.92204034033E+03  0.10558256603E+04  0.10100000352E+00 0.  1.
</event>
<event>
 5   0  0.5409500E-04  0.1083201E+04  0.7818609E-02  0.9221722E-01
        3   -1    0    0  501    0  0.00000000000E+00  0.00000000000E+00  0.15381682121E+04  0.15381682155E+04  0.10100000352E+00 0.  1.
       -3   -1    0    0    0  501  0.00000000000E+00  0.00000000000E+00 -0.19070156351E+03  0.19070159026E+03  0.10100000352E+00 0. -1.
    10030    2    1    2    0    0  0.00000000000E+00  0.00000000000E+00  0.13474666486E+04  0.17288698057E+04  0.10832010136E+04 0.  0.
        2    1    3    3  502    0  0.40278631896E+03 -0.32770422154E+03  0.42799879282E+03  0.67291146685E+03  0.25500000920E-02 0. -1.
       -2    1    3    3    0  502 -0.40278631896E+03  0.32770422154E+03  0.91946785581E+03  0.10559583389E+04  0.25500000920E-02 0.  1.
</event>
<event>
 5   0  0.8305271E-04  0.1101720E+04  0.7818609E-02  0.9203517E-01
        1   -1    0    0  501    0  0.00000000000E+00  0.00000000000E+00  0.72553750990E+03  0.72553750991E+03  0.50400001928E-02 0.  1.
       -1   -1    0    0    0  501  0.00000000000E+00  0.00000000000E+00 -0.41823710930E+03  0.41823710933E+03  0.50400001928E-02 0. -1.
    10030    2    1    2    0    0  0.00000000000E+00  0.00000000000E+00  0.30730040060E+03  0.11437746192E+04  0.11017199478E+04 0.  0.
        5    1    3    3  502    0 -0.40812653135E+03  0.12014871259E+03  0.51689411098E+03  0.66948083670E+03  0.46999998093E+01 0.  1.
       -5    1    3    3    0  502  0.40812653135E+03 -0.12014871259E+03 -0.20959371039E+03  0.47429378255E+03  0.46999998093E+01 0. -1.
</event>
<event>
 5   0  0.1429680E-03  0.1104032E+04  0.7818609E-02  0.9201271E-01
       -2   -1    0    0    0  501  0.00000000000E+00  0.00000000000E+00  0.41304327096E+03  0.41304327096E+03  0.25500000920E-02 0. -1.
        2   -1    0    0  501    0  0.00000000000E+00  0.00000000000E+00 -0.73774708389E+03  0.73774708390E+03  0.25500000920E-02 0.  1.
    10030    2    1    2    0    0  0.00000000000E+00  0.00000000000E+00 -0.32470381294E+03  0.11507903549E+04  0.11040316457E+04 0.  0.
        3    1    3    3  502    0 -0.54026628476E+03 -0.82729293384E+02 -0.24302262463E+03  0.59815700339E+03  0.10100000352E+00 0.  1.
       -3    1    3    3    0  502  0.54026628476E+03  0.82729293384E+02 -0.81681188308E+02  0.55263335147E+03  0.10100000352E+00 0. -1.
</event>
<event>
 5   0  0.5409500E-04  0.1100086E+04  0.7818609E-02  0.9205108E-01
        3   -1    0    0  501    0  0.00000000000E+00  0.00000000000E+00  0.82418881061E+03  0.82418881680E+03  0.10100000352E+00 0. -1.
       -3   -1    0    0    0  501  0.00000000000E+00  0.00000000000E+00 -0.36708491607E+03  0.36708492996E+03  0.10100000352E+00 0.  1.
    10030    2    1    2    0    0  0.00000000000E+00  0.00000000000E+00  0.45710389454E+03  0.11912737468E+04  0.11000859827E+04 0.  0.
        4    1    3    3  502    0  0.10046278389E+03  0.51022579363E+03  0.42263603625E+03  0.67010891911E+03  0.12699999809E+01 0. -1.
       -4    1    3    3    0  502 -0.10046278389E+03 -0.51022579363E+03  0.34467858290E+02  0.52116482765E+03  0.12699999809E+01 0.  1.
</event>
<event>
 5   0  0.1396936E-03  0.1099636E+04  0.7818609E-02  0.9205547E-01
       -2   -1    0    0    0  501  0.00000000000E+00  0.00000000000E+00  0.22612987888E+03  0.22612987889E+03  0.25500000920E-02 0.  1.
        2   -1    0    0  501    0  0.00000000000E+00  0.00000000000E+00 -0.13368404330E+04  0.13368404330E+04  0.25500000920E-02 0. -1.
    10030    2    1    2    0    0  0.00000000000E+00  0.00000000000E+00 -0.11107105541E+04  0.15629703119E+04  0.10996355127E+04 0.  0.
        2    1    3    3  502    0  0.43291726918E+03 -0.33785878951E+03 -0.51685676517E+03  0.75412654065E+03  0.25500000920E-02 0. -1.
       -2    1    3    3    0  502 -0.43291726918E+03  0.33785878951E+03 -0.59385378894E+03  0.80884377122E+03  0.25500000920E-02 0.  1.
</event>
<event>
 5   0  0.1425432E-03  0.1099632E+04  0.7818609E-02  0.9205551E-01
       -2   -1    0    0    0  501  0.00000000000E+00  0.00000000000E+00  0.38820141808E+03  0.38820141809E+03  0.25500000920E-02 0.  1.
        2   -1    0    0  501    0  0.00000000000E+00  0.00000000000E+00 -0.77871281102E+03  0.77871281102E+03  0.25500000920E-02 0. -1.
    10030    2    1    2    0    0  0.00000000000E+00  0.00000000000E+00 -0.39051139293E+03  0.11669142291E+04  0.10996316065E+04 0.  0.
        1    1    3    3  502    0 -0.26697199446E+03  0.47981386929E+03 -0.16520289239E+03  0.57339985234E+03  0.50400001928E-02 0. -1.
       -1    1    3    3    0  502  0.26697199446E+03 -0.47981386929E+03 -0.22530850054E+03  0.59351437677E+03  0.50400001928E-02 0.  1.
</event>
<event>
 5   0  0.8009636E-04  0.1097316E+04  0.7818609E-02  0.9207812E-01
        1   -1    0    0  501    0  0.00000000000E+00  0.00000000000E+00  0.27730150090E+03  0.27730150095E+03  0.50400001928E-02 0. -1.
       -1   -1    0    0    0  501  0.00000000000E+00  0.00000000000E+00 -0.10855535474E+04  0.10855535474E+04  0.50400001928E-02 0.  1.
    10030    2    1    2    0    0  0.00000000000E+00  0.00000000000E+00 -0.80825204645E+03  0.13628550483E+04  0.10973160493E+04 0.  0.
        1    1    3    3  502    0 -0.39765194774E+03  0.37431671350E+03 -0.46967618424E+03  0.72030256949E+03  0.50400001928E-02 0.  1.
       -1    1    3    3    0  502  0.39765194774E+03 -0.37431671350E+03 -0.33857586221E+03  0.64255247882E+03  0.50400001928E-02 0. -1.
</event>
<event>
 5   0  0.1372794E-03  0.1100003E+04  0.7818609E-02  0.9205189E-01
        2   -1    0    0  501    0  0.00000000000E+00  0.00000000000E+00  0.27187679294E+04  0.27187679294E+04  0.25500000920E-02 0. -1.
       -2   -1    0    0    0  501  0.00000000000E+00  0.00000000000E+00 -0.11126420902E+03  0.11126420905E+03  0.25500000920E-02 0.  1.
    10030    2    1    2    0    0  0.00000000000E+00  0.00000000000E+00  0.26075037204E+04  0.28300321385E+04  0.11000028422E+04 0.  0.
        4    1    3    3  502    0 -0.40651274617E+03 -0.38447239746E+02  0.22517295256E+04  0.22884532489E+04  0.12699999809E+01 0. -1.
       -4    1    3    3    0  502  0.40651274617E+03  0.38447239746E+02  0.35577419479E+03  0.54157888956E+03  0.12699999809E+01 0.  1.
</event>
<event>
 5   0  0.1372794E-03  0.1099318E+04  0.7818609E-02  0.9205857E-01
       -2   -1    0    0    0  501  0.00000000000E+00  0.00000000000E+00  0.42313437630E+03  0.42313437631E+03  0.25500000920E-02 0. -1.
        2   -1    0    0  501    0  0.00000000000E+00  0.00000000000E+00 -0.71401705333E+03  0.71401705334E+03  0.25500000920E-02 0.  1.
    10030    2    1    2    0    0  0.00000000000E+00  0.00000000000E+00 -0.29088267703E+03  0.11371514296E+04  0.10993182625E+04 0.  0.
        4    1    3    3  502    0 -0.25457284498E+03  0.38328828110E+03  0.16558289284E+03  0.48901589660E+03  0.12699999809E+01 0. -1.
       -4    1    3    3    0  502  0.25457284498E+03 -0.38328828110E+03 -0.45646556987E+03  0.64813553305E+03  0.12699999809E+01 0.  1.
</event>
<event>
 5   0  0.1402775E-03  0.1091903E+04  0.7818609E-02  0.9213120E-01
        2   -1    0    0  501    0  0.00000000000E+00  0.00000000000E+00  0.13281087797E+04  0.13281087797E+04  0.25500000920E-02 0. -1.
       -2   -1    0    0    0  501  0.00000000000E+00  0.00000000000E+00 -0.22442675649E+03  0.22442675651E+03  0.25500000920E-02 0.  1.
    10030    2    1    2    0    0  0.00000000000E+00  0.00000000000E+00  0.11036820232E+04  0.15525355362E+04  0.10919031930E+04 0.  0.
        5    1    3    3  502    0  0.16676541556E+03  0.45118356764E+03  0.91895611470E+03  0.10372462322E+04  0.46999998093E+01 0. -1.
       -5    1    3    3    0  502 -0.16676541556E+03 -0.45118356764E+03  0.18472590853E+03  0.51528930400E+03  0.46999998093E+01 0.  1.
</event>
<event>
 5   0  0.7946038E-04  0.1098629E+04  0.7818609E-02  0.9206529E-01
        1   -1    0    0  501    0  0.00000000000E+00  0.00000000000E+00  0.20121910987E+04  0.20121910987E+04  0.50400001928E-02 0.  1.
       -1   -1    0    0    0  501  0.00000000000E+00  0.00000000000E+00 -0.14995915290E+03  0.14995915298E+03  0.50400001928E-02 0. -1.
    10030    2    1    2    0    0  0.00000000000E+00  0.00000000000E+00  0.18622319458E+04  0.21621502517E+04  0.10986290962E+04 0.  0.
        4    1    3    3  502    0  0.24540001373E+03  0.48729430934E+03  0.80559319758E+03  0.97296398882E+03  0.12699999809E+01 0.  1.
       -4    1    3    3    0  502 -0.24540001373E+03 -0.48729430934E+03  0.10566387482E+04  0.11891862629E+04  0.12699999809E+01 0. -1.
</event>
<event>
 5   0  0.8341767E-04  0.1096402E+04  0.7818609E-02  0.9208706E-01
       -1   -1    0    0    0  501  0.00000000000E+00  0.00000000000E+00  0.34641277245E+03  0.34641277248E+03  0.50400001928E-02 0.  1.
        1   -1    0    0  501    0  0.00000000000E+00  0.00000000000E+00 -0.86753282873E+03  0.86753282874E+03  0.50400001928E-02 0. -1.
    10030    2    1    2    0    0  0.00000000000E+00  0.00000000000E+00 -0.52112005628E+03  0.12139456012E+04  0.10964022116E+04 0.  0.
        2    1    3    3  502    0 -0.49754166104E+02 -0.55872931474E+02 -0.86185383394E+03  0.86509496161E+03  0.25500000920E-02 0. -1.
       -2    1    3    3    0  502  0.49754166104E+02  0.55872931474E+02  0.34073377766E+03  0.34885063962E+03  0.25500000920E-02 0.  1.
</event>
<event>
 5   0  0.1429680E-03  0.1095402E+04  0.7818609E-02  0.9209685E-01
        2   -1    0    0  501    0  0.00000000000E+00  0.00000000000E+00  0.17035315274E+04  0.17035315274E+04  0.25500000920E-02 0. -1.
       -2   -1    0    0    0  501  0.00000000000E+00  0.00000000000E+00 -0.17609104944E+03  0.17609104946E+03  0.25500000920E-02 0.  1.
    10030    2    1    2    0    0  0.00000000000E+00  0.00000000000E+00  0.15274404779E+04  0.18796225768E+04  0.10954024912E+04 0.  0.
        3    1    3    3  502    0 -0.28687428876E+03  0.51726028455E+02 -0.31926716221E+02  0.29324352504E+03  0.10100000352E+00 0.  1.
       -3    1    3    3    0  502  0.28687428876E+03 -0.51726028455E+02  0.15593671942E+04  0.15863790518E+04  0.10100000352E+00 0. -1.
</event>
<event>
 5   0  0.1372794E-03  0.1102535E+04  0.7818609E-02  0.9202724E-01
       -2   -1    0    0    0  501  0.00000000000E+00  0.00000000000E+00  0.35675097770E+03  0.35675097771E+03  0.25500000920E-02 0. -1.
        2   -1    0    0  501    0  0.00000000000E+00  0.00000000000E+00 -0.85184369152E+03  0.85184369152E+03  0.25500000920E-02 0.  1.
    10030    2    1    2    0    0  0.00000000000E+00  0.00000000000E+00 -0.49509271382E+03  0.12085946692E+04  0.11025353868E+04 0.  0.
        4    1    3    3  502    0  0.50171323327E+03  0.22456049671E+03 -0.29341493836E+03  0.62308709189E+03  0.12699999809E+01 0. -1.
       -4    1    3    3    0  502 -0.50171323327E+03 -0.22456049671E+03 -0.20167777545E+03  0.58550757735E+03  0.12699999809E+01 0.  1.
</event>
<event>
 5   0  0.1372794E-03  0.1106839E+04  0.7818609E-02  0.9198551E-01
       -2   -1    0    0    0  501  0.00000000000E+00  0.00000000000E+00  0.25009463197E+03  0.25009463198E+03  0.25500000920E-02 0. -1.
        2   -1    0    0  501    0  0.00000000000E+00  0.00000000000E+00 -0.12246297395E+04  0.12246297395E+04  0.25500000920E-02 0.  1.
    10030    2    1    2    0    0  0.00000000000E+00  0.00000000000E+00 -0.97453510757E+03  0.14747243715E+04  0.11068393271E+04 0.  0.
        4    1    3    3  502    0  0.17510734420E+03 -0.21158311058E+03 -0.11274200205E+04  0.11603911023E+04  0.12699999809E+01 0.  1.
       -4    1    3    3    0  502 -0.17510734420E+03  0.21158311058E+03  0.15288491292E+03  0.31433326928E+03  0.12699999809E+01 0. -1.
</event>
<event>
 5   0  0.8150924E-04  0.1096849E+04  0.7818609E-02  0.9208269E-01
       -1   -1    0    0    0  501  0.00000000000E+00  0.00000000000E+00  0.31583387822E+03  0.31583387826E+03  0.50400001928E-02 0.  1.
        1   -1    0    0  501    0  0.00000000000E+00  0.00000000000E+00 -0.95230248503E+03  0.95230248504E+03  0.50400001928E-02 0. -1.
    10030    2    1    2    0    0  0.00000000000E+00  0.00000000000E+00 -0.63646860681E+03  0.12681363633E+04  0.10968489178E+04 0.  0.
        3    1    3    3  502    0 -0.82595385809E+02  0.25770770428E+03  0.23326174964E+03  0.35727624137E+03  0.10100000352E+00 0.  1.
       -3    1    3    3    0  502  0.82595385809E+02 -0.25770770428E+03 -0.86973035645E+03  0.91086012193E+03  0.10100000352E+00 0. -1.
</event>
<event>
 5   0  0.8009636E-04  0.1101736E+04  0.7818609E-02  0.9203501E-01
       -1   -1    0    0    0  501  0.00000000000E+00  0.00000000000E+00  0.41724748131E+03  0.41724748134E+03  0.50400001928E-02 0. -1.
        1   -1    0    0  501    0  0.00000000000E+00  0.00000000000E+00 -0.72728000908E+03  0.72728000910E+03  0.50400001928E-02 0.  1.
    10030    2    1    2    0    0  0.00000000000E+00  0.00000000000E+00 -0.31003252777E+03  0.11445274904E+04  0.11017363605E+04 0.  0.
        1    1    3    3  502    0 -0.16820642377E+03  0.35111906335E+03 -0.55986764890E+03  0.68193092169E+03  0.50400001928E-02 0.  1.
       -1    1    3    3    0  502  0.16820642377E+03 -0.35111906335E+03  0.24983512112E+03  0.46259656875E+03  0.50400001928E-02 0. -1.
</event>
<event>
 5   0  0.8341767E-04  0.1103657E+04  0.7818609E-02  0.9201635E-01
       -1   -1    0    0    0  501  0.00000000000E+00  0.00000000000E+00  0.25022184463E+03  0.25022184468E+03  0.50400001928E-02 0.  1.
        1   -1    0    0  501    0  0.00000000000E+00  0.00000000000E+00 -0.12169795071E+04  0.12169795071E+04  0.50400001928E-02 0. -1.
    10030    2    1    2    0    0  0.00000000000E+00  0.00000000000E+00 -0.96675766242E+03  0.14672013518E+04  0.11036572968E+04 0.  0.
        2    1    3    3  502    0  0.37403008986E+03 -0.10122175097E+03 -0.10057000195E+04  0.10777647611E+04  0.25500000920E-02 0. -1.
       -2    1    3    3    0  502 -0.37403008986E+03  0.10122175097E+03  0.38942357058E+02  0.38943659069E+03  0.25500000920E-02 0.  1.
</event>
<event>
 5   0  0.1425432E-03  0.1099391E+04  0.7818609E-02  0.9205785E-01
        2   -1    0    0  501    0  0.00000000000E+00  0.00000000000E+00  0.12684071658E+04  0.12684071658E+04  0.25500000920E-02 0.  1.
       -2   -1    0    0    0  501  0.00000000000E+00  0.00000000000E+00 -0.23822427537E+03  0.23822427538E+03  0.25500000920E-02 0. -1.
    10030    2    1    2    0    0  0.00000000000E+00  0.00000000000E+00  0.10301828904E+04  0.15066314412E+04  0.10993914279E+04 0.  0.
        1    1    3    3  502    0 -0.72921160924E+02 -0.50522127426E+03  0.23558107035E+03  0.56219611562E+03  0.50400001928E-02 0. -1.
       -1    1    3    3    0  502  0.72921160924E+02  0.50522127426E+03  0.79460182007E+03  0.94443532556E+03  0.50400001928E-02 0.  1.
</event>
<event>
 5   0  0.1372794E-03  0.1098891E+04  0.7818609E-02  0.9206274E-01
        2   -1    0    0  501    0  0.00000000000E+00  0.00000000000E+00  0.70810371875E+03  0.70810371876E+03  0.25500000920E-02 0. -1.
       -2   -1    0    0    0  501  0.00000000000E+00  0.00000000000E+00 -0.42633620779E+03  0.42633620780E+03  0.25500000920E-02 0.  1.
    10030    2    1    2    0    0  0.00000000000E+00  0.00000000000E+00  0.28176751096E+03  0.11344399266E+04  0.10988908120E+04 0.  0.
        4    1    3    3  502    0 -0.34958294921E+03 -0.29304445841E+02  0.57743679127E+03  0.67564920613E+03  0.12699999809E+01 0. -1.
       -4    1    3    3    0  502  0.34958294921E+03  0.29304445841E+02 -0.29566928031E+03  0.45879072042E+03  0.12699999809E+01 0.  1.
</event>
<event>
 5   0  0.8305271E-04  0.1083411E+04  0.7818609E-02  0.9221513E-01
        1   -1    0    0  501    0  0.00000000000E+00  0.00000000000E+00  0.10423572111E+04  0.10423572111E+04  0.50400001928E-02 0. -1.
       -1   -1    0    0    0  501  0.00000000000E+00  0.00000000000E+00 -0.28152056862E+03  0.28152056866E+03  0.50400001928E-02 0.  1.
    10030    2    1    2    0    0  0.00000000000E+00  0.00000000000E+00  0.76083664247E+03  0.13238777798E+04  0.10834112697E+04 0.  0.
        5    1    3    3  502    0 -0.18879565966E+03  0.38521090844E+03 -0.23735463308E+02  0.42967046361E+03  0.46999998093E+01 0.  1.
       -5    1    3    3    0  502  0.18879565966E+03 -0.38521090844E+03  0.78457210578E+03  0.89420731614E+03  0.46999998093E+01 0. -1.
</event>
<event>
 5   0  0.1425432E-03  0.1096130E+04  0.7818609E-02  0.9208972E-01
       -2   -1    0    0    0  501  0.00000000000E+00  0.00000000000E+00  0.89536197014E+03  0.89536197014E+03  0.25500000920E-02 0. -1.
        2   -1    0    0  501    0  0.00000000000E+00  0.00000000000E+00 -0.33547892347E+03  0.33547892348E+03  0.25500000920E-02 0.  1.
    10030    2    1    2    0    0  0.00000000000E+00  0.00000000000E+00  0.55988304667E+03  0.12308408936E+04  0.10961296819E+04 0.  0.
        1    1    3    3  502    0  0.46655368803E+02 -0.24148070859E+03  0.82991519513E+03  0.86559163997E+03  0.50400001928E-02 0. -1.
       -1    1    3    3    0  502 -0.46655368803E+02  0.24148070859E+03 -0.27003214846E+03  0.36524925364E+03  0.50400001928E-02 0.  1.
</event>
<event>
 5   0  0.8150924E-04  0.1098841E+04  0.7818609E-02  0.9206322E-01
        1   -1    0    0  501    0  0.00000000000E+00  0.00000000000E+00  0.12921182522E+04  0.12921182522E+04  0.50400001928E-02 0. -1.
       -1   -1    0    0    0  501  0.00000000000E+00  0.00000000000E+00 -0.23361879354E+03  0.23361879359E+03  0.50400001928E-02 0.  1.
    10030    2    1    2    0    0  0.00000000000E+00  0.00000000000E+00  0.10584994587E+04  0.15257370458E+04  0.10988414030E+04 0.  0.
        3    1    3    3  502    0  0.21450866227E+03  0.40722660555E+03  0.11266473595E+03  0.47385739140E+03  0.10100000352E+00 0.  1.
       -3    1    3    3    0  502 -0.21450866227E+03 -0.40722660555E+03  0.94583472274E+03  0.10518796544E+04  0.10100000352E+00 0. -1.
</event>
<event>
 5   0  0.8305271E-04  0.1099346E+04  0.7818609E-02  0.9205830E-01
        1   -1    0    0  501    0  0.00000000000E+00  0.00000000000E+00  0.32274848729E+03  0.32274848733E+03  0.50400001928E-02 0.  1.
       -1   -1    0    0    0  501  0.00000000000E+00  0.00000000000E+00 -0.93614818103E+03  0.93614818104E+03  0.50400001928E-02 0. -1.
    10030    2    1    2    0    0  0.00000000000E+00  0.00000000000E+00 -0.61339969373E+03  0.12588966684E+04  0.10993460044E+04 0.  0.
        5    1    3    3  502    0  0.53891384952E+03 -0.93942445152E+02 -0.24540585169E+03  0.59958272344E+03  0.46999998093E+01 0. -1.
       -5    1    3    3    0  502 -0.53891384952E+03  0.93942445152E+02 -0.36799384204E+03  0.65931394493E+03  0.46999998093E+01 0.  1.
</event>
<event>
 5   0  0.8305271E-04  0.1100712E+04  0.7818609E-02  0.9204498E-01
       -1   -1    0    0    0  501  0.00000000000E+00  0.00000000000E+00  0.23420835972E+03  0.23420835978E+03  0.50400001928E-02 0. -1.
        1   -1    0    0  501    0  0.00000000000E+00  0.00000000000E+00 -0.12932578150E+04  0.12932578150E+04  0.50400001928E-02 0.  1.
    10030    2    1    2    0    0  0.00000000000E+00  0.00000000000E+00 -0.10590494553E+04  0.15274661748E+04  0.11007121178E+04 0.  0.
        5    1    3    3  502    0  0.10598846367E+03 -0.44765645659E+02 -0.12763538825E+04  0.12815376861E+04  0.46999998093E+01 0.  1.
       -5    1    3    3    0  502 -0.10598846367E+03  0.44765645659E+02  0.21730442723E+03  0.24592848870E+03  0.46999998093E+01 0. -1.
</event>
<event>
 5   0  0.5409500E-04  0.1100666E+04  0.7818609E-02  0.9204543E-01
       -4   -1    0    0    0  501  0.00000000000E+00  0.00000000000E+00  0.28656976209E+03  0.28657257623E+03  0.12699999809E+01 0.  1.
        4   -1    0    0  501    0  0.00000000000E+00  0.00000000000E+00 -0.10568594998E+04  0.10568602628E+04  0.12699999809E+01 0. -1.
    10030    2    1    2    0    0  0.00000000000E+00  0.00000000000E+00 -0.77028973769E+03  0.13434328391E+04  0.11006659407E+04 0.  0.
        2    1    3    3  502    0 -0.50475736347E+03 -0.14747620651E+03 -0.58322678454E+03  0.78529148071E+03  0.25500000920E-02 0. -1.
       -2    1    3    3    0  502  0.50475736347E+03  0.14747620651E+03 -0.18706295314E+03  0.55814135836E+03  0.25500000920E-02 0.  1.
</event>
<event>
 5   0  0.1402775E-03  0.1098544E+04  0.7818609E-02  0.9206612E-01
        2   -1    0    0  501    0  0.00000000000E+00  0.00000000000E+00  0.60426388894E+03  0.60426388895E+03  0.25500000920E-02 0. -1.
       -2   -1    0    0    0  501  0.00000000000E+00  0.00000000000E+00 -0.49928452337E+03  0.49928452338E+03  0.25500000920E-02 0.  1.
    10030    2    1    2    0    0  0.00000000000E+00  0.00000000000E+00  0.10497936557E+03  0.11035484123E+04  0.10985437775E+04 0.  0.
        5    1    3    3  502    0  0.11561361924E+03  0.35794378011E+03 -0.34956766832E+03  0.51352692569E+03  0.46999998093E+01 0. -1.
       -5    1    3    3    0  502 -0.11561361924E+03 -0.35794378011E+03  0.45454703389E+03  0.59002148664E+03  0.46999998093E+01 0.  1.
</event>
<event>
 5   0  0.1372794E-03  0.1100912E+04  0.7818609E-02  0.9204303E-01
        2   -1    0    0  501    0  0.00000000000E+00  0.00000000000E+00  0.11745174780E+04  0.11745174780E+04  0.25500000920E-02 0.  1.
       -2   -1    0    0    0  501  0.00000000000E+00  0.00000000000E+00 -0.25797996624E+03  0.25797996625E+03  0.25500000920E-02 0. -1.
    10030    2    1    2    0    0  0.00000000000E+00  0.00000000000E+00  0.91653751179E+03  0.14324974443E+04  0.11009123114E+04 0.  0.
        4    1    3    3  502    0  0.42538939995E+03  0.19490770098E+03  0.83551372237E+03  0.95761680576E+03  0.12699999809E+01 0.  1.
       -4    1    3    3    0  502 -0.42538939995E+03 -0.19490770098E+03  0.81023789416E+02  0.47488063853E+03  0.12699999809E+01 0. -1.
</event>
<event>
 5   0  0.8009636E-04  0.1100413E+04  0.7818609E-02  0.9204789E-01
       -1   -1    0    0    0  501  0.00000000000E+00  0.00000000000E+00  0.18449471551E+03  0.18449471558E+03  0.50400001928E-02 0. -1.
        1   -1    0    0  501    0  0.00000000000E+00  0.00000000000E+00 -0.16408449058E+04  0.16408449058E+04  0.50400001928E-02 0.  1.
    10030    2    1    2    0    0  0.00000000000E+00  0.00000000000E+00 -0.14563501903E+04  0.18253396214E+04  0.11004130391E+04 0.  0.
        1    1    3    3  502    0  0.71760866102E+02 -0.54533839918E+03 -0.75065275192E+03  0.93060364577E+03  0.50400001928E-02 0.  1.
       -1    1    3    3    0  502 -0.71760866102E+02  0.54533839918E+03 -0.70569743836E+03  0.89473597561E+03  0.50400001928E-02 0. -1.
</event>
<event>
 5   0  0.1402775E-03  0.1100878E+04  0.7818609E-02  0.9204337E-01
       -2   -1    0    0    0  501  0.00000000000E+00  0.00000000000E+00  0.10561449822E+04  0.10561449822E+04  0.25500000920E-02 0.  1.
        2   -1    0    0  501    0  0.00000000000E+00  0.00000000000E+00 -0.28687624636E+03  0.28687624637E+03  0.25500000920E-02 0. -1.
    10030    2    1    2    0    0  0.00000000000E+00  0.00000000000E+00  0.76926873588E+03  0.13430212286E+04  0.11008776646E+04 0.  0.
        5    1    3    3  502    0  0.22744204099E+03  0.50121537434E+03  0.38005593510E+03  0.66888813511E+03  0.46999998093E+01 0.  1.
       -5    1    3    3    0  502 -0.22744204099E+03 -0.50121537434E+03  0.38921280078E+03  0.67413309351E+03  0.46999998093E+01 0. -1.
</event>
<event>
 5   0  0.8305271E-04  0.1113943E+04  0.7818609E-02  0.9191707E-01
        1   -1    0    0  501    0  0.00000000000E+00  0.00000000000E+00  0.90515822870E+03  0.90515822871E+03  0.50400001928E-02 0. -1.
       -1   -1    0    0    0  501  0.00000000000E+00  0.00000000000E+00 -0.34272176089E+03  0.34272176093E+03  0.50400001928E-02 0.  1.
    10030    2    1    2    0    0  0.00000000000E+00  0.00000000000E+00  0.56243646781E+03  0.12478799896E+04  0.11139433057E+04 0.  0.
        5    1    3    3  502    0  0.44165767585E+03  0.32503310386E+03  0.17210402780E+03  0.57476073946E+03  0.46999998093E+01 0. -1.
       -5    1    3    3    0  502 -0.44165767585E+03 -0.32503310386E+03  0.39033244001E+03  0.67311925018E+03  0.46999998093E+01 0.  1.
</event>
<event>
 5   0  0.1429680E-03  0.1100853E+04  0.7818609E-02  0.9204361E-01
        2   -1    0    0  501    0  0.00000000000E+00  0.00000000000E+00  0.18465576817E+04  0.18465576817E+04  0.25500000920E-02 0.  1.
       -2   -1    0    0    0  501  0.00000000000E+00  0.00000000000E+00 -0.16407253989E+03  0.16407253991E+03  0.25500000920E-02 0. -1.
    10030    2    1    2    0    0  0.00000000000E+00  0.00000000000E+00  0.16824851418E+04  0.20106302216E+04  0.11008531399E+04 0.  0.
        3    1    3    3  502    0 -0.18225211452E+03 -0.51934443351E+03  0.83044887749E+03  0.99628300306E+03  0.10100000352E+00 0.  1.
       -3    1    3    3    0  502  0.18225211452E+03  0.51934443351E+03  0.85203626433E+03  0.10143472186E+04  0.10100000352E+00 0. -1.
</event>
<event>
 5   0  0.1402775E-03  0.1113029E+04  0.7818609E-02  0.9192585E-01
       -2   -1    0    0    0  501  0.00000000000E+00  0.00000000000E+00  0.63966411458E+03  0.63966411459E+03  0.25500000920E-02 0.  1.
        2   -1    0    0  501    0  0.00000000000E+00  0.00000000000E+00 -0.48417348871E+03  0.48417348872E+03  0.25500000920E-02 0. -1.
    10030    2    1    2    0    0  0.00000000000E+00  0.00000000000E+00  0.15549062587E+03  0.11238376033E+04  0.11130290310E+04 0.  0.
        5    1    3    3  502    0 -0.28335389335E+03  0.93602540304E+02 -0.39653458218E+03  0.49629893138E+03  0.46999998093E+01 0. -1.
       -5    1    3    3    0  502  0.28335389335E+03 -0.93602540304E+02  0.55202520805E+03  0.62753867192E+03  0.46999998093E+01 0.  1.
</event>
<event>
 5   0  0.7946038E-04  0.1104319E+04  0.7818609E-02  0.9200993E-01
       -1   -1    0    0    0  501  0.00000000000E+00  0.00000000000E+00  0.18220782550E+03  0.18220782557E+03  0.50400001928E-02 0. -1.
        1   -1    0    0  501    0  0.00000000000E+00  0.00000000000E+00 -0.16732536417E+04  0.16732536418E+04  0.50400001928E-02 0.  1.
    10030    2    1    2    0    0  0.00000000000E+00  0.00000000000E+00 -0.14910458163E+04  0.18554614673E+04  0.11043186273E+04 0.  0.
        4    1    3    3  502    0 -0.20894029928E+03 -0.34274595737E+03 -0.10849622526E+03  0.41581712777E+03  0.12699999809E+01 0. -1.
       -4    1    3    3    0  502  0.20894029928E+03  0.34274595737E+03 -0.13825495910E+04  0.14396443395E+04  0.12699999809E+01 0.  1.
</event>
<event>
 5   0  0.1429680E-03  0.1098128E+04  0.7818609E-02  0.9207018E-01
       -2   -1    0    0    0  501  0.00000000000E+00  0.00000000000E+00  0.17588533199E+03  0.17588533201E+03  0.25500000920E-02 0.  1.
        2   -1    0    0  501    0  0.00000000000E+00  0.00000000000E+00 -0.17140217164E+04  0.17140217164E+04  0.25500000920E-02 0. -1.
    10030    2    1    2    0    0  0.00000000000E+00  0.00000000000E+00 -0.15381363844E+04  0.18899070484E+04  0.10981280046E+04 0.  0.
        3    1    3    3  502    0 -0.29554938179E+03  0.24820151887E+03 -0.96946678346E+02  0.39793479326E+03  0.10100000352E+00 0.  1.
       -3    1    3    3    0  502  0.29554938179E+03 -0.24820151887E+03 -0.14411897060E+04  0.14919722551E+04  0.10100000352E+00 0. -1.
</event>
<event>
 5   0  0.1396936E-03  0.1100015E+04  0.7818609E-02  0.9205177E-01
       -2   -1    0    0    0  501  0.00000000000E+00  0.00000000000E+00  0.29204021014E+03  0.29204021015E+03  0.25500000920E-02 0. -1.
        2   -1    0    0  501    0  0.00000000000E+00  0.00000000000E+00 -0.10358446434E+04  0.10358446434E+04  0.25500000920E-02 0.  1.
    10030    2    1    2    0    0  0.00000000000E+00  0.00000000000E+00 -0.74380443324E+03  0.13278848535E+04  0.11000150678E+04 0.  0.
        2    1    3    3  502    0  0.46793894504E+03  0.58242552053E+02 -0.30149892267E+02  0.47251250477E+03  0.25500000920E-02 0. -1.
       -2    1    3    3    0  502 -0.46793894504E+03 -0.58242552053E+02 -0.71365454097E+03  0.85537234876E+03  0.25500000920E-02 0.  1.
</event>
<event>
 5   0  0.1372794E-03  0.1099044E+04  0.7818609E-02  0.9206125E-01
       -2   -1    0    0    0  501  0.00000000000E+00  0.00000000000E+00  0.16104688126E+03  0.16104688128E+03  0.25500000920E-02 0. -1.
        2   -1    0    0  501    0  0.00000000000E+00  0.00000000000E+00 -0.18750701434E+04  0.18750701434E+04  0.25500000920E-02 0.  1.
    10030    2    1    2    0    0  0.00000000000E+00  0.00000000000E+00 -0.17140232621E+04  0.20361170247E+04  0.10990435819E+04 0.  0.
        4    1    3    3  502    0 -0.47093846031E+03  0.10358903239E+03 -0.36875105251E+03  0.60703597311E+03  0.12699999809E+01 0. -1.
       -4    1    3    3    0  502  0.47093846031E+03 -0.10358903239E+03 -0.13452722096E+04  0.14290810516E+04  0.12699999809E+01 0.  1.
</event>
<event>
 5   0  0.1402775E-03  0.1100165E+04  0.7818609E-02  0.9205031E-01
       -2   -1    0    0    0  501  0.00000000000E+00  0.00000000000E+00  0.14140729442E+03  0.14140729444E+03  0.25500000920E-02 0. -1.
        2   -1    0    0  501    0  0.00000000000E+00  0.00000000000E+00 -0.21398526786E+04  0.21398526786E+04  0.25500000920E-02 0.  1.
    10030    2    1    2    0    0  0.00000000000E+00  0.00000000000E+00 -0.19984453842E+04  0.22812599731E+04  0.11001650381E+04 0.  0.
        5    1    3    3  502    0  0.23328045783E+03  0.34774413215E+03 -0.25961802166E+03  0.49271630846E+03  0.46999998093E+01 0. -1.
       -5    1    3    3    0  502 -0.23328045783E+03 -0.34774413215E+03 -0.17388273626E+04  0.17885436646E+04  0.46999998093E+01 0.  1.
</event>
<event>
 5   0  0.1425432E-03  0.1086860E+04  0.7818609E-02  0.9218095E-01
        2   -1    0    0  501    0  0.00000000000E+00  0.00000000000E+00  0.37816314152E+03  0.37816314153E+03  0.25500000920E-02 0. -1.
       -2   -1    0    0    0  501  0.00000000000E+00  0.00000000000E+00 -0.78092209406E+03  0.78092209406E+03  0.25500000920E-02 0.  1.
    10030    2    1    2    0    0  0.00000000000E+00  0.00000000000E+00 -0.40275895253E+03  0.11590852356E+04  0.10868596089E+04 0.  0.
        1    1    3    3  502    0 -0.28728410315E+03 -0.42460100230E+03 -0.39363056457E+03  0.64634602843E+03  0.50400001928E-02 0.  1.
       -1    1    3    3    0  502  0.28728410315E+03  0.42460100230E+03 -0.91283879633E+01  0.51273920717E+03  0.50400001928E-02 0. -1.
</event>
<event>
 5   0  0.1425432E-03  0.1089648E+04  0.7818609E-02  0.9215341E-01
        2   -1    0    0  501    0  0.00000000000E+00  0.00000000000E+00  0.62263700831E+03  0.62263700832E+03  0.25500000920E-02 0.  1.
       -2   -1    0    0    0  501  0.00000000000E+00  0.00000000000E+00 -0.47673543592E+03  0.47673543592E+03  0.25500000920E-02 0. -1.
    10030    2    1    2    0    0  0.00000000000E+00  0.00000000000E+00  0.14590157240E+03  0.10993724442E+04  0.10896478800E+04 0.  0.
        1    1    3    3  502    0  0.12420856724E+03 -0.16276231752E+03  0.58234655121E+03  0.61728992046E+03  0.50400001928E-02 0.  1.
       -1    1    3    3    0  502 -0.12420856724E+03  0.16276231752E+03 -0.43644497881E+03  0.48208252378E+03  0.50400001928E-02 0. -1.
</event>
<event>
 5   0  0.8009636E-04  0.1082092E+04  0.7818609E-02  0.9222825E-01
        1   -1    0    0  501    0  0.00000000000E+00  0.00000000000E+00  0.61332281618E+03  0.61332281620E+03  0.50400001928E-02 0. -1.
       -1   -1    0    0    0  501  0.00000000000E+00  0.00000000000E+00 -0.47728622111E+03  0.47728622114E+03  0.50400001928E-02 0.  1.
    10030    2    1    2    0    0  0.00000000000E+00  0.00000000000E+00  0.13603659507E+03  0.10906090373E+04  0.10820915475E+04 0.  0.
        1    1    3    3  502    0  0.16647507275E+03 -0.79526477769E+02 -0.44460304819E+03  0.48136294103E+03  0.50400001928E-02 0.  1.
       -1    1    3    3    0  502 -0.16647507275E+03  0.79526477769E+02  0.58063964326E+03  0.60924609631E+03  0.50400001928E-02 0. -1.
</event>
<event>
 5   0  0.8341767E-04  0.1106211E+04  0.7818609E-02  0.9199159E-01
       -1   -1    0    0    0  501  0.00000000000E+00  0.00000000000E+00  0.64317624084E+03  0.64317624086E+03  0.50400001928E-02 0.  1.
        1   -1    0    0  501    0  0.00000000000E+00  0.00000000000E+00 -0.47564852881E+03  0.47564852884E+03  0.50400001928E-02 0. -1.
    10030    2    1    2    0    0  0.00000000000E+00  0.00000000000E+00  0.16752771203E+03  0.11188247697E+04  0.11062112506E+04 0.  0.
        2    1    3    3  502    0 -0.20110150061E+02  0.55227897661E+03  0.60937808919E+02  0.55599451679E+03  0.25500000920E-02 0.  1.
       -2    1    3    3    0  502  0.20110150061E+02 -0.55227897661E+03  0.10658990311E+03  0.56283025291E+03  0.25500000920E-02 0. -1.
</event>
<event>
 5   0  0.1425432E-03  0.1097217E+04  0.7818609E-02  0.9207909E-01
        2   -1    0    0  501    0  0.00000000000E+00  0.00000000000E+00  0.50666081925E+03  0.50666081926E+03  0.25500000920E-02 0. -1.
       -2   -1    0    0    0  501  0.00000000000E+00  0.00000000000E+00 -0.59402868110E+03  0.59402868111E+03  0.25500000920E-02 0.  1.
    10030    2    1    2    0    0  0.00000000000E+00  0.00000000000E+00 -0.87367861849E+02  0.11006895004E+04  0.10972165843E+04 0.  0.
        1    1    3    3  502    0 -0.15994007401E+03  0.47854624147E+03  0.17236656887E+03  0.53319561756E+03  0.50400001928E-02 0. -1.
       -1    1    3    3    0  502  0.15994007401E+03 -0.47854624147E+03 -0.25973443072E+03  0.56749388280E+03  0.50400001928E-02 0.  1.
</event>
<event>
 5   0  0.8150924E-04  0.1094492E+04  0.7818609E-02  0.9210577E-01
       -1   -1    0    0    0  501  0.00000000000E+00  0.00000000000E+00  0.33130649434E+03  0.33130649438E+03  0.50400001928E-02 0.  1.
        1   -1    0    0  501    0  0.00000000000E+00  0.00000000000E+00 -0.90393107475E+03  0.90393107476E+03  0.50400001928E-02 0. -1.
    10030    2    1    2    0    0  0.00000000000E+00  0.00000000000E+00 -0.57262458040E+03  0.12352375691E+04  0.10944920932E+04 0.  0.
        3    1    3    3  502    0 -0.19648857809E+03  0.20433720265E+03  0.24198170436E+03  0.37271518503E+03  0.10100000352E+00 0.  1.
       -3    1    3    3    0  502  0.19648857809E+03 -0.20433720265E+03 -0.81460628477E+03  0.86252238411E+03  0.10100000352E+00 0. -1.
</event>
<event>
 5   0  0.1402775E-03  0.1100515E+04  0.7818609E-02  0.9204690E-01
       -2   -1    0    0    0  501  0.00000000000E+00  0.00000000000E+00  0.20210782904E+03  0.20210782905E+03  0.25500000920E-02 0.  1.
        2   -1    0    0  501    0  0.00000000000E+00  0.00000000000E+00 -0.14981272481E+04  0.14981272481E+04  0.25500000920E-02 0. -1.
    10030    2    1    2    0    0  0.00000000000E+00  0.00000000000E+00 -0.12960194191E+04  0.17002350772E+04  0.11005148718E+04 0.  0.
        5    1    3    3  502    0  0.31061773368E+03  0.35406441417E+03 -0.20853821079E+03  0.51512645168E+03  0.46999998093E+01 0.  1.
       -5    1    3    3    0  502 -0.31061773368E+03 -0.35406441417E+03 -0.10874812083E+04  0.11851086255E+04  0.46999998093E+01 0. -1.
</event>
<event>
 5   0  0.8150924E-04  0.1101860E+04  0.7818609E-02  0.9203381E-01
       -1   -1    0    0    0  501  0.00000000000E+00  0.00000000000E+00  0.19538214247E+03  0.19538214253E+03  0.50400001928E-02 0.  1.
        1   -1    0    0  501    0  0.00000000000E+00  0.00000000000E+00 -0.15534876260E+04  0.15534876260E+04  0.50400001928E-02 0. -1.
    10030    2    1    2    0    0  0.00000000000E+00  0.00000000000E+00 -0.13581054835E+04  0.17488697685E+04  0.11018597746E+04 0.  0.
        3    1    3    3  502    0  0.12556204919E+03 -0.29460608391E+03 -0.13905799731E+04  0.14269797632E+04  0.10100000352E+00 0. -1.
       -3    1    3    3    0  502 -0.12556204919E+03  0.29460608391E+03  0.32474489524E+02  0.32189000535E+03  0.10100000352E+00 0.  1.
</event>
<event>
 5   0  0.1396936E-03  0.1104370E+04  0.7818609E-02  0.9200943E-01
        2   -1    0    0  501    0  0.00000000000E+00  0.00000000000E+00  0.17852487940E+04  0.17852487940E+04  0.25500000920E-02 0. -1.
       -2   -1    0    0    0  501  0.00000000000E+00  0.00000000000E+00 -0.17079308190E+03  0.17079308192E+03  0.25500000920E-02 0.  1.
    10030    2    1    2    0    0  0.00000000000E+00  0.00000000000E+00  0.16144557121E+04  0.19560418759E+04  0.11043697632E+04 0.  0.
        2    1    3    3  502    0 -0.37021688162E+03  0.38130367300E+03  0.10726402890E+04  0.11970840489E+04  0.25500000920E-02 0. -1.
       -2    1    3    3    0  502  0.37021688162E+03 -0.38130367300E+03  0.54181542304E+03  0.75895782698E+03  0.25500000920E-02 0.  1.
</event>
<event>
 5   0  0.7946038E-04  0.1124068E+04  0.7818609E-02  0.9182046E-01
       -1   -1    0    0    0  501  0.00000000000E+00  0.00000000000E+00  0.86343397688E+03  0.86343397690E+03  0.50400001928E-02 0.  1.
        1   -1    0    0  501    0  0.00000000000E+00  0.00000000000E+00 -0.36584395081E+03  0.36584395084E+03  0.50400001928E-02 0. -1.
    10030    2    1    2    0    0  0.00000000000E+00  0.00000000000E+00  0.49759002608E+03  0.12292779277E+04  0.11240677869E+04 0.  0.
        4    1    3    3  502    0 -0.56058643480E+02  0.27481328908E+03 -0.28383934357E+03  0.39903796965E+03  0.12699999809E+01 0. -1.
       -4    1    3    3    0  502  0.56058643480E+02 -0.27481328908E+03  0.78142936965E+03  0.83023995809E+03  0.12699999809E+01 0.  1.
</event>
<event>
 5   0  0.8305271E-04  0.1099732E+04  0.7818609E-02  0.9205453E-01
        1   -1    0    0  501    0  0.00000000000E+00  0.00000000000E+00  0.54693718524E+03  0.54693718527E+03  0.50400001928E-02 0. -1.
       -1   -1    0    0    0  501  0.00000000000E+00  0.00000000000E+00 -0.55281098876E+03  0.55281098878E+03  0.50400001928E-02 0.  1.
    10030    2    1    2    0    0  0.00000000000E+00  0.00000000000E+00 -0.58738035164E+01  0.10997481741E+04  0.10997324878E+04 0.  0.
        5    1    3    3  502    0 -0.33164567127E+03 -0.21360584480E+03  0.38010183439E+03  0.54782826024E+03  0.46999998093E+01 0. -1.
       -5    1    3    3    0  502  0.33164567127E+03  0.21360584480E+03 -0.38597563791E+03  0.55191991381E+03  0.46999998093E+01 0.  1.
</event>
<event>
 5   0  0.8009636E-04  0.1100958E+04  0.7818609E-02  0.9204259E-01
        1   -1    0    0  501    0  0.00000000000E+00  0.00000000000E+00  0.96419418274E+03  0.96419418276E+03  0.50400001928E-02 0.  1.
       -1   -1    0    0    0  501  0.00000000000E+00  0.00000000000E+00 -0.31427994559E+03  0.31427994563E+03  0.50400001928E-02 0. -1.
    10030    2    1    2    0    0  0.00000000000E+00  0.00000000000E+00  0.64991423716E+03  0.12784741284E+04  0.11009575747E+04 0.  0.
        1    1    3    3  502    0 -0.38481767539E+02 -0.15028029499E+03 -0.28837229414E+03  0.32745013903E+03  0.50400001928E-02 0. -1.
       -1    1    3    3    0  502  0.38481767539E+02  0.15028029499E+03  0.93828653130E+03  0.95102398936E+03  0.50400001928E-02 0.  1.
</event>
<event>
 5   0  0.8341767E-04  0.1097169E+04  0.7818609E-02  0.9207956E-01
        1   -1    0    0  501    0  0.00000000000E+00  0.00000000000E+00  0.14813345685E+04  0.14813345686E+04  0.50400001928E-02 0. -1.
       -1   -1    0    0    0  501  0.00000000000E+00  0.00000000000E+00 -0.20315791410E+03  0.20315791417E+03  0.50400001928E-02 0.  1.
    10030    2    1    2    0    0  0.00000000000E+00  0.00000000000E+00  0.12781766544E+04  0.16844924827E+04  0.10971687948E+04 0.  0.
        2    1    3    3  502    0 -0.21657427379E+03 -0.37806141569E+03  0.11508552191E+04  0.12305700246E+04  0.25500000920E-02 0. -1.
       -2    1    3    3    0  502  0.21657427379E+03  0.37806141569E+03  0.12732143537E+03  0.45392245815E+03  0.25500000920E-02 0.  1.
</event>
<event>
 5   0  0.1429680E-03  0.1107249E+04  0.7818609E-02  0.9198155E-01
        2   -1    0    0  501    0  0.00000000000E+00  0.00000000000E+00  0.15638299478E+04  0.15638299478E+04  0.25500000920E-02 0.  1.
       -2   -1    0    0    0  501  0.00000000000E+00  0.00000000000E+00 -0.19599311946E+03  0.19599311948E+03  0.25500000920E-02 0. -1.
    10030    2    1    2    0    0  0.00000000000E+00  0.00000000000E+00  0.13678368283E+04  0.17598230673E+04  0.11072486799E+04 0.  0.
        3    1    3    3  502    0  0.34366319218E+03  0.26589633985E+03  0.12291765934E+04  0.13037178994E+04  0.10100000352E+00 0.  1.
       -3    1    3    3    0  502 -0.34366319218E+03 -0.26589633985E+03  0.13866023490E+03  0.45610516786E+03  0.10100000352E+00 0. -1.
</event>
<event>
 5   0  0.1425432E-03  0.1099559E+04  0.7818609E-02  0.9205622E-01
        2   -1    0    0  501    0  0.00000000000E+00  0.00000000000E+00  0.12269451678E+04  0.12269451678E+04  0.25500000920E-02 0. -1.
       -2   -1    0    0    0  501  0.00000000000E+00  0.00000000000E+00 -0.24634976313E+03  0.24634976315E+03  0.25500000920E-02 0.  1.
    10030    2    1    2    0    0  0.00000000000E+00  0.00000000000E+00  0.98059540464E+03  0.14732949309E+04  0.10995592780E+04 0.  0.
        1    1    3    3  502    0 -0.43904832118E+03  0.91983532017E+02  0.64402041636E+02  0.45317989969E+03  0.50400001928E-02 0.  1.
       -1    1    3    3    0  502  0.43904832118E+03 -0.91983532017E+02  0.91619336301E+03  0.10201150312E+04  0.50400001928E-02 0. -1.
</event>
<event>
 5   0  0.8341767E-04  0.1097424E+04  0.7818609E-02  0.9207706E-01
        1   -1    0    0  501    0  0.00000000000E+00  0.00000000000E+00  0.13132749165E+04  0.13132749165E+04  0.50400001928E-02 0. -1.
       -1   -1    0    0    0  501  0.00000000000E+00  0.00000000000E+00 -0.22926268355E+03  0.22926268360E+03  0.50400001928E-02 0.  1.
    10030    2    1    2    0    0  0.00000000000E+00  0.00000000000E+00  0.10840122329E+04  0.15425376001E+04  0.10974241325E+04 0.  0.
        2    1    3    3  502    0 -0.54084116261E+03  0.70480253557E+02  0.45757302110E+03  0.71193377428E+03  0.25500000920E-02 0.  1.
       -2    1    3    3    0  502  0.54084116261E+03 -0.70480253557E+02  0.62643921181E+03  0.83060382579E+03  0.25500000920E-02 0. -1.
</event>
<event>
 5   0  0.7946038E-04  0.1099334E+04  0.7818609E-02  0.9205841E-01
       -1   -1    0    0    0  501  0.00000000000E+00  0.00000000000E+00  0.50168912084E+03  0.50168912087E+03  0.50400001928E-02 0.  1.
        1   -1    0    0  501    0  0.00000000000E+00  0.00000000000E+00 -0.60223310767E+03  0.60223310769E+03  0.50400001928E-02 0. -1.
    10030    2    1    2    0    0  0.00000000000E+00  0.00000000000E+00 -0.10054398682E+03  0.11039222286E+04  0.10993339772E+04 0.  0.
        4    1    3    3  502    0 -0.17018261933E+03 -0.60636584961E+02 -0.57156606547E+03  0.59943998820E+03  0.12699999809E+01 0. -1.
       -4    1    3    3    0  502  0.17018261933E+03  0.60636584961E+02  0.47102207865E+03  0.50448224035E+03  0.12699999809E+01 0.  1.
</event>
<event>
 5   0  0.8150924E-04  0.1113920E+04  0.7818609E-02  0.9191730E-01
       -1   -1    0    0    0  501  0.00000000000E+00  0.00000000000E+00  0.27046619954E+03  0.27046619958E+03  0.50400001928E-02 0. -1.
        1   -1    0    0  501    0  0.00000000000E+00  0.00000000000E+00 -0.11469248906E+04  0.11469248906E+04  0.50400001928E-02 0.  1.
    10030    2    1    2    0    0  0.00000000000E+00  0.00000000000E+00 -0.87645869103E+03  0.14173910902E+04  0.11139199547E+04 0.  0.
        3    1    3    3  502    0  0.28328047551E+03 -0.19988560627E+03  0.11641574044E+03  0.36572492152E+03  0.10100000352E+00 0. -1.
       -3    1    3    3    0  502 -0.28328047551E+03  0.19988560627E+03 -0.99287443147E+03  0.10516661686E+04  0.10100000352E+00 0.  1.
</event>
<event>
 5   0  0.7946038E-04  0.1100803E+04  0.7818609E-02  0.9204409E-01
       -1   -1    0    0    0  501  0.00000000000E+00  0.00000000000E+00  0.76001004564E+03  0.76001004565E+03  0.50400001928E-02 0. -1.
        1   -1    0    0  501    0  0.00000000000E+00  0.00000000000E+00 -0.39860263458E+03  0.39860263461E+03  0.50400001928E-02 0.  1.
    10030    2    1    2    0    0  0.00000000000E+00  0.00000000000E+00  0.36140741106E+03  0.11586126803E+04  0.11008033549E+04 0.  0.
        4    1    3    3  502    0 -0.27091002228E+03  0.44372008119E+03 -0.95096023102E+01  0.51997288012E+03  0.12699999809E+01 0.  1.
       -4    1    3    3    0  502  0.27091002228E+03 -0.44372008119E+03  0.37091701337E+03  0.63863980014E+03  0.12699999809E+01 0. -1.
</event>
<event>
 5   0  0.1396936E-03  0.1100588E+04  0.7818609E-02  0.9204619E-01
       -2   -1    0    0    0  501  0.00000000000E+00  0.00000000000E+00  0.19059823168E+03  0.19059823170E+03  0.25500000920E-02 0.  1.
        2   -1    0    0  501    0  0.00000000000E+00  0.00000000000E+00 -0.15888056929E+04  0.15888056929E+04  0.25500000920E-02 0. -1.
    10030    2    1    2    0    0  0.00000000000E+00  0.00000000000E+00 -0.13982074612E+04  0.17794039246E+04  0.11005881256E+04 0.  0.
        2    1    3    3  502    0  0.39723529934E+03 -0.37059572070E+03 -0.55735682265E+03  0.77832107707E+03  0.25500000920E-02 0. -1.
       -2    1    3    3    0  502 -0.39723529934E+03  0.37059572070E+03 -0.84085063854E+03  0.10010828475E+04  0.25500000920E-02 0.  1.
</event>
<event>
 5   0  0.1425432E-03  0.1098399E+04  0.7818609E-02  0.9206754E-01
        2   -1    0    0  501    0  0.00000000000E+00  0.00000000000E+00  0.21739424287E+03  0.21739424289E+03  0.25500000920E-02 0. -1.
       -2   -1    0    0    0  501  0.00000000000E+00  0.00000000000E+00 -0.13874341963E+04  0.13874341963E+04  0.25500000920E-02 0.  1.
    10030    2    1    2    0    0  0.00000000000E+00  0.00000000000E+00 -0.11700399535E+04  0.16048284392E+04  0.10983992110E+04 0.  0.
        1    1    3    3  502    0  0.19906997565E+01 -0.35024021298E+03  0.33041775697E+02  0.35180097874E+03  0.50400001928E-02 0. -1.
       -1    1    3    3    0  502 -0.19906997565E+01  0.35024021298E+03 -0.12030817292E+04  0.12530274605E+04  0.50400001928E-02 0.  1.
</event>
<event>
 5   0  0.5409500E-04  0.1103357E+04  0.7818609E-02  0.9201926E-01
       -3   -1    0    0    0  501  0.00000000000E+00  0.00000000000E+00  0.20298321591E+03  0.20298324104E+03  0.10100000352E+00 0.  1.
        3   -1    0    0  501    0  0.00000000000E+00  0.00000000000E+00 -0.14993797999E+04  0.14993798033E+04  0.10100000352E+00 0. -1.
    10030    2    1    2    0    0  0.00000000000E+00  0.00000000000E+00 -0.12963965840E+04  0.17023630443E+04  0.11033566204E+04 0.  0.
        5    1    3    3  502    0  0.48979629773E+03 -0.16156693706E+03 -0.34615886015E+03  0.62117013360E+03  0.46999998093E+01 0.  1.
       -5    1    3    3    0  502 -0.48979629773E+03  0.16156693706E+03 -0.95023772382E+03  0.10811929107E+04  0.46999998093E+01 0. -1.
</event>
<event>
 5   0  0.8009636E-04  0.1104308E+04  0.7818609E-02  0.9201004E-01
       -1   -1    0    0    0  501  0.00000000000E+00  0.00000000000E+00  0.22105185505E+03  0.22105185511E+03  0.50400001928E-02 0.  1.
        1   -1    0    0  501    0  0.00000000000E+00  0.00000000000E+00 -0.13791959950E+04  0.13791959950E+04  0.50400001928E-02 0. -1.
    10030    2    1    2    0    0  0.00000000000E+00  0.00000000000E+00 -0.11581441400E+04  0.16002478501E+04  0.11043076260E+04 0.  0.
        1    1    3    3  502    0  0.24210966693E+03 -0.36518926880E+03 -0.10659630483E+04  0.11525005480E+04  0.50400001928E-02 0. -1.
       -1    1    3    3    0  502 -0.24210966693E+03  0.36518926880E+03 -0.92181091707E+02  0.44774730213E+03  0.50400001928E-02 0.  1.
</event>
<event>
 5   0  0.1396936E-03  0.1081528E+04  0.7818609E-02  0.9223386E-01
       -2   -1    0    0    0  501  0.00000000000E+00  0.00000000000E+00  0.60820908292E+03  0.60820908292E+03  0.25500000920E-02 0.  1.
        2   -1    0    0  501    0  0.00000000000E+00  0.00000000000E+00 -0.48079771860E+03  0.48079771860E+03  0.25500000920E-02 0. -1.
    10030    2    1    2    0    0  0.00000000000E+00  0.00000000000E+00  0.12741136432E+03  0.10890068015E+04  0.10815276964E+04 0.  0.
        2    1    3    3  502    0  0.29046991852E+03  0.42647622660E+03 -0.99186933371E+02  0.52544532844E+03  0.25500000920E-02 0. -1.
       -2    1    3    3    0  502 -0.29046991852E+03 -0.42647622660E+03  0.22659829769E+03  0.56356147308E+03  0.25500000920E-02 0.  1.
</event>
<event>
 5   0  0.8150924E-04  0.1099594E+04  0.7818609E-02  0.9205587E-01
        1   -1    0    0  501    0  0.00000000000E+00  0.00000000000E+00  0.23877299894E+03  0.23877299900E+03  0.50400001928E-02 0.  1.
       -1   -1    0    0    0  501  0.00000000000E+00  0.00000000000E+00 -0.12659590573E+04  0.12659590573E+04  0.50400001928E-02 0. -1.
    10030    2    1    2    0    0  0.00000000000E+00  0.00000000000E+00 -0.10271860583E+04  0.15047320563E+04  0.10995941809E+04 0.  0.
        3    1    3    3  502    0  0.29273131160E+03 -0.42249709137E+03 -0.24654874115E+03  0.57007166652E+03  0.10100000352E+00 0.  1.
       -3    1    3    3    0  502 -0.29273131160E+03  0.42249709137E+03 -0.78063731716E+03  0.93466038974E+03  0.10100000352E+00 0. -1.
</event>
<event>
 5   0  0.1425432E-03  0.1101981E+04  0.7818609E-02  0.9203263E-01
       -2   -1    0    0    0  501  0.00000000000E+00  0.00000000000E+00  0.15458426939E+04  0.15458426939E+04  0.25500000920E-02 0. -1.
        2   -1    0    0  501    0  0.00000000000E+00  0.00000000000E+00 -0.19639152834E+03  0.19639152836E+03  0.25500000920E-02 0.  1.
    10030    2    1    2    0    0  0.00000000000E+00  0.00000000000E+00  0.13494511655E+04  0.17422342222E+04  0.11019807789E+04 0.  0.
        1    1    3    3  502    0 -0.14220556766E+03  0.33281161522E+03  0.13315638856E+04  0.13798725941E+04  0.50400001928E-02 0. -1.
       -1    1    3    3    0  502  0.14220556766E+03 -0.33281161522E+03  0.17887279951E+02  0.36236162808E+03  0.50400001928E-02 0.  1.
</event>
<event>
 5   0  0.8150924E-04  0.1105362E+04  0.7818609E-02  0.9199981E-01
       -1   -1    0    0    0  501  0.00000000000E+00  0.00000000000E+00  0.21225124788E+03  0.21225124794E+03  0.50400001928E-02 0.  1.
        1   -1    0    0  501    0  0.00000000000E+00  0.00000000000E+00 -0.14391265633E+04  0.14391265633E+04  0.50400001928E-02 0. -1.
    10030    2    1    2    0    0  0.00000000000E+00  0.00000000000E+00 -0.12268753154E+04  0.16513778112E+04  0.11053622193E+04 0.  0.
        3    1    3    3  502    0 -0.16393883372E+03 -0.33503814331E+03 -0.12227317843E+04  0.12783581365E+04  0.10100000352E+00 0. -1.
       -3    1    3    3    0  502  0.16393883372E+03  0.33503814331E+03 -0.41435311197E+01  0.37301967472E+03  0.10100000352E+00 0.  1.
</event>
<event>
 5   0  0.1402775E-03  0.1101196E+04  0.7818609E-02  0.9204027E-01
        2   -1    0    0  501    0  0.00000000000E+00  0.00000000000E+00  0.38661686605E+03  0.38661686606E+03  0.25500000920E-02 0.  1.
       -2   -1    0    0    0  501  0.00000000000E+00  0.00000000000E+00 -0.78413019352E+03  0.78413019353E+03  0.25500000920E-02 0. -1.
    10030    2    1    2    0    0  0.00000000000E+00  0.00000000000E+00 -0.39751332747E+03  0.11707470596E+04  0.11011956375E+04 0.  0.
        5    1    3    3  502    0 -0.37516142430E+03  0.10879254782E+03  0.21376302201E+03  0.44530734591E+03  0.46999998093E+01 0.  1.
       -5    1    3    3    0  502  0.37516142430E+03 -0.10879254782E+03 -0.61127634948E+03  0.72543971367E+03  0.46999998093E+01 0. -1.
</event>
<event>
 5   0  0.1425432E-03  0.1100171E+04  0.7818609E-02  0.9205025E-01
        2   -1    0    0  501    0  0.00000000000E+00  0.00000000000E+00  0.77880252842E+03  0.77880252843E+03  0.25500000920E-02 0.  1.
       -2   -1    0    0    0  501  0.00000000000E+00  0.00000000000E+00 -0.38853763922E+03  0.38853763923E+03  0.25500000920E-02 0. -1.
    10030    2    1    2    0    0  0.00000000000E+00  0.00000000000E+00  0.39026488921E+03  0.11673401677E+04  0.11001710700E+04 0.  0.
        1    1    3    3  502    0  0.26612491950E+03 -0.44798484383E+03  0.38219467876E+03  0.64620868578E+03  0.50400001928E-02 0.  1.
       -1    1    3    3    0  502 -0.26612491950E+03  0.44798484383E+03  0.80702104454E+01  0.52113148187E+03  0.50400001928E-02 0. -1.
</event>
<event>
 5   0  0.8341767E-04  0.1099917E+04  0.7818609E-02  0.9205272E-01
       -1   -1    0    0    0  501  0.00000000000E+00  0.00000000000E+00  0.21547744512E+03  0.21547744518E+03  0.50400001928E-02 0.  1.
        1   -1    0    0  501    0  0.00000000000E+00  0.00000000000E+00 -0.14036481362E+04  0.14036481362E+04  0.50400001928E-02 0. -1.
    10030    2    1    2    0    0  0.00000000000E+00  0.00000000000E+00 -0.11881706911E+04  0.16191255814E+04  0.10999172956E+04 0.  0.
        2    1    3    3  502    0  0.88041601595E+02  0.18523651550E+03  0.15707590192E+03  0.25833452974E+03  0.25500000920E-02 0.  1.
       -2    1    3    3    0  502 -0.88041601595E+02 -0.18523651550E+03 -0.13452465930E+04  0.13607910517E+04  0.25500000920E-02 0. -1.
</event>
<event>
 5   0  0.1396936E-03  0.1102106E+04  0.7818609E-02  0.9203141E-01
        2   -1    0    0  501    0  0.00000000000E+00  0.00000000000E+00  0.61910906849E+03  0.61910906849E+03  0.25500000920E-02 0. -1.
       -2   -1    0    0    0  501  0.00000000000E+00  0.00000000000E+00 -0.49047824377E+03  0.49047824377E+03  0.25500000920E-02 0.  1.
    10030    2    1    2    0    0  0.00000000000E+00  0.00000000000E+00  0.12863082472E+03  0.11095873123E+04  0.11021062174E+04 0.  0.
        2    1    3    3  502    0  0.19054808238E+03  0.41423945456E+03 -0.24723078810E+03  0.51867712500E+03  0.25500000920E-02 0.  1.
       -2    1    3    3    0  502 -0.19054808238E+03 -0.41423945456E+03  0.37586161282E+03  0.59091018726E+03  0.25500000920E-02 0. -1.
</event>
<event>
 5   0  0.1425432E-03  0.1112878E+04  0.7818609E-02  0.9192730E-01
        2   -1    0    0  501    0  0.00000000000E+00  0.00000000000E+00  0.17460432845E+04  0.17460432845E+04  0.25500000920E-02 0. -1.
       -2   -1    0    0    0  501  0.00000000000E+00  0.00000000000E+00 -0.17732915261E+03  0.17732915263E+03  0.25500000920E-02 0.  1.
    10030    2    1    2    0    0  0.00000000000E+00  0.00000000000E+00  0.15687141319E+04  0.19233724371E+04  0.11128780276E+04 0.  0.
        1    1    3    3  502    0  0.20775024754E+03 -0.29262726220E+03  0.49411355273E+02  0.36226007507E+03  0.50400001928E-02 0.  1.
       -1    1    3    3    0  502 -0.20775024754E+03  0.29262726220E+03  0.15193027766E+04  0.15611123621E+04  0.50400001928E-02 0. -1.
</event>
<event>
 5   0  0.8341767E-04  0.1100445E+04  0.7818609E-02  0.9204758E-01
       -1   -1    0    0    0  501  0.00000000000E+00  0.00000000000E+00  0.17041281987E+03  0.17041281995E+03  0.50400001928E-02 0.  1.
        1   -1    0    0  501    0  0.00000000000E+00  0.00000000000E+00 -0.17765386461E+04  0.17765386461E+04  0.50400001928E-02 0. -1.
    10030    2    1    2    0    0  0.00000000000E+00  0.00000000000E+00 -0.16061258262E+04  0.19469514660E+04  0.11004452924E+04 0.  0.
        2    1    3    3  502    0  0.20036167432E+03  0.50571970974E+03 -0.65665648628E+03  0.85269863747E+03  0.25500000920E-02 0.  1.
       -2    1    3    3    0  502 -0.20036167432E+03 -0.50571970974E+03 -0.94946933991E+03  0.10942528286E+04  0.25500000920E-02 0. -1.
</event>
<event>
 5   0  0.7946038E-04  0.1100188E+04  0.7818609E-02  0.9205009E-01
        1   -1    0    0  501    0  0.00000000000E+00  0.00000000000E+00  0.66058994904E+03  0.66058994905E+03  0.50400001928E-02 0.  1.
       -1   -1    0    0    0  501  0.00000000000E+00  0.00000000000E+00 -0.45808042480E+03  0.45808042483E+03  0.50400001928E-02 0. -1.
    10030    2    1    2    0    0  0.00000000000E+00  0.00000000000E+00  0.20250952424E+03  0.11186703739E+04  0.11001878467E+04 0.  0.
        4    1    3    3  502    0  0.50165845752E+02 -0.44531388341E+03  0.42564508677E+03  0.61805858916E+03  0.12699999809E+01 0.  1.
       -4    1    3    3    0  502 -0.50165845752E+02  0.44531388341E+03 -0.22313556253E+03  0.50061178472E+03  0.12699999809E+01 0. -1.
</event>
<event>
 5   0  0.1402775E-03  0.1105713E+04  0.7818609E-02  0.9199641E-01
        2   -1    0    0  501    0  0.00000000000E+00  0.00000000000E+00  0.40853590218E+03  0.40853590219E+03  0.25500000920E-02 0. -1.
       -2   -1    0    0    0  501  0.00000000000E+00  0.00000000000E+00 -0.74816054637E+03  0.74816054637E+03  0.25500000920E-02 0.  1.
    10030    2    1    2    0    0  0.00000000000E+00  0.00000000000E+00 -0.33962464418E+03  0.11566964486E+04  0.11057132427E+04 0.  0.
        5    1    3    3  502    0 -0.26731571459E+03  0.49623471545E+02  0.33374343797E+03  0.43049617022E+03  0.46999998093E+01 0. -1.
       -5    1    3    3    0  502  0.26731571459E+03 -0.49623471545E+02 -0.67336808215E+03  0.72620027833E+03  0.46999998093E+01 0.  1.
</event>
<event>
 5   0  0.8150924E-04  0.1105750E+04  0.7818609E-02  0.9199606E-01
        1   -1    0    0  501    0  0.00000000000E+00  0.00000000000E+00  0.50172488895E+03  0.50172488898E+03  0.50400001928E-02 0. -1.
       -1   -1    0    0    0  501  0.00000000000E+00  0.00000000000E+00 -0.60923961601E+03  0.60923961603E+03  0.50400001928E-02 0.  1.
    10030    2    1    2    0    0  0.00000000000E+00  0.00000000000E+00 -0.10751472706E+03  0.11109645050E+04  0.11057498428E+04 0.  0.
        3    1    3    3  502    0 -0.75976860250E+02 -0.24709374782E+03  0.43726292064E+03  0.50796326194E+03  0.10100000352E+00 0. -1.
       -3    1    3    3    0  502  0.75976860250E+02  0.24709374782E+03 -0.54477764770E+03  0.60300124307E+03  0.10100000352E+00 0.  1.
</event>
<event>
 5   0  0.8150924E-04  0.1099136E+04  0.7818609E-02  0.9206034E-01
       -1   -1    0    0    0  501  0.00000000000E+00  0.00000000000E+00  0.78851637180E+03  0.78851637181E+03  0.50400001928E-02 0.  1.
        1   -1    0    0  501    0  0.00000000000E+00  0.00000000000E+00 -0.38302978295E+03  0.38302978298E+03  0.50400001928E-02 0. -1.
    10030    2    1    2    0    0  0.00000000000E+00  0.00000000000E+00  0.40548658885E+03  0.11715461548E+04  0.10991364879E+04 0.  0.
        3    1    3    3  502    0  0.44183813113E+03  0.61770735227E+02 -0.13931689957E+03  0.46738182095E+03  0.10100000352E+00 0. -1.
       -3    1    3    3    0  502 -0.44183813113E+03 -0.61770735227E+02  0.54480348842E+03  0.70416433384E+03  0.10100000352E+00 0.  1.
</event>
<event>
 5   0  0.1429680E-03  0.1103248E+04  0.7818609E-02  0.9202032E-01
        2   -1    0    0  501    0  0.00000000000E+00  0.00000000000E+00  0.12644804822E+04  0.12644804822E+04  0.25500000920E-02 0. -1.
       -2   -1    0    0    0  501  0.00000000000E+00  0.00000000000E+00 -0.24064334256E+03  0.24064334258E+03  0.25500000920E-02 0.  1.
    10030    2    1    2    0    0  0.00000000000E+00  0.00000000000E+00  0.10238371397E+04  0.15051238248E+04  0.11032475876E+04 0.  0.
        3    1    3    3  502    0  0.35494579672E+03  0.37377633458E+03  0.24390516799E+03  0.57024995227E+03  0.10100000352E+00 0.  1.
       -3    1    3    3    0  502 -0.35494579672E+03 -0.37377633458E+03  0.77993197169E+03  0.93487387254E+03  0.10100000352E+00 0. -1.
</event>
<event>
 5   0  0.1402775E-03  0.1095952E+04  0.7818609E-02  0.9209146E-01
       -2   -1    0    0    0  501  0.00000000000E+00  0.00000000000E+00  0.36435324391E+03  0.36435324392E+03  0.25500000920E-02 0.  1.
        2   -1    0    0  501    0  0.00000000000E+00  0.00000000000E+00 -0.82413915955E+03  0.82413915955E+03  0.25500000920E-02 0. -1.
    10030    2    1    2    0    0  0.00000000000E+00  0.00000000000E+00 -0.45978591564E+03  0.11884924035E+04  0.10959521453E+04 0.  0.
        5    1    3    3  502    0 -0.30588850819E+03 -0.13920143489E+03  0.23944567774E+03  0.41267558869E+03  0.46999998093E+01 0.  1.
       -5    1    3    3    0  502  0.30588850819E+03  0.13920143489E+03 -0.69923159338E+03  0.77581681478E+03  0.46999998093E+01 0. -1.
</event>
<event>
 5   0  0.8305271E-04  0.1151702E+04  0.7818609E-02  0.9156215E-01
       -1   -1    0    0    0  501  0.00000000000E+00  0.00000000000E+00  0.29031594168E+03  0.29031594172E+03  0.50400001928E-02 0. -1.
        1   -1    0    0  501    0  0.00000000000E+00  0.00000000000E+00 -0.11422185646E+04  0.11422185646E+04  0.50400001928E-02 0.  1.
    10030    2    1    2    0    0  0.00000000000E+00  0.00000000000E+00 -0.85190262294E+03  0.14325345064E+04  0.11517017986E+04 0.  0.
        5    1    3    3  502    0 -0.53515376852E+03 -0.85190545497E+02 -0.66821378094E+03  0.86033640632E+03  0.46999998093E+01 0.  1.
       -5    1    3    3    0  502  0.53515376852E+03  0.85190545497E+02 -0.18368884200E+03  0.57219810003E+03  0.46999998093E+01 0. -1.
</event>
<event>
 5   0  0.8341767E-04  0.1101409E+04  0.7818609E-02  0.9203819E-01
        1   -1    0    0  501    0  0.00000000000E+00  0.00000000000E+00  0.15619294675E+04  0.15619294676E+04  0.50400001928E-02 0. -1.
       -1   -1    0    0    0  501  0.00000000000E+00  0.00000000000E+00 -0.19416727501E+03  0.19416727508E+03  0.50400001928E-02 0.  1.
    10030    2    1    2    0    0  0.00000000000E+00  0.00000000000E+00  0.13677621925E+04  0.17560967426E+04  0.11014092582E+04 0.  0.
        2    1    3    3  502    0 -0.10098076606E+03  0.23120498167E+02  0.15462542930E+04  0.15497206236E+04  0.25500000920E-02 0. -1.
       -2    1    3    3    0  502  0.10098076606E+03 -0.23120498167E+02 -0.17849210050E+03  0.20637611901E+03  0.25500000920E-02 0.  1.
</event>
<event>
 5   0  0.1372794E-03  0.1103964E+04  0.7818609E-02  0.9201337E-01
       -2   -1    0    0    0  501  0.00000000000E+00  0.00000000000E+00  0.53133826563E+03  0.53133826564E+03  0.25500000920E-02 0. -1.
        2   -1    0    0  501    0  0.00000000000E+00  0.00000000000E+00 -0.57342815345E+03  0.57342815345E+03  0.25500000920E-02 0.  1.
    10030    2    1    2    0    0  0.00000000000E+00  0.00000000000E+00 -0.42089887815E+02  0.11047664191E+04  0.11039643482E+04 0.  0.
        4    1    3    3  502    0  0.26003493581E+03  0.43856258005E+03  0.19059725179E+03  0.54431997001E+03  0.12699999809E+01 0.  1.
       -4    1    3    3    0  502 -0.26003493581E+03 -0.43856258005E+03 -0.23268713961E+03  0.56044644909E+03  0.12699999809E+01 0. -1.
</event>
<event>
 5   0  0.1402775E-03  0.1101321E+04  0.7818609E-02  0.9203905E-01
        2   -1    0    0  501    0  0.00000000000E+00  0.00000000000E+00  0.13796616160E+04  0.13796616160E+04  0.25500000920E-02 0. -1.
       -2   -1    0    0    0  501  0.00000000000E+00  0.00000000000E+00 -0.21978350742E+03  0.21978350744E+03  0.25500000920E-02 0.  1.
    10030    2    1    2    0    0  0.00000000000E+00  0.00000000000E+00  0.11598781086E+04  0.15994451234E+04  0.11013207871E+04 0.  0.
        5    1    3    3  502    0 -0.10376057939E+03 -0.10280425301E+03  0.13509841631E+04  0.13588654353E+04  0.46999998093E+01 0. -1.
       -5    1    3    3    0  502  0.10376057939E+03  0.10280425301E+03 -0.19110605453E+03  0.24057968814E+03  0.46999998093E+01 0.  1.
</event>
<event>
 5   0  0.8009636E-04  0.1083009E+04  0.7818609E-02  0.9221913E-01
       -1   -1    0    0    0  501  0.00000000000E+00  0.00000000000E+00  0.44203568202E+03  0.44203568205E+03  0.50400001928E-02 0. -1.
        1   -1    0    0  501    0  0.00000000000E+00  0.00000000000E+00 -0.66335581155E+03  0.66335581157E+03  0.50400001928E-02 0.  1.
    10030    2    1    2    0    0  0.00000000000E+00  0.00000000000E+00 -0.22132012952E+03  0.11053914936E+04  0.10830086585E+04 0.  0.
        1    1    3    3  502    0 -0.43112667157E+03  0.18289855579E+03  0.16681289017E+03  0.49714045198E+03  0.50400001928E-02 0. -1.
       -1    1    3    3    0  502  0.43112667157E+03 -0.18289855579E+03 -0.38813301969E+03  0.60825104163E+03  0.50400001928E-02 0.  1.
</event>
<event>
 5   0  0.1396936E-03  0.1099354E+04  0.7818609E-02  0.9205822E-01
       -2   -1    0    0    0  501  0.00000000000E+00  0.00000000000E+00  0.30004104183E+03  0.30004104184E+03  0.25500000920E-02 0.  1.
        2   -1    0    0  501    0  0.00000000000E+00  0.00000000000E+00 -0.10070118945E+04  0.10070118945E+04  0.25500000920E-02 0. -1.
    10030    2    1    2    0    0  0.00000000000E+00  0.00000000000E+00 -0.70697085267E+03  0.13070529363E+04  0.10993541703E+04 0.  0.
        2    1    3    3  502    0 -0.38215711801E+03  0.24673321895E+03 -0.72036855557E+03  0.85196960042E+03  0.25500000920E-02 0. -1.
       -2    1    3    3    0  502  0.38215711801E+03 -0.24673321895E+03  0.13397702896E+02  0.45508333592E+03  0.25500000920E-02 0.  1.
</event>
<event>
 5   0  0.8341767E-04  0.1099900E+04  0.7818609E-02  0.9205289E-01
       -1   -1    0    0    0  501  0.00000000000E+00  0.00000000000E+00  0.48480859981E+03  0.48480859984E+03  0.50400001928E-02 0. -1.
        1   -1    0    0  501    0  0.00000000000E+00  0.00000000000E+00 -0.62384470010E+03  0.62384470012E+03  0.50400001928E-02 0.  1.
    10030    2    1    2    0    0  0.00000000000E+00  0.00000000000E+00 -0.13903610029E+03  0.11086533000E+04  0.10999004966E+04 0.  0.
        2    1    3    3  502    0 -0.34920176819E+03 -0.12285475008E+03  0.34042486258E+03  0.50291574999E+03  0.25500000920E-02 0. -1.
       -2    1    3    3    0  502  0.34920176819E+03  0.12285475008E+03 -0.47946096287E+03  0.60573754997E+03  0.25500000920E-02 0.  1.
</event>
<event>
 5   0  0.1425432E-03  0.1103266E+04  0.7818609E-02  0.9202015E-01
        2   -1    0    0  501    0  0.00000000000E+00  0.00000000000E+00  0.59232560863E+03  0.59232560864E+03  0.25500000920E-02 0. -1.
       -2   -1    0    0    0  501  0.00000000000E+00  0.00000000000E+00 -0.51373556230E+03  0.51373556231E+03  0.25500000920E-02 0.  1.
    10030    2    1    2    0    0  0.00000000000E+00  0.00000000000E+00  0.78590046332E+02  0.11060611709E+04  0.11032655702E+04 0.  0.
        1    1    3    3  502    0  0.21375023822E+03  0.13346063831E+03  0.53125000114E+03  0.58798594375E+03  0.50400001928E-02 0. -1.
       -1    1    3    3    0  502 -0.21375023822E+03 -0.13346063831E+03 -0.45265995481E+03  0.51807522719E+03  0.50400001928E-02 0.  1.
</event>
<event>
 5   0  0.8150924E-04  0.1105261E+04  0.7818609E-02  0.9200080E-01
       -1   -1    0    0    0  501  0.00000000000E+00  0.00000000000E+00  0.27302533360E+03  0.27302533364E+03  0.50400001928E-02 0.  1.
        1   -1    0    0  501    0  0.00000000000E+00  0.00000000000E+00 -0.11185786181E+04  0.11185786181E+04  0.50400001928E-02 0. -1.
    10030    2    1    2    0    0  0.00000000000E+00  0.00000000000E+00 -0.84555328447E+03  0.13916039517E+04  0.11052606939E+04 0.  0.
        3    1    3    3  502    0  0.19117776422E+03  0.45557762289E+03 -0.73450945542E+03  0.88521413134E+03  0.10100000352E+00 0. -1.
       -3    1    3    3    0  502 -0.19117776422E+03 -0.45557762289E+03 -0.11104382904E+03  0.50638982038E+03  0.10100000352E+00 0.  1.
</event>
<event>
 5   0  0.8150924E-04  0.1102158E+04  0.7818609E-02  0.9203091E-01
       -1   -1    0    0    0  501  0.00000000000E+00  0.00000000000E+00  0.37850747048E+03  0.37850747051E+03  0.50400001928E-02 0.  1.
        1   -1    0    0  501    0  0.00000000000E+00  0.00000000000E+00 -0.80233015982E+03  0.80233015983E+03  0.50400001928E-02 0. -1.
    10030    2    1    2    0    0  0.00000000000E+00  0.00000000000E+00 -0.42382268934E+03  0.11808376303E+04  0.11021578096E+04 0.  0.
        3    1    3    3  502    0  0.20593253370E+03 -0.14263794044E+03  0.31397947641E+03  0.40166766399E+03  0.10100000352E+00 0.  1.
       -3    1    3    3    0  502 -0.20593253370E+03  0.14263794044E+03 -0.73780216575E+03  0.77916996635E+03  0.10100000352E+00 0. -1.
</event>
<event>
 5   0  0.1372794E-03  0.1100903E+04  0.7818609E-02  0.9204312E-01
       -2   -1    0    0    0  501  0.00000000000E+00  0.00000000000E+00  0.28537648728E+03  0.28537648729E+03  0.25500000920E-02 0.  1.
        2   -1    0    0  501    0  0.00000000000E+00  0.00000000000E+00 -0.10617452336E+04  0.10617452336E+04  0.25500000920E-02 0. -1.
    10030    2    1    2    0    0  0.00000000000E+00  0.00000000000E+00 -0.77636874631E+03  0.13471217209E+04  0.11009034929E+04 0.  0.
        4    1    3    3  502    0 -0.25831550892E+03 -0.36612169673E+03  0.30463844408E+01  0.44808804081E+03  0.12699999809E+01 0.  1.
       -4    1    3    3    0  502  0.25831550892E+03  0.36612169673E+03 -0.77941513076E+03  0.89903368008E+03  0.12699999809E+01 0. -1.
</event>
<event>
 5   0  0.1425432E-03  0.1100820E+04  0.7818609E-02  0.9204393E-01
        2   -1    0    0  501    0  0.00000000000E+00  0.00000000000E+00  0.95124873281E+03  0.95124873282E+03  0.25500000920E-02 0.  1.
       -2   -1    0    0    0  501  0.00000000000E+00  0.00000000000E+00 -0.31847737472E+03  0.31847737473E+03  0.25500000920E-02 0. -1.
    10030    2    1    2    0    0  0.00000000000E+00  0.00000000000E+00  0.63277135809E+03  0.12697261075E+04  0.11008200564E+04 0.  0.
        1    1    3    3  502    0  0.60468253656E+02 -0.46282700541E+03 -0.20065959956E+02  0.46719149116E+03  0.50400001928E-02 0. -1.
       -1    1    3    3    0  502 -0.60468253656E+02  0.46282700541E+03  0.65283731805E+03  0.80253461639E+03  0.50400001928E-02 0.  1.
</event>
<event>
 5   0  0.5409500E-04  0.1153822E+04  0.7818609E-02  0.9154264E-01
       -4   -1    0    0    0  501  0.00000000000E+00  0.00000000000E+00  0.30435828818E+03  0.30436093785E+03  0.12699999809E+01 0.  1.
        4   -1    0    0  501    0  0.00000000000E+00  0.00000000000E+00 -0.10935275734E+04  0.10935283109E+04  0.12699999809E+01 0. -1.
    10030    2    1    2    0    0  0.00000000000E+00  0.00000000000E+00 -0.78916928523E+03  0.13978892487E+04  0.11538224261E+04 0.  0.
        4    1    3    3  502    0 -0.32908030601E+03  0.40160711277E+02  0.17742922389E+03  0.37601791570E+03  0.12699999809E+01 0.  1.
       -4    1    3    3    0  502  0.32908030601E+03 -0.40160711277E+02 -0.96659850912E+03  0.10218713330E+04  0.12699999809E+01 0. -1.
</event>
<event>
 5   0  0.7946038E-04  0.1099601E+04  0.7818609E-02  0.9205581E-01
       -1   -1    0    0    0  501  0.00000000000E+00  0.00000000000E+00  0.41582439753E+03  0.41582439757E+03  0.50400001928E-02 0.  1.
        1   -1    0    0  501    0  0.00000000000E+00  0.00000000000E+00 -0.72694265516E+03  0.72694265518E+03  0.50400001928E-02 0. -1.
    10030    2    1    2    0    0  0.00000000000E+00  0.00000000000E+00 -0.31111825762E+03  0.11427670527E+04  0.10996008215E+04 0.  0.
        4    1    3    3  502    0 -0.35858318428E+03 -0.27396601711E+03  0.17083948576E+03  0.48252152426E+03  0.12699999809E+01 0.  1.
       -4    1    3    3    0  502  0.35858318428E+03  0.27396601711E+03 -0.48195774338E+03  0.66024552848E+03  0.12699999809E+01 0. -1.
</event>
<event>
 5   0  0.8305271E-04  0.1106897E+04  0.7818609E-02  0.9198496E-01
       -1   -1    0    0    0  501  0.00000000000E+00  0.00000000000E+00  0.38405970461E+03  0.38405970465E+03  0.50400001928E-02 0.  1.
        1   -1    0    0  501    0  0.00000000000E+00  0.00000000000E+00 -0.79754580429E+03  0.79754580431E+03  0.50400001928E-02 0. -1.
    10030    2    1    2    0    0  0.00000000000E+00  0.00000000000E+00 -0.41348609968E+03  0.11816055090E+04  0.11068969348E+04 0.  0.
        5    1    3    3  502    0  0.33839817881E+03 -0.27586447650E+03  0.15631245226E+03  0.46375662750E+03  0.46999998093E+01 0.  1.
       -5    1    3    3    0  502 -0.33839817881E+03  0.27586447650E+03 -0.56979855194E+03  0.71784888146E+03  0.46999998093E+01 0. -1.
</event>
<event>
 5   0  0.1396936E-03  0.1099539E+04  0.7818609E-02  0.9205641E-01
       -2   -1    0    0    0  501  0.00000000000E+00  0.00000000000E+00  0.49785848516E+03  0.49785848517E+03  0.25500000920E-02 0. -1.
        2   -1    0    0  501    0  0.00000000000E+00  0.00000000000E+00 -0.60709328181E+03  0.60709328182E+03  0.25500000920E-02 0.  1.
    10030    2    1    2    0    0  0.00000000000E+00  0.00000000000E+00 -0.10923479665E+03  0.11049517670E+04  0.10995390701E+04 0.  0.
        2    1    3    3  502    0 -0.41829424457E+03  0.30436123968E+03 -0.24165374007E+03  0.57096617182E+03  0.25500000920E-02 0.  1.
       -2    1    3    3    0  502  0.41829424457E+03 -0.30436123968E+03  0.13241894342E+03  0.53398559517E+03  0.25500000920E-02 0. -1.
</event>
<event>
 5   0  0.7946038E-04  0.1110900E+04  0.7818609E-02  0.9194633E-01
        1   -1    0    0  501    0  0.00000000000E+00  0.00000000000E+00  0.21870359747E+03  0.21870359753E+03  0.50400001928E-02 0. -1.
       -1   -1    0    0    0  501  0.00000000000E+00  0.00000000000E+00 -0.14106969567E+04  0.14106969567E+04  0.50400001928E-02 0.  1.
    10030    2    1    2    0    0  0.00000000000E+00  0.00000000000E+00 -0.11919933593E+04  0.16294005543E+04  0.11108996344E+04 0.  0.
        4    1    3    3  502    0  0.35729834088E+03 -0.22027069391E+03 -0.62414603952E+02  0.42435654664E+03  0.12699999809E+01 0. -1.
       -4    1    3    3    0  502 -0.35729834088E+03  0.22027069391E+03 -0.11295787553E+04  0.12050440076E+04  0.12699999809E+01 0.  1.
</event>
<event>
 5   0  0.1402775E-03  0.1099457E+04  0.7818609E-02  0.9205722E-01
       -2   -1    0    0    0  501  0.00000000000E+00  0.00000000000E+00  0.50600643829E+03  0.50600643830E+03  0.25500000920E-02 0. -1.
        2   -1    0    0  501    0  0.00000000000E+00  0.00000000000E+00 -0.59722796806E+03  0.59722796807E+03  0.25500000920E-02 0.  1.
    10030    2    1    2    0    0  0.00000000000E+00  0.00000000000E+00 -0.91221529766E+02  0.11032344064E+04  0.10994565875E+04 0.  0.
        5    1    3    3  502    0  0.25651388195E+03  0.45976583499E+03 -0.20425242947E+03  0.56473457447E+03  0.46999998093E+01 0.  1.
       -5    1    3    3    0  502 -0.25651388195E+03 -0.45976583499E+03  0.11303089971E+03  0.53849983189E+03  0.46999998093E+01 0. -1.
</event>
<event>
 5   0  0.8305271E-04  0.1100717E+04  0.7818609E-02  0.9204493E-01
        1   -1    0    0  501    0  0.00000000000E+00  0.00000000000E+00  0.10175376386E+04  0.10175376387E+04  0.50400001928E-02 0. -1.
       -1   -1    0    0    0  501  0.00000000000E+00  0.00000000000E+00 -0.29767419334E+03  0.29767419339E+03  0.50400001928E-02 0.  1.
    10030    2    1    2    0    0  0.00000000000E+00  0.00000000000E+00  0.71986344530E+03  0.13152118320E+04  0.11007173948E+04 0.  0.
        5    1    3    3  502    0  0.23609240593E+03 -0.22726098685E+03  0.88822741497E+03  0.94676143299E+03  0.46999998093E+01 0. -1.
       -5    1    3    3    0  502 -0.23609240593E+03  0.22726098685E+03 -0.16836396967E+03  0.36845039906E+03  0.46999998093E+01 0.  1.
</event>
<event>
 5   0  0.8009636E-04  0.1107425E+04  0.7818609E-02  0.9197985E-01
       -1   -1    0    0    0  501  0.00000000000E+00  0.00000000000E+00  0.49371937013E+03  0.49371937015E+03  0.50400001928E-02 0. -1.
        1   -1    0    0  501    0  0.00000000000E+00  0.00000000000E+00 -0.62099512409E+03  0.62099512411E+03  0.50400001928E-02 0.  1.
    10030    2    1    2    0    0  0.00000000000E+00  0.00000000000E+00 -0.12727575397E+03  0.11147144943E+04  0.11074246187E+04 0.  0.
        1    1    3    3  502    0  0.34174815128E+03  0.36347532898E+03  0.17813316933E+03  0.52975233810E+03  0.50400001928E-02 0. -1.
       -1    1    3    3    0  502 -0.34174815128E+03 -0.36347532898E+03 -0.30540892330E+03  0.58496215616E+03  0.50400001928E-02 0.  1.
</event>
<event>
 5   0  0.1396936E-03  0.1101376E+04  0.7818609E-02  0.9203852E-01
       -2   -1    0    0    0  501  0.00000000000E+00  0.00000000000E+00  0.22438302645E+03  0.22438302646E+03  0.25500000920E-02 0.  1.
        2   -1    0    0  501    0  0.00000000000E+00  0.00000000000E+00 -0.13515155763E+04  0.13515155763E+04  0.25500000920E-02 0. -1.
    10030    2    1    2    0    0  0.00000000000E+00  0.00000000000E+00 -0.11271325499E+04  0.15758986028E+04  0.11013757857E+04 0.  0.
        2    1    3    3  502    0 -0.48003744719E+03  0.13736465997E+03 -0.89591739272E+03  0.10256573381E+04  0.25500000920E-02 0. -1.
       -2    1    3    3    0  502  0.48003744719E+03 -0.13736465997E+03 -0.23121515716E+03  0.55024126474E+03  0.25500000920E-02 0.  1.
</event>
<event>
 5   0  0.8305271E-04  0.1099514E+04  0.7818609E-02  0.9205666E-01
        1   -1    0    0  501    0  0.00000000000E+00  0.00000000000E+00  0.22135599255E+04  0.22135599256E+04  0.50400001928E-02 0.  1.
       -1   -1    0    0    0  501  0.00000000000E+00  0.00000000000E+00 -0.13653684901E+03  0.13653684911E+03  0.50400001928E-02 0. -1.
    10030    2    1    2    0    0  0.00000000000E+00  0.00000000000E+00  0.20770230765E+04  0.23500967747E+04  0.10995135242E+04 0.  0.
        5    1    3    3  502    0 -0.44790285440E+03  0.25537578280E+03  0.14461700567E+04  0.15353382951E+04  0.46999998093E+01 0.  1.
       -5    1    3    3    0  502  0.44790285440E+03 -0.25537578280E+03  0.63085301984E+03  0.81475847959E+03  0.46999998093E+01 0. -1.
</event>
<event>
 5   0  0.1425432E-03  0.1099719E+04  0.7818609E-02  0.9205466E-01
       -2   -1    0    0    0  501  0.00000000000E+00  0.00000000000E+00  0.71613190241E+03  0.71613190242E+03  0.25500000920E-02 0.  1.
        2   -1    0    0  501    0  0.00000000000E+00  0.00000000000E+00 -0.42219264573E+03  0.42219264573E+03  0.25500000920E-02 0. -1.
    10030    2    1    2    0    0  0.00000000000E+00  0.00000000000E+00  0.29393925668E+03  0.11383245481E+04  0.10997192780E+04 0.  0.
        1    1    3    3  502    0 -0.86904583591E+02 -0.13580644095E+03  0.69111364922E+03  0.70967166508E+03  0.50400001928E-02 0.  1.
       -1    1    3    3    0  502  0.86904583591E+02  0.13580644095E+03 -0.39717439254E+03  0.42865288307E+03  0.50400001928E-02 0. -1.
</event>
<event>
 5   0  0.8009636E-04  0.1096354E+04  0.7818609E-02  0.9208753E-01
       -1   -1    0    0    0  501  0.00000000000E+00  0.00000000000E+00  0.42303414497E+03  0.42303414500E+03  0.50400001928E-02 0. -1.
        1   -1    0    0  501    0  0.00000000000E+00  0.00000000000E+00 -0.71034009446E+03  0.71034009448E+03  0.50400001928E-02 0.  1.
    10030    2    1    2    0    0  0.00000000000E+00  0.00000000000E+00 -0.28730594949E+03  0.11333742395E+04  0.10963541664E+04 0.  0.
        1    1    3    3  502    0 -0.49227117262E+03  0.10980749509E+03  0.78329031353E+02  0.51041554693E+03  0.50400001928E-02 0. -1.
       -1    1    3    3    0  502  0.49227117262E+03 -0.10980749509E+03 -0.36563498084E+03  0.62295869254E+03  0.50400001928E-02 0.  1.
</event>
<event>
 5   0  0.8341767E-04  0.1136641E+04  0.7818609E-02  0.9170197E-01
        1   -1    0    0  501    0  0.00000000000E+00  0.00000000000E+00  0.20197921510E+04  0.20197921510E+04  0.50400001928E-02 0.  1.
       -1   -1    0    0    0  501  0.00000000000E+00  0.00000000000E+00 -0.15991167432E+03  0.15991167440E+03  0.50400001928E-02 0. -1.
    10030    2    1    2    0    0  0.00000000000E+00  0.00000000000E+00  0.18598804767E+04  0.21797038254E+04  0.11366412710E+04 0.  0.
        2    1    3    3  502    0  0.34327228889E+03  0.63266879706E+02  0.69870140371E+02  0.35597808768E+03  0.25500000920E-02 0. -1.
       -2    1    3    3    0  502 -0.34327228889E+03 -0.63266879706E+02  0.17900103363E+04  0.18237257377E+04  0.25500000920E-02 0.  1.
</event>
<event>
 5   0  0.1372794E-03  0.1102492E+04  0.7818609E-02  0.9202766E-01
       -2   -1    0    0    0  501  0.00000000000E+00  0.00000000000E+00  0.50545540511E+03  0.50545540512E+03  0.25500000920E-02 0.  1.
        2   -1    0    0  501    0  0.00000000000E+00  0.00000000000E+00 -0.60118505625E+03  0.60118505626E+03  0.25500000920E-02 0. -1.
    10030    2    1    2    0    0  0.00000000000E+00  0.00000000000E+00 -0.95729651139E+02  0.11066404614E+04  0.11024921517E+04 0.  0.
        4    1    3    3  502    0  0.11244688543E+03 -0.43950744394E+03 -0.36218766394E+03  0.58051064773E+03  0.12699999809E+01 0. -1.
       -4    1    3    3    0  502 -0.11244688543E+03  0.43950744394E+03  0.26645801280E+03  0.52612981365E+03  0.12699999809E+01 0.  1.
</event>
<event>
 5   0  0.1396936E-03  0.1102030E+04  0.7818609E-02  0.9203215E-01
       -2   -1    0    0    0  501  0.00000000000E+00  0.00000000000E+00  0.24249072290E+03  0.24249072291E+03  0.25500000920E-02 0. -1.
        2   -1    0    0  501    0  0.00000000000E+00  0.00000000000E+00 -0.12520795502E+04  0.12520795502E+04  0.25500000920E-02 0.  1.
    10030    2    1    2    0    0  0.00000000000E+00  0.00000000000E+00 -0.10095888273E+04  0.14945702731E+04  0.11020302632E+04 0.  0.
        2    1    3    3  502    0 -0.12446146282E+03  0.19410613407E+03  0.17391392976E+03  0.28881464987E+03  0.25500000920E-02 0. -1.
       -2    1    3    3    0  502  0.12446146282E+03 -0.19410613407E+03 -0.11835027570E+04  0.12057556232E+04  0.25500000920E-02 0.  1.
</event>
<event>
 5   0  0.1372794E-03  0.1114677E+04  0.7818609E-02  0.9191004E-01
        2   -1    0    0  501    0  0.00000000000E+00  0.00000000000E+00  0.77643799476E+03  0.77643799476E+03  0.25500000920E-02 0. -1.
       -2   -1    0    0    0  501  0.00000000000E+00  0.00000000000E+00 -0.40006536476E+03  0.40006536477E+03  0.25500000920E-02 0.  1.
    10030    2    1    2    0    0  0.00000000000E+00  0.00000000000E+00  0.37637263000E+03  0.11765033595E+04  0.11146765443E+04 0.  0.
        4    1    3    3  502    0  0.83045676521E+02 -0.47015472429E+03  0.49168062339E+03  0.68534188364E+03  0.12699999809E+01 0. -1.
       -4    1    3    3    0  502 -0.83045676521E+02  0.47015472429E+03 -0.11530799339E+03  0.49116147589E+03  0.12699999809E+01 0.  1.
</event>
<event>
 5   0  0.8341767E-04  0.1087434E+04  0.7818609E-02  0.9217527E-01
       -1   -1    0    0    0  501  0.00000000000E+00  0.00000000000E+00  0.14567764140E+04  0.14567764140E+04  0.50400001928E-02 0.  1.
        1   -1    0    0  501    0  0.00000000000E+00  0.00000000000E+00 -0.20293294704E+03  0.20293294710E+03  0.50400001928E-02 0. -1.
    10030    2    1    2    0    0  0.00000000000E+00  0.00000000000E+00  0.12538434669E+04  0.16597093611E+04  0.10874335491E+04 0.  0.
        2    1    3    3  502    0  0.25176016642E+03  0.20203167522E+03  0.12946995568E+04  0.13343338868E+04  0.25500000920E-02 0.  1.
       -2    1    3    3    0  502 -0.25176016642E+03 -0.20203167522E+03 -0.40856089817E+02  0.32537547429E+03  0.25500000920E-02 0. -1.
</event>
<event>
 5   0  0.1425432E-03  0.1100298E+04  0.7818609E-02  0.9204902E-01
       -2   -1    0    0    0  501  0.00000000000E+00  0.00000000000E+00  0.28348660158E+03  0.28348660159E+03  0.25500000920E-02 0. -1.
        2   -1    0    0  501    0  0.00000000000E+00  0.00000000000E+00 -0.10676474039E+04  0.10676474039E+04  0.25500000920E-02 0.  1.
    10030    2    1    2    0    0  0.00000000000E+00  0.00000000000E+00 -0.78416080234E+03  0.13511340055E+04  0.11002976583E+04 0.  0.
        1    1    3    3  502    0 -0.34295214186E+03  0.26426020131E+03  0.24732418511E+02  0.43366037190E+03  0.50400001928E-02 0. -1.
       -1    1    3    3    0  502  0.34295214186E+03 -0.26426020131E+03 -0.80889322086E+03  0.91747363361E+03  0.50400001928E-02 0.  1.
</event>
<event>
 5   0  0.7946038E-04  0.1096058E+04  0.7818609E-02  0.9209042E-01
        1   -1    0    0  501    0  0.00000000000E+00  0.00000000000E+00  0.66882457865E+03  0.66882457867E+03  0.50400001928E-02 0. -1.
       -1   -1    0    0    0  501  0.00000000000E+00  0.00000000000E+00 -0.44905044492E+03  0.44905044495E+03  0.50400001928E-02 0.  1.
    10030    2    1    2    0    0  0.00000000000E+00  0.00000000000E+00  0.21977413373E+03  0.11178750236E+04  0.10960583463E+04 0.  0.
        4    1    3    3  502    0  0.18953568585E+03 -0.18006431572E+03  0.60112489680E+03  0.65551482703E+03  0.12699999809E+01 0. -1.
       -4    1    3    3    0  502 -0.18953568585E+03  0.18006431572E+03 -0.38135076306E+03  0.46236019660E+03  0.12699999809E+01 0.  1.
</event>
<event>
 5   0  0.8341767E-04  0.1086356E+04  0.7818609E-02  0.9218593E-01
       -1   -1    0    0    0  501  0.00000000000E+00  0.00000000000E+00  0.36260242800E+03  0.36260242804E+03  0.50400001928E-02 0. -1.
        1   -1    0    0  501    0  0.00000000000E+00  0.00000000000E+00 -0.81368001379E+03  0.81368001380E+03  0.50400001928E-02 0.  1.
    10030    2    1    2    0    0  0.00000000000E+00  0.00000000000E+00 -0.45107758578E+03  0.11762824418E+04  0.10863560165E+04 0.  0.
        2    1    3    3  502    0 -0.42682447064E+03 -0.23495050469E+03 -0.48554417267E+03  0.68784737552E+03  0.25500000920E-02 0.  1.
       -2    1    3    3    0  502  0.42682447064E+03  0.23495050469E+03  0.34466586889E+02  0.48843506632E+03  0.25500000920E-02 0. -1.
</event>
<event>
 5   0  0.8009636E-04  0.1086066E+04  0.7818609E-02  0.9218880E-01
        1   -1    0    0  501    0  0.00000000000E+00  0.00000000000E+00  0.85164037839E+03  0.85164037841E+03  0.50400001928E-02 0.  1.
       -1   -1    0    0    0  501  0.00000000000E+00  0.00000000000E+00 -0.34625539192E+03  0.34625539196E+03  0.50400001928E-02 0. -1.
    10030    2    1    2    0    0  0.00000000000E+00  0.00000000000E+00  0.50538498647E+03  0.11978957704E+04  0.10860664308E+04 0.  0.
        1    1    3    3  502    0  0.19067633936E+03 -0.77119362286E+02  0.80701473114E+03  0.83281308751E+03  0.50400001928E-02 0.  1.
       -1    1    3    3    0  502 -0.19067633936E+03  0.77119362286E+02 -0.30162974466E+03  0.36508268286E+03  0.50400001928E-02 0. -1.
</event>
<event>
 5   0  0.1425432E-03  0.1104131E+04  0.7818609E-02  0.9201175E-01
        2   -1    0    0  501    0  0.00000000000E+00  0.00000000000E+00  0.85006738198E+03  0.85006738198E+03  0.25500000920E-02 0.  1.
       -2   -1    0    0    0  501  0.00000000000E+00  0.00000000000E+00 -0.35853182327E+03  0.35853182328E+03  0.25500000920E-02 0. -1.
    10030    2    1    2    0    0  0.00000000000E+00  0.00000000000E+00  0.49153555870E+03  0.12085992053E+04  0.11041308045E+04 0.  0.
        1    1    3    3  502    0 -0.34556722337E+03  0.42098473196E+03  0.34447372581E+03  0.64444316911E+03  0.50400001928E-02 0.  1.
       -1    1    3    3    0  502  0.34556722337E+03 -0.42098473196E+03  0.14706183289E+03  0.56415603615E+03  0.50400001928E-02 0. -1.
</event>
<event>
 5   0  0.8150924E-04  0.1046221E+04  0.7818609E-02  0.9259254E-01
       -1   -1    0    0    0  501  0.00000000000E+00  0.00000000000E+00  0.40088170796E+03  0.40088170799E+03  0.50400001928E-02 0. -1.
        1   -1    0    0  501    0  0.00000000000E+00  0.00000000000E+00 -0.68260689340E+03  0.68260689342E+03  0.50400001928E-02 0.  1.
    10030    2    1    2    0    0  0.00000000000E+00  0.00000000000E+00 -0.28172518544E+03  0.10834886014E+04  0.10462210423E+04 0.  0.
        3    1    3    3  502    0  0.34479064859E+02  0.10159640218E+03 -0.67109046152E+03  0.67961242822E+03  0.10100000352E+00 0.  1.
       -3    1    3    3    0  502 -0.34479064859E+02 -0.10159640218E+03  0.38936527608E+03  0.40387617318E+03  0.10100000352E+00 0. -1.
</event>
<event>
 5   0  0.8305271E-04  0.1098011E+04  0.7818609E-02  0.9207133E-01
        1   -1    0    0  501    0  0.00000000000E+00  0.00000000000E+00  0.17168251946E+04  0.17168251946E+04  0.50400001928E-02 0. -1.
       -1   -1    0    0    0  501  0.00000000000E+00  0.00000000000E+00 -0.17556062192E+03  0.17556062199E+03  0.50400001928E-02 0.  1.
    10030    2    1    2    0    0  0.00000000000E+00  0.00000000000E+00  0.15412645727E+04  0.18923858166E+04  0.10980107449E+04 0.  0.
        5    1    3    3  502    0 -0.12388735141E+03 -0.46965060810E+03  0.12116010340E+04  0.13053424551E+04  0.46999998093E+01 0. -1.
       -5    1    3    3    0  502  0.12388735141E+03  0.46965060810E+03  0.32966353868E+03  0.58704336148E+03  0.46999998093E+01 0.  1.
</event>
<event>
 5   0  0.8150924E-04  0.1101136E+04  0.7818609E-02  0.9204085E-01
        1   -1    0    0  501    0  0.00000000000E+00  0.00000000000E+00  0.90336610219E+03  0.90336610221E+03  0.50400001928E-02 0. -1.
       -1   -1    0    0    0  501  0.00000000000E+00  0.00000000000E+00 -0.33555066423E+03  0.33555066427E+03  0.50400001928E-02 0.  1.
    10030    2    1    2    0    0  0.00000000000E+00  0.00000000000E+00  0.56781543796E+03  0.12389167665E+04  0.11011359510E+04 0.  0.
        3    1    3    3  502    0  0.53657006215E+02 -0.10232433177E+03  0.88957233433E+03  0.89704419701E+03  0.10100000352E+00 0. -1.
       -3    1    3    3    0  502 -0.53657006215E+02  0.10232433177E+03 -0.32175689637E+03  0.34187256946E+03  0.10100000352E+00 0.  1.
</event>
<event>
 5   0  0.1396936E-03  0.1100902E+04  0.7818609E-02  0.9204313E-01
       -2   -1    0    0    0  501  0.00000000000E+00  0.00000000000E+00  0.64038732285E+03  0.64038732286E+03  0.25500000920E-02 0. -1.
        2   -1    0    0  501    0  0.00000000000E+00  0.00000000000E+00 -0.47314545373E+03  0.47314545374E+03  0.25500000920E-02 0.  1.
    10030    2    1    2    0    0  0.00000000000E+00  0.00000000000E+00  0.16724186912E+03  0.11135327766E+04  0.11009020855E+04 0.  0.
        2    1    3    3  502    0 -0.39087529791E+03  0.27331875757E+03  0.36156391348E+03  0.59851073950E+03  0.25500000920E-02 0. -1.
       -2    1    3    3    0  502  0.39087529791E+03 -0.27331875757E+03 -0.19432204436E+03  0.51502203709E+03  0.25500000920E-02 0.  1.
</event>
<event>
 5   0  0.1396936E-03  0.1103402E+04  0.7818609E-02  0.9201882E-01
        2   -1    0    0  501    0  0.00000000000E+00  0.00000000000E+00  0.51620377962E+03  0.51620377962E+03  0.25500000920E-02 0. -1.
       -2   -1    0    0    0  501  0.00000000000E+00  0.00000000000E+00 -0.58963936637E+03  0.58963936638E+03  0.25500000920E-02 0.  1.
    10030    2    1    2    0    0  0.00000000000E+00  0.00000000000E+00 -0.73435586754E+02  0.11058431460E+04  0.11034021380E+04 0.  0.
        2    1    3    3  502    0  0.32148024394E+03  0.53877275586E+02 -0.48281119525E+03  0.58254524145E+03  0.25500000920E-02 0.  1.
       -2    1    3    3    0  502 -0.32148024394E+03 -0.53877275586E+02  0.40937560850E+03  0.52329790455E+03  0.25500000920E-02 0. -1.
</event>
<event>
 5   0  0.1372794E-03  0.1096828E+04  0.7818609E-02  0.9208289E-01
       -2   -1    0    0    0  501  0.00000000000E+00  0.00000000000E+00  0.37194282299E+03  0.37194282300E+03  0.25500000920E-02 0. -1.
        2   -1    0    0  501    0  0.00000000000E+00  0.00000000000E+00 -0.80861280798E+03  0.80861280798E+03  0.25500000920E-02 0.  1.
    10030    2    1    2    0    0  0.00000000000E+00  0.00000000000E+00 -0.43666998499E+03  0.11805556310E+04  0.10968276629E+04 0.  0.
        4    1    3    3  502    0  0.20539234506E+03  0.42062900961E+03  0.89206076741E+02  0.47652294400E+03  0.12699999809E+01 0. -1.
       -4    1    3    3    0  502 -0.20539234506E+03 -0.42062900961E+03 -0.52587606173E+03  0.70403268698E+03  0.12699999809E+01 0.  1.
</event>
<event>
 5   0  0.5409500E-04  0.1099618E+04  0.7818609E-02  0.9205564E-01
       -3   -1    0    0    0  501  0.00000000000E+00  0.00000000000E+00  0.87520011321E+03  0.87520011904E+03  0.10100000352E+00 0.  1.
        3   -1    0    0  501    0  0.00000000000E+00  0.00000000000E+00 -0.34539547156E+03  0.34539548632E+03  0.10100000352E+00 0. -1.
    10030    2    1    2    0    0  0.00000000000E+00  0.00000000000E+00  0.52980464165E+03  0.12205956054E+04  0.10996184218E+04 0.  0.
        2    1    3    3  502    0  0.23547341697E+03 -0.37098406703E+03 -0.10192990509E+03  0.45107273654E+03  0.25500000920E-02 0. -1.
       -2    1    3    3    0  502 -0.23547341697E+03  0.37098406703E+03  0.63173454674E+03  0.76952286882E+03  0.25500000920E-02 0.  1.
</event>
<event>
 5   0  0.8150924E-04  0.1098525E+04  0.7818609E-02  0.9206630E-01
        1   -1    0    0  501    0  0.00000000000E+00  0.00000000000E+00  0.10258174381E+04  0.10258174381E+04  0.50400001928E-02 0.  1.
       -1   -1    0    0    0  501  0.00000000000E+00  0.00000000000E+00 -0.29409670840E+03  0.29409670844E+03  0.50400001928E-02 0. -1.
    10030    2    1    2    0    0  0.00000000000E+00  0.00000000000E+00  0.73172072971E+03  0.13199141466E+04  0.10985254335E+04 0.  0.
        3    1    3    3  502    0 -0.45617434950E+03  0.11733630988E+03  0.26383965343E+02  0.47176156115E+03  0.10100000352E+00 0. -1.
       -3    1    3    3    0  502  0.45617434950E+03 -0.11733630988E+03  0.70533676437E+03  0.84815258540E+03  0.10100000352E+00 0.  1.
</event>
<event>
 5   0  0.7946038E-04  0.1100325E+04  0.7818609E-02  0.9204875E-01
        1   -1    0    0  501    0  0.00000000000E+00  0.00000000000E+00  0.10759003827E+04  0.10759003827E+04  0.50400001928E-02 0.  1.
       -1   -1    0    0    0  501  0.00000000000E+00  0.00000000000E+00 -0.28132625039E+03  0.28132625044E+03  0.50400001928E-02 0. -1.
    10030    2    1    2    0    0  0.00000000000E+00  0.00000000000E+00  0.79457413231E+03  0.13572266332E+04  0.11003254437E+04 0.  0.
        4    1    3    3  502    0 -0.19165786479E+03  0.46479187769E+03  0.67286144780E+03  0.83994545509E+03  0.12699999809E+01 0.  1.
       -4    1    3    3    0  502  0.19165786479E+03 -0.46479187769E+03  0.12171268451E+03  0.51728117806E+03  0.12699999809E+01 0. -1.
</event>
<event>
 5   0  0.1402775E-03  0.1080642E+04  0.7818609E-02  0.9224268E-01
        2   -1    0    0  501    0  0.00000000000E+00  0.00000000000E+00  0.54079323224E+03  0.54079323225E+03  0.25500000920E-02 0.  1.
       -2   -1    0    0    0  501  0.00000000000E+00  0.00000000000E+00 -0.53984898748E+03  0.53984898749E+03  0.25500000920E-02 0. -1.
    10030    2    1    2    0    0  0.00000000000E+00  0.00000000000E+00  0.94424476022E+00  0.10806422197E+04  0.10806418072E+04 0.  0.
        5    1    3    3  502    0 -0.14243649437E+03 -0.45301402833E+03  0.25818276397E+03  0.54054629256E+03  0.46999998093E+01 0.  1.
       -5    1    3    3    0  502  0.14243649437E+03  0.45301402833E+03 -0.25723851921E+03  0.54009592718E+03  0.46999998093E+01 0. -1.
</event>
<event>
 5   0  0.8150924E-04  0.1127867E+04  0.7818609E-02  0.9178448E-01
       -1   -1    0    0    0  501  0.00000000000E+00  0.00000000000E+00  0.36195879078E+03  0.36195879081E+03  0.50400001928E-02 0.  1.
        1   -1    0    0  501    0  0.00000000000E+00  0.00000000000E+00 -0.87861137594E+03  0.87861137596E+03  0.50400001928E-02 0. -1.
    10030    2    1    2    0    0  0.00000000000E+00  0.00000000000E+00 -0.51665258517E+03  0.12405701668E+04  0.11278672107E+04 0.  0.
        3    1    3    3  502    0  0.14377133366E+02 -0.14690895525E+03  0.34033263466E+03  0.37096530231E+03  0.10100000352E+00 0.  1.
       -3    1    3    3    0  502 -0.14377133366E+02  0.14690895525E+03 -0.85698521983E+03  0.86960486447E+03  0.10100000352E+00 0. -1.
</event>
<event>
 5   0  0.8341767E-04  0.1105077E+04  0.7818609E-02  0.9200257E-01
        1   -1    0    0  501    0  0.00000000000E+00  0.00000000000E+00  0.12488710338E+04  0.12488710338E+04  0.50400001928E-02 0. -1.
       -1   -1    0    0    0  501  0.00000000000E+00  0.00000000000E+00 -0.24445996708E+03  0.24445996714E+03  0.50400001928E-02 0.  1.
    10030    2    1    2    0    0  0.00000000000E+00  0.00000000000E+00  0.10044110667E+04  0.14933310010E+04  0.11050773219E+04 0.  0.
        2    1    3    3  502    0 -0.15934701655E+03  0.22140512334E+03  0.11515324562E+04  0.11834013258E+04  0.25500000920E-02 0. -1.
       -2    1    3    3    0  502  0.15934701655E+03 -0.22140512334E+03 -0.14712138941E+03  0.30992967517E+03  0.25500000920E-02 0.  1.
</event>
<event>
 5   0  0.1429680E-03  0.1101808E+04  0.7818609E-02  0.9203431E-01
       -2   -1    0    0    0  501  0.00000000000E+00  0.00000000000E+00  0.26992177504E+03  0.26992177506E+03  0.25500000920E-02 0. -1.
        2   -1    0    0  501    0  0.00000000000E+00  0.00000000000E+00 -0.11243825654E+04  0.11243825654E+04  0.25500000920E-02 0.  1.
    10030    2    1    2    0    0  0.00000000000E+00  0.00000000000E+00 -0.85446079034E+03  0.13943043404E+04  0.11018082190E+04 0.  0.
        3    1    3    3  502    0 -0.33496615224E+03  0.47531333994E+02  0.12297048062E+03  0.35997680503E+03  0.10100000352E+00 0. -1.
       -3    1    3    3    0  502  0.33496615224E+03 -0.47531333994E+02 -0.97743127096E+03  0.10343275354E+04  0.10100000352E+00 0.  1.
</event>
<event>
 5   0  0.8150924E-04  0.1100677E+04  0.7818609E-02  0.9204532E-01
        1   -1    0    0  501    0  0.00000000000E+00  0.00000000000E+00  0.20796803528E+04  0.20796803528E+04  0.50400001928E-02 0.  1.
       -1   -1    0    0    0  501  0.00000000000E+00  0.00000000000E+00 -0.14563409771E+03  0.14563409780E+03  0.50400001928E-02 0. -1.
    10030    2    1    2    0    0  0.00000000000E+00  0.00000000000E+00  0.19340462551E+04  0.22253144506E+04  0.11006768314E+04 0.  0.
        3    1    3    3  502    0  0.20006615278E+03 -0.51147058885E+03  0.89572221019E+03  0.10506887821E+04  0.10100000352E+00 0. -1.
       -3    1    3    3    0  502 -0.20006615278E+03  0.51147058885E+03  0.10383240449E+04  0.11746256686E+04  0.10100000352E+00 0.  1.
</event>
<event>
 5   0  0.8150924E-04  0.1100034E+04  0.7818609E-02  0.9205158E-01
        1   -1    0    0  501    0  0.00000000000E+00  0.00000000000E+00  0.41122947477E+03  0.41122947480E+03  0.50400001928E-02 0.  1.
       -1   -1    0    0    0  501  0.00000000000E+00  0.00000000000E+00 -0.73564503077E+03  0.73564503079E+03  0.50400001928E-02 0. -1.
    10030    2    1    2    0    0  0.00000000000E+00  0.00000000000E+00 -0.32441555600E+03  0.11468745056E+04  0.11000343988E+04 0.  0.
        3    1    3    3  502    0 -0.53506793740E+03  0.96708219732E+02 -0.75800978279E+02  0.54899542430E+03  0.10100000352E+00 0.  1.
       -3    1    3    3    0  502  0.53506793740E+03 -0.96708219732E+02 -0.24861457772E+03  0.59787908129E+03  0.10100000352E+00 0. -1.
</event>
<event>
 5   0  0.8150924E-04  0.1118799E+04  0.7818609E-02  0.9187060E-01
        1   -1    0    0  501    0  0.00000000000E+00  0.00000000000E+00  0.12606143847E+04  0.12606143847E+04  0.50400001928E-02 0. -1.
       -1   -1    0    0    0  501  0.00000000000E+00  0.00000000000E+00 -0.24823451268E+03  0.24823451273E+03  0.50400001928E-02 0.  1.
    10030    2    1    2    0    0  0.00000000000E+00  0.00000000000E+00  0.10123798720E+04  0.15088488974E+04  0.11187993520E+04 0.  0.
        3    1    3    3  502    0 -0.35329038606E+03 -0.24572901812E+03  0.24195596492E+02  0.43102469107E+03  0.10100000352E+00 0.  1.
       -3    1    3    3    0  502  0.35329038606E+03  0.24572901812E+03  0.98818427550E+03  0.10778242063E+04  0.10100000352E+00 0. -1.
</event>
<event>
 5   0  0.5409500E-04  0.1095628E+04  0.7818609E-02  0.9209464E-01
        4   -1    0    0  501    0  0.00000000000E+00  0.00000000000E+00  0.53571140314E+03  0.53571290852E+03  0.12699999809E+01 0. -1.
       -4   -1    0    0    0  501  0.00000000000E+00  0.00000000000E+00 -0.56018670242E+03  0.56018814203E+03  0.12699999809E+01 0.  1.
    10030    2    1    2    0    0  0.00000000000E+00  0.00000000000E+00 -0.24475299275E+02  0.10959010505E+04  0.10956277070E+04 0.  0.
        4    1    3    3  502    0  0.59779348150E+02 -0.49175106474E+03 -0.24618855270E+03  0.55317546631E+03  0.12699999809E+01 0.  1.
       -4    1    3    3    0  502 -0.59779348150E+02  0.49175106474E+03  0.22171325343E+03  0.54272558424E+03  0.12699999809E+01 0. -1.
</event>
<event>
 5   0  0.7946038E-04  0.1104169E+04  0.7818609E-02  0.9201138E-01
        1   -1    0    0  501    0  0.00000000000E+00  0.00000000000E+00  0.98271997650E+03  0.98271997651E+03  0.50400001928E-02 0.  1.
       -1   -1    0    0    0  501  0.00000000000E+00  0.00000000000E+00 -0.31015694879E+03  0.31015694883E+03  0.50400001928E-02 0. -1.
    10030    2    1    2    0    0  0.00000000000E+00  0.00000000000E+00  0.67256302771E+03  0.12928769253E+04  0.11041692433E+04 0.  0.
        4    1    3    3  502    0 -0.11417106743E+03 -0.39308103826E+03 -0.97503635297E+02  0.42078059256E+03  0.12699999809E+01 0. -1.
       -4    1    3    3    0  502  0.11417106743E+03  0.39308103826E+03  0.77006666300E+03  0.87209633278E+03  0.12699999809E+01 0.  1.
</event>
<event>
 5   0  0.7946038E-04  0.1098452E+04  0.7818609E-02  0.9206702E-01
        1   -1    0    0  501    0  0.00000000000E+00  0.00000000000E+00  0.45704668836E+03  0.45704668839E+03  0.50400001928E-02 0.  1.
       -1   -1    0    0    0  501  0.00000000000E+00  0.00000000000E+00 -0.65999693328E+03  0.65999693330E+03  0.50400001928E-02 0. -1.
    10030    2    1    2    0    0  0.00000000000E+00  0.00000000000E+00 -0.20295024492E+03  0.11170436217E+04  0.10984523890E+04 0.  0.
        4    1    3    3  502    0 -0.23980278767E+03  0.43422096117E+03  0.13830055188E+03  0.51495812999E+03  0.12699999809E+01 0.  1.
       -4    1    3    3    0  502  0.23980278767E+03 -0.43422096117E+03 -0.34125079680E+03  0.60208549170E+03  0.12699999809E+01 0. -1.
</event>
<event>
 5   0  0.1429680E-03  0.1101437E+04  0.7818609E-02  0.9203792E-01
        2   -1    0    0  501    0  0.00000000000E+00  0.00000000000E+00  0.71687444472E+03  0.71687444472E+03  0.25500000920E-02 0. -1.
       -2   -1    0    0    0  501  0.00000000000E+00  0.00000000000E+00 -0.42307417332E+03  0.42307417333E+03  0.25500000920E-02 0.  1.
    10030    2    1    2    0    0  0.00000000000E+00  0.00000000000E+00  0.29380027140E+03  0.11399486181E+04  0.11014373574E+04 0.  0.
        3    1    3    3  502    0 -0.19944512723E+03  0.23261542032E+02 -0.38383751062E+03  0.43318668363E+03  0.10100000352E+00 0.  1.
       -3    1    3    3    0  502  0.19944512723E+03 -0.23261542032E+02  0.67763778202E+03  0.70676193442E+03  0.10100000352E+00 0. -1.
</event>
<event>
 5   0  0.1372794E-03  0.1106325E+04  0.7818609E-02  0.9199049E-01
        2   -1    0    0  501    0  0.00000000000E+00  0.00000000000E+00  0.33621952182E+03  0.33621952183E+03  0.25500000920E-02 0. -1.
       -2   -1    0    0    0  501  0.00000000000E+00  0.00000000000E+00 -0.91008657475E+03  0.91008657476E+03  0.25500000920E-02 0.  1.
    10030    2    1    2    0    0  0.00000000000E+00  0.00000000000E+00 -0.57386705293E+03  0.12463060966E+04  0.11063252198E+04 0.  0.
        4    1    3    3  502    0 -0.51726707420E+03 -0.19304284743E+03 -0.24862341394E+03  0.60551299066E+03  0.12699999809E+01 0.  1.
       -4    1    3    3    0  502  0.51726707420E+03  0.19304284743E+03 -0.32524363899E+03  0.64079310593E+03  0.12699999809E+01 0. -1.
</event>
<event>
 5   0  0.1372794E-03  0.1096642E+04  0.7818609E-02  0.9208471E-01
        2   -1    0    0  501    0  0.00000000000E+00  0.00000000000E+00  0.66213229965E+03  0.66213229966E+03  0.25500000920E-02 0. -1.
       -2   -1    0    0    0  501  0.00000000000E+00  0.00000000000E+00 -0.45407200340E+03  0.45407200341E+03  0.25500000920E-02 0.  1.
    10030    2    1    2    0    0  0.00000000000E+00  0.00000000000E+00  0.20806029625E+03  0.11162043031E+04  0.10966416732E+04 0.  0.
        4    1    3    3  502    0  0.52031712496E+03  0.13614886528E+03 -0.45866536611E+01  0.53785599777E+03  0.12699999809E+01 0.  1.
       -4    1    3    3    0  502 -0.52031712496E+03 -0.13614886528E+03  0.21264694991E+03  0.57834830530E+03  0.12699999809E+01 0. -1.
</event>
<event>
 5   0  0.8305271E-04  0.1115615E+04  0.7818609E-02  0.9190105E-01
        1   -1    0    0  501    0  0.00000000000E+00  0.00000000000E+00  0.16961160956E+04  0.16961160956E+04  0.50400001928E-02 0. -1.
       -1   -1    0    0    0  501  0.00000000000E+00  0.00000000000E+00 -0.18344810757E+03  0.18344810763E+03  0.50400001928E-02 0.  1.
    10030    2    1    2    0    0  0.00000000000E+00  0.00000000000E+00  0.15126679880E+04  0.18795642032E+04  0.11156151451E+04 0.  0.
        5    1    3    3  502    0  0.22501905154E+03 -0.31759881384E+03  0.14294543108E+04  0.14815074407E+04  0.46999998093E+01 0. -1.
       -5    1    3    3    0  502 -0.22501905154E+03  0.31759881384E+03  0.83213677174E+02  0.39805676251E+03  0.46999998093E+01 0.  1.
</event>
<event>
 5   0  0.8150924E-04  0.1054557E+04  0.7818609E-02  0.9250652E-01
        1   -1    0    0  501    0  0.00000000000E+00  0.00000000000E+00  0.53207859610E+03  0.53207859612E+03  0.50400001928E-02 0.  1.
       -1   -1    0    0    0  501  0.00000000000E+00  0.00000000000E+00 -0.52252190048E+03  0.52252190050E+03  0.50400001928E-02 0. -1.
    10030    2    1    2    0    0  0.00000000000E+00  0.00000000000E+00  0.95566956230E+01  0.10546004966E+04  0.10545571948E+04 0.  0.
        3    1    3    3  502    0 -0.33434262914E+03 -0.35183274041E+03 -0.20126758030E+03  0.52543307849E+03  0.10100000352E+00 0. -1.
       -3    1    3    3    0  502  0.33434262914E+03  0.35183274041E+03  0.21082427593E+03  0.52916741813E+03  0.10100000352E+00 0.  1.
</event>
<event>
 5   0  0.1372794E-03  0.1101159E+04  0.7818609E-02  0.9204063E-01
        2   -1    0    0  501    0  0.00000000000E+00  0.00000000000E+00  0.50661022943E+03  0.50661022943E+03  0.25500000920E-02 0.  1.
       -2   -1    0    0    0  501  0.00000000000E+00  0.00000000000E+00 -0.59836503780E+03  0.59836503780E+03  0.25500000920E-02 0. -1.
    10030    2    1    2    0    0  0.00000000000E+00  0.00000000000E+00 -0.91754808370E+02  0.11049752672E+04  0.11011591149E+04 0.  0.
        4    1    3    3  502    0  0.11961614902E+03 -0.41611064676E+03  0.29541913710E+03  0.52414709092E+03  0.12699999809E+01 0.  1.
       -4    1    3    3    0  502 -0.11961614902E+03  0.41611064676E+03 -0.38717394547E+03  0.58082817632E+03  0.12699999809E+01 0. -1.
</event>
<event>
 5   0  0.1402775E-03  0.1096676E+04  0.7818609E-02  0.9208438E-01
       -2   -1    0    0    0  501  0.00000000000E+00  0.00000000000E+00  0.24445196562E+03  0.24445196563E+03  0.25500000920E-02 0.  1.
        2   -1    0    0  501    0  0.00000000000E+00  0.00000000000E+00 -0.12299935792E+04  0.12299935792E+04  0.25500000920E-02 0. -1.
    10030    2    1    2    0    0  0.00000000000E+00  0.00000000000E+00 -0.98554161354E+03  0.14744455448E+04  0.10966756095E+04 0.  0.
        5    1    3    3  502    0  0.51728530690E+03 -0.54429946934E+02 -0.25949277750E+03  0.58129622348E+03  0.46999998093E+01 0.  1.
       -5    1    3    3    0  502 -0.51728530690E+03  0.54429946934E+02 -0.72604883604E+03  0.89314932131E+03  0.46999998093E+01 0. -1.
</event>
<event>
 5   0  0.8305271E-04  0.1096362E+04  0.7818609E-02  0.9208745E-01
       -1   -1    0    0    0  501  0.00000000000E+00  0.00000000000E+00  0.20728995032E+03  0.20728995038E+03  0.50400001928E-02 0.  1.
        1   -1    0    0  501    0  0.00000000000E+00  0.00000000000E+00 -0.14496708877E+04  0.14496708877E+04  0.50400001928E-02 0. -1.
    10030    2    1    2    0    0  0.00000000000E+00  0.00000000000E+00 -0.12423809373E+04  0.16569608381E+04  0.10963616307E+04 0.  0.
        5    1    3    3  502    0 -0.15612064512E+03 -0.19269996636E+03 -0.13600008690E+04  0.13824367568E+04  0.46999998093E+01 0. -1.
       -5    1    3    3    0  502  0.15612064512E+03  0.19269996636E+03  0.11761993166E+03  0.27452408125E+03  0.46999998093E+01 0.  1.
</event>
<event>
 5   0  0.8150924E-04  0.1102698E+04  0.7818609E-02  0.9202566E-01
        1   -1    0    0  501    0  0.00000000000E+00  0.00000000000E+00  0.78321163986E+03  0.78321163988E+03  0.50400001928E-02 0.  1.
       -1   -1    0    0    0  501  0.00000000000E+00  0.00000000000E+00 -0.38812736346E+03  0.38812736350E+03  0.50400001928E-02 0. -1.
    10030    2    1    2    0    0  0.00000000000E+00  0.00000000000E+00  0.39508427640E+03  0.11713390034E+04  0.11026982703E+04 0.  0.
        3    1    3    3  502    0 -0.48320731557E+03 -0.12959186810E+03  0.44370534974E+03  0.66869859406E+03  0.10100000352E+00 0.  1.
       -3    1    3    3    0  502  0.48320731557E+03  0.12959186810E+03 -0.48621073345E+02  0.50264040932E+03  0.10100000352E+00 0. -1.
</event>
<event>
 5   0  0.1396936E-03  0.1100754E+04  0.7818609E-02  0.9204457E-01
        2   -1    0    0  501    0  0.00000000000E+00  0.00000000000E+00  0.69922208091E+03  0.69922208091E+03  0.25500000920E-02 0. -1.
       -2   -1    0    0    0  501  0.00000000000E+00  0.00000000000E+00 -0.43321719275E+03  0.43321719276E+03  0.25500000920E-02 0.  1.
    10030    2    1    2    0    0  0.00000000000E+00  0.00000000000E+00  0.26600488816E+03  0.11324392737E+04  0.11007543359E+04 0.  0.
        2    1    3    3  502    0  0.17647156838E+02  0.51949047429E+03 -0.53128720448E+02  0.52249826408E+03  0.25500000920E-02 0. -1.
       -2    1    3    3    0  502 -0.17647156838E+02 -0.51949047429E+03  0.31913360860E+03  0.60994100959E+03  0.25500000920E-02 0.  1.
</event>
<event>
 5   0  0.1402775E-03  0.1066602E+04  0.7818609E-02  0.9238370E-01
       -2   -1    0    0    0  501  0.00000000000E+00  0.00000000000E+00  0.20301599215E+03  0.20301599217E+03  0.25500000920E-02 0. -1.
        2   -1    0    0  501    0  0.00000000000E+00  0.00000000000E+00 -0.14009235861E+04  0.14009235861E+04  0.25500000920E-02 0.  1.
    10030    2    1    2    0    0  0.00000000000E+00  0.00000000000E+00 -0.11979075940E+04  0.16039395783E+04  0.10666018785E+04 0.  0.
        5    1    3    3  502    0  0.65110700000E+02 -0.52440510501E+03 -0.70684638604E+03  0.88254972714E+03  0.46999998093E+01 0.  1.
       -5    1    3    3    0  502 -0.65110700000E+02  0.52440510501E+03 -0.49106120792E+03  0.72138985115E+03  0.46999998093E+01 0. -1.
</event>
<event>
 5   0  0.1425432E-03  0.1083112E+04  0.7818609E-02  0.9221810E-01
        2   -1    0    0  501    0  0.00000000000E+00  0.00000000000E+00  0.11365008109E+04  0.11365008109E+04  0.25500000920E-02 0. -1.
       -2   -1    0    0    0  501  0.00000000000E+00  0.00000000000E+00 -0.25805799973E+03  0.25805799974E+03  0.25500000920E-02 0.  1.
    10030    2    1    2    0    0  0.00000000000E+00  0.00000000000E+00  0.87844281122E+03  0.13945588107E+04  0.10831124152E+04 0.  0.
        1    1    3    3  502    0 -0.30465799242E+03 -0.33853269993E+03  0.61940853580E+02  0.45962762171E+03  0.50400001928E-02 0.  1.
       -1    1    3    3    0  502  0.30465799242E+03  0.33853269993E+03  0.81650195764E+03  0.93493118898E+03  0.50400001928E-02 0. -1.
</event>
<event>
 5   0  0.1372794E-03  0.1101293E+04  0.7818609E-02  0.9203932E-01
        2   -1    0    0  501    0  0.00000000000E+00  0.00000000000E+00  0.46758177661E+03  0.46758177662E+03  0.25500000920E-02 0. -1.
       -2   -1    0    0    0  501  0.00000000000E+00  0.00000000000E+00 -0.64846779405E+03  0.64846779405E+03  0.25500000920E-02 0.  1.
    10030    2    1    2    0    0  0.00000000000E+00  0.00000000000E+00 -0.18088601743E+03  0.11160495707E+04  0.11012932820E+04 0.  0.
        4    1    3    3  502    0 -0.70950908059E+02 -0.51439868508E+03  0.95233358085E+02  0.52793090832E+03  0.12699999809E+01 0. -1.
       -4    1    3    3    0  502  0.70950908059E+02  0.51439868508E+03 -0.27611937552E+03  0.58811866235E+03  0.12699999809E+01 0.  1.
</event>
<event>
 5   0  0.1402775E-03  0.1101691E+04  0.7818609E-02  0.9203545E-01
        2   -1    0    0  501    0  0.00000000000E+00  0.00000000000E+00  0.67727608913E+03  0.67727608914E+03  0.25500000920E-02 0. -1.
       -2   -1    0    0    0  501  0.00000000000E+00  0.00000000000E+00 -0.44801628737E+03  0.44801628738E+03  0.25500000920E-02 0.  1.
    10030    2    1    2    0    0  0.00000000000E+00  0.00000000000E+00  0.22925980176E+03  0.11252923765E+04  0.11016909167E+04 0.  0.
        5    1    3    3  502    0  0.13708727328E+03  0.52662659027E+03  0.27478261631E+02  0.54489047610E+03  0.46999998093E+01 0.  1.
       -5    1    3    3    0  502 -0.13708727328E+03 -0.52662659027E+03  0.20178154013E+03  0.58040190042E+03  0.46999998093E+01 0. -1.
</event>
<event>
 5   0  0.1429680E-03  0.1128236E+04  0.7818609E-02  0.9178100E-01
       -2   -1    0    0    0  501  0.00000000000E+00  0.00000000000E+00  0.18910200992E+03  0.18910200994E+03  0.25500000920E-02 0.  1.
        2   -1    0    0  501    0  0.00000000000E+00  0.00000000000E+00 -0.16828425240E+04  0.16828425240E+04  0.25500000920E-02 0. -1.
    10030    2    1    2    0    0  0.00000000000E+00  0.00000000000E+00 -0.14937405141E+04  0.18719445339E+04  0.11282356202E+04 0.  0.
        3    1    3    3  502    0  0.31619529592E+03 -0.25010722743E+03 -0.92186415067E+02  0.41355947057E+03  0.10100000352E+00 0.  1.
       -3    1    3    3    0  502 -0.31619529592E+03  0.25010722743E+03 -0.14015540990E+04  0.14583850633E+04  0.10100000352E+00 0. -1.
</event>
<event>
 5   0  0.8341767E-04  0.1118118E+04  0.7818609E-02  0.9187710E-01
       -1   -1    0    0    0  501  0.00000000000E+00  0.00000000000E+00  0.15142610579E+03  0.15142610587E+03  0.50400001928E-02 0.  1.
        1   -1    0    0  501    0  0.00000000000E+00  0.00000000000E+00 -0.20640247733E+04  0.20640247733E+04  0.50400001928E-02 0. -1.
    10030    2    1    2    0    0  0.00000000000E+00  0.00000000000E+00 -0.19125986675E+04  0.22154508791E+04  0.11181184799E+04 0.  0.
        2    1    3    3  502    0  0.33438085157E+03 -0.25141124230E+03 -0.16911033958E+04  0.17420817610E+04  0.25500000920E-02 0. -1.
       -2    1    3    3    0  502 -0.33438085157E+03  0.25141124230E+03 -0.22149527168E+03  0.47336911816E+03  0.25500000920E-02 0.  1.
</event>
<event>
 5   0  0.1402775E-03  0.1092489E+04  0.7818609E-02  0.9212544E-01
       -2   -1    0    0    0  501  0.00000000000E+00  0.00000000000E+00  0.37807221900E+03  0.37807221900E+03  0.25500000920E-02 0. -1.
        2   -1    0    0  501    0  0.00000000000E+00  0.00000000000E+00 -0.78922189212E+03  0.78922189212E+03  0.25500000920E-02 0.  1.
    10030    2    1    2    0    0  0.00000000000E+00  0.00000000000E+00 -0.41114967312E+03  0.11672941111E+04  0.10924886673E+04 0.  0.
        5    1    3    3  502    0  0.89564903684E+02  0.29822081067E+03 -0.68508365660E+03  0.75254184629E+03  0.46999998093E+01 0.  1.
       -5    1    3    3    0  502 -0.89564903684E+02 -0.29822081067E+03  0.27393398347E+03  0.41475226484E+03  0.46999998093E+01 0. -1.
</event>
<event>
 5   0  0.8305271E-04  0.1098691E+04  0.7818609E-02  0.9206468E-01
       -1   -1    0    0    0  501  0.00000000000E+00  0.00000000000E+00  0.22079543660E+03  0.22079543666E+03  0.50400001928E-02 0. -1.
        1   -1    0    0  501    0  0.00000000000E+00  0.00000000000E+00 -0.13667882984E+04  0.13667882984E+04  0.50400001928E-02 0.  1.
    10030    2    1    2    0    0  0.00000000000E+00  0.00000000000E+00 -0.11459928618E+04  0.15875837350E+04  0.10986912562E+04 0.  0.
        5    1    3    3  502    0 -0.12835228426E+03 -0.13807399434E+03 -0.13185539298E+04  0.13319704549E+04  0.46999998093E+01 0.  1.
       -5    1    3    3    0  502  0.12835228426E+03  0.13807399434E+03  0.17256106806E+03  0.25561328017E+03  0.46999998093E+01 0. -1.
</event>
<event>
 5   0  0.8305271E-04  0.1096463E+04  0.7818609E-02  0.9208647E-01
        1   -1    0    0  501    0  0.00000000000E+00  0.00000000000E+00  0.83537758608E+03  0.83537758609E+03  0.50400001928E-02 0.  1.
       -1   -1    0    0    0  501  0.00000000000E+00  0.00000000000E+00 -0.35978646741E+03  0.35978646745E+03  0.50400001928E-02 0. -1.
    10030    2    1    2    0    0  0.00000000000E+00  0.00000000000E+00  0.47559111866E+03  0.11951640535E+04  0.10964625861E+04 0.  0.
        5    1    3    3  502    0  0.17922413986E+03 -0.11740843381E+03  0.78782761749E+03  0.81645604751E+03  0.46999998093E+01 0.  1.
       -5    1    3    3    0  502 -0.17922413986E+03  0.11740843381E+03 -0.31223649882E+03  0.37870800603E+03  0.46999998093E+01 0. -1.
</event>
<event>
 5   0  0.8305271E-04  0.1098887E+04  0.7818609E-02  0.9206278E-01
        1   -1    0    0  501    0  0.00000000000E+00  0.00000000000E+00  0.66796653837E+03  0.66796653839E+03  0.50400001928E-02 0. -1.
       -1   -1    0    0    0  501  0.00000000000E+00  0.00000000000E+00 -0.45195087332E+03  0.45195087335E+03  0.50400001928E-02 0.  1.
    10030    2    1    2    0    0  0.00000000000E+00  0.00000000000E+00  0.21601566505E+03  0.11199174117E+04  0.10988868193E+04 0.  0.
        5    1    3    3  502    0  0.35607571958E+03 -0.23204605396E+03 -0.24683767010E+03  0.49151420591E+03  0.46999998093E+01 0.  1.
       -5    1    3    3    0  502 -0.35607571958E+03  0.23204605396E+03  0.46285333515E+03  0.62840320583E+03  0.46999998093E+01 0. -1.
</event>
<event>
 5   0  0.7946038E-04  0.1168790E+04  0.7818609E-02  0.9140622E-01
        1   -1    0    0  501    0  0.00000000000E+00  0.00000000000E+00  0.15152054939E+04  0.15152054939E+04  0.50400001928E-02 0.  1.
       -1   -1    0    0    0  501  0.00000000000E+00  0.00000000000E+00 -0.22539342132E+03  0.22539342137E+03  0.50400001928E-02 0. -1.
    10030    2    1    2    0    0  0.00000000000E+00  0.00000000000E+00  0.12898120726E+04  0.17405989153E+04  0.11687897165E+04 0.  0.
        4    1    3    3  502    0  0.10347862526E+03  0.13308163958E+03 -0.18839497868E+03  0.25280986842E+03  0.12699999809E+01 0. -1.
       -4    1    3    3    0  502 -0.10347862526E+03 -0.13308163958E+03  0.14782070513E+04  0.14877890469E+04  0.12699999809E+01 0.  1.
</event>
<event>
 5   0  0.1429680E-03  0.1100629E+04  0.7818609E-02  0.9204579E-01
       -2   -1    0    0    0  501  0.00000000000E+00  0.00000000000E+00  0.33904666386E+03  0.33904666387E+03  0.25500000920E-02 0. -1.
        2   -1    0    0  501    0  0.00000000000E+00  0.00000000000E+00 -0.89322872196E+03  0.89322872196E+03  0.25500000920E-02 0.  1.
    10030    2    1    2    0    0  0.00000000000E+00  0.00000000000E+00 -0.55418205810E+03  0.12322753858E+04  0.11006293077E+04 0.  0.
        3    1    3    3  502    0 -0.38414495823E+03 -0.39084108411E+03 -0.22086358066E+03  0.59085094011E+03  0.10100000352E+00 0. -1.
       -3    1    3    3    0  502  0.38414495823E+03  0.39084108411E+03 -0.33331847744E+03  0.64142444572E+03  0.10100000352E+00 0.  1.
</event>
<event>
 5   0  0.5409500E-04  0.1103511E+04  0.7818609E-02  0.9201777E-01
        4   -1    0    0  501    0  0.00000000000E+00  0.00000000000E+00  0.49207288072E+03  0.49207451960E+03  0.12699999809E+01 0. -1.
       -4   -1    0    0    0  501  0.00000000000E+00  0.00000000000E+00 -0.61867314555E+03  0.61867444906E+03  0.12699999809E+01 0.  1.
    10030    2    1    2    0    0  0.00000000000E+00  0.00000000000E+00 -0.12660026483E+03  0.11107489687E+04  0.11035106000E+04 0.  0.
        2    1    3    3  502    0 -0.94334708788E+01  0.43040298505E+03  0.28406961448E+03  0.51578218833E+03  0.25500000920E-02 0. -1.
       -2    1    3    3    0  502  0.94334708788E+01 -0.43040298505E+03 -0.41066987932E+03  0.59496678033E+03  0.25500000920E-02 0.  1.
</event>
<event>
 5   0  0.7946038E-04  0.1099173E+04  0.7818609E-02  0.9205998E-01
        1   -1    0    0  501    0  0.00000000000E+00  0.00000000000E+00  0.14845260293E+04  0.14845260293E+04  0.50400001928E-02 0. -1.
       -1   -1    0    0    0  501  0.00000000000E+00  0.00000000000E+00 -0.20346239777E+03  0.20346239783E+03  0.50400001928E-02 0.  1.
    10030    2    1    2    0    0  0.00000000000E+00  0.00000000000E+00  0.12810636315E+04  0.16879884271E+04  0.10991728263E+04 0.  0.
        4    1    3    3  502    0 -0.58937381109E+02 -0.15830536940E+03 -0.16260515105E+03  0.23447015358E+03  0.12699999809E+01 0.  1.
       -4    1    3    3    0  502  0.58937381109E+02  0.15830536940E+03  0.14436687825E+04  0.14535182735E+04  0.12699999809E+01 0. -1.
</event>
<event>
 5   0  0.1396936E-03  0.1100922E+04  0.7818609E-02  0.9204294E-01
       -2   -1    0    0    0  501  0.00000000000E+00  0.00000000000E+00  0.24154664338E+03  0.24154664339E+03  0.25500000920E-02 0. -1.
        2   -1    0    0  501    0  0.00000000000E+00  0.00000000000E+00 -0.12544453494E+04  0.12544453494E+04  0.25500000920E-02 0.  1.
    10030    2    1    2    0    0  0.00000000000E+00  0.00000000000E+00 -0.10128987060E+04  0.14959919928E+04  0.11009215475E+04 0.  0.
        2    1    3    3  502    0  0.26592351877E+03  0.36837338358E+03 -0.84125836180E+02  0.46205132170E+03  0.25500000920E-02 0. -1.
       -2    1    3    3    0  502 -0.26592351877E+03 -0.36837338358E+03 -0.92877286980E+03  0.10339406711E+04  0.25500000920E-02 0.  1.
</event>
<event>
 5   0  0.1396936E-03  0.1104256E+04  0.7818609E-02  0.9201053E-01
        2   -1    0    0  501    0  0.00000000000E+00  0.00000000000E+00  0.16207628516E+04  0.16207628516E+04  0.25500000920E-02 0. -1.
       -2   -1    0    0    0  501  0.00000000000E+00  0.00000000000E+00 -0.18808763869E+03  0.18808763871E+03  0.25500000920E-02 0.  1.
    10030    2    1    2    0    0  0.00000000000E+00  0.00000000000E+00  0.14326752130E+04  0.18088504904E+04  0.11042562341E+04 0.  0.
        2    1    3    3  502    0  0.47234235586E+03 -0.20101131561E+03  0.10493644294E+04  0.11681945711E+04  0.25500000920E-02 0. -1.
       -2    1    3    3    0  502 -0.47234235586E+03  0.20101131561E+03  0.38331078355E+03  0.64065591930E+03  0.25500000920E-02 0.  1.
</event>
<event>
 5   0  0.7946038E-04  0.1155767E+04  0.7818609E-02  0.9152479E-01
        1   -1    0    0  501    0  0.00000000000E+00  0.00000000000E+00  0.23283868857E+04  0.23283868857E+04  0.50400001928E-02 0.  1.
       -1   -1    0    0    0  501  0.00000000000E+00  0.00000000000E+00 -0.14342529862E+03  0.14342529871E+03  0.50400001928E-02 0. -1.
    10030    2    1    2    0    0  0.00000000000E+00  0.00000000000E+00  0.21849615871E+04  0.24718121844E+04  0.11557674238E+04 0.  0.
        4    1    3    3  502    0 -0.21954714250E+03 -0.53106918791E+03  0.96216991388E+03  0.11207176211E+04  0.12699999809E+01 0.  1.
       -4    1    3    3    0  502  0.21954714250E+03  0.53106918791E+03  0.12227916732E+04  0.13510945633E+04  0.12699999809E+01 0. -1.
</event>
<event>
 5   0  0.1402775E-03  0.1090761E+04  0.7818609E-02  0.9214244E-01
        2   -1    0    0  501    0  0.00000000000E+00  0.00000000000E+00  0.17239239618E+04  0.17239239618E+04  0.25500000920E-02 0. -1.
       -2   -1    0    0    0  501  0.00000000000E+00  0.00000000000E+00 -0.17253649058E+03  0.17253649060E+03  0.25500000920E-02 0.  1.
    10030    2    1    2    0    0  0.00000000000E+00  0.00000000000E+00  0.15513874712E+04  0.18964604524E+04  0.10907608178E+04 0.  0.
        5    1    3    3  502    0 -0.34869760669E+03  0.69664282105E+02  0.14946128297E+04  0.15363374414E+04  0.46999998093E+01 0. -1.
       -5    1    3    3    0  502  0.34869760669E+03 -0.69664282105E+02  0.56774641475E+02  0.36012301097E+03  0.46999998093E+01 0.  1.
</event>
<event>
 5   0  0.8150924E-04  0.1097849E+04  0.7818609E-02  0.9207291E-01
        1   -1    0    0  501    0  0.00000000000E+00  0.00000000000E+00  0.10909494710E+04  0.10909494710E+04  0.50400001928E-02 0.  1.
       -1   -1    0    0    0  501  0.00000000000E+00  0.00000000000E+00 -0.27619804424E+03  0.27619804428E+03  0.50400001928E-02 0. -1.
    10030    2    1    2    0    0  0.00000000000E+00  0.00000000000E+00  0.81475142672E+03  0.13671475152E+04  0.10978490065E+04 0.  0.
        3    1    3    3  502    0 -0.10607963001E+03  0.44060759292E+03  0.21675080476E+02  0.45371550354E+03  0.10100000352E+00 0. -1.
       -3    1    3    3    0  502  0.10607963001E+03 -0.44060759292E+03  0.79307634624E+03  0.91343201170E+03  0.10100000352E+00 0.  1.
</event>
<event>
 5   0  0.1372794E-03  0.1102316E+04  0.7818609E-02  0.9202938E-01
        2   -1    0    0  501    0  0.00000000000E+00  0.00000000000E+00  0.65082289653E+03  0.65082289654E+03  0.25500000920E-02 0. -1.
       -2   -1    0    0    0  501  0.00000000000E+00  0.00000000000E+00 -0.46675537522E+03  0.46675537523E+03  0.25500000920E-02 0.  1.
    10030    2    1    2    0    0  0.00000000000E+00  0.00000000000E+00  0.18406752131E+03  0.11175782718E+04  0.11023158990E+04 0.  0.
        4    1    3    3  502    0  0.52838478320E+03  0.15653485613E+03  0.82975170798E+02  0.55729716684E+03  0.12699999809E+01 0. -1.
       -4    1    3    3    0  502 -0.52838478320E+03 -0.15653485613E+03  0.10109235051E+03  0.56028110492E+03  0.12699999809E+01 0.  1.
</event>
<event>
 5   0  0.5409500E-04  0.1102443E+04  0.7818609E-02  0.9202814E-01
       -3   -1    0    0    0  501  0.00000000000E+00  0.00000000000E+00  0.91920680785E+03  0.91920681340E+03  0.10100000352E+00 0.  1.
        3   -1    0    0  501    0  0.00000000000E+00  0.00000000000E+00 -0.33055128459E+03  0.33055130002E+03  0.10100000352E+00 0. -1.
    10030    2    1    2    0    0  0.00000000000E+00  0.00000000000E+00  0.58865552326E+03  0.12497581134E+04  0.11024427500E+04 0.  0.
        1    1    3    3  502    0  0.52361444843E+03  0.82501020457E+01  0.48938018365E+03  0.71675178337E+03  0.50400001928E-02 0.  1.
       -1    1    3    3    0  502 -0.52361444843E+03 -0.82501020457E+01  0.99275339610E+02  0.53300633005E+03  0.50400001928E-02 0. -1.
</event>
<event>
 5   0  0.5409500E-04  0.1099189E+04  0.7818609E-02  0.9205983E-01
        4   -1    0    0  501    0  0.00000000000E+00  0.00000000000E+00  0.65795299870E+03  0.65795422439E+03  0.12699999809E+01 0.  1.
       -4   -1    0    0    0  501  0.00000000000E+00  0.00000000000E+00 -0.45907870321E+03  0.45908045988E+03  0.12699999809E+01 0. -1.
    10030    2    1    2    0    0  0.00000000000E+00  0.00000000000E+00  0.19887429549E+03  0.11170346843E+04  0.10991885646E+04 0.  0.
        4    1    3    3  502    0  0.45350714065E+03  0.45853352549E+01 -0.21602591053E+03  0.50235302213E+03  0.12699999809E+01 0. -1.
       -4    1    3    3    0  502 -0.45350714065E+03 -0.45853352549E+01  0.41490020602E+03  0.61468166214E+03  0.12699999809E+01 0.  1.
</event>
<event>
 5   0  0.8009636E-04  0.1098600E+04  0.7818609E-02  0.9206558E-01
        1   -1    0    0  501    0  0.00000000000E+00  0.00000000000E+00  0.16694336396E+04  0.16694336397E+04  0.50400001928E-02 0. -1.
       -1   -1    0    0    0  501  0.00000000000E+00  0.00000000000E+00 -0.18073820736E+03  0.18073820743E+03  0.50400001928E-02 0.  1.
    10030    2    1    2    0    0  0.00000000000E+00  0.00000000000E+00  0.14886954323E+04  0.18501718471E+04  0.10985999152E+04 0.  0.
        1    1    3    3  502    0  0.88855266915E+02 -0.36498576309E+03  0.14193000430E+04  0.14681697714E+04  0.50400001928E-02 0. -1.
       -1    1    3    3    0  502 -0.88855266915E+02  0.36498576309E+03  0.69395389290E+02  0.38200207564E+03  0.50400001928E-02 0.  1.
</event>
<event>
 5   0  0.8009636E-04  0.1103226E+04  0.7818609E-02  0.9202053E-01
       -1   -1    0    0    0  501  0.00000000000E+00  0.00000000000E+00  0.58079886250E+03  0.58079886252E+03  0.50400001928E-02 0.  1.
        1   -1    0    0  501    0  0.00000000000E+00  0.00000000000E+00 -0.52389371432E+03  0.52389371435E+03  0.50400001928E-02 0. -1.
    10030    2    1    2    0    0  0.00000000000E+00  0.00000000000E+00  0.56905148180E+02  0.11046925769E+04  0.11032259485E+04 0.  0.
        1    1    3    3  502    0  0.48267819940E+03  0.20874640395E+03 -0.13827273418E+03  0.54375790052E+03  0.50400001928E-02 0.  1.
       -1    1    3    3    0  502 -0.48267819940E+03 -0.20874640395E+03  0.19517788236E+03  0.56093467635E+03  0.50400001928E-02 0. -1.
</event>
<event>
 5   0  0.8150924E-04  0.1097271E+04  0.7818609E-02  0.9207856E-01
        1   -1    0    0  501    0  0.00000000000E+00  0.00000000000E+00  0.45035459681E+03  0.45035459684E+03  0.50400001928E-02 0.  1.
       -1   -1    0    0    0  501  0.00000000000E+00  0.00000000000E+00 -0.66836427081E+03  0.66836427083E+03  0.50400001928E-02 0. -1.
    10030    2    1    2    0    0  0.00000000000E+00  0.00000000000E+00 -0.21800967400E+03  0.11187188677E+04  0.10972710180E+04 0.  0.
        3    1    3    3  502    0  0.51558776190E+03 -0.15463836050E+03 -0.83124353449E+00  0.53827916914E+03  0.10100000352E+00 0.  1.
       -3    1    3    3    0  502 -0.51558776190E+03  0.15463836050E+03 -0.21717843047E+03  0.58043969853E+03  0.10100000352E+00 0. -1.
</event>
<event>
 5   0  0.1372794E-03  0.1111007E+04  0.7818609E-02  0.9194530E-01
       -2   -1    0    0    0  501  0.00000000000E+00  0.00000000000E+00  0.12787447718E+03  0.12787447721E+03  0.25500000920E-02 0. -1.
        2   -1    0    0  501    0  0.00000000000E+00  0.00000000000E+00 -0.24131802378E+04  0.24131802378E+04  0.25500000920E-02 0.  1.
    10030    2    1    2    0    0  0.00000000000E+00  0.00000000000E+00 -0.22853057606E+04  0.25410547150E+04  0.11110070410E+04 0.  0.
        4    1    3    3  502    0  0.84632263820E+02 -0.40292347617E+03 -0.19955919209E+04  0.20376208370E+04  0.12699999809E+01 0.  1.
       -4    1    3    3    0  502 -0.84632263820E+02  0.40292347617E+03 -0.28971383979E+03  0.50343387808E+03  0.12699999809E+01 0. -1.
</event>
<event>
 5   0  0.1425432E-03  0.1099318E+04  0.7818609E-02  0.9205857E-01
        2   -1    0    0  501    0  0.00000000000E+00  0.00000000000E+00  0.48514907467E+03  0.48514907468E+03  0.25500000920E-02 0. -1.
       -2   -1    0    0    0  501  0.00000000000E+00  0.00000000000E+00 -0.62274642834E+03  0.62274642835E+03  0.25500000920E-02 0.  1.
    10030    2    1    2    0    0  0.00000000000E+00  0.00000000000E+00 -0.13759735367E+03  0.11078955030E+04  0.10993177038E+04 0.  0.
        1    1    3    3  502    0 -0.55139999617E+02  0.12174790282E+02 -0.61981547440E+03  0.62238241251E+03  0.50400001928E-02 0.  1.
       -1    1    3    3    0  502  0.55139999617E+02 -0.12174790282E+02  0.48221812073E+03  0.48551309051E+03  0.50400001928E-02 0. -1.
</event>
<event>
 5   0  0.5409500E-04  0.1104383E+04  0.7818609E-02  0.9200930E-01
        4   -1    0    0  501    0  0.00000000000E+00  0.00000000000E+00  0.33923261816E+03  0.33923499543E+03  0.12699999809E+01 0.  1.
       -4   -1    0    0    0  501  0.00000000000E+00  0.00000000000E+00 -0.89883319468E+03  0.89883409190E+03  0.12699999809E+01 0. -1.
    10030    2    1    2    0    0  0.00000000000E+00  0.00000000000E+00 -0.55960057652E+03  0.12380690873E+04  0.11043832033E+04 0.  0.
        4    1    3    3  502    0  0.42682509805E+03 -0.32929088468E+03 -0.14573373247E+03  0.55843718066E+03  0.12699999809E+01 0.  1.
       -4    1    3    3    0  502 -0.42682509805E+03  0.32929088468E+03 -0.41386684405E+03  0.67963190667E+03  0.12699999809E+01 0. -1.
</event>
<event>
 5   0  0.8341767E-04  0.1100064E+04  0.7818609E-02  0.9205130E-01
       -1   -1    0    0    0  501  0.00000000000E+00  0.00000000000E+00  0.48653422743E+03  0.48653422746E+03  0.50400001928E-02 0. -1.
        1   -1    0    0  501    0  0.00000000000E+00  0.00000000000E+00 -0.62181662303E+03  0.62181662305E+03  0.50400001928E-02 0.  1.
    10030    2    1    2    0    0  0.00000000000E+00  0.00000000000E+00 -0.13528239560E+03  0.11083508505E+04  0.11000637624E+04 0.  0.
        2    1    3    3  502    0 -0.52571409266E+03 -0.64488443575E+02 -0.21708594254E+03  0.57241625853E+03  0.25500000920E-02 0.  1.
       -2    1    3    3    0  502  0.52571409266E+03  0.64488443575E+02  0.81803546934E+02  0.53593459198E+03  0.25500000920E-02 0. -1.
</event>
<event>
 5   0  0.8305271E-04  0.1098422E+04  0.7818609E-02  0.9206731E-01
        1   -1    0    0  501    0  0.00000000000E+00  0.00000000000E+00  0.29107960899E+03  0.29107960903E+03  0.50400001928E-02 0.  1.
       -1   -1    0    0    0  501  0.00000000000E+00  0.00000000000E+00 -0.10362546605E+04  0.10362546606E+04  0.50400001928E-02 0. -1.
    10030    2    1    2    0    0  0.00000000000E+00  0.00000000000E+00 -0.74517505156E+03  0.13273342696E+04  0.10984217795E+04 0.  0.
        5    1    3    3  502    0  0.23060809438E+03 -0.16070372354E+03 -0.94272339828E+03  0.98374553397E+03  0.46999998093E+01 0. -1.
       -5    1    3    3    0  502 -0.23060809438E+03  0.16070372354E+03  0.19754834672E+03  0.34358873562E+03  0.46999998093E+01 0.  1.
</event>
<event>
 5   0  0.1372794E-03  0.1099686E+04  0.7818609E-02  0.9205498E-01
       -2   -1    0    0    0  501  0.00000000000E+00  0.00000000000E+00  0.21467936530E+03  0.21467936531E+03  0.25500000920E-02 0.  1.
        2   -1    0    0  501    0  0.00000000000E+00  0.00000000000E+00 -0.14082740857E+04  0.14082740857E+04  0.25500000920E-02 0. -1.
    10030    2    1    2    0    0  0.00000000000E+00  0.00000000000E+00 -0.11935947204E+04  0.16229534510E+04  0.10996861132E+04 0.  0.
        4    1    3    3  502    0  0.25134357552E+03 -0.34287744482E+03 -0.82183687216E+02  0.43300612751E+03  0.12699999809E+01 0.  1.
       -4    1    3    3    0  502 -0.25134357552E+03  0.34287744482E+03 -0.11114110332E+04  0.11899473235E+04  0.12699999809E+01 0. -1.
</event>
<event>
 5   0  0.8150924E-04  0.1112594E+04  0.7818609E-02  0.9193003E-01
       -1   -1    0    0    0  501  0.00000000000E+00  0.00000000000E+00  0.26274966690E+03  0.26274966695E+03  0.50400001928E-02 0. -1.
        1   -1    0    0  501    0  0.00000000000E+00  0.00000000000E+00 -0.11777999581E+04  0.11777999581E+04  0.50400001928E-02 0.  1.
    10030    2    1    2    0    0  0.00000000000E+00  0.00000000000E+00 -0.91505029120E+03  0.14405496251E+04  0.11125943496E+04 0.  0.
        3    1    3    3  502    0 -0.49972502582E+03  0.46319296213E+02 -0.76825814449E+03  0.91765525411E+03  0.10100000352E+00 0.  1.
       -3    1    3    3    0  502  0.49972502582E+03 -0.46319296213E+02 -0.14679214671E+03  0.52289437094E+03  0.10100000352E+00 0. -1.
</event>
<event>
 5   0  0.1372794E-03  0.1103105E+04  0.7818609E-02  0.9202171E-01
       -2   -1    0    0    0  501  0.00000000000E+00  0.00000000000E+00  0.38106240085E+03  0.38106240086E+03  0.25500000920E-02 0.  1.
        2   -1    0    0  501    0  0.00000000000E+00  0.00000000000E+00 -0.79832132445E+03  0.79832132445E+03  0.25500000920E-02 0. -1.
    10030    2    1    2    0    0  0.00000000000E+00  0.00000000000E+00 -0.41725892360E+03  0.11793837253E+04  0.11031051456E+04 0.  0.
        4    1    3    3  502    0 -0.48374006318E+03  0.16376969152E+03  0.14060863357E+02  0.51090535460E+03  0.12699999809E+01 0.  1.
       -4    1    3    3    0  502  0.48374006318E+03 -0.16376969152E+03 -0.43131978695E+03  0.66847837071E+03  0.12699999809E+01 0. -1.
</event>
<event>
 5   0  0.8009636E-04  0.1097010E+04  0.7818609E-02  0.9208111E-01
        1   -1    0    0  501    0  0.00000000000E+00  0.00000000000E+00  0.42222582012E+03  0.42222582015E+03  0.50400001928E-02 0. -1.
       -1   -1    0    0    0  501  0.00000000000E+00  0.00000000000E+00 -0.71255226439E+03  0.71255226440E+03  0.50400001928E-02 0.  1.
    10030    2    1    2    0    0  0.00000000000E+00  0.00000000000E+00 -0.29032644426E+03  0.11347780846E+04  0.10970104179E+04 0.  0.
        1    1    3    3  502    0  0.39770041027E+03 -0.37709030637E+03 -0.12214287474E+03  0.56149941884E+03  0.50400001928E-02 0. -1.
       -1    1    3    3    0  502 -0.39770041027E+03  0.37709030637E+03 -0.16818356953E+03  0.57327866572E+03  0.50400001928E-02 0.  1.
</event>
<event>
 5   0  0.8009636E-04  0.1105769E+04  0.7818609E-02  0.9199588E-01
        1   -1    0    0  501    0  0.00000000000E+00  0.00000000000E+00  0.10776494662E+04  0.10776494662E+04  0.50400001928E-02 0. -1.
       -1   -1    0    0    0  501  0.00000000000E+00  0.00000000000E+00 -0.28365533895E+03  0.28365533899E+03  0.50400001928E-02 0.  1.
    10030    2    1    2    0    0  0.00000000000E+00  0.00000000000E+00  0.79399412727E+03  0.13613048052E+04  0.11057685556E+04 0.  0.
        1    1    3    3  502    0  0.24245267597E+03  0.23615015784E+03  0.93521294888E+03  0.99457199684E+03  0.50400001928E-02 0. -1.
       -1    1    3    3    0  502 -0.24245267597E+03 -0.23615015784E+03 -0.14121882161E+03  0.36673280837E+03  0.50400001928E-02 0.  1.
</event>
<event>
 5   0  0.1372794E-03  0.1095068E+04  0.7818609E-02  0.9210013E-01
        2   -1    0    0  501    0  0.00000000000E+00  0.00000000000E+00  0.36242204488E+03  0.36242204489E+03  0.25500000920E-02 0.  1.
       -2   -1    0    0    0  501  0.00000000000E+00  0.00000000000E+00 -0.82719403638E+03  0.82719403639E+03  0.25500000920E-02 0. -1.
    10030    2    1    2    0    0  0.00000000000E+00  0.00000000000E+00 -0.46477199150E+03  0.11896160813E+04  0.10950677681E+04 0.  0.
        4    1    3    3  502    0  0.30506855725E+03 -0.26213572318E+03  0.17118575681E+03  0.43713629250E+03  0.12699999809E+01 0.  1.
       -4    1    3    3    0  502 -0.30506855725E+03  0.26213572318E+03 -0.63595774831E+03  0.75247978878E+03  0.12699999809E+01 0. -1.
</event>
<event>
 5   0  0.1425432E-03  0.1097497E+04  0.7818609E-02  0.9207634E-01
        2   -1    0    0  501    0  0.00000000000E+00  0.00000000000E+00  0.12543810417E+04  0.12543810417E+04  0.25500000920E-02 0.  1.
       -2   -1    0    0    0  501  0.00000000000E+00  0.00000000000E+00 -0.24005876779E+03  0.24005876780E+03  0.25500000920E-02 0. -1.
    10030    2    1    2    0    0  0.00000000000E+00  0.00000000000E+00  0.10143222739E+04  0.14944398095E+04  0.10974974573E+04 0.  0.
        1    1    3    3  502    0  0.11523898639E+03 -0.41269205603E+03  0.97398175686E+03  0.10640654208E+04  0.50400001928E-02 0.  1.
       -1    1    3    3    0  502 -0.11523898639E+03  0.41269205603E+03  0.40340517064E+02  0.43037438868E+03  0.50400001928E-02 0. -1.
</event>
<event>
 5   0  0.1396936E-03  0.1098020E+04  0.7818609E-02  0.9207124E-01
        2   -1    0    0  501    0  0.00000000000E+00  0.00000000000E+00  0.20723149623E+04  0.20723149623E+04  0.25500000920E-02 0. -1.
       -2   -1    0    0    0  501  0.00000000000E+00  0.00000000000E+00 -0.14544695046E+03  0.14544695048E+03  0.25500000920E-02 0.  1.
    10030    2    1    2    0    0  0.00000000000E+00  0.00000000000E+00  0.19268680119E+04  0.22177619128E+04  0.10980198390E+04 0.  0.
        2    1    3    3  502    0 -0.20770458509E+03 -0.15830361147E+03 -0.11957425583E+02  0.26142725203E+03  0.25500000920E-02 0.  1.
       -2    1    3    3    0  502  0.20770458509E+03  0.15830361147E+03  0.19388254374E+04  0.19563346608E+04  0.25500000920E-02 0. -1.
</event>
<event>
 5   0  0.1372794E-03  0.1105879E+04  0.7818609E-02  0.9199481E-01
       -2   -1    0    0    0  501  0.00000000000E+00  0.00000000000E+00  0.77031204722E+03  0.77031204722E+03  0.25500000920E-02 0.  1.
        2   -1    0    0  501    0  0.00000000000E+00  0.00000000000E+00 -0.39690647532E+03  0.39690647533E+03  0.25500000920E-02 0. -1.
    10030    2    1    2    0    0  0.00000000000E+00  0.00000000000E+00  0.37340557190E+03  0.11672185226E+04  0.11058785459E+04 0.  0.
        4    1    3    3  502    0  0.29834192395E+03 -0.30786613855E+03  0.55528722853E+03  0.70152332956E+03  0.12699999809E+01 0.  1.
       -4    1    3    3    0  502 -0.29834192395E+03  0.30786613855E+03 -0.18188165663E+03  0.46569519299E+03  0.12699999809E+01 0. -1.
</event>
<event>
 5   0  0.8009636E-04  0.1099944E+04  0.7818609E-02  0.9205246E-01
       -1   -1    0    0    0  501  0.00000000000E+00  0.00000000000E+00  0.38463141775E+03  0.38463141779E+03  0.50400001928E-02 0. -1.
        1   -1    0    0  501    0  0.00000000000E+00  0.00000000000E+00 -0.78638783883E+03  0.78638783885E+03  0.50400001928E-02 0.  1.
    10030    2    1    2    0    0  0.00000000000E+00  0.00000000000E+00 -0.40175642107E+03  0.11710192566E+04  0.10999444884E+04 0.  0.
        1    1    3    3  502    0 -0.13977983523E+02  0.22583008524E+03  0.33278564189E+03  0.40241880535E+03  0.50400001928E-02 0. -1.
       -1    1    3    3    0  502  0.13977983523E+02 -0.22583008524E+03 -0.73454206297E+03  0.76860045129E+03  0.50400001928E-02 0.  1.
</event>
<event>
 5   0  0.8150924E-04  0.1103469E+04  0.7818609E-02  0.9201817E-01
       -1   -1    0    0    0  501  0.00000000000E+00  0.00000000000E+00  0.21554561708E+03  0.21554561714E+03  0.50400001928E-02 0. -1.
        1   -1    0    0  501    0  0.00000000000E+00  0.00000000000E+00 -0.14122821545E+04  0.14122821545E+04  0.50400001928E-02 0.  1.
    10030    2    1    2    0    0  0.00000000000E+00  0.00000000000E+00 -0.11967365374E+04  0.16278277717E+04  0.11034694895E+04 0.  0.
        3    1    3    3  502    0 -0.11736179480E+03 -0.26500284589E+03 -0.12909398657E+04  0.13230744674E+04  0.10100000352E+00 0.  1.
       -3    1    3    3    0  502  0.11736179480E+03  0.26500284589E+03  0.94203328263E+02  0.30475330427E+03  0.10100000352E+00 0. -1.
</event>
<event>
 5   0  0.1396936E-03  0.1082233E+04  0.7818609E-02  0.9222684E-01
        2   -1    0    0  501    0  0.00000000000E+00  0.00000000000E+00  0.15654430931E+04  0.15654430931E+04  0.25500000920E-02 0.  1.
       -2   -1    0    0    0  501  0.00000000000E+00  0.00000000000E+00 -0.18704426570E+03  0.18704426572E+03  0.25500000920E-02 0. -1.
    10030    2    1    2    0    0  0.00000000000E+00  0.00000000000E+00  0.13783988274E+04  0.17524873588E+04  0.10822331613E+04 0.  0.
        2    1    3    3  502    0  0.20857319017E+03  0.41468599836E+03  0.23886424685E+03  0.52203772021E+03  0.25500000920E-02 0.  1.
       -2    1    3    3    0  502 -0.20857319017E+03 -0.41468599836E+03  0.11395345806E+04  0.12304496386E+04  0.25500000920E-02 0. -1.
</event>
<event>
 5   0  0.8341767E-04  0.1117673E+04  0.7818609E-02  0.9188136E-01
       -1   -1    0    0    0  501  0.00000000000E+00  0.00000000000E+00  0.98488485573E+03  0.98488485574E+03  0.50400001928E-02 0.  1.
        1   -1    0    0  501    0  0.00000000000E+00  0.00000000000E+00 -0.31709119973E+03  0.31709119977E+03  0.50400001928E-02 0. -1.
    10030    2    1    2    0    0  0.00000000000E+00  0.00000000000E+00  0.66779365600E+03  0.13019760555E+04  0.11176731553E+04 0.  0.
        2    1    3    3  502    0 -0.96969462308E+02 -0.37060573364E+03 -0.14007044467E+03  0.40788652332E+03  0.25500000920E-02 0. -1.
       -2    1    3    3    0  502  0.96969462308E+02  0.37060573364E+03  0.80786410067E+03  0.89408953219E+03  0.25500000920E-02 0.  1.
</event>
<event>
 5   0  0.7946038E-04  0.1097067E+04  0.7818609E-02  0.9208056E-01
       -1   -1    0    0    0  501  0.00000000000E+00  0.00000000000E+00  0.41823441420E+03  0.41823441423E+03  0.50400001928E-02 0.  1.
        1   -1    0    0  501    0  0.00000000000E+00  0.00000000000E+00 -0.71942631282E+03  0.71942631284E+03  0.50400001928E-02 0. -1.
    10030    2    1    2    0    0  0.00000000000E+00  0.00000000000E+00 -0.30119189863E+03  0.11376607271E+04  0.10970667118E+04 0.  0.
        4    1    3    3  502    0 -0.53954963895E+03  0.93094939431E+02 -0.11609712501E+03  0.55969691439E+03  0.12699999809E+01 0.  1.
       -4    1    3    3    0  502  0.53954963895E+03 -0.93094939431E+02 -0.18509477361E+03  0.57796381267E+03  0.12699999809E+01 0. -1.
</event>
<event>
 5   0  0.7946038E-04  0.1093978E+04  0.7818609E-02  0.9211081E-01
       -1   -1    0    0    0  501  0.00000000000E+00  0.00000000000E+00  0.99435299535E+03  0.99435299536E+03  0.50400001928E-02 0.  1.
        1   -1    0    0  501    0  0.00000000000E+00  0.00000000000E+00 -0.30089625766E+03  0.30089625771E+03  0.50400001928E-02 0. -1.
    10030    2    1    2    0    0  0.00000000000E+00  0.00000000000E+00  0.69345673768E+03  0.12952492531E+04  0.10939782359E+04 0.  0.
        4    1    3    3  502    0  0.57591513066E+02 -0.10471614218E+03 -0.28524819928E+03  0.30927399002E+03  0.12699999809E+01 0. -1.
       -4    1    3    3    0  502 -0.57591513066E+02  0.10471614218E+03  0.97870493696E+03  0.98597526305E+03  0.12699999809E+01 0.  1.
</event>
<event>
 5   0  0.1396936E-03  0.1101667E+04  0.7818609E-02  0.9203568E-01
        2   -1    0    0  501    0  0.00000000000E+00  0.00000000000E+00  0.81955588417E+03  0.81955588418E+03  0.25500000920E-02 0. -1.
       -2   -1    0    0    0  501  0.00000000000E+00  0.00000000000E+00 -0.37022208913E+03  0.37022208914E+03  0.25500000920E-02 0.  1.
    10030    2    1    2    0    0  0.00000000000E+00  0.00000000000E+00  0.44933379504E+03  0.11897779733E+04  0.11016672667E+04 0.  0.
        2    1    3    3  502    0  0.20949646504E+01 -0.20024995275E+03 -0.32951437188E+03  0.38559584247E+03  0.25500000920E-02 0.  1.
       -2    1    3    3    0  502 -0.20949646504E+01  0.20024995275E+03  0.77884816692E+03  0.80418213085E+03  0.25500000920E-02 0. -1.
</event>
<event>
 5   0  0.8009636E-04  0.1093007E+04  0.7818609E-02  0.9212034E-01
       -1   -1    0    0    0  501  0.00000000000E+00  0.00000000000E+00  0.12265019708E+03  0.12265019718E+03  0.50400001928E-02 0.  1.
        1   -1    0    0  501    0  0.00000000000E+00  0.00000000000E+00 -0.24351053197E+04  0.24351053197E+04  0.50400001928E-02 0. -1.
    10030    2    1    2    0    0  0.00000000000E+00  0.00000000000E+00 -0.23124551226E+04  0.25577555169E+04  0.10930071317E+04 0.  0.
        1    1    3    3  502    0 -0.86316767389E+02 -0.33123537685E+03 -0.21531761886E+04  0.21802144753E+04  0.50400001928E-02 0. -1.
       -1    1    3    3    0  502  0.86316767389E+02  0.33123537685E+03 -0.15927893400E+03  0.37754104154E+03  0.50400001928E-02 0.  1.
</event>
<event>
 5   0  0.1396936E-03  0.1103338E+04  0.7818609E-02  0.9201944E-01
       -2   -1    0    0    0  501  0.00000000000E+00  0.00000000000E+00  0.14367224192E+03  0.14367224195E+03  0.25500000920E-02 0. -1.
        2   -1    0    0  501    0  0.00000000000E+00  0.00000000000E+00 -0.21182855486E+04  0.21182855486E+04  0.25500000920E-02 0.  1.
    10030    2    1    2    0    0  0.00000000000E+00  0.00000000000E+00 -0.19746133066E+04  0.22619577905E+04  0.11033382688E+04 0.  0.
        2    1    3    3  502    0 -0.28689021503E+03  0.43536761158E+03 -0.61778787925E+03  0.80840139563E+03  0.25500000920E-02 0.  1.
       -2    1    3    3    0  502  0.28689021503E+03 -0.43536761158E+03 -0.13568254274E+04  0.14535563949E+04  0.25500000920E-02 0. -1.
</event>
<event>
 5   0  0.1396936E-03  0.1117404E+04  0.7818609E-02  0.9188393E-01
        2   -1    0    0  501    0  0.00000000000E+00  0.00000000000E+00  0.13929759872E+04  0.13929759872E+04  0.25500000920E-02 0. -1.
       -2   -1    0    0    0  501  0.00000000000E+00  0.00000000000E+00 -0.22408712211E+03  0.22408712213E+03  0.25500000920E-02 0.  1.
    10030    2    1    2    0    0  0.00000000000E+00  0.00000000000E+00  0.11688888651E+04  0.16170631093E+04  0.11174040991E+04 0.  0.
        2    1    3    3  502    0 -0.33759634933E+03 -0.22424053234E+03  0.27912195424E+02  0.40624401791E+03  0.25500000920E-02 0.  1.
       -2    1    3    3    0  502  0.33759634933E+03  0.22424053234E+03  0.11409766696E+04  0.12108190914E+04  0.25500000920E-02 0. -1.
</event>
<event>
 5   0  0.1396936E-03  0.1100447E+04  0.7818609E-02  0.9204756E-01
        2   -1    0    0  501    0  0.00000000000E+00  0.00000000000E+00  0.11193813077E+04  0.11193813077E+04  0.25500000920E-02 0.  1.
       -2   -1    0    0    0  501  0.00000000000E+00  0.00000000000E+00 -0.27045817648E+03  0.27045817649E+03  0.25500000920E-02 0. -1.
    10030    2    1    2    0    0  0.00000000000E+00  0.00000000000E+00  0.84892313122E+03  0.13898394842E+04  0.11004468679E+04 0.  0.
        2    1    3    3  502    0 -0.47825972617E+03  0.20803341476E+03  0.64588120113E+03  0.83016431706E+03  0.25500000920E-02 0.  1.
       -2    1    3    3    0  502  0.47825972617E+03 -0.20803341476E+03  0.20304193009E+03  0.55967516714E+03  0.25500000920E-02 0. -1.
</event>
<event>
 5   0  0.1425432E-03  0.1099706E+04  0.7818609E-02  0.9205479E-01
        2   -1    0    0  501    0  0.00000000000E+00  0.00000000000E+00  0.17735795519E+03  0.17735795520E+03  0.25500000920E-02 0. -1.
       -2   -1    0    0    0  501  0.00000000000E+00  0.00000000000E+00 -0.17046775937E+04  0.17046775937E+04  0.25500000920E-02 0.  1.
    10030    2    1    2    0    0  0.00000000000E+00  0.00000000000E+00 -0.15273196385E+04  0.18820355489E+04  0.10997056557E+04 0.  0.
        1    1    3    3  502    0  0.33476948822E+03  0.40303285610E+03 -0.10491714964E+04  0.11727177505E+04  0.50400001928E-02 0.  1.
       -1    1    3    3    0  502 -0.33476948822E+03 -0.40303285610E+03 -0.47814814204E+03  0.70931779839E+03  0.50400001928E-02 0. -1.
</event>
<event>
 5   0  0.8341767E-04  0.1098045E+04  0.7818609E-02  0.9207099E-01
       -1   -1    0    0    0  501  0.00000000000E+00  0.00000000000E+00  0.73365900932E+03  0.73365900934E+03  0.50400001928E-02 0. -1.
        1   -1    0    0  501    0  0.00000000000E+00  0.00000000000E+00 -0.41085264410E+03  0.41085264413E+03  0.50400001928E-02 0.  1.
    10030    2    1    2    0    0  0.00000000000E+00  0.00000000000E+00  0.32280636522E+03  0.11445116535E+04  0.10980450699E+04 0.  0.
        2    1    3    3  502    0 -0.61627785937E+02  0.45671315193E+03 -0.14962140125E+03  0.48453219797E+03  0.25500000920E-02 0.  1.
       -2    1    3    3    0  502  0.61627785937E+02 -0.45671315193E+03  0.47242776647E+03  0.65997945550E+03  0.25500000920E-02 0. -1.
</event>
<event>
 5   0  0.1372794E-03  0.1106143E+04  0.7818609E-02  0.9199225E-01
        2   -1    0    0  501    0  0.00000000000E+00  0.00000000000E+00  0.59165827422E+03  0.59165827422E+03  0.25500000920E-02 0.  1.
       -2   -1    0    0    0  501  0.00000000000E+00  0.00000000000E+00 -0.51700117932E+03  0.51700117932E+03  0.25500000920E-02 0. -1.
    10030    2    1    2    0    0  0.00000000000E+00  0.00000000000E+00  0.74657094899E+02  0.11086594535E+04  0.11061428941E+04 0.  0.
        4    1    3    3  502    0 -0.27358222474E+03  0.19800376239E+03  0.47631323340E+03  0.58389094257E+03  0.12699999809E+01 0.  1.
       -4    1    3    3    0  502  0.27358222474E+03 -0.19800376239E+03 -0.40165613850E+03  0.52476851097E+03  0.12699999809E+01 0. -1.
</event>
<event>
 5   0  0.1402775E-03  0.1097350E+04  0.7818609E-02  0.9207779E-01
        2   -1    0    0  501    0  0.00000000000E+00  0.00000000000E+00  0.16506467126E+04  0.16506467126E+04  0.25500000920E-02 0. -1.
       -2   -1    0    0    0  501  0.00000000000E+00  0.00000000000E+00 -0.18237949647E+03  0.18237949649E+03  0.25500000920E-02 0.  1.
    10030    2    1    2    0    0  0.00000000000E+00  0.00000000000E+00  0.14682672161E+04  0.18330262091E+04  0.10973497461E+04 0.  0.
        5    1    3    3  502    0  0.45806229367E+03  0.23771764283E+03  0.42300940828E+03  0.66730037621E+03  0.46999998093E+01 0.  1.
       -5    1    3    3    0  502 -0.45806229367E+03 -0.23771764283E+03  0.10452578078E+04  0.11657258329E+04  0.46999998093E+01 0. -1.
</event>
<event>
 5   0  0.8150924E-04  0.1097897E+04  0.7818609E-02  0.9207244E-01
       -1   -1    0    0    0  501  0.00000000000E+00  0.00000000000E+00  0.65437612386E+03  0.65437612388E+03  0.50400001928E-02 0. -1.
        1   -1    0    0  501    0  0.00000000000E+00  0.00000000000E+00 -0.46050617798E+03  0.46050617800E+03  0.50400001928E-02 0.  1.
    10030    2    1    2    0    0  0.00000000000E+00  0.00000000000E+00  0.19386994588E+03  0.11148823019E+04  0.10978966213E+04 0.  0.
        3    1    3    3  502    0 -0.39243168936E+01  0.47197561280E+03 -0.18770115968E+03  0.50794499199E+03  0.10100000352E+00 0. -1.
       -3    1    3    3    0  502  0.39243168936E+01 -0.47197561280E+03  0.38157110556E+03  0.60693730989E+03  0.10100000352E+00 0.  1.
</event>
<event>
 5   0  0.1402775E-03  0.1095517E+04  0.7818609E-02  0.9209572E-01
       -2   -1    0    0    0  501  0.00000000000E+00  0.00000000000E+00  0.85237964305E+03  0.85237964306E+03  0.25500000920E-02 0.  1.
        2   -1    0    0  501    0  0.00000000000E+00  0.00000000000E+00 -0.35200203807E+03  0.35200203808E+03  0.25500000920E-02 0. -1.
    10030    2    1    2    0    0  0.00000000000E+00  0.00000000000E+00  0.50037760498E+03  0.12043816811E+04  0.10955169950E+04 0.  0.
        5    1    3    3  502    0 -0.12087489554E+03 -0.47281542411E+03 -0.23226175822E+02  0.48859667507E+03  0.46999998093E+01 0. -1.
       -5    1    3    3    0  502  0.12087489554E+03  0.47281542411E+03  0.52360378081E+03  0.71578500607E+03  0.46999998093E+01 0.  1.
</event>
<event>
 5   0  0.8305271E-04  0.1099317E+04  0.7818609E-02  0.9205858E-01
       -1   -1    0    0    0  501  0.00000000000E+00  0.00000000000E+00  0.28307766026E+03  0.28307766031E+03  0.50400001928E-02 0. -1.
        1   -1    0    0  501    0  0.00000000000E+00  0.00000000000E+00 -0.10672843885E+04  0.10672843885E+04  0.50400001928E-02 0.  1.
    10030    2    1    2    0    0  0.00000000000E+00  0.00000000000E+00 -0.78420672820E+03  0.13503620488E+04  0.10993168198E+04 0.  0.
        5    1    3    3  502    0 -0.31753008274E+03 -0.27462331262E+03 -0.82788549772E+03  0.92825632484E+03  0.46999998093E+01 0.  1.
       -5    1    3    3    0  502  0.31753008274E+03  0.27462331262E+03  0.43678769515E+02  0.42210572394E+03  0.46999998093E+01 0. -1.
</event>
<event>
 5   0  0.1402775E-03  0.1103522E+04  0.7818609E-02  0.9201766E-01
        2   -1    0    0  501    0  0.00000000000E+00  0.00000000000E+00  0.71971212659E+03  0.71971212659E+03  0.25500000920E-02 0. -1.
       -2   -1    0    0    0  501  0.00000000000E+00  0.00000000000E+00 -0.42300244076E+03  0.42300244077E+03  0.25500000920E-02 0.  1.
    10030    2    1    2    0    0  0.00000000000E+00  0.00000000000E+00  0.29670968583E+03  0.11427145674E+04  0.11035216105E+04 0.  0.
        5    1    3    3  502    0 -0.20309821967E+03  0.19667266969E+03 -0.34227541539E+03  0.44396348478E+03  0.46999998093E+01 0.  1.
       -5    1    3    3    0  502  0.20309821967E+03 -0.19667266969E+03  0.63898510122E+03  0.69875108258E+03  0.46999998093E+01 0. -1.
</event>
<event>
 5   0  0.1396936E-03  0.1099990E+04  0.7818609E-02  0.9205202E-01
        2   -1    0    0  501    0  0.00000000000E+00  0.00000000000E+00  0.17510550152E+04  0.17510550152E+04  0.25500000920E-02 0. -1.
       -2   -1    0    0    0  501  0.00000000000E+00  0.00000000000E+00 -0.17274976390E+03  0.17274976392E+03  0.25500000920E-02 0.  1.
    10030    2    1    2    0    0  0.00000000000E+00  0.00000000000E+00  0.15783052513E+04  0.19238047792E+04  0.10999897099E+04 0.  0.
        2    1    3    3  502    0  0.48914567965E+03  0.30032223645E+02  0.12257862161E+04  0.13201201756E+04  0.25500000920E-02 0. -1.
       -2    1    3    3    0  502 -0.48914567965E+03 -0.30032223645E+02  0.35251903520E+03  0.60368460355E+03  0.25500000920E-02 0.  1.
</event>
<event>
 5   0  0.8009636E-04  0.1104818E+04  0.7818609E-02  0.9200508E-01
        1   -1    0    0  501    0  0.00000000000E+00  0.00000000000E+00  0.13679971611E+04  0.13679971612E+04  0.50400001928E-02 0. -1.
       -1   -1    0    0    0  501  0.00000000000E+00  0.00000000000E+00 -0.22306765725E+03  0.22306765731E+03  0.50400001928E-02 0.  1.
    10030    2    1    2    0    0  0.00000000000E+00  0.00000000000E+00  0.11449295039E+04  0.15910648185E+04  0.11048183958E+04 0.  0.
        1    1    3    3  502    0 -0.24850613610E+03 -0.36554974313E+03  0.95323752946E+02  0.45218196811E+03  0.50400001928E-02 0.  1.
       -1    1    3    3    0  502  0.24850613610E+03  0.36554974313E+03  0.10496057509E+04  0.11388828504E+04  0.50400001928E-02 0. -1.
</event>
<event>
 5   0  0.8009636E-04  0.1099660E+04  0.7818609E-02  0.9205524E-01
       -1   -1    0    0    0  501  0.00000000000E+00  0.00000000000E+00  0.21621326528E+03  0.21621326534E+03  0.50400001928E-02 0. -1.
        1   -1    0    0  501    0  0.00000000000E+00  0.00000000000E+00 -0.13982157487E+04  0.13982157487E+04  0.50400001928E-02 0.  1.
    10030    2    1    2    0    0  0.00000000000E+00  0.00000000000E+00 -0.11820024834E+04  0.16144290140E+04  0.10996595703E+04 0.  0.
        1    1    3    3  502    0  0.26892297656E+03 -0.23074109227E+03 -0.12082249308E+04  0.12591141737E+04  0.50400001928E-02 0.  1.
       -1    1    3    3    0  502 -0.26892297656E+03  0.23074109227E+03  0.26222447398E+02  0.35531484033E+03  0.50400001928E-02 0. -1.
</event>
<event>
 5   0  0.1372794E-03  0.1099444E+04  0.7818609E-02  0.9205734E-01
        2   -1    0    0  501    0  0.00000000000E+00  0.00000000000E+00  0.66804673020E+03  0.66804673021E+03  0.25500000920E-02 0. -1.
       -2   -1    0    0    0  501  0.00000000000E+00  0.00000000000E+00 -0.45235459215E+03  0.45235459216E+03  0.25500000920E-02 0.  1.
    10030    2    1    2    0    0  0.00000000000E+00  0.00000000000E+00  0.21569213805E+03  0.11204013224E+04  0.10994435068E+04 0.  0.
        4    1    3    3  502    0  0.41343727495E+03  0.36151052391E+03  0.83470363746E+02  0.55550801411E+03  0.12699999809E+01 0. -1.
       -4    1    3    3    0  502 -0.41343727495E+03 -0.36151052391E+03  0.13222177431E+03  0.56489330826E+03  0.12699999809E+01 0.  1.
</event>
<event>
 5   0  0.1372794E-03  0.1096408E+04  0.7818609E-02  0.9208699E-01
       -2   -1    0    0    0  501  0.00000000000E+00  0.00000000000E+00  0.29722170149E+03  0.29722170150E+03  0.25500000920E-02 0. -1.
        2   -1    0    0  501    0  0.00000000000E+00  0.00000000000E+00 -0.10111236639E+04  0.10111236639E+04  0.25500000920E-02 0.  1.
    10030    2    1    2    0    0  0.00000000000E+00  0.00000000000E+00 -0.71390196246E+03  0.13083453654E+04  0.10964084929E+04 0.  0.
        4    1    3    3  502    0 -0.18328017451E+03 -0.36800953815E+03 -0.78968286682E+03  0.89029393213E+03  0.12699999809E+01 0.  1.
       -4    1    3    3    0  502  0.18328017451E+03  0.36800953815E+03  0.75780904359E+02  0.41805143332E+03  0.12699999809E+01 0. -1.
</event>
<event>
 5   0  0.1425432E-03  0.1109489E+04  0.7818609E-02  0.9195992E-01
       -2   -1    0    0    0  501  0.00000000000E+00  0.00000000000E+00  0.17411044980E+03  0.17411044982E+03  0.25500000920E-02 0.  1.
        2   -1    0    0  501    0  0.00000000000E+00  0.00000000000E+00 -0.17675068068E+04  0.17675068069E+04  0.25500000920E-02 0. -1.
    10030    2    1    2    0    0  0.00000000000E+00  0.00000000000E+00 -0.15933963570E+04  0.19416172567E+04  0.11094889007E+04 0.  0.
        1    1    3    3  502    0  0.23221751814E+03  0.18072735389E+03 -0.16196759645E+04  0.16461888051E+04  0.50400001928E-02 0. -1.
       -1    1    3    3    0  502 -0.23221751814E+03 -0.18072735389E+03  0.26279607452E+02  0.29542845152E+03  0.50400001928E-02 0.  1.
</event>
<event>
 5   0  0.1402775E-03  0.1097560E+04  0.7818609E-02  0.9207573E-01
       -2   -1    0    0    0  501  0.00000000000E+00  0.00000000000E+00  0.68620864471E+03  0.68620864472E+03  0.25500000920E-02 0.  1.
        2   -1    0    0  501    0  0.00000000000E+00  0.00000000000E+00 -0.43887475389E+03  0.43887475390E+03  0.25500000920E-02 0. -1.
    10030    2    1    2    0    0  0.00000000000E+00  0.00000000000E+00  0.24733389082E+03  0.11250833986E+04  0.10975602946E+04 0.  0.
        5    1    3    3  502    0 -0.29487240716E+03  0.38194127379E+03  0.39158026002E+03  0.62143870427E+03  0.46999998093E+01 0.  1.
       -5    1    3    3    0  502  0.29487240716E+03 -0.38194127379E+03 -0.14424636920E+03  0.50364469435E+03  0.46999998093E+01 0. -1.
</event>
<event>
 5   0  0.8150924E-04  0.1096421E+04  0.7818609E-02  0.9208688E-01
        1   -1    0    0  501    0  0.00000000000E+00  0.00000000000E+00  0.13601933218E+04  0.13601933218E+04  0.50400001928E-02 0.  1.
       -1   -1    0    0    0  501  0.00000000000E+00  0.00000000000E+00 -0.22094984174E+03  0.22094984180E+03  0.50400001928E-02 0. -1.
    10030    2    1    2    0    0  0.00000000000E+00  0.00000000000E+00  0.11392434800E+04  0.15811431636E+04  0.10964205384E+04 0.  0.
        3    1    3    3  502    0  0.26457424469E+03 -0.29621227865E+02 -0.12146790787E+03  0.29262845203E+03  0.10100000352E+00 0. -1.
       -3    1    3    3    0  502 -0.26457424469E+03  0.29621227865E+02  0.12607113879E+04  0.12885147115E+04  0.10100000352E+00 0.  1.
</event>
<event>
 5   0  0.8009636E-04  0.1092919E+04  0.7818609E-02  0.9212121E-01
       -1   -1    0    0    0  501  0.00000000000E+00  0.00000000000E+00  0.53892190842E+03  0.53892190845E+03  0.50400001928E-02 0.  1.
        1   -1    0    0  501    0  0.00000000000E+00  0.00000000000E+00 -0.55410287622E+03  0.55410287624E+03  0.50400001928E-02 0. -1.
    10030    2    1    2    0    0  0.00000000000E+00  0.00000000000E+00 -0.15180967796E+02  0.10930247847E+04  0.10929193557E+04 0.  0.
        1    1    3    3  502    0  0.59982479402E+02 -0.51233970882E+03  0.17278296332E+03  0.54400719436E+03  0.50400001928E-02 0.  1.
       -1    1    3    3    0  502 -0.59982479402E+02  0.51233970882E+03 -0.18796393112E+03  0.54901759034E+03  0.50400001928E-02 0. -1.
</event>
<event>
 5   0  0.1396936E-03  0.1102653E+04  0.7818609E-02  0.9202610E-01
        2   -1    0    0  501    0  0.00000000000E+00  0.00000000000E+00  0.71221500453E+03  0.71221500453E+03  0.25500000920E-02 0.  1.
       -2   -1    0    0    0  501  0.00000000000E+00  0.00000000000E+00 -0.42678241710E+03  0.42678241710E+03  0.25500000920E-02 0. -1.
    10030    2    1    2    0    0  0.00000000000E+00  0.00000000000E+00  0.28543258743E+03  0.11389974216E+04  0.11026528758E+04 0.  0.
        2    1    3    3  502    0 -0.40394721531E+03  0.35772998843E+03  0.25773685144E+02  0.54019291020E+03  0.25500000920E-02 0. -1.
       -2    1    3    3    0  502  0.40394721531E+03 -0.35772998843E+03  0.25965890229E+03  0.59880451144E+03  0.25500000920E-02 0.  1.
</event>
<event>
 5   0  0.8305271E-04  0.1101446E+04  0.7818609E-02  0.9203784E-01
       -1   -1    0    0    0  501  0.00000000000E+00  0.00000000000E+00  0.37990018495E+03  0.37990018499E+03  0.50400001928E-02 0. -1.
        1   -1    0    0  501    0  0.00000000000E+00  0.00000000000E+00 -0.79835647425E+03  0.79835647426E+03  0.50400001928E-02 0.  1.
    10030    2    1    2    0    0  0.00000000000E+00  0.00000000000E+00 -0.41845628929E+03  0.11782566592E+04  0.11014459083E+04 0.  0.
        5    1    3    3  502    0  0.36931880732E+03  0.29534471033E+03 -0.51113039863E+03  0.69634851458E+03  0.46999998093E+01 0.  1.
       -5    1    3    3    0  502 -0.36931880732E+03 -0.29534471033E+03  0.92674109337E+02  0.48190814467E+03  0.46999998093E+01 0. -1.
</event>
<event>
 5   0  0.8009636E-04  0.1086077E+04  0.7818609E-02  0.9218870E-01
        1   -1    0    0  501    0  0.00000000000E+00  0.00000000000E+00  0.60963143497E+03  0.60963143499E+03  0.50400001928E-02 0.  1.
       -1   -1    0    0    0  501  0.00000000000E+00  0.00000000000E+00 -0.48371958970E+03  0.48371958973E+03  0.50400001928E-02 0. -1.
    10030    2    1    2    0    0  0.00000000000E+00  0.00000000000E+00  0.12591184526E+03  0.10933510247E+04  0.10860767332E+04 0.  0.
        1    1    3    3  502    0  0.10813075133E+02  0.54257381157E+03  0.43141512257E+02  0.54439365693E+03  0.50400001928E-02 0.  1.
       -1    1    3    3    0  502 -0.10813075133E+02 -0.54257381157E+03  0.82770333007E+02  0.54895736779E+03  0.50400001928E-02 0. -1.
</event>
<event>
 5   0  0.8341767E-04  0.1101686E+04  0.7818609E-02  0.9203550E-01
       -1   -1    0    0    0  501  0.00000000000E+00  0.00000000000E+00  0.29252324198E+03  0.29252324202E+03  0.50400001928E-02 0.  1.
        1   -1    0    0  501    0  0.00000000000E+00  0.00000000000E+00 -0.10372780946E+04  0.10372780947E+04  0.50400001928E-02 0. -1.
    10030    2    1    2    0    0  0.00000000000E+00  0.00000000000E+00 -0.74475485267E+03  0.13298013367E+04  0.11016858919E+04 0.  0.
        2    1    3    3  502    0  0.28472875737E+02  0.22767383319E+03 -0.97685062161E+03  0.10034357059E+04  0.25500000920E-02 0. -1.
       -2    1    3    3    0  502 -0.28472875737E+02 -0.22767383319E+03  0.23209576894E+03  0.32636563076E+03  0.25500000920E-02 0.  1.
</event>
<event>
 5   0  0.1396936E-03  0.1099961E+04  0.7818609E-02  0.9205230E-01
        2   -1    0    0  501    0  0.00000000000E+00  0.00000000000E+00  0.11030478380E+04  0.11030478381E+04  0.25500000920E-02 0.  1.
       -2   -1    0    0    0  501  0.00000000000E+00  0.00000000000E+00 -0.27422050105E+03  0.27422050106E+03  0.25500000920E-02 0. -1.
    10030    2    1    2    0    0  0.00000000000E+00  0.00000000000E+00  0.82882733700E+03  0.13772683391E+04  0.10999606008E+04 0.  0.
        2    1    3    3  502    0  0.15304423839E+03 -0.17612220795E+03  0.10380041236E+04  0.10639051328E+04  0.25500000920E-02 0.  1.
       -2    1    3    3    0  502 -0.15304423839E+03  0.17612220795E+03 -0.20917678656E+03  0.31336320633E+03  0.25500000920E-02 0. -1.
</event>
<event>
 5   0  0.1429680E-03  0.1093329E+04  0.7818609E-02  0.9211718E-01
        2   -1    0    0  501    0  0.00000000000E+00  0.00000000000E+00  0.22454314299E+03  0.22454314301E+03  0.25500000920E-02 0. -1.
       -2   -1    0    0    0  501  0.00000000000E+00  0.00000000000E+00 -0.13308890749E+04  0.13308890749E+04  0.25500000920E-02 0.  1.
    10030    2    1    2    0    0  0.00000000000E+00  0.00000000000E+00 -0.11063459319E+04  0.15554322179E+04  0.10933288908E+04 0.  0.
        3    1    3    3  502    0 -0.80846202757E+02 -0.26688142306E+03 -0.12220945253E+04  0.12535058203E+04  0.10100000352E+00 0.  1.
       -3    1    3    3    0  502  0.80846202757E+02  0.26688142306E+03  0.11574859345E+03  0.30192639759E+03  0.10100000352E+00 0. -1.
</event>
<event>
 5   0  0.8305271E-04  0.1098580E+04  0.7818609E-02  0.9206577E-01
       -1   -1    0    0    0  501  0.00000000000E+00  0.00000000000E+00  0.40887654917E+03  0.40887654920E+03  0.50400001928E-02 0. -1.
        1   -1    0    0  501    0  0.00000000000E+00  0.00000000000E+00 -0.73792297599E+03  0.73792297601E+03  0.50400001928E-02 0.  1.
    10030    2    1    2    0    0  0.00000000000E+00  0.00000000000E+00 -0.32904642682E+03  0.11467995252E+04  0.10985798105E+04 0.  0.
        5    1    3    3  502    0 -0.50046015054E+03  0.17345823155E+03 -0.31633404412E+03  0.61695821401E+03  0.46999998093E+01 0.  1.
       -5    1    3    3    0  502  0.50046015054E+03 -0.17345823155E+03 -0.12712382702E+02  0.52984131119E+03  0.46999998093E+01 0. -1.
</event>
<event>
 5   0  0.8009636E-04  0.1099648E+04  0.7818609E-02  0.9205535E-01
        1   -1    0    0  501    0  0.00000000000E+00  0.00000000000E+00  0.13775514726E+04  0.13775514726E+04  0.50400001928E-02 0. -1.
       -1   -1    0    0    0  501  0.00000000000E+00  0.00000000000E+00 -0.21945207908E+03  0.21945207913E+03  0.50400001928E-02 0.  1.
    10030    2    1    2    0    0  0.00000000000E+00  0.00000000000E+00  0.11580993936E+04  0.15970035518E+04  0.10996481888E+04 0.  0.
        1    1    3    3  502    0 -0.27065994149E+03  0.94368027214E+02  0.12604556855E+04  0.12926370966E+04  0.50400001928E-02 0. -1.
       -1    1    3    3    0  502  0.27065994149E+03 -0.94368027214E+02 -0.10235629194E+03  0.30436645514E+03  0.50400001928E-02 0.  1.
</event>
<event>
 5   0  0.8150924E-04  0.1102393E+04  0.7818609E-02  0.9202863E-01
        1   -1    0    0  501    0  0.00000000000E+00  0.00000000000E+00  0.83988320280E+03  0.83988320282E+03  0.50400001928E-02 0.  1.
       -1   -1    0    0    0  501  0.00000000000E+00  0.00000000000E+00 -0.36173767043E+03  0.36173767046E+03  0.50400001928E-02 0. -1.
    10030    2    1    2    0    0  0.00000000000E+00  0.00000000000E+00  0.47814553237E+03  0.12016208733E+04  0.11023926583E+04 0.  0.
        3    1    3    3  502    0  0.29984062824E+03  0.81370450725E+02  0.73534759112E+03  0.79828669196E+03  0.10100000352E+00 0.  1.
       -3    1    3    3    0  502 -0.29984062824E+03 -0.81370450725E+02 -0.25720205875E+03  0.40333418132E+03  0.10100000352E+00 0. -1.
</event>
<event>
 5   0  0.1402775E-03  0.1093177E+04  0.7818609E-02  0.9211867E-01
        2   -1    0    0  501    0  0.00000000000E+00  0.00000000000E+00  0.14977753857E+04  0.14977753857E+04  0.25500000920E-02 0.  1.
       -2   -1    0    0    0  501  0.00000000000E+00  0.00000000000E+00 -0.19946856827E+03  0.19946856829E+03  0.25500000920E-02 0. -1.
    10030    2    1    2    0    0  0.00000000000E+00  0.00000000000E+00  0.12983068174E+04  0.16972439540E+04  0.10931772259E+04 0.  0.
        5    1    3    3  502    0  0.67328369461E+02 -0.14799213109E+03 -0.16102245921E+03  0.22887792066E+03  0.46999998093E+01 0. -1.
       -5    1    3    3    0  502 -0.67328369461E+02  0.14799213109E+03  0.14593292766E+04  0.14683660333E+04  0.46999998093E+01 0.  1.
</event>
<event>
 5   0  0.5409500E-04  0.1100855E+04  0.7818609E-02  0.9204359E-01
        3   -1    0    0  501    0  0.00000000000E+00  0.00000000000E+00  0.58676220462E+03  0.58676221331E+03  0.10100000352E+00 0.  1.
       -3   -1    0    0    0  501  0.00000000000E+00  0.00000000000E+00 -0.51634242472E+03  0.51634243460E+03  0.10100000352E+00 0. -1.
    10030    2    1    2    0    0  0.00000000000E+00  0.00000000000E+00  0.70419779900E+02  0.11031046479E+04  0.11008546311E+04 0.  0.
        2    1    3    3  502    0  0.40966907371E+02  0.12750426028E+03  0.57018741345E+03  0.58570411502E+03  0.25500000920E-02 0.  1.
       -2    1    3    3    0  502 -0.40966907371E+02 -0.12750426028E+03 -0.49976763355E+03  0.51740053289E+03  0.25500000920E-02 0. -1.
</event>
<event>
 5   0  0.1396936E-03  0.1098962E+04  0.7818609E-02  0.9206204E-01
       -2   -1    0    0    0  501  0.00000000000E+00  0.00000000000E+00  0.54390783861E+03  0.54390783861E+03  0.25500000920E-02 0.  1.
        2   -1    0    0  501    0  0.00000000000E+00  0.00000000000E+00 -0.55511125051E+03  0.55511125051E+03  0.25500000920E-02 0. -1.
    10030    2    1    2    0    0  0.00000000000E+00  0.00000000000E+00 -0.11203411901E+02  0.10990190891E+04  0.10989619838E+04 0.  0.
        2    1    3    3  502    0  0.33567910246E+03 -0.15945491759E+03 -0.41037331536E+03  0.55363579051E+03  0.25500000920E-02 0. -1.
       -2    1    3    3    0  502 -0.33567910246E+03  0.15945491759E+03  0.39916990346E+03  0.54538329861E+03  0.25500000920E-02 0.  1.
</event>
<event>
 5   0  0.1396936E-03  0.1099632E+04  0.7818609E-02  0.9205550E-01
       -2   -1    0    0    0  501  0.00000000000E+00  0.00000000000E+00  0.29218394211E+03  0.29218394212E+03  0.25500000920E-02 0.  1.
        2   -1    0    0  501    0  0.00000000000E+00  0.00000000000E+00 -0.10346144017E+04  0.10346144017E+04  0.25500000920E-02 0. -1.
    10030    2    1    2    0    0  0.00000000000E+00  0.00000000000E+00 -0.74243045960E+03  0.13267983438E+04  0.10996321466E+04 0.  0.
        2    1    3    3  502    0 -0.10486149134E+03 -0.41343290184E+02 -0.10205238358E+04  0.10267298084E+04  0.25500000920E-02 0. -1.
       -2    1    3    3    0  502  0.10486149134E+03  0.41343290184E+02  0.27809337625E+03  0.30006853539E+03  0.25500000920E-02 0.  1.
</event>
<event>
 5   0  0.1402775E-03  0.1097851E+04  0.7818609E-02  0.9207289E-01
        2   -1    0    0  501    0  0.00000000000E+00  0.00000000000E+00  0.24061647045E+03  0.24061647046E+03  0.25500000920E-02 0. -1.
       -2   -1    0    0    0  501  0.00000000000E+00  0.00000000000E+00 -0.12522789274E+04  0.12522789274E+04  0.25500000920E-02 0.  1.
    10030    2    1    2    0    0  0.00000000000E+00  0.00000000000E+00 -0.10116624569E+04  0.14928953978E+04  0.10978505099E+04 0.  0.
        5    1    3    3  502    0 -0.12902226235E+03  0.53323964401E+03 -0.48206003130E+03  0.73033911706E+03  0.46999998093E+01 0.  1.
       -5    1    3    3    0  502  0.12902226235E+03 -0.53323964401E+03 -0.52960242561E+03  0.76255628077E+03  0.46999998093E+01 0. -1.
</event>
<event>
 5   0  0.1425432E-03  0.1100245E+04  0.7818609E-02  0.9204953E-01
        2   -1    0    0  501    0  0.00000000000E+00  0.00000000000E+00  0.15049864070E+04  0.15049864071E+04  0.25500000920E-02 0. -1.
       -2   -1    0    0    0  501  0.00000000000E+00  0.00000000000E+00 -0.20108796454E+03  0.20108796455E+03  0.25500000920E-02 0.  1.
    10030    2    1    2    0    0  0.00000000000E+00  0.00000000000E+00  0.13038984425E+04  0.17060743716E+04  0.11002447969E+04 0.  0.
        1    1    3    3  502    0 -0.62308093931E+02  0.17410651192E+01  0.14994929229E+04  0.15007879116E+04  0.50400001928E-02 0. -1.
       -1    1    3    3    0  502  0.62308093931E+02 -0.17410651192E+01 -0.19559448037E+03  0.20528645999E+03  0.50400001928E-02 0.  1.
</event>
<event>
 5   0  0.1396936E-03  0.1103376E+04  0.7818609E-02  0.9201908E-01
       -2   -1    0    0    0  501  0.00000000000E+00  0.00000000000E+00  0.53110582427E+03  0.53110582427E+03  0.25500000920E-02 0. -1.
        2   -1    0    0  501    0  0.00000000000E+00  0.00000000000E+00 -0.57306765951E+03  0.57306765951E+03  0.25500000920E-02 0.  1.
    10030    2    1    2    0    0  0.00000000000E+00  0.00000000000E+00 -0.41961835239E+02  0.11041734838E+04  0.11033758592E+04 0.  0.
        2    1    3    3  502    0  0.38279902760E+02  0.14082050089E+03 -0.55340293616E+03  0.57232034227E+03  0.25500000920E-02 0.  1.
       -2    1    3    3    0  502 -0.38279902760E+02 -0.14082050089E+03  0.51144110092E+03  0.53185314151E+03  0.25500000920E-02 0. -1.
</event>
<event>
 5   0  0.1425432E-03  0.1097946E+04  0.7818609E-02  0.9207196E-01
        2   -1    0    0  501    0  0.00000000000E+00  0.00000000000E+00  0.13286354792E+04  0.13286354792E+04  0.25500000920E-02 0.  1.
       -2   -1    0    0    0  501  0.00000000000E+00  0.00000000000E+00 -0.22682782789E+03  0.22682782790E+03  0.25500000920E-02 0. -1.
    10030    2    1    2    0    0  0.00000000000E+00  0.00000000000E+00  0.11018076513E+04  0.15554633071E+04  0.10979462643E+04 0.  0.
        1    1    3    3  502    0 -0.30254417571E+03  0.41761684751E+03  0.28422225433E+03  0.58882858241E+03  0.50400001928E-02 0.  1.
       -1    1    3    3    0  502  0.30254417571E+03 -0.41761684751E+03  0.81758539698E+03  0.96663472469E+03  0.50400001928E-02 0. -1.
</event>
<event>
 5   0  0.7946038E-04  0.1059780E+04  0.7818609E-02  0.9245305E-01
        1   -1    0    0  501    0  0.00000000000E+00  0.00000000000E+00  0.20200597426E+03  0.20200597432E+03  0.50400001928E-02 0.  1.
       -1   -1    0    0    0  501  0.00000000000E+00  0.00000000000E+00 -0.13899754857E+04  0.13899754858E+04  0.50400001928E-02 0. -1.
    10030    2    1    2    0    0  0.00000000000E+00  0.00000000000E+00 -0.11879695115E+04  0.15919814601E+04  0.10597798871E+04 0.  0.
        4    1    3    3  502    0  0.14847220959E+03  0.13658423734E+02  0.16984329444E+03  0.22600643160E+03  0.12699999809E+01 0.  1.
       -4    1    3    3    0  502 -0.14847220959E+03 -0.13658423734E+02 -0.13578128059E+04  0.13659750285E+04  0.12699999809E+01 0. -1.
</event>
<event>
 5   0  0.7946038E-04  0.1097742E+04  0.7818609E-02  0.9207395E-01
       -1   -1    0    0    0  501  0.00000000000E+00  0.00000000000E+00  0.18116724438E+03  0.18116724445E+03  0.50400001928E-02 0. -1.
        1   -1    0    0  501    0  0.00000000000E+00  0.00000000000E+00 -0.16628803109E+04  0.16628803109E+04  0.50400001928E-02 0.  1.
    10030    2    1    2    0    0  0.00000000000E+00  0.00000000000E+00 -0.14817130665E+04  0.18440475554E+04  0.10977421259E+04 0.  0.
        4    1    3    3  502    0  0.53770913440E+03  0.10763369219E+03 -0.70175862015E+03  0.89060816231E+03  0.12699999809E+01 0. -1.
       -4    1    3    3    0  502 -0.53770913440E+03 -0.10763369219E+03 -0.77995444639E+03  0.95343939307E+03  0.12699999809E+01 0.  1.
</event>
<event>
 5   0  0.7946038E-04  0.1100415E+04  0.7818609E-02  0.9204787E-01
        1   -1    0    0  501    0  0.00000000000E+00  0.00000000000E+00  0.11799061849E+04  0.11799061849E+04  0.50400001928E-02 0. -1.
       -1   -1    0    0    0  501  0.00000000000E+00  0.00000000000E+00 -0.25656987695E+03  0.25656987700E+03  0.50400001928E-02 0.  1.
    10030    2    1    2    0    0  0.00000000000E+00  0.00000000000E+00  0.92333630793E+03  0.14364760619E+04  0.11004151666E+04 0.  0.
        4    1    3    3  502    0 -0.54765375887E+03 -0.16410683117E+02  0.39597136659E+03  0.67600953114E+03  0.12699999809E+01 0.  1.
       -4    1    3    3    0  502  0.54765375887E+03  0.16410683117E+02  0.52736494134E+03  0.76046653074E+03  0.12699999809E+01 0. -1.
</event>
<event>
 5   0  0.1372794E-03  0.1099972E+04  0.7818609E-02  0.9205219E-01
       -2   -1    0    0    0  501  0.00000000000E+00  0.00000000000E+00  0.18779294607E+03  0.18779294608E+03  0.25500000920E-02 0. -1.
        2   -1    0    0  501    0  0.00000000000E+00  0.00000000000E+00 -0.16107337143E+04  0.16107337143E+04  0.25500000920E-02 0.  1.
    10030    2    1    2    0    0  0.00000000000E+00  0.00000000000E+00 -0.14229407682E+04  0.17985266604E+04  0.10999716897E+04 0.  0.
        4    1    3    3  502    0  0.94190721981E+02 -0.43154384003E+03 -0.12472655217E+04  0.13231684974E+04  0.12699999809E+01 0.  1.
       -4    1    3    3    0  502 -0.94190721981E+02  0.43154384003E+03 -0.17567524654E+03  0.47535816299E+03  0.12699999809E+01 0. -1.
</event>
<event>
 5   0  0.8305271E-04  0.1097421E+04  0.7818609E-02  0.9207709E-01
        1   -1    0    0  501    0  0.00000000000E+00  0.00000000000E+00  0.29267945529E+03  0.29267945533E+03  0.50400001928E-02 0.  1.
       -1   -1    0    0    0  501  0.00000000000E+00  0.00000000000E+00 -0.10287134938E+04  0.10287134938E+04  0.50400001928E-02 0. -1.
    10030    2    1    2    0    0  0.00000000000E+00  0.00000000000E+00 -0.73603403854E+03  0.13213929492E+04  0.10974211681E+04 0.  0.
        5    1    3    3  502    0  0.22500734661E+03  0.49921143048E+03 -0.41008881009E+03  0.68413104045E+03  0.46999998093E+01 0. -1.
       -5    1    3    3    0  502 -0.22500734661E+03 -0.49921143048E+03 -0.32594522845E+03  0.63726190872E+03  0.46999998093E+01 0.  1.
</event>
<event>
 5   0  0.8341767E-04  0.1099794E+04  0.7818609E-02  0.9205392E-01
       -1   -1    0    0    0  501  0.00000000000E+00  0.00000000000E+00  0.27445324918E+03  0.27445324923E+03  0.50400001928E-02 0.  1.
        1   -1    0    0  501    0  0.00000000000E+00  0.00000000000E+00 -0.11017789683E+04  0.11017789683E+04  0.50400001928E-02 0. -1.
    10030    2    1    2    0    0  0.00000000000E+00  0.00000000000E+00 -0.82732571908E+03  0.13762322175E+04  0.10997941949E+04 0.  0.
        2    1    3    3  502    0  0.39723331246E+03 -0.44163800304E+01 -0.88946227836E+03  0.97414421600E+03  0.25500000920E-02 0. -1.
       -2    1    3    3    0  502 -0.39723331246E+03  0.44163800304E+01  0.62136559283E+02  0.40208800149E+03  0.25500000920E-02 0.  1.
</event>
<event>
 5   0  0.7946038E-04  0.1096484E+04  0.7818609E-02  0.9208626E-01
       -1   -1    0    0    0  501  0.00000000000E+00  0.00000000000E+00  0.28193336317E+03  0.28193336322E+03  0.50400001928E-02 0.  1.
        1   -1    0    0  501    0  0.00000000000E+00  0.00000000000E+00 -0.10661003670E+04  0.10661003670E+04  0.50400001928E-02 0. -1.
    10030    2    1    2    0    0  0.00000000000E+00  0.00000000000E+00 -0.78416700381E+03  0.13480337302E+04  0.10964839479E+04 0.  0.
        4    1    3    3  502    0 -0.40888613783E+03 -0.69079771984E+01  0.56833204328E+02  0.41287676112E+03  0.12699999809E+01 0.  1.
       -4    1    3    3    0  502  0.40888613783E+03  0.69079771984E+01 -0.84100020813E+03  0.93515696909E+03  0.12699999809E+01 0. -1.
</event>
<event>
 5   0  0.7946038E-04  0.1100881E+04  0.7818609E-02  0.9204334E-01
        1   -1    0    0  501    0  0.00000000000E+00  0.00000000000E+00  0.10749726411E+04  0.10749726411E+04  0.50400001928E-02 0.  1.
       -1   -1    0    0    0  501  0.00000000000E+00  0.00000000000E+00 -0.28185338064E+03  0.28185338069E+03  0.50400001928E-02 0. -1.
    10030    2    1    2    0    0  0.00000000000E+00  0.00000000000E+00  0.79311926043E+03  0.13568260218E+04  0.11008808710E+04 0.  0.
        4    1    3    3  502    0  0.12525279442E+03 -0.21763913804E+03 -0.20714472432E+03  0.32552358844E+03  0.12699999809E+01 0. -1.
       -4    1    3    3    0  502 -0.12525279442E+03  0.21763913804E+03  0.10002639847E+04  0.10313024333E+04  0.12699999809E+01 0.  1.
</event>
<event>
 5   0  0.1429680E-03  0.1098308E+04  0.7818609E-02  0.9206842E-01
       -2   -1    0    0    0  501  0.00000000000E+00  0.00000000000E+00  0.21414677103E+03  0.21414677104E+03  0.25500000920E-02 0. -1.
        2   -1    0    0  501    0  0.00000000000E+00  0.00000000000E+00 -0.14082406457E+04  0.14082406457E+04  0.25500000920E-02 0.  1.
    10030    2    1    2    0    0  0.00000000000E+00  0.00000000000E+00 -0.11940938746E+04  0.16223874167E+04  0.10983081300E+04 0.  0.
        3    1    3    3  502    0  0.63409004904E+01 -0.15366938464E+03 -0.13757769338E+04  0.13843470189E+04  0.10100000352E+00 0.  1.
       -3    1    3    3    0  502 -0.63409004904E+01  0.15366938464E+03  0.18168305921E+03  0.23804039783E+03  0.10100000352E+00 0. -1.
</event>
<event>
 5   0  0.8341767E-04  0.1099582E+04  0.7818609E-02  0.9205599E-01
       -1   -1    0    0    0  501  0.00000000000E+00  0.00000000000E+00  0.87671881012E+03  0.87671881014E+03  0.50400001928E-02 0.  1.
        1   -1    0    0  501    0  0.00000000000E+00  0.00000000000E+00 -0.34477431293E+03  0.34477431296E+03  0.50400001928E-02 0. -1.
    10030    2    1    2    0    0  0.00000000000E+00  0.00000000000E+00  0.53194449719E+03  0.12214931231E+04  0.10995819668E+04 0.  0.
        2    1    3    3  502    0 -0.36429190805E+03 -0.28308597484E+03 -0.66220485057E+02  0.46608091151E+03  0.25500000920E-02 0. -1.
       -2    1    3    3    0  502  0.36429190805E+03  0.28308597484E+03  0.59816498225E+03  0.75541221159E+03  0.25500000920E-02 0.  1.
</event>
<event>
 5   0  0.1429680E-03  0.1108101E+04  0.7818609E-02  0.9197332E-01
        2   -1    0    0  501    0  0.00000000000E+00  0.00000000000E+00  0.58854555388E+03  0.58854555388E+03  0.25500000920E-02 0.  1.
       -2   -1    0    0    0  501  0.00000000000E+00  0.00000000000E+00 -0.52157733527E+03  0.52157733527E+03  0.25500000920E-02 0. -1.
    10030    2    1    2    0    0  0.00000000000E+00  0.00000000000E+00  0.66968218610E+02  0.11101228892E+04  0.11081011176E+04 0.  0.
        3    1    3    3  502    0  0.18593817700E+03  0.39931283950E+03 -0.30320683891E+03  0.53475054635E+03  0.10100000352E+00 0. -1.
       -3    1    3    3    0  502 -0.18593817700E+03 -0.39931283950E+03  0.37017505752E+03  0.57537234281E+03  0.10100000352E+00 0.  1.
</event>
<event>
 5   0  0.8305271E-04  0.1095003E+04  0.7818609E-02  0.9210076E-01
       -1   -1    0    0    0  501  0.00000000000E+00  0.00000000000E+00  0.12426808680E+04  0.12426808680E+04  0.50400001928E-02 0.  1.
        1   -1    0    0  501    0  0.00000000000E+00  0.00000000000E+00 -0.24121881272E+03  0.24121881278E+03  0.50400001928E-02 0. -1.
    10030    2    1    2    0    0  0.00000000000E+00  0.00000000000E+00  0.10014620553E+04  0.14838996808E+04  0.10950032029E+04 0.  0.
        5    1    3    3  502    0  0.14507199795E+03 -0.47205427995E+03  0.18045875078E+03  0.52580279435E+03  0.46999998093E+01 0. -1.
       -5    1    3    3    0  502 -0.14507199795E+03  0.47205427995E+03  0.82100330448E+03  0.95809688642E+03  0.46999998093E+01 0.  1.
</event>
<event>
 5   0  0.1429680E-03  0.1043404E+04  0.7818609E-02  0.9262181E-01
        2   -1    0    0  501    0  0.00000000000E+00  0.00000000000E+00  0.15938591371E+04  0.15938591371E+04  0.25500000920E-02 0.  1.
       -2   -1    0    0    0  501  0.00000000000E+00  0.00000000000E+00 -0.17076350425E+03  0.17076350427E+03  0.25500000920E-02 0. -1.
    10030    2    1    2    0    0  0.00000000000E+00  0.00000000000E+00  0.14230956328E+04  0.17646226414E+04  0.10434039899E+04 0.  0.
        3    1    3    3  502    0 -0.23559247988E+03  0.42110972065E+03  0.10469709874E+04  0.11528163219E+04  0.10100000352E+00 0.  1.
       -3    1    3    3    0  502  0.23559247988E+03 -0.42110972065E+03  0.37612464540E+03  0.61180631942E+03  0.10100000352E+00 0. -1.
</event>
<event>
 5   0  0.8150924E-04  0.1101638E+04  0.7818609E-02  0.9203597E-01
       -1   -1    0    0    0  501  0.00000000000E+00  0.00000000000E+00  0.22846054718E+03  0.22846054723E+03  0.50400001928E-02 0.  1.
        1   -1    0    0  501    0  0.00000000000E+00  0.00000000000E+00 -0.13280256747E+04  0.13280256748E+04  0.50400001928E-02 0. -1.
    10030    2    1    2    0    0  0.00000000000E+00  0.00000000000E+00 -0.10995651276E+04  0.15564862220E+04  0.11016378214E+04 0.  0.
        3    1    3    3  502    0 -0.49342671170E+03  0.18858949245E+02 -0.89464165920E+03  0.10218655921E+04  0.10100000352E+00 0. -1.
       -3    1    3    3    0  502  0.49342671170E+03 -0.18858949245E+02 -0.20492346837E+03  0.53462062987E+03  0.10100000352E+00 0.  1.
</event>
<event>
 5   0  0.8305271E-04  0.1103897E+04  0.7818609E-02  0.9201402E-01
       -1   -1    0    0    0  501  0.00000000000E+00  0.00000000000E+00  0.39115503523E+03  0.39115503526E+03  0.50400001928E-02 0. -1.
        1   -1    0    0  501    0  0.00000000000E+00  0.00000000000E+00 -0.77883948530E+03  0.77883948531E+03  0.50400001928E-02 0.  1.
    10030    2    1    2    0    0  0.00000000000E+00  0.00000000000E+00 -0.38768445007E+03  0.11699945206E+04  0.11038967095E+04 0.  0.
        5    1    3    3  502    0  0.38492516901E+02 -0.65232474964E+02 -0.77328371611E+03  0.77699854907E+03  0.46999998093E+01 0.  1.
       -5    1    3    3    0  502 -0.38492516901E+02  0.65232474964E+02  0.38559926605E+03  0.39299597151E+03  0.46999998093E+01 0. -1.
</event>
<event>
 5   0  0.1402775E-03  0.1101444E+04  0.7818609E-02  0.9203786E-01
        2   -1    0    0  501    0  0.00000000000E+00  0.00000000000E+00  0.66054951054E+03  0.66054951054E+03  0.25500000920E-02 0. -1.
       -2   -1    0    0    0  501  0.00000000000E+00  0.00000000000E+00 -0.45915490318E+03  0.45915490319E+03  0.25500000920E-02 0.  1.
    10030    2    1    2    0    0  0.00000000000E+00  0.00000000000E+00  0.20139460735E+03  0.11197044137E+04  0.11014436827E+04 0.  0.
        5    1    3    3  502    0  0.54159843275E+03 -0.98746784936E+02  0.11480786833E+03  0.56239019064E+03  0.46999998093E+01 0. -1.
       -5    1    3    3    0  502 -0.54159843275E+03  0.98746784936E+02  0.86586739021E+02  0.55731422310E+03  0.46999998093E+01 0.  1.
</event>
<event>
 5   0  0.8009636E-04  0.1088801E+04  0.7818609E-02  0.9216176E-01
       -1   -1    0    0    0  501  0.00000000000E+00  0.00000000000E+00  0.21389954533E+03  0.21389954539E+03  0.50400001928E-02 0.  1.
        1   -1    0    0  501    0  0.00000000000E+00  0.00000000000E+00 -0.13855661386E+04  0.13855661387E+04  0.50400001928E-02 0. -1.
    10030    2    1    2    0    0  0.00000000000E+00  0.00000000000E+00 -0.11716665933E+04  0.15994656840E+04  0.10888011152E+04 0.  0.
        1    1    3    3  502    0 -0.26003940443E+03 -0.13097686701E+01 -0.12884309472E+04  0.13144110898E+04  0.50400001928E-02 0. -1.
       -1    1    3    3    0  502  0.26003940443E+03  0.13097686701E+01  0.11676435384E+03  0.28505459425E+03  0.50400001928E-02 0.  1.
</event>
<event>
 5   0  0.8341767E-04  0.1111891E+04  0.7818609E-02  0.9193679E-01
       -1   -1    0    0    0  501  0.00000000000E+00  0.00000000000E+00  0.20951156205E+03  0.20951156211E+03  0.50400001928E-02 0.  1.
        1   -1    0    0  501    0  0.00000000000E+00  0.00000000000E+00 -0.14752194320E+04  0.14752194320E+04  0.50400001928E-02 0. -1.
    10030    2    1    2    0    0  0.00000000000E+00  0.00000000000E+00 -0.12657078699E+04  0.16847309941E+04  0.11118912314E+04 0.  0.
        2    1    3    3  502    0 -0.44434012855E+03  0.33358669398E+03 -0.60421334539E+03  0.82084834105E+03  0.25500000920E-02 0.  1.
       -2    1    3    3    0  502  0.44434012855E+03 -0.33358669398E+03 -0.66149452453E+03  0.86388265304E+03  0.25500000920E-02 0. -1.
</event>
<event>
 5   0  0.1396936E-03  0.1099875E+04  0.7818609E-02  0.9205314E-01
       -2   -1    0    0    0  501  0.00000000000E+00  0.00000000000E+00  0.19214559087E+03  0.19214559088E+03  0.25500000920E-02 0. -1.
        2   -1    0    0  501    0  0.00000000000E+00  0.00000000000E+00 -0.15739697965E+04  0.15739697965E+04  0.25500000920E-02 0.  1.
    10030    2    1    2    0    0  0.00000000000E+00  0.00000000000E+00 -0.13818242056E+04  0.17661153874E+04  0.10998751867E+04 0.  0.
        2    1    3    3  502    0  0.17787631348E+03  0.25398979280E+03  0.38385556288E+02  0.31244879370E+03  0.25500000920E-02 0. -1.
       -2    1    3    3    0  502 -0.17787631348E+03 -0.25398979280E+03 -0.14202097619E+04  0.14536665937E+04  0.25500000920E-02 0.  1.
</event>
<event>
 5   0  0.1396936E-03  0.1102582E+04  0.7818609E-02  0.9202679E-01
        2   -1    0    0  501    0  0.00000000000E+00  0.00000000000E+00  0.10177791623E+04  0.10177791623E+04  0.25500000920E-02 0. -1.
       -2   -1    0    0    0  501  0.00000000000E+00  0.00000000000E+00 -0.29861267518E+03  0.29861267519E+03  0.25500000920E-02 0.  1.
    10030    2    1    2    0    0  0.00000000000E+00  0.00000000000E+00  0.71916648708E+03  0.13163918375E+04  0.11025819850E+04 0.  0.
        2    1    3    3  502    0  0.36092105651E+03  0.14352016688E+03  0.82667772143E+03  0.91337730564E+03  0.25500000920E-02 0. -1.
       -2    1    3    3    0  502 -0.36092105651E+03 -0.14352016688E+03 -0.10751123435E+03  0.40301453182E+03  0.25500000920E-02 0.  1.
</event>
<event>
 5   0  0.1372794E-03  0.1099848E+04  0.7818609E-02  0.9205340E-01
       -2   -1    0    0    0  501  0.00000000000E+00  0.00000000000E+00  0.34737370996E+03  0.34737370997E+03  0.25500000920E-02 0. -1.
        2   -1    0    0  501    0  0.00000000000E+00  0.00000000000E+00 -0.87057972014E+03  0.87057972014E+03  0.25500000920E-02 0.  1.
    10030    2    1    2    0    0  0.00000000000E+00  0.00000000000E+00 -0.52320601018E+03  0.12179534301E+04  0.10998481845E+04 0.  0.
        4    1    3    3  502    0  0.53211317471E+02  0.16156228880E+03 -0.84071369436E+03  0.85774993224E+03  0.12699999809E+01 0.  1.
       -4    1    3    3    0  502 -0.53211317471E+02 -0.16156228880E+03  0.31750768418E+03  0.36020349788E+03  0.12699999809E+01 0. -1.
</event>
<event>
 5   0  0.1425432E-03  0.1101346E+04  0.7818609E-02  0.9203881E-01
       -2   -1    0    0    0  501  0.00000000000E+00  0.00000000000E+00  0.14771696522E+03  0.14771696524E+03  0.25500000920E-02 0. -1.
        2   -1    0    0  501    0  0.00000000000E+00  0.00000000000E+00 -0.20528506137E+04  0.20528506137E+04  0.25500000920E-02 0.  1.
    10030    2    1    2    0    0  0.00000000000E+00  0.00000000000E+00 -0.19051336485E+04  0.22005675789E+04  0.11013461994E+04 0.  0.
        1    1    3    3  502    0 -0.42927683042E+03  0.10410468358E+03 -0.29555547819E+03  0.53147852543E+03  0.50400001928E-02 0. -1.
       -1    1    3    3    0  502  0.42927683042E+03 -0.10410468358E+03 -0.16095781703E+04  0.16690890535E+04  0.50400001928E-02 0.  1.
</event>
<event>
 5   0  0.5409500E-04  0.1100694E+04  0.7818609E-02  0.9204516E-01
       -4   -1    0    0    0  501  0.00000000000E+00  0.00000000000E+00  0.49208611641E+03  0.49208775525E+03  0.12699999809E+01 0. -1.
        4   -1    0    0  501    0  0.00000000000E+00  0.00000000000E+00 -0.61550245221E+03  0.61550376243E+03  0.12699999809E+01 0.  1.
    10030    2    1    2    0    0  0.00000000000E+00  0.00000000000E+00 -0.12341633579E+03  0.11075915177E+04  0.11006940438E+04 0.  0.
        4    1    3    3  502    0 -0.18358550363E+03  0.42897081945E+03  0.23194347768E+03  0.52107484186E+03  0.12699999809E+01 0. -1.
       -4    1    3    3    0  502  0.18358550363E+03 -0.42897081945E+03 -0.35535981347E+03  0.58651667582E+03  0.12699999809E+01 0.  1.
</event>
<event>
 5   0  0.1396936E-03  0.1114393E+04  0.7818609E-02  0.9191276E-01
       -2   -1    0    0    0  501  0.00000000000E+00  0.00000000000E+00  0.20030127218E+03  0.20030127220E+03  0.25500000920E-02 0. -1.
        2   -1    0    0  501    0  0.00000000000E+00  0.00000000000E+00 -0.15500034826E+04  0.15500034826E+04  0.25500000920E-02 0.  1.
    10030    2    1    2    0    0  0.00000000000E+00  0.00000000000E+00 -0.13497022104E+04  0.17503047548E+04  0.11143925152E+04 0.  0.
        2    1    3    3  502    0 -0.46950397862E+03 -0.14161587516E+03 -0.10903388287E+04  0.11955449817E+04  0.25500000920E-02 0.  1.
       -2    1    3    3    0  502  0.46950397862E+03  0.14161587516E+03 -0.25936338178E+03  0.55475977310E+03  0.25500000920E-02 0. -1.
</event>
<event>
 5   0  0.1429680E-03  0.1098784E+04  0.7818609E-02  0.9206378E-01
       -2   -1    0    0    0  501  0.00000000000E+00  0.00000000000E+00  0.16070136528E+03  0.16070136530E+03  0.25500000920E-02 0.  1.
        2   -1    0    0  501    0  0.00000000000E+00  0.00000000000E+00 -0.18782135285E+04  0.18782135285E+04  0.25500000920E-02 0. -1.
    10030    2    1    2    0    0  0.00000000000E+00  0.00000000000E+00 -0.17175121632E+04  0.20389148938E+04  0.10987838338E+04 0.  0.
        3    1    3    3  502    0 -0.13609656926E+03 -0.13966504373E+02 -0.18460980752E+04  0.18511605692E+04  0.10100000352E+00 0. -1.
       -3    1    3    3    0  502  0.13609656926E+03  0.13966504373E+02  0.12858591205E+03  0.18775432456E+03  0.10100000352E+00 0.  1.
</event>
<event>
 5   0  0.5409500E-04  0.1099502E+04  0.7818609E-02  0.9205677E-01
       -3   -1    0    0    0  501  0.00000000000E+00  0.00000000000E+00  0.78856145396E+03  0.78856146043E+03  0.10100000352E+00 0. -1.
        3   -1    0    0  501    0  0.00000000000E+00  0.00000000000E+00 -0.38326259355E+03  0.38326260686E+03  0.10100000352E+00 0.  1.
    10030    2    1    2    0    0  0.00000000000E+00  0.00000000000E+00  0.40529886042E+03  0.11718240673E+04  0.10995019229E+04 0.  0.
        4    1    3    3  502    0  0.25654974475E+03  0.40300919581E+03 -0.87254352822E+02  0.48564299482E+03  0.12699999809E+01 0.  1.
       -4    1    3    3    0  502 -0.25654974475E+03 -0.40300919581E+03  0.49255321324E+03  0.68618107246E+03  0.12699999809E+01 0. -1.
</event>
<event>
 5   0  0.5409500E-04  0.1099868E+04  0.7818609E-02  0.9205320E-01
        3   -1    0    0  501    0  0.00000000000E+00  0.00000000000E+00  0.58160110147E+03  0.58160111024E+03  0.10100000352E+00 0.  1.
       -3   -1    0    0    0  501  0.00000000000E+00  0.00000000000E+00 -0.51999133940E+03  0.51999134921E+03  0.10100000352E+00 0. -1.
    10030    2    1    2    0    0  0.00000000000E+00  0.00000000000E+00  0.61609762070E+02  0.11015924595E+04  0.10998682575E+04 0.  0.
        4    1    3    3  502    0 -0.42912460494E+03 -0.27928125879E+02  0.37412208890E+03  0.56999724305E+03  0.12699999809E+01 0.  1.
       -4    1    3    3    0  502  0.42912460494E+03  0.27928125879E+02 -0.31251232683E+03  0.53159521640E+03  0.12699999809E+01 0. -1.
</event>
<event>
 5   0  0.8150924E-04  0.1103647E+04  0.7818609E-02  0.9201645E-01
        1   -1    0    0  501    0  0.00000000000E+00  0.00000000000E+00  0.23772642678E+04  0.23772642678E+04  0.50400001928E-02 0. -1.
       -1   -1    0    0    0  501  0.00000000000E+00  0.00000000000E+00 -0.12809221320E+03  0.12809221330E+03  0.50400001928E-02 0.  1.
    10030    2    1    2    0    0  0.00000000000E+00  0.00000000000E+00  0.22491720546E+04  0.25053564811E+04  0.11036467579E+04 0.  0.
        3    1    3    3  502    0 -0.54340286915E+03 -0.93139896359E+02  0.10714783551E+04  0.12050010764E+04  0.10100000352E+00 0.  1.
       -3    1    3    3    0  502  0.54340286915E+03  0.93139896359E+02  0.11776936996E+04  0.13003554048E+04  0.10100000352E+00 0. -1.
</event>
<event>
 5   0  0.1402775E-03  0.1103237E+04  0.7818609E-02  0.9202043E-01
       -2   -1    0    0    0  501  0.00000000000E+00  0.00000000000E+00  0.37640296336E+03  0.37640296337E+03  0.25500000920E-02 0.  1.
        2   -1    0    0  501    0  0.00000000000E+00  0.00000000000E+00 -0.80839668915E+03  0.80839668916E+03  0.25500000920E-02 0. -1.
    10030    2    1    2    0    0  0.00000000000E+00  0.00000000000E+00 -0.43199372579E+03  0.11847996525E+04  0.11032368909E+04 0.  0.
        5    1    3    3  502    0 -0.27261915526E+03 -0.47019833177E+03 -0.11494951591E+03  0.55555661837E+03  0.46999998093E+01 0.  1.
       -5    1    3    3    0  502  0.27261915526E+03  0.47019833177E+03 -0.31704420989E+03  0.62924303416E+03  0.46999998093E+01 0. -1.
</event>
<event>
 5   0  0.7946038E-04  0.1100621E+04  0.7818609E-02  0.9204587E-01
        1   -1    0    0  501    0  0.00000000000E+00  0.00000000000E+00  0.32297385800E+04  0.32297385800E+04  0.50400001928E-02 0. -1.
       -1   -1    0    0    0  501  0.00000000000E+00  0.00000000000E+00 -0.93766543263E+02  0.93766543399E+02  0.50400001928E-02 0.  1.
    10030    2    1    2    0    0  0.00000000000E+00  0.00000000000E+00  0.31359720367E+04  0.33235051234E+04  0.11006205932E+04 0.  0.
        4    1    3    3  502    0 -0.49295940997E+03  0.17089209038E+03  0.10395298338E+04  0.11631152027E+04  0.12699999809E+01 0. -1.
       -4    1    3    3    0  502  0.49295940997E+03 -0.17089209038E+03  0.20964422029E+04  0.21603899207E+04  0.12699999809E+01 0.  1.
</event>
<event>
 5   0  0.1425432E-03  0.1098666E+04  0.7818609E-02  0.9206493E-01
        2   -1    0    0  501    0  0.00000000000E+00  0.00000000000E+00  0.78960817007E+03  0.78960817008E+03  0.25500000920E-02 0.  1.
       -2   -1    0    0    0  501  0.00000000000E+00  0.00000000000E+00 -0.38217295981E+03  0.38217295982E+03  0.25500000920E-02 0. -1.
    10030    2    1    2    0    0  0.00000000000E+00  0.00000000000E+00  0.40743521026E+03  0.11717811299E+04  0.10986662668E+04 0.  0.
        1    1    3    3  502    0 -0.32590342608E+02 -0.28923505054E+03 -0.29317032831E+03  0.41311969975E+03  0.50400001928E-02 0. -1.
       -1    1    3    3    0  502  0.32590342608E+02  0.28923505054E+03  0.70060553857E+03  0.75866143015E+03  0.50400001928E-02 0.  1.
</event>
<event>
 5   0  0.5409500E-04  0.1148046E+04  0.7818609E-02  0.9159588E-01
        3   -1    0    0  501    0  0.00000000000E+00  0.00000000000E+00  0.52129449362E+03  0.52129450341E+03  0.10100000352E+00 0. -1.
       -3   -1    0    0    0  501  0.00000000000E+00  0.00000000000E+00 -0.63208469545E+03  0.63208470352E+03  0.10100000352E+00 0.  1.
    10030    2    1    2    0    0  0.00000000000E+00  0.00000000000E+00 -0.11079020183E+03  0.11533792069E+04  0.11480457857E+04 0.  0.
        3    1    3    3  502    0  0.49413621602E+03  0.29073142666E+03 -0.83933208083E+02  0.57943088979E+03  0.10100000352E+00 0. -1.
       -3    1    3    3    0  502 -0.49413621602E+03 -0.29073142666E+03 -0.26856993743E+02  0.57394831713E+03  0.10100000352E+00 0.  1.
</event>
<event>
 5   0  0.1396936E-03  0.1100271E+04  0.7818609E-02  0.9204927E-01
        2   -1    0    0  501    0  0.00000000000E+00  0.00000000000E+00  0.95474937380E+03  0.95474937380E+03  0.25500000920E-02 0.  1.
       -2   -1    0    0    0  501  0.00000000000E+00  0.00000000000E+00 -0.31699346942E+03  0.31699346943E+03  0.25500000920E-02 0. -1.
    10030    2    1    2    0    0  0.00000000000E+00  0.00000000000E+00  0.63775590438E+03  0.12717428432E+04  0.11002714509E+04 0.  0.
        2    1    3    3  502    0  0.50108763619E+03 -0.16380046653E+03  0.13711277793E+03  0.54471949282E+03  0.25500000920E-02 0. -1.
       -2    1    3    3    0  502 -0.50108763619E+03  0.16380046653E+03  0.50064312644E+03  0.72702335041E+03  0.25500000920E-02 0.  1.
</event>
<event>
 5   0  0.8305271E-04  0.1099154E+04  0.7818609E-02  0.9206016E-01
       -1   -1    0    0    0  501  0.00000000000E+00  0.00000000000E+00  0.94344154836E+03  0.94344154838E+03  0.50400001928E-02 0.  1.
        1   -1    0    0  501    0  0.00000000000E+00  0.00000000000E+00 -0.32014184387E+03  0.32014184391E+03  0.50400001928E-02 0. -1.
    10030    2    1    2    0    0  0.00000000000E+00  0.00000000000E+00  0.62329970450E+03  0.12635833923E+04  0.10991544330E+04 0.  0.
        5    1    3    3  502    0  0.86606929372E+01 -0.47099818985E+03  0.63700523298E+03  0.79228281521E+03  0.46999998093E+01 0.  1.
       -5    1    3    3    0  502 -0.86606929372E+01  0.47099818985E+03 -0.13705528481E+02  0.47130057707E+03  0.46999998093E+01 0. -1.
</event>
<event>
 5   0  0.1372794E-03  0.1100540E+04  0.7818609E-02  0.9204666E-01
        2   -1    0    0  501    0  0.00000000000E+00  0.00000000000E+00  0.40418664976E+03  0.40418664977E+03  0.25500000920E-02 0.  1.
       -2   -1    0    0    0  501  0.00000000000E+00  0.00000000000E+00 -0.74915167304E+03  0.74915167304E+03  0.25500000920E-02 0. -1.
    10030    2    1    2    0    0  0.00000000000E+00  0.00000000000E+00 -0.34496502328E+03  0.11533383228E+04  0.11005400581E+04 0.  0.
        4    1    3    3  502    0 -0.36007323347E+02  0.29193553798E+03  0.31487944471E+03  0.43089855334E+03  0.12699999809E+01 0.  1.
       -4    1    3    3    0  502  0.36007323347E+02 -0.29193553798E+03 -0.65984446799E+03  0.72243976947E+03  0.12699999809E+01 0. -1.
</event>
<event>
 5   0  0.1402775E-03  0.1098871E+04  0.7818609E-02  0.9206293E-01
       -2   -1    0    0    0  501  0.00000000000E+00  0.00000000000E+00  0.48883915272E+03  0.48883915273E+03  0.25500000920E-02 0. -1.
        2   -1    0    0  501    0  0.00000000000E+00  0.00000000000E+00 -0.61754329421E+03  0.61754329421E+03  0.25500000920E-02 0.  1.
    10030    2    1    2    0    0  0.00000000000E+00  0.00000000000E+00 -0.12870414148E+03  0.11063824469E+04  0.10988709491E+04 0.  0.
        5    1    3    3  502    0 -0.16818384231E+03 -0.22156133185E+03  0.41268196643E+03  0.49769842676E+03  0.46999998093E+01 0. -1.
       -5    1    3    3    0  502  0.16818384231E+03  0.22156133185E+03 -0.54138610791E+03  0.60868402018E+03  0.46999998093E+01 0.  1.
</event>
<event>
 5   0  0.7946038E-04  0.1102513E+04  0.7818609E-02  0.9202746E-01
        1   -1    0    0  501    0  0.00000000000E+00  0.00000000000E+00  0.11914518579E+04  0.11914518579E+04  0.50400001928E-02 0.  1.
       -1   -1    0    0    0  501  0.00000000000E+00  0.00000000000E+00 -0.25505318422E+03  0.25505318427E+03  0.50400001928E-02 0. -1.
    10030    2    1    2    0    0  0.00000000000E+00  0.00000000000E+00  0.93639867367E+03  0.14465050422E+04  0.11025127487E+04 0.  0.
        4    1    3    3  502    0 -0.19832840666E+03  0.68420925687E+02  0.11370226373E+04  0.11562169652E+04  0.12699999809E+01 0.  1.
       -4    1    3    3    0  502  0.19832840666E+03 -0.68420925687E+02 -0.20062396363E+03  0.29028807699E+03  0.12699999809E+01 0. -1.
</event>
<event>
 5   0  0.1429680E-03  0.1102155E+04  0.7818609E-02  0.9203094E-01
       -2   -1    0    0    0  501  0.00000000000E+00  0.00000000000E+00  0.20986823904E+03  0.20986823906E+03  0.25500000920E-02 0.  1.
        2   -1    0    0  501    0  0.00000000000E+00  0.00000000000E+00 -0.14470344282E+04  0.14470344282E+04  0.25500000920E-02 0. -1.
    10030    2    1    2    0    0  0.00000000000E+00  0.00000000000E+00 -0.12371661892E+04  0.16569026673E+04  0.11021552836E+04 0.  0.
        3    1    3    3  502    0  0.92878806564E+01 -0.28422826865E+03 -0.13282033713E+04  0.13583063643E+04  0.10100000352E+00 0. -1.
       -3    1    3    3    0  502 -0.92878806564E+01  0.28422826865E+03  0.91037182158E+02  0.29859630299E+03  0.10100000352E+00 0.  1.
</event>
<event>
 5   0  0.8305271E-04  0.1098196E+04  0.7818609E-02  0.9206952E-01
       -1   -1    0    0    0  501  0.00000000000E+00  0.00000000000E+00  0.14729232178E+03  0.14729232186E+03  0.50400001928E-02 0. -1.
        1   -1    0    0  501    0  0.00000000000E+00  0.00000000000E+00 -0.20470077466E+04  0.20470077466E+04  0.50400001928E-02 0.  1.
    10030    2    1    2    0    0  0.00000000000E+00  0.00000000000E+00 -0.18997154248E+04  0.21943000685E+04  0.10981958364E+04 0.  0.
        5    1    3    3  502    0 -0.50982614233E+03  0.90516526388E+01 -0.13568114596E+04  0.14494702669E+04  0.46999998093E+01 0.  1.
       -5    1    3    3    0  502  0.50982614233E+03 -0.90516526388E+01 -0.54290396527E+03  0.74482980158E+03  0.46999998093E+01 0. -1.
</event>
<event>
 5   0  0.8150924E-04  0.1069277E+04  0.7818609E-02  0.9235665E-01
       -1   -1    0    0    0  501  0.00000000000E+00  0.00000000000E+00  0.15580437754E+03  0.15580437762E+03  0.50400001928E-02 0. -1.
        1   -1    0    0  501    0  0.00000000000E+00  0.00000000000E+00 -0.18345990631E+04  0.18345990631E+04  0.50400001928E-02 0.  1.
    10030    2    1    2    0    0  0.00000000000E+00  0.00000000000E+00 -0.16787946856E+04  0.19904034408E+04  0.10692774479E+04 0.  0.
        3    1    3    3  502    0 -0.11912597255E+02 -0.28979370147E+03 -0.16754259829E+04  0.17003454160E+04  0.10100000352E+00 0.  1.
       -3    1    3    3    0  502  0.11912597255E+02  0.28979370147E+03 -0.33687027248E+01  0.29005802479E+03  0.10100000352E+00 0. -1.
</event>
<event>
 5   0  0.8150924E-04  0.1099345E+04  0.7818609E-02  0.9205830E-01
       -1   -1    0    0    0  501  0.00000000000E+00  0.00000000000E+00  0.67226230840E+03  0.67226230841E+03  0.50400001928E-02 0. -1.
        1   -1    0    0  501    0  0.00000000000E+00  0.00000000000E+00 -0.44943747002E+03  0.44943747005E+03  0.50400001928E-02 0.  1.
    10030    2    1    2    0    0  0.00000000000E+00  0.00000000000E+00  0.22282483838E+03  0.11216997785E+04  0.10993450252E+04 0.  0.
        3    1    3    3  502    0 -0.31239098270E+03 -0.18786169732E+03 -0.30836533959E+03  0.47746134530E+03  0.10100000352E+00 0.  1.
       -3    1    3    3    0  502  0.31239098270E+03  0.18786169732E+03  0.53119017797E+03  0.64423843316E+03  0.10100000352E+00 0. -1.
</event>
<event>
 5   0  0.7946038E-04  0.1100932E+04  0.7818609E-02  0.9204284E-01
        1   -1    0    0  501    0  0.00000000000E+00  0.00000000000E+00  0.10912151959E+04  0.10912151959E+04  0.50400001928E-02 0. -1.
       -1   -1    0    0    0  501  0.00000000000E+00  0.00000000000E+00 -0.27768364236E+03  0.27768364240E+03  0.50400001928E-02 0.  1.
    10030    2    1    2    0    0  0.00000000000E+00  0.00000000000E+00  0.81353155355E+03  0.13688988383E+04  0.11009316241E+04 0.  0.
        4    1    3    3  502    0 -0.21605992128E+03 -0.38058042992E+03 -0.84027062139E+01  0.43771631406E+03  0.12699999809E+01 0. -1.
       -4    1    3    3    0  502  0.21605992128E+03  0.38058042992E+03  0.82193425976E+03  0.93118252426E+03  0.12699999809E+01 0.  1.
</event>
<event>
 5   0  0.1429680E-03  0.1100185E+04  0.7818609E-02  0.9205012E-01
       -2   -1    0    0    0  501  0.00000000000E+00  0.00000000000E+00  0.18704219740E+03  0.18704219742E+03  0.25500000920E-02 0.  1.
        2   -1    0    0  501    0  0.00000000000E+00  0.00000000000E+00 -0.16178262640E+04  0.16178262640E+04  0.25500000920E-02 0. -1.
    10030    2    1    2    0    0  0.00000000000E+00  0.00000000000E+00 -0.14307840666E+04  0.18048684615E+04  0.11001850380E+04 0.  0.
        3    1    3    3  502    0 -0.52873374202E+03 -0.12309028564E+03 -0.86112265610E+03  0.10179601306E+04  0.10100000352E+00 0.  1.
       -3    1    3    3    0  502  0.52873374202E+03  0.12309028564E+03 -0.56966141055E+03  0.78690833090E+03  0.10100000352E+00 0. -1.
</event>
<event>
 5   0  0.5409500E-04  0.1099238E+04  0.7818609E-02  0.9205934E-01
        3   -1    0    0  501    0  0.00000000000E+00  0.00000000000E+00  0.98185513726E+03  0.98185514245E+03  0.10100000352E+00 0. -1.
       -3   -1    0    0    0  501  0.00000000000E+00  0.00000000000E+00 -0.30766378052E+03  0.30766379710E+03  0.10100000352E+00 0.  1.
    10030    2    1    2    0    0  0.00000000000E+00  0.00000000000E+00  0.67419135673E+03  0.12895189396E+04  0.10992384227E+04 0.  0.
        2    1    3    3  502    0 -0.38374632293E+03  0.15676626064E+03  0.76046103322E+03  0.86610500742E+03  0.25500000920E-02 0. -1.
       -2    1    3    3    0  502  0.38374632293E+03 -0.15676626064E+03 -0.86269676482E+02  0.42341393213E+03  0.25500000920E-02 0.  1.
</event>
<event>
 5   0  0.1429680E-03  0.1104465E+04  0.7818609E-02  0.9200851E-01
       -2   -1    0    0    0  501  0.00000000000E+00  0.00000000000E+00  0.38680079710E+03  0.38680079711E+03  0.25500000920E-02 0.  1.
        2   -1    0    0  501    0  0.00000000000E+00  0.00000000000E+00 -0.78841735570E+03  0.78841735571E+03  0.25500000920E-02 0. -1.
    10030    2    1    2    0    0  0.00000000000E+00  0.00000000000E+00 -0.40161655860E+03  0.11752181528E+04  0.11044645067E+04 0.  0.
        3    1    3    3  502    0  0.51062933586E+03  0.12163405735E+03 -0.18287491279E+02  0.52523480948E+03  0.10100000352E+00 0. -1.
       -3    1    3    3    0  502 -0.51062933586E+03 -0.12163405735E+03 -0.38332906733E+03  0.64998334333E+03  0.10100000352E+00 0.  1.
</event>
<event>
 5   0  0.1402775E-03  0.1157956E+04  0.7818609E-02  0.9150475E-01
        2   -1    0    0  501    0  0.00000000000E+00  0.00000000000E+00  0.35505292120E+03  0.35505292121E+03  0.25500000920E-02 0.  1.
       -2   -1    0    0    0  501  0.00000000000E+00  0.00000000000E+00 -0.94412756738E+03  0.94412756738E+03  0.25500000920E-02 0. -1.
    10030    2    1    2    0    0  0.00000000000E+00  0.00000000000E+00 -0.58907464618E+03  0.12991804886E+04  0.11579555273E+04 0.  0.
        5    1    3    3  502    0  0.46775073208E+03 -0.27793376859E+03 -0.51654731438E+03  0.75025405368E+03  0.46999998093E+01 0. -1.
       -5    1    3    3    0  502 -0.46775073208E+03  0.27793376859E+03 -0.72527331805E+02  0.54892643490E+03  0.46999998093E+01 0.  1.
</event>
<event>
 5   0  0.8341767E-04  0.1097931E+04  0.7818609E-02  0.9207211E-01
       -1   -1    0    0    0  501  0.00000000000E+00  0.00000000000E+00  0.44454231012E+03  0.44454231015E+03  0.50400001928E-02 0. -1.
        1   -1    0    0  501    0  0.00000000000E+00  0.00000000000E+00 -0.67791780954E+03  0.67791780956E+03  0.50400001928E-02 0.  1.
    10030    2    1    2    0    0  0.00000000000E+00  0.00000000000E+00 -0.23337549942E+03  0.11224601197E+04  0.10979310528E+04 0.  0.
        2    1    3    3  502    0  0.39959790565E+03  0.17254596100E+03 -0.45869495478E+03  0.63233824525E+03  0.25500000920E-02 0.  1.
       -2    1    3    3    0  502 -0.39959790565E+03 -0.17254596100E+03  0.22531945535E+03  0.49012187446E+03  0.25500000920E-02 0. -1.
</event>
<event>
 5   0  0.7946038E-04  0.1099634E+04  0.7818609E-02  0.9205548E-01
       -1   -1    0    0    0  501  0.00000000000E+00  0.00000000000E+00  0.17964400215E+03  0.17964400222E+03  0.50400001928E-02 0.  1.
        1   -1    0    0  501    0  0.00000000000E+00  0.00000000000E+00 -0.16827667692E+04  0.16827667692E+04  0.50400001928E-02 0. -1.
    10030    2    1    2    0    0  0.00000000000E+00  0.00000000000E+00 -0.15031227670E+04  0.18624107714E+04  0.10996344068E+04 0.  0.
        4    1    3    3  502    0  0.34752668338E+02  0.41226777365E+03 -0.13826598672E+03  0.43622420970E+03  0.12699999809E+01 0.  1.
       -4    1    3    3    0  502 -0.34752668338E+02 -0.41226777365E+03 -0.13648567803E+04  0.14261865617E+04  0.12699999809E+01 0. -1.
</event>
<event>
 5   0  0.1396936E-03  0.1102501E+04  0.7818609E-02  0.9202758E-01
       -2   -1    0    0    0  501  0.00000000000E+00  0.00000000000E+00  0.75434709333E+03  0.75434709334E+03  0.25500000920E-02 0.  1.
        2   -1    0    0  501    0  0.00000000000E+00  0.00000000000E+00 -0.40283426865E+03  0.40283426865E+03  0.25500000920E-02 0. -1.
    10030    2    1    2    0    0  0.00000000000E+00  0.00000000000E+00  0.35151282469E+03  0.11571813620E+04  0.11025005391E+04 0.  0.
        2    1    3    3  502    0  0.29941064603E+03 -0.11131040594E+02 -0.30990910177E+03  0.43106181272E+03  0.25500000920E-02 0. -1.
       -2    1    3    3    0  502 -0.29941064603E+03  0.11131040594E+02  0.66142192645E+03  0.72611954926E+03  0.25500000920E-02 0.  1.
</event>
<event>
 5   0  0.1429680E-03  0.1102267E+04  0.7818609E-02  0.9202985E-01
        2   -1    0    0  501    0  0.00000000000E+00  0.00000000000E+00  0.28653819046E+03  0.28653819047E+03  0.25500000920E-02 0. -1.
       -2   -1    0    0    0  501  0.00000000000E+00  0.00000000000E+00 -0.10600624913E+04  0.10600624913E+04  0.25500000920E-02 0.  1.
    10030    2    1    2    0    0  0.00000000000E+00  0.00000000000E+00 -0.77352430081E+03  0.13466006817E+04  0.11022674594E+04 0.  0.
        3    1    3    3  502    0  0.11610799264E+03  0.51419684219E+02  0.26842277554E+03  0.29694418080E+03  0.10100000352E+00 0. -1.
       -3    1    3    3    0  502 -0.11610799264E+03 -0.51419684219E+02 -0.10419470763E+04  0.10496565010E+04  0.10100000352E+00 0.  1.
</event>
<event>
 5   0  0.8009636E-04  0.1110075E+04  0.7818609E-02  0.9195427E-01
       -1   -1    0    0    0  501  0.00000000000E+00  0.00000000000E+00  0.22741888985E+03  0.22741888991E+03  0.50400001928E-02 0. -1.
        1   -1    0    0  501    0  0.00000000000E+00  0.00000000000E+00 -0.13546222173E+04  0.13546222173E+04  0.50400001928E-02 0.  1.
    10030    2    1    2    0    0  0.00000000000E+00  0.00000000000E+00 -0.11272033274E+04  0.15820411072E+04  0.11100750981E+04 0.  0.
        1    1    3    3  502    0  0.69072131409E+02  0.53862251260E+03 -0.72722603557E+03  0.90760281911E+03  0.50400001928E-02 0. -1.
       -1    1    3    3    0  502 -0.69072131409E+02 -0.53862251260E+03 -0.39997729187E+03  0.67443828810E+03  0.50400001928E-02 0.  1.
</event>
<event>
 5   0  0.1402775E-03  0.1097408E+04  0.7818609E-02  0.9207722E-01
       -2   -1    0    0    0  501  0.00000000000E+00  0.00000000000E+00  0.28020801475E+03  0.28020801476E+03  0.25500000920E-02 0.  1.
        2   -1    0    0  501    0  0.00000000000E+00  0.00000000000E+00 -0.10744731676E+04  0.10744731676E+04  0.25500000920E-02 0. -1.
    10030    2    1    2    0    0  0.00000000000E+00  0.00000000000E+00 -0.79426515289E+03  0.13546811824E+04  0.10974078425E+04 0.  0.
        5    1    3    3  502    0 -0.22330353936E+03 -0.61531797911E+02 -0.10111373629E+04  0.10373386571E+04  0.46999998093E+01 0. -1.
       -5    1    3    3    0  502  0.22330353936E+03  0.61531797911E+02  0.21687221006E+03  0.31734252526E+03  0.46999998093E+01 0.  1.
</event>
<event>
 5   0  0.7946038E-04  0.1101231E+04  0.7818609E-02  0.9203993E-01
       -1   -1    0    0    0  501  0.00000000000E+00  0.00000000000E+00  0.86999667467E+03  0.86999667468E+03  0.50400001928E-02 0. -1.
        1   -1    0    0  501    0  0.00000000000E+00  0.00000000000E+00 -0.34848130485E+03  0.34848130489E+03  0.50400001928E-02 0.  1.
    10030    2    1    2    0    0  0.00000000000E+00  0.00000000000E+00  0.52151536982E+03  0.12184779796E+04  0.11012312681E+04 0.  0.
        4    1    3    3  502    0  0.41435868423E+03 -0.31579650696E+03  0.63584425052E+02  0.52484773507E+03  0.12699999809E+01 0. -1.
       -4    1    3    3    0  502 -0.41435868423E+03  0.31579650696E+03  0.45793094477E+03  0.69363024449E+03  0.12699999809E+01 0.  1.
</event>
<event>
 5   0  0.8305271E-04  0.1093816E+04  0.7818609E-02  0.9211241E-01
        1   -1    0    0  501    0  0.00000000000E+00  0.00000000000E+00  0.28652903220E+03  0.28652903225E+03  0.50400001928E-02 0. -1.
       -1   -1    0    0    0  501  0.00000000000E+00  0.00000000000E+00 -0.10439016081E+04  0.10439016081E+04  0.50400001928E-02 0.  1.
    10030    2    1    2    0    0  0.00000000000E+00  0.00000000000E+00 -0.75737257585E+03  0.13304306403E+04  0.10938155558E+04 0.  0.
        5    1    3    3  502    0 -0.39289938148E+03  0.33341174469E+03 -0.15588794434E+03  0.53838318756E+03  0.46999998093E+01 0. -1.
       -5    1    3    3    0  502  0.39289938148E+03 -0.33341174469E+03 -0.60148463152E+03  0.79204745275E+03  0.46999998093E+01 0.  1.
</event>
<event>
 5   0  0.1396936E-03  0.1097293E+04  0.7818609E-02  0.9207835E-01
        2   -1    0    0  501    0  0.00000000000E+00  0.00000000000E+00  0.72963813729E+03  0.72963813729E+03  0.25500000920E-02 0. -1.
       -2   -1    0    0    0  501  0.00000000000E+00  0.00000000000E+00 -0.41255089988E+03  0.41255089989E+03  0.25500000920E-02 0.  1.
    10030    2    1    2    0    0  0.00000000000E+00  0.00000000000E+00  0.31708723741E+03  0.11421890372E+04  0.10972927962E+04 0.  0.
        2    1    3    3  502    0 -0.33746363318E+03 -0.70675708334E+02  0.60277935135E+03  0.69442041005E+03  0.25500000920E-02 0. -1.
       -2    1    3    3    0  502  0.33746363318E+03  0.70675708334E+02 -0.28569211395E+03  0.44776862713E+03  0.25500000920E-02 0.  1.
</event>
<event>
 5   0  0.8009636E-04  0.1102575E+04  0.7818609E-02  0.9202686E-01
        1   -1    0    0  501    0  0.00000000000E+00  0.00000000000E+00  0.10841470152E+04  0.10841470152E+04  0.50400001928E-02 0.  1.
       -1   -1    0    0    0  501  0.00000000000E+00  0.00000000000E+00 -0.28032886492E+03  0.28032886497E+03  0.50400001928E-02 0. -1.
    10030    2    1    2    0    0  0.00000000000E+00  0.00000000000E+00  0.80381815023E+03  0.13644758801E+04  0.11025746273E+04 0.  0.
        1    1    3    3  502    0  0.14054412014E+03 -0.51652451462E+03  0.56499866891E+03  0.77831466631E+03  0.50400001928E-02 0.  1.
       -1    1    3    3    0  502 -0.14054412014E+03  0.51652451462E+03  0.23881948132E+03  0.58616121382E+03  0.50400001928E-02 0. -1.
</event>
<event>
 5   0  0.8341767E-04  0.1100329E+04  0.7818609E-02  0.9204871E-01
        1   -1    0    0  501    0  0.00000000000E+00  0.00000000000E+00  0.41656656549E+03  0.41656656553E+03  0.50400001928E-02 0.  1.
       -1   -1    0    0    0  501  0.00000000000E+00  0.00000000000E+00 -0.72660907007E+03  0.72660907009E+03  0.50400001928E-02 0. -1.
    10030    2    1    2    0    0  0.00000000000E+00  0.00000000000E+00 -0.31004250458E+03  0.11431756356E+04  0.11003291231E+04 0.  0.
        2    1    3    3  502    0 -0.66524533911E+02  0.53874047083E+03 -0.24802949160E+03  0.59681273213E+03  0.25500000920E-02 0. -1.
       -2    1    3    3    0  502  0.66524533911E+02 -0.53874047083E+03 -0.62013012977E+02  0.54636290349E+03  0.25500000920E-02 0.  1.
</event>
<event>
 5   0  0.1402775E-03  0.1103530E+04  0.7818609E-02  0.9201758E-01
       -2   -1    0    0    0  501  0.00000000000E+00  0.00000000000E+00  0.59101790881E+03  0.59101790882E+03  0.25500000920E-02 0.  1.
        2   -1    0    0  501    0  0.00000000000E+00  0.00000000000E+00 -0.51511955337E+03  0.51511955338E+03  0.25500000920E-02 0. -1.
    10030    2    1    2    0    0  0.00000000000E+00  0.00000000000E+00  0.75898355438E+02  0.11061374622E+04  0.11035304821E+04 0.  0.
        5    1    3    3  502    0 -0.70407808791E+02  0.34372380335E+03 -0.38887302040E+03  0.52378204295E+03  0.46999998093E+01 0. -1.
       -5    1    3    3    0  502  0.70407808791E+02 -0.34372380335E+03  0.46477137584E+03  0.58235541924E+03  0.46999998093E+01 0.  1.
</event>
<event>
 5   0  0.1372794E-03  0.1103026E+04  0.7818609E-02  0.9202247E-01
       -2   -1    0    0    0  501  0.00000000000E+00  0.00000000000E+00  0.53124261974E+03  0.53124261974E+03  0.25500000920E-02 0.  1.
        2   -1    0    0  501    0  0.00000000000E+00  0.00000000000E+00 -0.57255709314E+03  0.57255709315E+03  0.25500000920E-02 0. -1.
    10030    2    1    2    0    0  0.00000000000E+00  0.00000000000E+00 -0.41314473404E+02  0.11037997129E+04  0.11030262556E+04 0.  0.
        4    1    3    3  502    0 -0.17692564832E+03  0.32801554381E+03 -0.42747426342E+03  0.56712674139E+03  0.12699999809E+01 0. -1.
       -4    1    3    3    0  502  0.17692564832E+03 -0.32801554381E+03  0.38615979002E+03  0.53667297150E+03  0.12699999809E+01 0.  1.
</event>
<event>
 5   0  0.8341767E-04  0.1104712E+04  0.7818609E-02  0.9200611E-01
        1   -1    0    0  501    0  0.00000000000E+00  0.00000000000E+00  0.38703485762E+03  0.38703485765E+03  0.50400001928E-02 0.  1.
       -1   -1    0    0    0  501  0.00000000000E+00  0.00000000000E+00 -0.78829427537E+03  0.78829427538E+03  0.50400001928E-02 0. -1.
    10030    2    1    2    0    0  0.00000000000E+00  0.00000000000E+00 -0.40125941775E+03  0.11753291330E+04  0.11047123837E+04 0.  0.
        2    1    3    3  502    0 -0.49961530028E+02 -0.54621755046E+03 -0.13129002343E+03  0.56399187686E+03  0.25500000920E-02 0.  1.
       -2    1    3    3    0  502  0.49961530028E+02  0.54621755046E+03 -0.26996939432E+03  0.61133725617E+03  0.25500000920E-02 0. -1.
</event>
<event>
 5   0  0.8150924E-04  0.1106646E+04  0.7818609E-02  0.9198739E-01
       -1   -1    0    0    0  501  0.00000000000E+00  0.00000000000E+00  0.63288795672E+03  0.63288795674E+03  0.50400001928E-02 0. -1.
        1   -1    0    0  501    0  0.00000000000E+00  0.00000000000E+00 -0.48376057591E+03  0.48376057593E+03  0.50400001928E-02 0.  1.
    10030    2    1    2    0    0  0.00000000000E+00  0.00000000000E+00  0.14912738081E+03  0.11166485327E+04  0.11066458195E+04 0.  0.
        3    1    3    3  502    0  0.82304813029E+02 -0.34322080003E+03 -0.35542374787E+03  0.50089984086E+03  0.10100000352E+00 0.  1.
       -3    1    3    3    0  502 -0.82304813029E+02  0.34322080003E+03  0.50455112868E+03  0.61574869182E+03  0.10100000352E+00 0. -1.
</event>
<event>
 5   0  0.8341767E-04  0.1099517E+04  0.7818609E-02  0.9205663E-01
       -1   -1    0    0    0  501  0.00000000000E+00  0.00000000000E+00  0.23355857167E+03  0.23355857173E+03  0.50400001928E-02 0. -1.
        1   -1    0    0  501    0  0.00000000000E+00  0.00000000000E+00 -0.12940404746E+04  0.12940404746E+04  0.50400001928E-02 0.  1.
    10030    2    1    2    0    0  0.00000000000E+00  0.00000000000E+00 -0.10604819030E+04  0.15275990464E+04  0.10995167029E+04 0.  0.
        2    1    3    3  502    0 -0.22539833160E+03  0.29543205170E+03 -0.10931362832E+04  0.11545698068E+04  0.25500000920E-02 0.  1.
       -2    1    3    3    0  502  0.22539833160E+03 -0.29543205170E+03  0.32654380215E+02  0.37302923962E+03  0.25500000920E-02 0. -1.
</event>
<event>
 5   0  0.1429680E-03  0.1098244E+04  0.7818609E-02  0.9206905E-01
       -2   -1    0    0    0  501  0.00000000000E+00  0.00000000000E+00  0.53797583379E+03  0.53797583379E+03  0.25500000920E-02 0.  1.
        2   -1    0    0  501    0  0.00000000000E+00  0.00000000000E+00 -0.56049930557E+03  0.56049930558E+03  0.25500000920E-02 0. -1.
    10030    2    1    2    0    0  0.00000000000E+00  0.00000000000E+00 -0.22523471785E+02  0.10984751394E+04  0.10982442010E+04 0.  0.
        3    1    3    3  502    0  0.43946811380E+03 -0.13667504423E+03 -0.31086233337E+03  0.55538067239E+03  0.10100000352E+00 0. -1.
       -3    1    3    3    0  502 -0.43946811380E+03  0.13667504423E+03  0.28833886158E+03  0.54309446698E+03  0.10100000352E+00 0.  1.
</event>
<event>
 5   0  0.8305271E-04  0.1097904E+04  0.7818609E-02  0.9207238E-01
       -1   -1    0    0    0  501  0.00000000000E+00  0.00000000000E+00  0.28245201293E+03  0.28245201297E+03  0.50400001928E-02 0.  1.
        1   -1    0    0  501    0  0.00000000000E+00  0.00000000000E+00 -0.10668999883E+04  0.10668999883E+04  0.50400001928E-02 0. -1.
    10030    2    1    2    0    0  0.00000000000E+00  0.00000000000E+00 -0.78444797534E+03  0.13493520013E+04  0.10979035464E+04 0.  0.
        5    1    3    3  502    0 -0.41104615493E+03  0.15228739284E+03 -0.79831539414E+03  0.91075789869E+03  0.46999998093E+01 0. -1.
       -5    1    3    3    0  502  0.41104615493E+03 -0.15228739284E+03  0.13867418793E+02  0.43859410257E+03  0.46999998093E+01 0.  1.
</event>
<event>
 5   0  0.7946038E-04  0.1107683E+04  0.7818609E-02  0.9197736E-01
        1   -1    0    0  501    0  0.00000000000E+00  0.00000000000E+00  0.12943371408E+04  0.12943371408E+04  0.50400001928E-02 0. -1.
       -1   -1    0    0    0  501  0.00000000000E+00  0.00000000000E+00 -0.23698644973E+03  0.23698644978E+03  0.50400001928E-02 0.  1.
    10030    2    1    2    0    0  0.00000000000E+00  0.00000000000E+00  0.10573506910E+04  0.15313235905E+04  0.11076829218E+04 0.  0.
        4    1    3    3  502    0  0.15355524066E+03  0.52289488374E+03  0.66511533641E+03  0.85987109209E+03  0.12699999809E+01 0. -1.
       -4    1    3    3    0  502 -0.15355524066E+03 -0.52289488374E+03  0.39223535461E+03  0.67145249846E+03  0.12699999809E+01 0.  1.
</event>
<event>
 5   0  0.8150924E-04  0.1096980E+04  0.7818609E-02  0.9208140E-01
       -1   -1    0    0    0  501  0.00000000000E+00  0.00000000000E+00  0.27355038491E+03  0.27355038496E+03  0.50400001928E-02 0. -1.
        1   -1    0    0  501    0  0.00000000000E+00  0.00000000000E+00 -0.10997662093E+04  0.10997662093E+04  0.50400001928E-02 0.  1.
    10030    2    1    2    0    0  0.00000000000E+00  0.00000000000E+00 -0.82621582437E+03  0.13733165943E+04  0.10969803460E+04 0.  0.
        3    1    3    3  502    0 -0.54447740226E+03  0.61654902592E+02 -0.44337431298E+03  0.70486719331E+03  0.10100000352E+00 0. -1.
       -3    1    3    3    0  502  0.54447740226E+03 -0.61654902592E+02 -0.38284151139E+03  0.66844940095E+03  0.10100000352E+00 0.  1.
</event>
<event>
 5   0  0.1425432E-03  0.1104433E+04  0.7818609E-02  0.9200882E-01
        2   -1    0    0  501    0  0.00000000000E+00  0.00000000000E+00  0.22109530072E+04  0.22109530073E+04  0.25500000920E-02 0. -1.
       -2   -1    0    0    0  501  0.00000000000E+00  0.00000000000E+00 -0.13792372065E+03  0.13792372067E+03  0.25500000920E-02 0.  1.
    10030    2    1    2    0    0  0.00000000000E+00  0.00000000000E+00  0.20730292866E+04  0.23488767279E+04  0.11044326416E+04 0.  0.
        1    1    3    3  502    0 -0.24610595957E+03  0.49018386754E+03  0.90042618245E+03  0.10543318630E+04  0.50400001928E-02 0.  1.
       -1    1    3    3    0  502  0.24610595957E+03 -0.49018386754E+03  0.11726031042E+04  0.12945448649E+04  0.50400001928E-02 0. -1.
</event>
<event>
 5   0  0.8009636E-04  0.1098814E+04  0.7818609E-02  0.9206349E-01
       -1   -1    0    0    0  501  0.00000000000E+00  0.00000000000E+00  0.47363014399E+03  0.47363014402E+03  0.50400001928E-02 0.  1.
        1   -1    0    0  501    0  0.00000000000E+00  0.00000000000E+00 -0.63730736954E+03  0.63730736956E+03  0.50400001928E-02 0. -1.
    10030    2    1    2    0    0  0.00000000000E+00  0.00000000000E+00 -0.16367722555E+03  0.11109375136E+04  0.10988138718E+04 0.  0.
        1    1    3    3  502    0 -0.27900870754E+03  0.25725967823E+03 -0.48348691969E+03  0.61464461477E+03  0.50400001928E-02 0. -1.
       -1    1    3    3    0  502  0.27900870754E+03 -0.25725967823E+03  0.31980969414E+03  0.49629289881E+03  0.50400001928E-02 0.  1.
</event>
<event>
 5   0  0.1429680E-03  0.1098703E+04  0.7818609E-02  0.9206457E-01
        2   -1    0    0  501    0  0.00000000000E+00  0.00000000000E+00  0.44873160586E+03  0.44873160587E+03  0.25500000920E-02 0. -1.
       -2   -1    0    0    0  501  0.00000000000E+00  0.00000000000E+00 -0.67253375442E+03  0.67253375443E+03  0.25500000920E-02 0.  1.
    10030    2    1    2    0    0  0.00000000000E+00  0.00000000000E+00 -0.22380214856E+03  0.11212653603E+04  0.10987031476E+04 0.  0.
        3    1    3    3  502    0 -0.44841602641E+03  0.21745163759E+03  0.12398390020E+03  0.51355054779E+03  0.10100000352E+00 0.  1.
       -3    1    3    3    0  502  0.44841602641E+03 -0.21745163759E+03 -0.34778604876E+03  0.60771481251E+03  0.10100000352E+00 0. -1.
</event>
<event>
 5   0  0.1429680E-03  0.1100676E+04  0.7818609E-02  0.9204533E-01
        2   -1    0    0  501    0  0.00000000000E+00  0.00000000000E+00  0.44805457068E+03  0.44805457069E+03  0.25500000920E-02 0.  1.
       -2   -1    0    0    0  501  0.00000000000E+00  0.00000000000E+00 -0.67597077717E+03  0.67597077718E+03  0.25500000920E-02 0. -1.
    10030    2    1    2    0    0  0.00000000000E+00  0.00000000000E+00 -0.22791620649E+03  0.11240253479E+04  0.11006757858E+04 0.  0.
        3    1    3    3  502    0 -0.18163517501E+03  0.43666325126E+03 -0.40136341201E+03  0.62028923133E+03  0.10100000352E+00 0. -1.
       -3    1    3    3    0  502  0.18163517501E+03 -0.43666325126E+03  0.17344720552E+03  0.50373611654E+03  0.10100000352E+00 0.  1.
</event>
<event>
 5   0  0.1372794E-03  0.1099461E+04  0.7818609E-02  0.9205717E-01
       -2   -1    0    0    0  501  0.00000000000E+00  0.00000000000E+00  0.73153694984E+03  0.73153694984E+03  0.25500000920E-02 0.  1.
        2   -1    0    0  501    0  0.00000000000E+00  0.00000000000E+00 -0.41310780074E+03  0.41310780074E+03  0.25500000920E-02 0. -1.
    10030    2    1    2    0    0  0.00000000000E+00  0.00000000000E+00  0.31842914910E+03  0.11446447506E+04  0.10994609961E+04 0.  0.
        4    1    3    3  502    0  0.24960122112E+03 -0.48979272787E+03  0.16137889081E+03  0.57292446724E+03  0.12699999809E+01 0.  1.
       -4    1    3    3    0  502 -0.24960122112E+03  0.48979272787E+03  0.15705025829E+03  0.57172028334E+03  0.12699999809E+01 0. -1.
</event>
<event>
 5   0  0.8150924E-04  0.1111693E+04  0.7818609E-02  0.9193870E-01
        1   -1    0    0  501    0  0.00000000000E+00  0.00000000000E+00  0.15752211454E+04  0.15752211454E+04  0.50400001928E-02 0. -1.
       -1   -1    0    0    0  501  0.00000000000E+00  0.00000000000E+00 -0.19614086347E+03  0.19614086353E+03  0.50400001928E-02 0.  1.
    10030    2    1    2    0    0  0.00000000000E+00  0.00000000000E+00  0.13790802819E+04  0.17713620089E+04  0.11116928275E+04 0.  0.
        3    1    3    3  502    0 -0.88784217236E+02  0.58703762447E+02 -0.17975166319E+03  0.20890054949E+03  0.10100000352E+00 0.  1.
       -3    1    3    3    0  502  0.88784217236E+02 -0.58703762447E+02  0.15588319451E+04  0.15624614594E+04  0.10100000352E+00 0. -1.
</event>
<event>
 5   0  0.1372794E-03  0.1105603E+04  0.7818609E-02  0.9199748E-01
       -2   -1    0    0    0  501  0.00000000000E+00  0.00000000000E+00  0.30001746883E+03  0.30001746884E+03  0.25500000920E-02 0. -1.
        2   -1    0    0  501    0  0.00000000000E+00  0.00000000000E+00 -0.10185724618E+04  0.10185724618E+04  0.25500000920E-02 0.  1.
    10030    2    1    2    0    0  0.00000000000E+00  0.00000000000E+00 -0.71855499296E+03  0.13185899306E+04  0.11056030604E+04 0.  0.
        4    1    3    3  502    0 -0.10901566158E+03  0.47099073124E+03 -0.67901094965E+03  0.83353114281E+03  0.12699999809E+01 0.  1.
       -4    1    3    3    0  502  0.10901566158E+03 -0.47099073124E+03 -0.39544043303E+02  0.48505878782E+03  0.12699999809E+01 0. -1.
</event>
<event>
 5   0  0.8305271E-04  0.1100591E+04  0.7818609E-02  0.9204616E-01
       -1   -1    0    0    0  501  0.00000000000E+00  0.00000000000E+00  0.48424670157E+03  0.48424670160E+03  0.50400001928E-02 0.  1.
        1   -1    0    0  501    0  0.00000000000E+00  0.00000000000E+00 -0.62535288881E+03  0.62535288883E+03  0.50400001928E-02 0. -1.
    10030    2    1    2    0    0  0.00000000000E+00  0.00000000000E+00 -0.14110618724E+03  0.11095995904E+04  0.11005908845E+04 0.  0.
        5    1    3    3  502    0 -0.10577148229E+03 -0.30662847920E+03  0.37760128163E+03  0.49780864658E+03  0.46999998093E+01 0.  1.
       -5    1    3    3    0  502  0.10577148229E+03  0.30662847920E+03 -0.51870746887E+03  0.61179094385E+03  0.46999998093E+01 0. -1.
</event>
<event>
 5   0  0.1425432E-03  0.1102462E+04  0.7818609E-02  0.9202796E-01
        2   -1    0    0  501    0  0.00000000000E+00  0.00000000000E+00  0.14881689153E+04  0.14881689153E+04  0.25500000920E-02 0. -1.
       -2   -1    0    0    0  501  0.00000000000E+00  0.00000000000E+00 -0.20418070243E+03  0.20418070244E+03  0.25500000920E-02 0.  1.
    10030    2    1    2    0    0  0.00000000000E+00  0.00000000000E+00  0.12839882129E+04  0.16923496177E+04  0.11024615630E+04 0.  0.
        1    1    3    3  502    0 -0.23469022419E+03 -0.48376229713E+03  0.45556171947E+03  0.70472827510E+03  0.50400001928E-02 0.  1.
       -1    1    3    3    0  502  0.23469022419E+03  0.48376229713E+03  0.82842649339E+03  0.98762134264E+03  0.50400001928E-02 0. -1.
</event>
<event>
 5   0  0.8341767E-04  0.1092728E+04  0.7818609E-02  0.9212309E-01
        1   -1    0    0  501    0  0.00000000000E+00  0.00000000000E+00  0.91531427314E+03  0.91531427316E+03  0.50400001928E-02 0.  1.
       -1   -1    0    0    0  501  0.00000000000E+00  0.00000000000E+00 -0.32613241121E+03  0.32613241125E+03  0.50400001928E-02 0. -1.
    10030    2    1    2    0    0  0.00000000000E+00  0.00000000000E+00  0.58918186193E+03  0.12414466844E+04  0.10927280557E+04 0.  0.
        2    1    3    3  502    0  0.27067665888E+03 -0.13204547054E+03 -0.22331522342E+03  0.37492872518E+03  0.25500000920E-02 0. -1.
       -2    1    3    3    0  502 -0.27067665888E+03  0.13204547054E+03  0.81249708535E+03  0.86651795922E+03  0.25500000920E-02 0.  1.
</event>
<event>
 5   0  0.1402775E-03  0.1099880E+04  0.7818609E-02  0.9205309E-01
       -2   -1    0    0    0  501  0.00000000000E+00  0.00000000000E+00  0.30884185733E+03  0.30884185734E+03  0.25500000920E-02 0. -1.
        2   -1    0    0  501    0  0.00000000000E+00  0.00000000000E+00 -0.97925214376E+03  0.97925214377E+03  0.25500000920E-02 0.  1.
    10030    2    1    2    0    0  0.00000000000E+00  0.00000000000E+00 -0.67041028643E+03  0.12880940011E+04  0.10998800860E+04 0.  0.
        5    1    3    3  502    0 -0.54767370205E+02 -0.13435045105E+03  0.28600035222E+03  0.32073010461E+03  0.46999998093E+01 0. -1.
       -5    1    3    3    0  502  0.54767370205E+02  0.13435045105E+03 -0.95641063865E+03  0.96736389650E+03  0.46999998093E+01 0.  1.
</event>
<event>
 5   0  0.8150924E-04  0.1098640E+04  0.7818609E-02  0.9206518E-01
       -1   -1    0    0    0  501  0.00000000000E+00  0.00000000000E+00  0.37093830840E+03  0.37093830844E+03  0.50400001928E-02 0.  1.
        1   -1    0    0  501    0  0.00000000000E+00  0.00000000000E+00 -0.81348489627E+03  0.81348489629E+03  0.50400001928E-02 0. -1.
    10030    2    1    2    0    0  0.00000000000E+00  0.00000000000E+00 -0.44254658787E+03  0.11844232047E+04  0.10986404532E+04 0.  0.
        3    1    3    3  502    0 -0.12531338263E+03 -0.48131972847E+02  0.35298320307E+03  0.37764703431E+03  0.10100000352E+00 0.  1.
       -3    1    3    3    0  502  0.12531338263E+03  0.48131972847E+02 -0.79552979094E+03  0.80677617041E+03  0.10100000352E+00 0. -1.
</event>
<event>
 5   0  0.8150924E-04  0.1102792E+04  0.7818609E-02  0.9202475E-01
       -1   -1    0    0    0  501  0.00000000000E+00  0.00000000000E+00  0.20852198660E+03  0.20852198666E+03  0.50400001928E-02 0. -1.
        1   -1    0    0  501    0  0.00000000000E+00  0.00000000000E+00 -0.14580595827E+04  0.14580595828E+04  0.50400001928E-02 0.  1.
    10030    2    1    2    0    0  0.00000000000E+00  0.00000000000E+00 -0.12495375961E+04  0.16665815694E+04  0.11027918767E+04 0.  0.
        3    1    3    3  502    0  0.46144349887E+03  0.69630273884E+02 -0.10686177596E+04  0.11660713546E+04  0.10100000352E+00 0.  1.
       -3    1    3    3    0  502 -0.46144349887E+03 -0.69630273884E+02 -0.18091983656E+03  0.50051021483E+03  0.10100000352E+00 0. -1.
</event>
<event>
 5   0  0.5409500E-04  0.1097698E+04  0.7818609E-02  0.9207438E-01
        3   -1    0    0  501    0  0.00000000000E+00  0.00000000000E+00  0.22945538118E+03  0.22945540341E+03  0.10100000352E+00 0. -1.
       -3   -1    0    0    0  501  0.00000000000E+00  0.00000000000E+00 -0.13128273340E+04  0.13128273378E+04  0.10100000352E+00 0.  1.
    10030    2    1    2    0    0  0.00000000000E+00  0.00000000000E+00 -0.10833719528E+04  0.15422827413E+04  0.10976981670E+04 0.  0.
        4    1    3    3  502    0  0.38643856414E+03  0.55030611090E+02  0.42161326850E+00  0.39033949668E+03  0.12699999809E+01 0. -1.
       -4    1    3    3    0  502 -0.38643856414E+03 -0.55030611090E+02 -0.10837935660E+04  0.11519432446E+04  0.12699999809E+01 0.  1.
</event>
<event>
 5   0  0.8009636E-04  0.1050292E+04  0.7818609E-02  0.9255042E-01
        1   -1    0    0  501    0  0.00000000000E+00  0.00000000000E+00  0.61807278298E+03  0.61807278300E+03  0.50400001928E-02 0. -1.
       -1   -1    0    0    0  501  0.00000000000E+00  0.00000000000E+00 -0.44619110756E+03  0.44619110758E+03  0.50400001928E-02 0.  1.
    10030    2    1    2    0    0  0.00000000000E+00  0.00000000000E+00  0.17188167543E+03  0.10642638906E+04  0.10502924919E+04 0.  0.
        1    1    3    3  502    0 -0.41461049674E+03 -0.30914705792E+03 -0.64021609299E+01  0.51721828576E+03  0.50400001928E-02 0.  1.
       -1    1    3    3    0  502  0.41461049674E+03  0.30914705792E+03  0.17828383636E+03  0.54704560483E+03  0.50400001928E-02 0. -1.
</event>
<event>
 5   0  0.8341767E-04  0.1105527E+04  0.7818609E-02  0.9199821E-01
        1   -1    0    0  501    0  0.00000000000E+00  0.00000000000E+00  0.46684177078E+03  0.46684177081E+03  0.50400001928E-02 0.  1.
       -1   -1    0    0    0  501  0.00000000000E+00  0.00000000000E+00 -0.65449959644E+03  0.65449959646E+03  0.50400001928E-02 0. -1.
    10030    2    1    2    0    0  0.00000000000E+00  0.00000000000E+00 -0.18765782565E+03  0.11213413673E+04  0.11055274770E+04 0.  0.
        2    1    3    3  502    0 -0.39569713685E+03 -0.35983811617E+03 -0.23542542943E+03  0.58436703089E+03  0.25500000920E-02 0. -1.
       -2    1    3    3    0  502  0.39569713685E+03  0.35983811617E+03  0.47767603783E+02  0.53697433638E+03  0.25500000920E-02 0.  1.
</event>
<event>
 5   0  0.8305271E-04  0.1101625E+04  0.7818609E-02  0.9203609E-01
        1   -1    0    0  501    0  0.00000000000E+00  0.00000000000E+00  0.28490468966E+03  0.28490468971E+03  0.50400001928E-02 0. -1.
       -1   -1    0    0    0  501  0.00000000000E+00  0.00000000000E+00 -0.10648986480E+04  0.10648986480E+04  0.50400001928E-02 0.  1.
    10030    2    1    2    0    0  0.00000000000E+00  0.00000000000E+00 -0.77999395835E+03  0.13498033377E+04  0.11016253789E+04 0.  0.
        5    1    3    3  502    0  0.19681481299E+03 -0.38102510908E+03 -0.81348500899E+03  0.91961739556E+03  0.46999998093E+01 0.  1.
       -5    1    3    3    0  502 -0.19681481299E+03  0.38102510908E+03  0.33491050644E+02  0.43018594217E+03  0.46999998093E+01 0. -1.
</event>
<event>
 5   0  0.1402775E-03  0.1090044E+04  0.7818609E-02  0.9214950E-01
       -2   -1    0    0    0  501  0.00000000000E+00  0.00000000000E+00  0.12759089169E+03  0.12759089171E+03  0.25500000920E-02 0.  1.
        2   -1    0    0  501    0  0.00000000000E+00  0.00000000000E+00 -0.23281379842E+04  0.23281379842E+04  0.25500000920E-02 0. -1.
    10030    2    1    2    0    0  0.00000000000E+00  0.00000000000E+00 -0.22005470925E+04  0.24557288759E+04  0.10900444053E+04 0.  0.
        5    1    3    3  502    0  0.73169629679E+02 -0.49889817814E+03 -0.15662090197E+04  0.16453832290E+04  0.46999998093E+01 0.  1.
       -5    1    3    3    0  502 -0.73169629679E+02  0.49889817814E+03 -0.63433807279E+03  0.81034564690E+03  0.46999998093E+01 0. -1.
</event>
<event>
 5   0  0.8305271E-04  0.1098188E+04  0.7818609E-02  0.9206959E-01
        1   -1    0    0  501    0  0.00000000000E+00  0.00000000000E+00  0.29298575774E+03  0.29298575778E+03  0.50400001928E-02 0.  1.
       -1   -1    0    0    0  501  0.00000000000E+00  0.00000000000E+00 -0.10290754932E+04  0.10290754932E+04  0.50400001928E-02 0. -1.
    10030    2    1    2    0    0  0.00000000000E+00  0.00000000000E+00 -0.73608973544E+03  0.13220612510E+04  0.10981884413E+04 0.  0.
        5    1    3    3  502    0  0.88945890936E+02 -0.17971993834E+02  0.28387203918E+03  0.29806004211E+03  0.46999998093E+01 0.  1.
       -5    1    3    3    0  502 -0.88945890936E+02  0.17971993834E+02 -0.10199617746E+04  0.10240012089E+04  0.46999998093E+01 0. -1.
</event>
<event>
 5   0  0.1425432E-03  0.1091821E+04  0.7818609E-02  0.9213201E-01
        2   -1    0    0  501    0  0.00000000000E+00  0.00000000000E+00  0.30985536932E+04  0.30985536932E+04  0.25500000920E-02 0. -1.
       -2   -1    0    0    0  501  0.00000000000E+00  0.00000000000E+00 -0.96179780651E+02  0.96179780685E+02  0.25500000920E-02 0.  1.
    10030    2    1    2    0    0  0.00000000000E+00  0.00000000000E+00  0.30023739125E+04  0.31947334738E+04  0.10918208912E+04 0.  0.
        1    1    3    3  502    0  0.15974036317E+03  0.20485125901E+02  0.30274620284E+04  0.30317425612E+04  0.50400001928E-02 0. -1.
       -1    1    3    3    0  502 -0.15974036317E+03 -0.20485125901E+02 -0.25088115917E+02  0.16299091261E+03  0.50400001928E-02 0.  1.
</event>
<event>
 5   0  0.8009636E-04  0.1099035E+04  0.7818609E-02  0.9206133E-01
        1   -1    0    0  501    0  0.00000000000E+00  0.00000000000E+00  0.92389614039E+03  0.92389614041E+03  0.50400001928E-02 0.  1.
       -1   -1    0    0    0  501  0.00000000000E+00  0.00000000000E+00 -0.32684371545E+03  0.32684371549E+03  0.50400001928E-02 0. -1.
    10030    2    1    2    0    0  0.00000000000E+00  0.00000000000E+00  0.59705242494E+03  0.12507398559E+04  0.10990352993E+04 0.  0.
        1    1    3    3  502    0  0.43629988629E+02  0.81369518447E+02 -0.31795345668E+03  0.33108756407E+03  0.50400001928E-02 0. -1.
       -1    1    3    3    0  502 -0.43629988629E+02 -0.81369518447E+02  0.91500588162E+03  0.91965229183E+03  0.50400001928E-02 0.  1.
</event>
<event>
 5   0  0.1372794E-03  0.1103468E+04  0.7818609E-02  0.9201818E-01
       -2   -1    0    0    0  501  0.00000000000E+00  0.00000000000E+00  0.63986000048E+03  0.63986000048E+03  0.25500000920E-02 0.  1.
        2   -1    0    0  501    0  0.00000000000E+00  0.00000000000E+00 -0.47574574397E+03  0.47574574398E+03  0.25500000920E-02 0. -1.
    10030    2    1    2    0    0  0.00000000000E+00  0.00000000000E+00  0.16411425651E+03  0.11156057445E+04  0.11034684807E+04 0.  0.
        4    1    3    3  502    0 -0.45787963376E+03  0.98581276048E+02 -0.21276145606E+03  0.51443277217E+03  0.12699999809E+01 0. -1.
       -4    1    3    3    0  502  0.45787963376E+03 -0.98581276048E+02  0.37687571256E+03  0.60117297229E+03  0.12699999809E+01 0.  1.
</event>
<event>
 5   0  0.1429680E-03  0.1097697E+04  0.7818609E-02  0.9207439E-01
        2   -1    0    0  501    0  0.00000000000E+00  0.00000000000E+00  0.18726012924E+03  0.18726012925E+03  0.25500000920E-02 0.  1.
       -2   -1    0    0    0  501  0.00000000000E+00  0.00000000000E+00 -0.16086438375E+04  0.16086438375E+04  0.25500000920E-02 0. -1.
    10030    2    1    2    0    0  0.00000000000E+00  0.00000000000E+00 -0.14213837082E+04  0.17959039667E+04  0.10976973224E+04 0.  0.
        3    1    3    3  502    0 -0.53871946623E+03  0.46202979089E+02 -0.86487708956E+03  0.10199832199E+04  0.10100000352E+00 0. -1.
       -3    1    3    3    0  502  0.53871946623E+03 -0.46202979089E+02 -0.55650661868E+03  0.77592074686E+03  0.10100000352E+00 0.  1.
</event>
<event>
 5   0  0.8150924E-04  0.1100271E+04  0.7818609E-02  0.9204928E-01
       -1   -1    0    0    0  501  0.00000000000E+00  0.00000000000E+00  0.19059543636E+03  0.19059543643E+03  0.50400001928E-02 0.  1.
        1   -1    0    0  501    0  0.00000000000E+00  0.00000000000E+00 -0.15879130756E+04  0.15879130756E+04  0.50400001928E-02 0. -1.
    10030    2    1    2    0    0  0.00000000000E+00  0.00000000000E+00 -0.13973176392E+04  0.17785085120E+04  0.11002708496E+04 0.  0.
        3    1    3    3  502    0 -0.53640498812E+03 -0.11928550131E+01 -0.50123452382E+03  0.73414425848E+03  0.10100000352E+00 0.  1.
       -3    1    3    3    0  502  0.53640498812E+03  0.11928550131E+01 -0.89608311541E+03  0.10443642536E+04  0.10100000352E+00 0. -1.
</event>
<event>
 5   0  0.8305271E-04  0.1100052E+04  0.7818609E-02  0.9205141E-01
       -1   -1    0    0    0  501  0.00000000000E+00  0.00000000000E+00  0.22867317400E+03  0.22867317406E+03  0.50400001928E-02 0.  1.
        1   -1    0    0  501    0  0.00000000000E+00  0.00000000000E+00 -0.13229736348E+04  0.13229736348E+04  0.50400001928E-02 0. -1.
    10030    2    1    2    0    0  0.00000000000E+00  0.00000000000E+00 -0.10943004608E+04  0.15516468089E+04  0.11000519629E+04 0.  0.
        5    1    3    3  502    0 -0.33245901228E+03  0.21933374050E+03 -0.10821641786E+04  0.11531425254E+04  0.46999998093E+01 0. -1.
       -5    1    3    3    0  502  0.33245901228E+03 -0.21933374050E+03 -0.12136282204E+02  0.39850428342E+03  0.46999998093E+01 0.  1.
</event>
<event>
 5   0  0.5409500E-04  0.1101835E+04  0.7818609E-02  0.9203405E-01
       -3   -1    0    0    0  501  0.00000000000E+00  0.00000000000E+00  0.54821026366E+03  0.54821027296E+03  0.10100000352E+00 0. -1.
        3   -1    0    0  501    0  0.00000000000E+00  0.00000000000E+00 -0.55363778772E+03  0.55363779693E+03  0.10100000352E+00 0.  1.
    10030    2    1    2    0    0  0.00000000000E+00  0.00000000000E+00 -0.54275240580E+01  0.11018480699E+04  0.11018347023E+04 0.  0.
        1    1    3    3  502    0  0.49480411645E+03  0.11345144393E+03 -0.21674342228E+03  0.55197831018E+03  0.50400001928E-02 0. -1.
       -1    1    3    3    0  502 -0.49480411645E+03 -0.11345144393E+03  0.21131589822E+03  0.54986975971E+03  0.50400001928E-02 0.  1.
</event>
<event>
 5   0  0.8341767E-04  0.1102519E+04  0.7818609E-02  0.9202740E-01
       -1   -1    0    0    0  501  0.00000000000E+00  0.00000000000E+00  0.29623224361E+03  0.29623224365E+03  0.50400001928E-02 0. -1.
        1   -1    0    0  501    0  0.00000000000E+00  0.00000000000E+00 -0.10258401437E+04  0.10258401437E+04  0.50400001928E-02 0.  1.
    10030    2    1    2    0    0  0.00000000000E+00  0.00000000000E+00 -0.72960790011E+03  0.13220723874E+04  0.11025188024E+04 0.  0.
        2    1    3    3  502    0  0.51889900331E+03  0.17831441755E+03 -0.30095932616E+03  0.62580246336E+03  0.25500000920E-02 0. -1.
       -2    1    3    3    0  502 -0.51889900331E+03 -0.17831441755E+03 -0.42864857395E+03  0.69626992402E+03  0.25500000920E-02 0.  1.
</event>
<event>
 5   0  0.1402775E-03  0.1095346E+04  0.7818609E-02  0.9209740E-01
       -2   -1    0    0    0  501  0.00000000000E+00  0.00000000000E+00  0.22154922393E+03  0.22154922395E+03  0.25500000920E-02 0. -1.
        2   -1    0    0  501    0  0.00000000000E+00  0.00000000000E+00 -0.13538562299E+04  0.13538562299E+04  0.25500000920E-02 0.  1.
    10030    2    1    2    0    0  0.00000000000E+00  0.00000000000E+00 -0.11323070060E+04  0.15754054539E+04  0.10953461500E+04 0.  0.
        5    1    3    3  502    0 -0.52777900271E+03  0.96742608174E+02 -0.40850750539E+03  0.67439623360E+03  0.46999998093E+01 0. -1.
       -5    1    3    3    0  502  0.52777900271E+03 -0.96742608174E+02 -0.72379950060E+03  0.90100922026E+03  0.46999998093E+01 0.  1.
</event>
<event>
 5   0  0.1396936E-03  0.1099431E+04  0.7818609E-02  0.9205747E-01
        2   -1    0    0  501    0  0.00000000000E+00  0.00000000000E+00  0.66474456865E+03  0.66474456865E+03  0.25500000920E-02 0. -1.
       -2   -1    0    0    0  501  0.00000000000E+00  0.00000000000E+00 -0.45459102338E+03  0.45459102338E+03  0.25500000920E-02 0.  1.
    10030    2    1    2    0    0  0.00000000000E+00  0.00000000000E+00  0.21015354527E+03  0.11193355920E+04  0.10994306049E+04 0.  0.
        2    1    3    3  502    0 -0.38931270572E+01  0.28800159512E+02 -0.45380834665E+03  0.45473796974E+03  0.25500000920E-02 0.  1.
       -2    1    3    3    0  502  0.38931270572E+01 -0.28800159512E+02  0.66396189192E+03  0.66459762230E+03  0.25500000920E-02 0. -1.
</event>
<event>
 5   0  0.1429680E-03  0.1097176E+04  0.7818609E-02  0.9207949E-01
        2   -1    0    0  501    0  0.00000000000E+00  0.00000000000E+00  0.34567931421E+03  0.34567931422E+03  0.25500000920E-02 0. -1.
       -2   -1    0    0    0  501  0.00000000000E+00  0.00000000000E+00 -0.87060053972E+03  0.87060053973E+03  0.25500000920E-02 0.  1.
    10030    2    1    2    0    0  0.00000000000E+00  0.00000000000E+00 -0.52492122551E+03  0.12162798539E+04  0.10971756423E+04 0.  0.
        3    1    3    3  502    0  0.37063031943E+03 -0.18397930680E+03  0.13682457796E+03  0.43581669811E+03  0.10100000352E+00 0. -1.
       -3    1    3    3    0  502 -0.37063031943E+03  0.18397930680E+03 -0.66174580347E+03  0.78046315584E+03  0.10100000352E+00 0.  1.
</event>
<event>
 5   0  0.1396936E-03  0.1096007E+04  0.7818609E-02  0.9209093E-01
       -2   -1    0    0    0  501  0.00000000000E+00  0.00000000000E+00  0.16057709120E+03  0.16057709122E+03  0.25500000920E-02 0.  1.
        2   -1    0    0  501    0  0.00000000000E+00  0.00000000000E+00 -0.18701780704E+04  0.18701780704E+04  0.25500000920E-02 0. -1.
    10030    2    1    2    0    0  0.00000000000E+00  0.00000000000E+00 -0.17096009792E+04  0.20307551616E+04  0.10960068514E+04 0.  0.
        2    1    3    3  502    0  0.43049544632E+03  0.21522608620E+02 -0.22778025206E+03  0.48751758453E+03  0.25500000920E-02 0.  1.
       -2    1    3    3    0  502 -0.43049544632E+03 -0.21522608620E+02 -0.14818207272E+04  0.15432375771E+04  0.25500000920E-02 0. -1.
</event>
<event>
 5   0  0.1429680E-03  0.1112527E+04  0.7818609E-02  0.9193067E-01
       -2   -1    0    0    0  501  0.00000000000E+00  0.00000000000E+00  0.19955094960E+03  0.19955094962E+03  0.25500000920E-02 0. -1.
        2   -1    0    0  501    0  0.00000000000E+00  0.00000000000E+00 -0.15506272153E+04  0.15506272153E+04  0.25500000920E-02 0.  1.
    10030    2    1    2    0    0  0.00000000000E+00  0.00000000000E+00 -0.13510762657E+04  0.17501781649E+04  0.11125270933E+04 0.  0.
        3    1    3    3  502    0 -0.29163421680E+03  0.47194062419E+03 -0.61162359096E+03  0.82574929391E+03  0.10100000352E+00 0.  1.
       -3    1    3    3    0  502  0.29163421680E+03 -0.47194062419E+03 -0.73945267477E+03  0.92442887103E+03  0.10100000352E+00 0. -1.
</event>
<event>
 5   0  0.1402775E-03  0.1102924E+04  0.7818609E-02  0.9202347E-01
        2   -1    0    0  501    0  0.00000000000E+00  0.00000000000E+00  0.87252071280E+03  0.87252071280E+03  0.25500000920E-02 0. -1.
       -2   -1    0    0    0  501  0.00000000000E+00  0.00000000000E+00 -0.34854197228E+03  0.34854197228E+03  0.25500000920E-02 0.  1.
    10030    2    1    2    0    0  0.00000000000E+00  0.00000000000E+00  0.52397874052E+03  0.12210626851E+04  0.11029235515E+04 0.  0.
        5    1    3    3  502    0  0.98761429610E+02 -0.46035643770E+00  0.86262728319E+03  0.86827527409E+03  0.46999998093E+01 0. -1.
       -5    1    3    3    0  502 -0.98761429610E+02  0.46035643770E+00 -0.33864854267E+03  0.35278741099E+03  0.46999998093E+01 0.  1.
</event>
<event>
 5   0  0.1372794E-03  0.1102845E+04  0.7818609E-02  0.9202423E-01
       -2   -1    0    0    0  501  0.00000000000E+00  0.00000000000E+00  0.23751868896E+03  0.23751868898E+03  0.25500000920E-02 0.  1.
        2   -1    0    0  501    0  0.00000000000E+00  0.00000000000E+00 -0.12801811324E+04  0.12801811324E+04  0.25500000920E-02 0. -1.
    10030    2    1    2    0    0  0.00000000000E+00  0.00000000000E+00 -0.10426624434E+04  0.15176998214E+04  0.11028453096E+04 0.  0.
        4    1    3    3  502    0  0.47220692906E+03  0.28460596056E+03 -0.53404828056E+03  0.76758655245E+03  0.12699999809E+01 0.  1.
       -4    1    3    3    0  502 -0.47220692906E+03 -0.28460596056E+03 -0.50861416286E+03  0.75011326892E+03  0.12699999809E+01 0. -1.
</event>
<event>
 5   0  0.1372794E-03  0.1105570E+04  0.7818609E-02  0.9199780E-01
        2   -1    0    0  501    0  0.00000000000E+00  0.00000000000E+00  0.45320509156E+03  0.45320509157E+03  0.25500000920E-02 0.  1.
       -2   -1    0    0    0  501  0.00000000000E+00  0.00000000000E+00 -0.67424479054E+03  0.67424479055E+03  0.25500000920E-02 0. -1.
    10030    2    1    2    0    0  0.00000000000E+00  0.00000000000E+00 -0.22103969898E+03  0.11274498821E+04  0.11055698477E+04 0.  0.
        4    1    3    3  502    0  0.24845298382E+02  0.25911364816E+03  0.38679141506E+03  0.46622567838E+03  0.12699999809E+01 0.  1.
       -4    1    3    3    0  502 -0.24845298382E+02 -0.25911364816E+03 -0.60783111404E+03  0.66122420374E+03  0.12699999809E+01 0. -1.
</event>
<event>
 5   0  0.8009636E-04  0.1128129E+04  0.7818609E-02  0.9178201E-01
        1   -1    0    0  501    0  0.00000000000E+00  0.00000000000E+00  0.23062726979E+04  0.23062726979E+04  0.50400001928E-02 0. -1.
       -1   -1    0    0    0  501  0.00000000000E+00  0.00000000000E+00 -0.13795799374E+03  0.13795799383E+03  0.50400001928E-02 0.  1.
    10030    2    1    2    0    0  0.00000000000E+00  0.00000000000E+00  0.21683147041E+04  0.24442306917E+04  0.11281289900E+04 0.  0.
        1    1    3    3  502    0  0.37221198784E+03  0.38529871609E+03  0.14666869122E+04  0.15614632122E+04  0.50400001928E-02 0. -1.
       -1    1    3    3    0  502 -0.37221198784E+03 -0.38529871609E+03  0.70162779193E+03  0.88276747954E+03  0.50400001928E-02 0.  1.
</event>
<event>
 5   0  0.1396936E-03  0.1093014E+04  0.7818609E-02  0.9212027E-01
       -2   -1    0    0    0  501  0.00000000000E+00  0.00000000000E+00  0.44912174545E+03  0.44912174546E+03  0.25500000920E-02 0.  1.
        2   -1    0    0  501    0  0.00000000000E+00  0.00000000000E+00 -0.66500912098E+03  0.66500912099E+03  0.25500000920E-02 0. -1.
    10030    2    1    2    0    0  0.00000000000E+00  0.00000000000E+00 -0.21588737553E+03  0.11141308664E+04  0.10930142857E+04 0.  0.
        2    1    3    3  502    0  0.21401483550E+03  0.40773853160E+03  0.19204987098E+03  0.49893507886E+03  0.25500000920E-02 0.  1.
       -2    1    3    3    0  502 -0.21401483550E+03 -0.40773853160E+03 -0.40793724651E+03  0.61519578759E+03  0.25500000920E-02 0. -1.
</event>
<event>
 5   0  0.8305271E-04  0.1096668E+04  0.7818609E-02  0.9208445E-01
       -1   -1    0    0    0  501  0.00000000000E+00  0.00000000000E+00  0.40064460927E+03  0.40064460930E+03  0.50400001928E-02 0. -1.
        1   -1    0    0  501    0  0.00000000000E+00  0.00000000000E+00 -0.75046620014E+03  0.75046620015E+03  0.50400001928E-02 0.  1.
    10030    2    1    2    0    0  0.00000000000E+00  0.00000000000E+00 -0.34982159087E+03  0.11511108095E+04  0.10966681131E+04 0.  0.
        5    1    3    3  502    0  0.52677433228E+03  0.35904593390E+02 -0.33012968345E+03  0.62272629209E+03  0.46999998093E+01 0. -1.
       -5    1    3    3    0  502 -0.52677433228E+03 -0.35904593390E+02 -0.19691907417E+02  0.52838451736E+03  0.46999998093E+01 0.  1.
</event>
<event>
 5   0  0.7946038E-04  0.1101604E+04  0.7818609E-02  0.9203630E-01
        1   -1    0    0  501    0  0.00000000000E+00  0.00000000000E+00  0.14785689222E+04  0.14785689222E+04  0.50400001928E-02 0. -1.
       -1   -1    0    0    0  501  0.00000000000E+00  0.00000000000E+00 -0.20518693401E+03  0.20518693407E+03  0.50400001928E-02 0.  1.
    10030    2    1    2    0    0  0.00000000000E+00  0.00000000000E+00  0.12733819882E+04  0.16837558563E+04  0.11016043281E+04 0.  0.
        4    1    3    3  502    0 -0.48713890221E+03  0.20956054370E+03  0.86422843067E+03  0.10139587392E+04  0.12699999809E+01 0. -1.
       -4    1    3    3    0  502  0.48713890221E+03 -0.20956054370E+03  0.40915355753E+03  0.66979711709E+03  0.12699999809E+01 0.  1.
</event>
<event>
 5   0  0.8305271E-04  0.1098859E+04  0.7818609E-02  0.9206305E-01
       -1   -1    0    0    0  501  0.00000000000E+00  0.00000000000E+00  0.26438975568E+03  0.26438975573E+03  0.50400001928E-02 0.  1.
        1   -1    0    0  501    0  0.00000000000E+00  0.00000000000E+00 -0.11417710090E+04  0.11417710090E+04  0.50400001928E-02 0. -1.
    10030    2    1    2    0    0  0.00000000000E+00  0.00000000000E+00 -0.87738125333E+03  0.14061607648E+04  0.10988586045E+04 0.  0.
        5    1    3    3  502    0  0.30628556736E+02  0.35712700473E+03 -0.97151425015E+03  0.10355384272E+04  0.46999998093E+01 0. -1.
       -5    1    3    3    0  502 -0.30628556736E+02 -0.35712700473E+03  0.94132996818E+02  0.37062233754E+03  0.46999998093E+01 0.  1.
</event>
<event>
 5   0  0.1425432E-03  0.1104343E+04  0.7818609E-02  0.9200969E-01
        2   -1    0    0  501    0  0.00000000000E+00  0.00000000000E+00  0.14510519456E+04  0.14510519456E+04  0.25500000920E-02 0.  1.
       -2   -1    0    0    0  501  0.00000000000E+00  0.00000000000E+00 -0.21011900110E+03  0.21011900112E+03  0.25500000920E-02 0. -1.
    10030    2    1    2    0    0  0.00000000000E+00  0.00000000000E+00  0.12409329445E+04  0.16611709467E+04  0.11043433984E+04 0.  0.
        1    1    3    3  502    0  0.47162801932E+03  0.21945093703E+03  0.89905881024E+03  0.10387003642E+04  0.50400001928E-02 0.  1.
       -1    1    3    3    0  502 -0.47162801932E+03 -0.21945093703E+03  0.34187413427E+03  0.62247058250E+03  0.50400001928E-02 0. -1.
</event>
<event>
 5   0  0.1429680E-03  0.1096375E+04  0.7818609E-02  0.9208733E-01
       -2   -1    0    0    0  501  0.00000000000E+00  0.00000000000E+00  0.65947460090E+03  0.65947460091E+03  0.25500000920E-02 0. -1.
        2   -1    0    0  501    0  0.00000000000E+00  0.00000000000E+00 -0.45567988075E+03  0.45567988076E+03  0.25500000920E-02 0.  1.
    10030    2    1    2    0    0  0.00000000000E+00  0.00000000000E+00  0.20379472015E+03  0.11151544817E+04  0.10963745847E+04 0.  0.
        3    1    3    3  502    0 -0.35570646536E+03 -0.76886174189E+01 -0.32228704674E+03  0.48005744972E+03  0.10100000352E+00 0.  1.
       -3    1    3    3    0  502  0.35570646536E+03  0.76886174189E+01  0.52608176689E+03  0.63509703195E+03  0.10100000352E+00 0. -1.
</event>
<event>
 5   0  0.1402775E-03  0.1095621E+04  0.7818609E-02  0.9209470E-01
        2   -1    0    0  501    0  0.00000000000E+00  0.00000000000E+00  0.12439158222E+04  0.12439158222E+04  0.25500000920E-02 0. -1.
       -2   -1    0    0    0  501  0.00000000000E+00  0.00000000000E+00 -0.24125144030E+03  0.24125144031E+03  0.25500000920E-02 0.  1.
    10030    2    1    2    0    0  0.00000000000E+00  0.00000000000E+00  0.10026643819E+04  0.14851672625E+04  0.10956212552E+04 0.  0.
        5    1    3    3  502    0  0.45995240219E+03  0.19776194662E+03  0.80264339910E+03  0.94600450101E+03  0.46999998093E+01 0. -1.
       -5    1    3    3    0  502 -0.45995240219E+03 -0.19776194662E+03  0.20002098276E+03  0.53916276147E+03  0.46999998093E+01 0.  1.
</event>
<event>
 5   0  0.8305271E-04  0.1099050E+04  0.7818609E-02  0.9206118E-01
        1   -1    0    0  501    0  0.00000000000E+00  0.00000000000E+00  0.49944970471E+03  0.49944970474E+03  0.50400001928E-02 0. -1.
       -1   -1    0    0    0  501  0.00000000000E+00  0.00000000000E+00 -0.60462105807E+03  0.60462105809E+03  0.50400001928E-02 0.  1.
    10030    2    1    2    0    0  0.00000000000E+00  0.00000000000E+00 -0.10517135335E+03  0.11040707628E+04  0.10990501516E+04 0.  0.
        5    1    3    3  502    0 -0.27844027225E+03  0.37755864827E+03 -0.34003298101E+03  0.57941697962E+03  0.46999998093E+01 0.  1.
       -5    1    3    3    0  502  0.27844027225E+03 -0.37755864827E+03  0.23486162766E+03  0.52465378321E+03  0.46999998093E+01 0. -1.
</event>
<event>
 5   0  0.1429680E-03  0.1102207E+04  0.7818609E-02  0.9203043E-01
        2   -1    0    0  501    0  0.00000000000E+00  0.00000000000E+00  0.16408188030E+03  0.16408188032E+03  0.25500000920E-02 0.  1.
       -2   -1    0    0    0  501  0.00000000000E+00  0.00000000000E+00 -0.18509981303E+04  0.18509981303E+04  0.25500000920E-02 0. -1.
    10030    2    1    2    0    0  0.00000000000E+00  0.00000000000E+00 -0.16869162500E+04  0.20150800106E+04  0.11022073374E+04 0.  0.
        3    1    3    3  502    0  0.50068304036E+03 -0.22834078899E+03 -0.89806723924E+03  0.10532558090E+04  0.10100000352E+00 0. -1.
       -3    1    3    3    0  502 -0.50068304036E+03  0.22834078899E+03 -0.78884901076E+03  0.96182420161E+03  0.10100000352E+00 0.  1.
</event>
<event>
 5   0  0.1372794E-03  0.1100245E+04  0.7818609E-02  0.9204953E-01
       -2   -1    0    0    0  501  0.00000000000E+00  0.00000000000E+00  0.68187259653E+03  0.68187259654E+03  0.25500000920E-02 0.  1.
        2   -1    0    0  501    0  0.00000000000E+00  0.00000000000E+00 -0.44382863723E+03  0.44382863724E+03  0.25500000920E-02 0. -1.
    10030    2    1    2    0    0  0.00000000000E+00  0.00000000000E+00  0.23804395930E+03  0.11257012338E+04  0.11002446733E+04 0.  0.
        4    1    3    3  502    0  0.76545112938E+02  0.53195744882E+03  0.23919200366E+03  0.58826210925E+03  0.12699999809E+01 0. -1.
       -4    1    3    3    0  502 -0.76545112938E+02 -0.53195744882E+03 -0.11480443552E+01  0.53743912453E+03  0.12699999809E+01 0.  1.
</event>
<event>
 5   0  0.1402775E-03  0.1104111E+04  0.7818609E-02  0.9201194E-01
        2   -1    0    0  501    0  0.00000000000E+00  0.00000000000E+00  0.17375516603E+04  0.17375516603E+04  0.25500000920E-02 0. -1.
       -2   -1    0    0    0  501  0.00000000000E+00  0.00000000000E+00 -0.17539929411E+03  0.17539929413E+03  0.25500000920E-02 0.  1.
    10030    2    1    2    0    0  0.00000000000E+00  0.00000000000E+00  0.15621523662E+04  0.19129509544E+04  0.11041111080E+04 0.  0.
        5    1    3    3  502    0 -0.31498308640E+02 -0.46729823579E+03  0.12873412150E+04  0.13699011930E+04  0.46999998093E+01 0. -1.
       -5    1    3    3    0  502  0.31498308640E+02  0.46729823579E+03  0.27481115120E+03  0.54304976148E+03  0.46999998093E+01 0.  1.
</event>
<event>
 5   0  0.8305271E-04  0.1097947E+04  0.7818609E-02  0.9207195E-01
        1   -1    0    0  501    0  0.00000000000E+00  0.00000000000E+00  0.19852497255E+04  0.19852497255E+04  0.50400001928E-02 0. -1.
       -1   -1    0    0    0  501  0.00000000000E+00  0.00000000000E+00 -0.15180545517E+03  0.15180545525E+03  0.50400001928E-02 0.  1.
    10030    2    1    2    0    0  0.00000000000E+00  0.00000000000E+00  0.18334442703E+04  0.21370551808E+04  0.10979466987E+04 0.  0.
        5    1    3    3  502    0  0.64987175346E+01 -0.44373085788E+03  0.28778645197E+03  0.52894464691E+03  0.46999998093E+01 0.  1.
       -5    1    3    3    0  502 -0.64987175346E+01  0.44373085788E+03  0.15456578184E+04  0.16081105338E+04  0.46999998093E+01 0. -1.
</event>
<event>
 5   0  0.1429680E-03  0.1086469E+04  0.7818609E-02  0.9218481E-01
       -2   -1    0    0    0  501  0.00000000000E+00  0.00000000000E+00  0.13072567396E+04  0.13072567396E+04  0.25500000920E-02 0.  1.
        2   -1    0    0  501    0  0.00000000000E+00  0.00000000000E+00 -0.22574284506E+03  0.22574284507E+03  0.25500000920E-02 0. -1.
    10030    2    1    2    0    0  0.00000000000E+00  0.00000000000E+00  0.10815138946E+04  0.15329995847E+04  0.10864692460E+04 0.  0.
        3    1    3    3  502    0 -0.17369199367E+03 -0.47724410396E+03  0.26871340747E+03  0.57457614725E+03  0.10100000352E+00 0. -1.
       -3    1    3    3    0  502  0.17369199367E+03  0.47724410396E+03  0.81280048709E+03  0.95842343745E+03  0.10100000352E+00 0.  1.
</event>
<event>
 5   0  0.1425432E-03  0.1100324E+04  0.7818609E-02  0.9204876E-01
        2   -1    0    0  501    0  0.00000000000E+00  0.00000000000E+00  0.60242940908E+03  0.60242940908E+03  0.25500000920E-02 0. -1.
       -2   -1    0    0    0  501  0.00000000000E+00  0.00000000000E+00 -0.50242920631E+03  0.50242920632E+03  0.25500000920E-02 0.  1.
    10030    2    1    2    0    0  0.00000000000E+00  0.00000000000E+00  0.10000020276E+03  0.11048586154E+04  0.11003238248E+04 0.  0.
        1    1    3    3  502    0  0.17590545187E+03 -0.45439405118E+03 -0.20651594817E+03  0.52921216787E+03  0.50400001928E-02 0.  1.
       -1    1    3    3    0  502 -0.17590545187E+03  0.45439405118E+03  0.30651615094E+03  0.57564644753E+03  0.50400001928E-02 0. -1.
</event>
<event>
 5   0  0.1372794E-03  0.1099102E+04  0.7818609E-02  0.9206067E-01
        2   -1    0    0  501    0  0.00000000000E+00  0.00000000000E+00  0.82197768929E+03  0.82197768929E+03  0.25500000920E-02 0.  1.
       -2   -1    0    0    0  501  0.00000000000E+00  0.00000000000E+00 -0.36741432544E+03  0.36741432545E+03  0.25500000920E-02 0. -1.
    10030    2    1    2    0    0  0.00000000000E+00  0.00000000000E+00  0.45456336385E+03  0.11893920147E+04  0.10991021395E+04 0.  0.
        4    1    3    3  502    0  0.76773237766E+02 -0.30333095832E+03 -0.26160644961E+03  0.40785211498E+03  0.12699999809E+01 0. -1.
       -4    1    3    3    0  502 -0.76773237766E+02  0.30333095832E+03  0.71616981346E+03  0.78153989977E+03  0.12699999809E+01 0.  1.
</event>
<event>
 5   0  0.1425432E-03  0.1101742E+04  0.7818609E-02  0.9203496E-01
        2   -1    0    0  501    0  0.00000000000E+00  0.00000000000E+00  0.92542108041E+03  0.92542108042E+03  0.25500000920E-02 0. -1.
       -2   -1    0    0    0  501  0.00000000000E+00  0.00000000000E+00 -0.32791407942E+03  0.32791407943E+03  0.25500000920E-02 0.  1.
    10030    2    1    2    0    0  0.00000000000E+00  0.00000000000E+00  0.59750700099E+03  0.12533351598E+04  0.11017415335E+04 0.  0.
        1    1    3    3  502    0 -0.24803585231E+02  0.48494070564E+03  0.59469407183E+03  0.76775239819E+03  0.50400001928E-02 0. -1.
       -1    1    3    3    0  502  0.24803585231E+02 -0.48494070564E+03  0.28129291584E+01  0.48558276166E+03  0.50400001928E-02 0.  1.
</event>
<event>
 5   0  0.1429680E-03  0.1100300E+04  0.7818609E-02  0.9204899E-01
        2   -1    0    0  501    0  0.00000000000E+00  0.00000000000E+00  0.11833478349E+04  0.11833478349E+04  0.25500000920E-02 0. -1.
       -2   -1    0    0    0  501  0.00000000000E+00  0.00000000000E+00 -0.25577028895E+03  0.25577028896E+03  0.25500000920E-02 0.  1.
    10030    2    1    2    0    0  0.00000000000E+00  0.00000000000E+00  0.92757754597E+03  0.14391181239E+04  0.11003003548E+04 0.  0.
        3    1    3    3  502    0 -0.23883476458E+03  0.49425789436E+03  0.41604841802E+03  0.68878821654E+03  0.10100000352E+00 0. -1.
       -3    1    3    3    0  502  0.23883476458E+03 -0.49425789436E+03  0.51152912795E+03  0.75032990734E+03  0.10100000352E+00 0.  1.
</event>
<event>
 5   0  0.1396936E-03  0.1099589E+04  0.7818609E-02  0.9205592E-01
       -2   -1    0    0    0  501  0.00000000000E+00  0.00000000000E+00  0.26619881692E+03  0.26619881693E+03  0.25500000920E-02 0. -1.
        2   -1    0    0  501    0  0.00000000000E+00  0.00000000000E+00 -0.11355205988E+04  0.11355205988E+04  0.25500000920E-02 0.  1.
    10030    2    1    2    0    0  0.00000000000E+00  0.00000000000E+00 -0.86932178183E+03  0.14017194157E+04  0.10995894506E+04 0.  0.
        2    1    3    3  502    0  0.26480131741E+03 -0.35431941575E+03 -0.18430212576E+02  0.44272074587E+03  0.25500000920E-02 0. -1.
       -2    1    3    3    0  502 -0.26480131741E+03  0.35431941575E+03 -0.85089156926E+03  0.95899866982E+03  0.25500000920E-02 0.  1.
</event>
<event>
 5   0  0.1425432E-03  0.1100453E+04  0.7818609E-02  0.9204751E-01
       -2   -1    0    0    0  501  0.00000000000E+00  0.00000000000E+00  0.33301567109E+03  0.33301567110E+03  0.25500000920E-02 0. -1.
        2   -1    0    0  501    0  0.00000000000E+00  0.00000000000E+00 -0.90911331190E+03  0.90911331191E+03  0.25500000920E-02 0.  1.
    10030    2    1    2    0    0  0.00000000000E+00  0.00000000000E+00 -0.57609764081E+03  0.12421289830E+04  0.11004525972E+04 0.  0.
        1    1    3    3  502    0 -0.30537650473E+03 -0.60235442607E+02 -0.80018743542E+03  0.85859364662E+03  0.50400001928E-02 0.  1.
       -1    1    3    3    0  502  0.30537650473E+03  0.60235442607E+02  0.22408979461E+03  0.38353533639E+03  0.50400001928E-02 0. -1.
</event>
<event>
 5   0  0.1396936E-03  0.1079845E+04  0.7818609E-02  0.9225062E-01
       -2   -1    0    0    0  501  0.00000000000E+00  0.00000000000E+00  0.15498817519E+03  0.15498817521E+03  0.25500000920E-02 0. -1.
        2   -1    0    0  501    0  0.00000000000E+00  0.00000000000E+00 -0.18808927137E+04  0.18808927137E+04  0.25500000920E-02 0.  1.
    10030    2    1    2    0    0  0.00000000000E+00  0.00000000000E+00 -0.17259045385E+04  0.20358808889E+04  0.10798446730E+04 0.  0.
        2    1    3    3  502    0  0.15733281959E+03 -0.29165709948E+02  0.10925741170E+03  0.19375612706E+03  0.25500000920E-02 0. -1.
       -2    1    3    3    0  502 -0.15733281959E+03  0.29165709948E+02 -0.18351619502E+04  0.18421247619E+04  0.25500000920E-02 0.  1.
</event>
<event>
 5   0  0.8009636E-04  0.1100117E+04  0.7818609E-02  0.9205078E-01
        1   -1    0    0  501    0  0.00000000000E+00  0.00000000000E+00  0.44809553276E+03  0.44809553279E+03  0.50400001928E-02 0.  1.
       -1   -1    0    0    0  501  0.00000000000E+00  0.00000000000E+00 -0.67522327753E+03  0.67522327755E+03  0.50400001928E-02 0. -1.
    10030    2    1    2    0    0  0.00000000000E+00  0.00000000000E+00 -0.22712774477E+03  0.11233188103E+04  0.11001173288E+04 0.  0.
        1    1    3    3  502    0  0.54890577010E+03  0.32317008329E+02 -0.12879834378E+03  0.56473971603E+03  0.50400001928E-02 0. -1.
       -1    1    3    3    0  502 -0.54890577010E+03 -0.32317008329E+02 -0.98329400988E+02  0.55857909431E+03  0.50400001928E-02 0.  1.
</event>
<event>
 5   0  0.8341767E-04  0.1102029E+04  0.7818609E-02  0.9203217E-01
       -1   -1    0    0    0  501  0.00000000000E+00  0.00000000000E+00  0.33507499017E+03  0.33507499020E+03  0.50400001928E-02 0.  1.
        1   -1    0    0  501    0  0.00000000000E+00  0.00000000000E+00 -0.90611637647E+03  0.90611637648E+03  0.50400001928E-02 0. -1.
    10030    2    1    2    0    0  0.00000000000E+00  0.00000000000E+00 -0.57104138630E+03  0.12411913667E+04  0.11020289215E+04 0.  0.
        2    1    3    3  502    0  0.18877322010E+03 -0.95554206722E+02  0.28750049152E+03  0.35696283795E+03  0.25500000920E-02 0.  1.
       -2    1    3    3    0  502 -0.18877322010E+03  0.95554206722E+02 -0.85854187782E+03  0.88422852874E+03  0.25500000920E-02 0. -1.
</event>
<event>
 5   0  0.7946038E-04  0.1100550E+04  0.7818609E-02  0.9204656E-01
       -1   -1    0    0    0  501  0.00000000000E+00  0.00000000000E+00  0.51786106744E+03  0.51786106747E+03  0.50400001928E-02 0. -1.
        1   -1    0    0  501    0  0.00000000000E+00  0.00000000000E+00 -0.58471749570E+03  0.58471749572E+03  0.50400001928E-02 0.  1.
    10030    2    1    2    0    0  0.00000000000E+00  0.00000000000E+00 -0.66856428257E+02  0.11025785632E+04  0.11005497290E+04 0.  0.
        4    1    3    3  502    0  0.36212626087E+03  0.18660692552E+03  0.33717701915E+03  0.52881710318E+03  0.12699999809E+01 0.  1.
       -4    1    3    3    0  502 -0.36212626087E+03 -0.18660692552E+03 -0.40403344741E+03  0.57376146001E+03  0.12699999809E+01 0. -1.
</event>
<event>
 5   0  0.8305271E-04  0.1102006E+04  0.7818609E-02  0.9203239E-01
        1   -1    0    0  501    0  0.00000000000E+00  0.00000000000E+00  0.37554983235E+03  0.37554983239E+03  0.50400001928E-02 0.  1.
       -1   -1    0    0    0  501  0.00000000000E+00  0.00000000000E+00 -0.80842673563E+03  0.80842673565E+03  0.50400001928E-02 0. -1.
    10030    2    1    2    0    0  0.00000000000E+00  0.00000000000E+00 -0.43287690328E+03  0.11839765680E+04  0.11020063976E+04 0.  0.
        5    1    3    3  502    0 -0.43127976632E+03 -0.18973910162E+03  0.90427640777E+02  0.47979413475E+03  0.46999998093E+01 0.  1.
       -5    1    3    3    0  502  0.43127976632E+03  0.18973910162E+03 -0.52330454406E+03  0.70418243329E+03  0.46999998093E+01 0. -1.
</event>
<event>
 5   0  0.1429680E-03  0.1098786E+04  0.7818609E-02  0.9206376E-01
       -2   -1    0    0    0  501  0.00000000000E+00  0.00000000000E+00  0.18208958947E+03  0.18208958949E+03  0.25500000920E-02 0. -1.
        2   -1    0    0  501    0  0.00000000000E+00  0.00000000000E+00 -0.16576052544E+04  0.16576052544E+04  0.25500000920E-02 0.  1.
    10030    2    1    2    0    0  0.00000000000E+00  0.00000000000E+00 -0.14755156649E+04  0.18396948439E+04  0.10987859852E+04 0.  0.
        3    1    3    3  502    0  0.39561890903E+03  0.22082873322E+03 -0.12580119963E+04  0.13371139980E+04  0.10100000352E+00 0.  1.
       -3    1    3    3    0  502 -0.39561890903E+03 -0.22082873322E+03 -0.21750366863E+03  0.50258084590E+03  0.10100000352E+00 0. -1.
</event>
<event>
 5   0  0.5409500E-04  0.1101202E+04  0.7818609E-02  0.9204021E-01
        3   -1    0    0  501    0  0.00000000000E+00  0.00000000000E+00  0.27590293407E+03  0.27590295256E+03  0.10100000352E+00 0. -1.
       -3   -1    0    0    0  501  0.00000000000E+00  0.00000000000E+00 -0.10987968798E+04  0.10987968844E+04  0.10100000352E+00 0.  1.
    10030    2    1    2    0    0  0.00000000000E+00  0.00000000000E+00 -0.82289394570E+03  0.13746998370E+04  0.11012017054E+04 0.  0.
        1    1    3    3  502    0  0.76618095182E+01  0.55017939183E+03 -0.38631693733E+03  0.67230710439E+03  0.50400001928E-02 0.  1.
       -1    1    3    3    0  502 -0.76618095182E+01 -0.55017939183E+03 -0.43657700837E+03  0.70239273258E+03  0.50400001928E-02 0. -1.
</event>
<event>
 5   0  0.1429680E-03  0.1101246E+04  0.7818609E-02  0.9203978E-01
       -2   -1    0    0    0  501  0.00000000000E+00  0.00000000000E+00  0.23076911747E+03  0.23076911749E+03  0.25500000920E-02 0.  1.
        2   -1    0    0  501    0  0.00000000000E+00  0.00000000000E+00 -0.13138057222E+04  0.13138057222E+04  0.25500000920E-02 0. -1.
    10030    2    1    2    0    0  0.00000000000E+00  0.00000000000E+00 -0.10830366047E+04  0.15445748397E+04  0.11012461797E+04 0.  0.
        3    1    3    3  502    0  0.14083603740E+03  0.45839772160E+03 -0.92104896252E+03  0.10384095830E+04  0.10100000352E+00 0. -1.
       -3    1    3    3    0  502 -0.14083603740E+03 -0.45839772160E+03 -0.16198764220E+03  0.50616525664E+03  0.10100000352E+00 0.  1.
</event>
<event>
 5   0  0.8150924E-04  0.1102497E+04  0.7818609E-02  0.9202761E-01
        1   -1    0    0  501    0  0.00000000000E+00  0.00000000000E+00  0.41964220033E+03  0.41964220036E+03  0.50400001928E-02 0.  1.
       -1   -1    0    0    0  501  0.00000000000E+00  0.00000000000E+00 -0.72412915932E+03  0.72412915934E+03  0.50400001928E-02 0. -1.
    10030    2    1    2    0    0  0.00000000000E+00  0.00000000000E+00 -0.30448695899E+03  0.11437713597E+04  0.11024974445E+04 0.  0.
        3    1    3    3  502    0 -0.25660205003E+03 -0.35326235018E+03  0.19686014092E+03  0.47894971074E+03  0.10100000352E+00 0.  1.
       -3    1    3    3    0  502  0.25660205003E+03  0.35326235018E+03 -0.50134709991E+03  0.66482164896E+03  0.10100000352E+00 0. -1.
</event>
<event>
 5   0  0.7946038E-04  0.1106715E+04  0.7818609E-02  0.9198671E-01
       -1   -1    0    0    0  501  0.00000000000E+00  0.00000000000E+00  0.46750825452E+03  0.46750825455E+03  0.50400001928E-02 0. -1.
        1   -1    0    0  501    0  0.00000000000E+00  0.00000000000E+00 -0.65497150983E+03  0.65497150985E+03  0.50400001928E-02 0.  1.
    10030    2    1    2    0    0  0.00000000000E+00  0.00000000000E+00 -0.18746325530E+03  0.11224797644E+04  0.11067151166E+04 0.  0.
        4    1    3    3  502    0  0.11371268882E+02  0.13218855297E+03  0.45113565750E+03  0.47024261149E+03  0.12699999809E+01 0. -1.
       -4    1    3    3    0  502 -0.11371268882E+02 -0.13218855297E+03 -0.63859891281E+03  0.65223715291E+03  0.12699999809E+01 0.  1.
</event>
<event>
 5   0  0.8305271E-04  0.1099889E+04  0.7818609E-02  0.9205300E-01
        1   -1    0    0  501    0  0.00000000000E+00  0.00000000000E+00  0.62615994737E+03  0.62615994739E+03  0.50400001928E-02 0. -1.
       -1   -1    0    0    0  501  0.00000000000E+00  0.00000000000E+00 -0.48300594105E+03  0.48300594107E+03  0.50400001928E-02 0.  1.
    10030    2    1    2    0    0  0.00000000000E+00  0.00000000000E+00  0.14315400632E+03  0.11091658885E+04  0.10998890392E+04 0.  0.
        5    1    3    3  502    0  0.22444362330E+03  0.45261338450E+03 -0.14747171824E+03  0.52631151759E+03  0.46999998093E+01 0. -1.
       -5    1    3    3    0  502 -0.22444362330E+03 -0.45261338450E+03  0.29062572456E+03  0.58285437087E+03  0.46999998093E+01 0.  1.
</event>
<event>
 5   0  0.1372794E-03  0.1106097E+04  0.7818609E-02  0.9199270E-01
       -2   -1    0    0    0  501  0.00000000000E+00  0.00000000000E+00  0.26815652916E+03  0.26815652918E+03  0.25500000920E-02 0.  1.
        2   -1    0    0  501    0  0.00000000000E+00  0.00000000000E+00 -0.11406123959E+04  0.11406123959E+04  0.25500000920E-02 0. -1.
    10030    2    1    2    0    0  0.00000000000E+00  0.00000000000E+00 -0.87245586678E+03  0.14087689251E+04  0.11060970323E+04 0.  0.
        4    1    3    3  502    0  0.18650752228E+03 -0.44739791976E+03 -0.97068712781E+02  0.49434188814E+03  0.12699999809E+01 0.  1.
       -4    1    3    3    0  502 -0.18650752228E+03  0.44739791976E+03 -0.77538715400E+03  0.91442703698E+03  0.12699999809E+01 0. -1.
</event>
<event>
 5   0  0.1372794E-03  0.1103021E+04  0.7818609E-02  0.9202253E-01
       -2   -1    0    0    0  501  0.00000000000E+00  0.00000000000E+00  0.34921758427E+03  0.34921758428E+03  0.25500000920E-02 0.  1.
        2   -1    0    0  501    0  0.00000000000E+00  0.00000000000E+00 -0.87098603396E+03  0.87098603397E+03  0.25500000920E-02 0. -1.
    10030    2    1    2    0    0  0.00000000000E+00  0.00000000000E+00 -0.52176844970E+03  0.12202036182E+04  0.11030206503E+04 0.  0.
        4    1    3    3  502    0 -0.46364091911E+03  0.28107496503E+03 -0.37258683533E+03  0.65786670428E+03  0.12699999809E+01 0. -1.
       -4    1    3    3    0  502  0.46364091911E+03 -0.28107496503E+03 -0.14918161436E+03  0.56233691396E+03  0.12699999809E+01 0.  1.
</event>
<event>
 5   0  0.1429680E-03  0.1094167E+04  0.7818609E-02  0.9210895E-01
       -2   -1    0    0    0  501  0.00000000000E+00  0.00000000000E+00  0.24520903162E+03  0.24520903164E+03  0.25500000920E-02 0. -1.
        2   -1    0    0  501    0  0.00000000000E+00  0.00000000000E+00 -0.12205935648E+04  0.12205935648E+04  0.25500000920E-02 0.  1.
    10030    2    1    2    0    0  0.00000000000E+00  0.00000000000E+00 -0.97538453318E+03  0.14658025964E+04  0.10941673840E+04 0.  0.
        3    1    3    3  502    0 -0.41040630085E+03  0.24146470628E+03 -0.12682590320E+03  0.49277109907E+03  0.10100000352E+00 0. -1.
       -3    1    3    3    0  502  0.41040630085E+03 -0.24146470628E+03 -0.84855862999E+03  0.97303149737E+03  0.10100000352E+00 0.  1.
</event>
<event>
 5   0  0.8009636E-04  0.1101276E+04  0.7818609E-02  0.9203949E-01
        1   -1    0    0  501    0  0.00000000000E+00  0.00000000000E+00  0.44495896209E+03  0.44495896212E+03  0.50400001928E-02 0. -1.
       -1   -1    0    0    0  501  0.00000000000E+00  0.00000000000E+00 -0.68141598132E+03  0.68141598133E+03  0.50400001928E-02 0.  1.
    10030    2    1    2    0    0  0.00000000000E+00  0.00000000000E+00 -0.23645701922E+03  0.11263749435E+04  0.11012758925E+04 0.  0.
        1    1    3    3  502    0  0.10452526681E+03  0.53940711501E+03 -0.15534018723E+03  0.57097823156E+03  0.50400001928E-02 0.  1.
       -1    1    3    3    0  502 -0.10452526681E+03 -0.53940711501E+03 -0.81116831996E+02  0.55539671189E+03  0.50400001928E-02 0. -1.
</event>
<event>
 5   0  0.1372794E-03  0.1098172E+04  0.7818609E-02  0.9206975E-01
       -2   -1    0    0    0  501  0.00000000000E+00  0.00000000000E+00  0.43917700359E+03  0.43917700360E+03  0.25500000920E-02 0.  1.
        2   -1    0    0  501    0  0.00000000000E+00  0.00000000000E+00 -0.68650101295E+03  0.68650101295E+03  0.25500000920E-02 0. -1.
    10030    2    1    2    0    0  0.00000000000E+00  0.00000000000E+00 -0.24732400936E+03  0.11256780166E+04  0.10981720409E+04 0.  0.
        4    1    3    3  502    0 -0.10588374639E+03  0.53871228563E+03 -0.13233262454E+03  0.56474404012E+03  0.12699999809E+01 0. -1.
       -4    1    3    3    0  502  0.10588374639E+03 -0.53871228563E+03 -0.11499138481E+03  0.56093397643E+03  0.12699999809E+01 0.  1.
</event>
<event>
 5   0  0.7946038E-04  0.1102659E+04  0.7818609E-02  0.9202604E-01
       -1   -1    0    0    0  501  0.00000000000E+00  0.00000000000E+00  0.34275485625E+03  0.34275485629E+03  0.50400001928E-02 0.  1.
        1   -1    0    0  501    0  0.00000000000E+00  0.00000000000E+00 -0.88682643494E+03  0.88682643496E+03  0.50400001928E-02 0. -1.
    10030    2    1    2    0    0  0.00000000000E+00  0.00000000000E+00 -0.54407157869E+03  0.12295812912E+04  0.11026587274E+04 0.  0.
        4    1    3    3  502    0 -0.24397803609E+03  0.27844940838E+03  0.18352708865E+03  0.41321079402E+03  0.12699999809E+01 0.  1.
       -4    1    3    3    0  502  0.24397803609E+03 -0.27844940838E+03 -0.72759866734E+03  0.81637049723E+03  0.12699999809E+01 0. -1.
</event>
<event>
 5   0  0.1425432E-03  0.1100246E+04  0.7818609E-02  0.9204953E-01
       -2   -1    0    0    0  501  0.00000000000E+00  0.00000000000E+00  0.64687398242E+03  0.64687398243E+03  0.25500000920E-02 0. -1.
        2   -1    0    0  501    0  0.00000000000E+00  0.00000000000E+00 -0.46784239481E+03  0.46784239482E+03  0.25500000920E-02 0.  1.
    10030    2    1    2    0    0  0.00000000000E+00  0.00000000000E+00  0.17903158761E+03  0.11147163772E+04  0.11002455600E+04 0.  0.
        1    1    3    3  502    0 -0.45473319503E+03 -0.30869947796E+03  0.11343620514E+03  0.56119998130E+03  0.50400001928E-02 0.  1.
       -1    1    3    3    0  502  0.45473319503E+03  0.30869947796E+03  0.65595382473E+02  0.55351639595E+03  0.50400001928E-02 0. -1.
</event>
<event>
 5   0  0.1402775E-03  0.1103701E+04  0.7818609E-02  0.9201592E-01
       -2   -1    0    0    0  501  0.00000000000E+00  0.00000000000E+00  0.30641271929E+03  0.30641271930E+03  0.25500000920E-02 0. -1.
        2   -1    0    0  501    0  0.00000000000E+00  0.00000000000E+00 -0.99388495353E+03  0.99388495353E+03  0.25500000920E-02 0.  1.
    10030    2    1    2    0    0  0.00000000000E+00  0.00000000000E+00 -0.68747223423E+03  0.13002976728E+04  0.11037010307E+04 0.  0.
        5    1    3    3  502    0  0.39926785794E+02 -0.54936200489E+03 -0.30423570186E+03  0.62926481939E+03  0.46999998093E+01 0. -1.
       -5    1    3    3    0  502 -0.39926785794E+02  0.54936200489E+03 -0.38323653238E+03  0.67103285344E+03  0.46999998093E+01 0.  1.
</event>
<event>
 5   0  0.7946038E-04  0.1098162E+04  0.7818609E-02  0.9206985E-01
       -1   -1    0    0    0  501  0.00000000000E+00  0.00000000000E+00  0.39204335591E+03  0.39204335595E+03  0.50400001928E-02 0.  1.
        1   -1    0    0  501    0  0.00000000000E+00  0.00000000000E+00 -0.76902259903E+03  0.76902259905E+03  0.50400001928E-02 0. -1.
    10030    2    1    2    0    0  0.00000000000E+00  0.00000000000E+00 -0.37697924312E+03  0.11610659550E+04  0.10981624662E+04 0.  0.
        4    1    3    3  502    0 -0.26400071889E+03 -0.42930394427E+03  0.41915906758E+02  0.50572404756E+03  0.12699999809E+01 0.  1.
       -4    1    3    3    0  502  0.26400071889E+03  0.42930394427E+03 -0.41889514988E+03  0.65534190743E+03  0.12699999809E+01 0. -1.
</event>
<event>
 5   0  0.8009636E-04  0.1102854E+04  0.7818609E-02  0.9202414E-01
       -1   -1    0    0    0  501  0.00000000000E+00  0.00000000000E+00  0.42397075352E+03  0.42397075355E+03  0.50400001928E-02 0. -1.
        1   -1    0    0  501    0  0.00000000000E+00  0.00000000000E+00 -0.71720035025E+03  0.71720035027E+03  0.50400001928E-02 0.  1.
    10030    2    1    2    0    0  0.00000000000E+00  0.00000000000E+00 -0.29322959673E+03  0.11411711038E+04  0.11028544291E+04 0.  0.
        1    1    3    3  502    0 -0.23913791547E+03  0.20094268911E+03  0.32360404909E+03  0.44976047795E+03  0.50400001928E-02 0. -1.
       -1    1    3    3    0  502  0.23913791547E+03 -0.20094268911E+03 -0.61683364581E+03  0.69141062586E+03  0.50400001928E-02 0.  1.
</event>
<event>
 5   0  0.7946038E-04  0.1097185E+04  0.7818609E-02  0.9207940E-01
       -1   -1    0    0    0  501  0.00000000000E+00  0.00000000000E+00  0.27614903967E+03  0.27614903972E+03  0.50400001928E-02 0.  1.
        1   -1    0    0  501    0  0.00000000000E+00  0.00000000000E+00 -0.10898229772E+04  0.10898229772E+04  0.50400001928E-02 0. -1.
    10030    2    1    2    0    0  0.00000000000E+00  0.00000000000E+00 -0.81367393750E+03  0.13659720169E+04  0.10971847039E+04 0.  0.
        4    1    3    3  502    0 -0.44762203139E+03 -0.73928683212E+02 -0.79080963832E+03  0.91170852258E+03  0.12699999809E+01 0. -1.
       -4    1    3    3    0  502  0.44762203139E+03  0.73928683212E+02 -0.22864299175E+02  0.45426349431E+03  0.12699999809E+01 0.  1.
</event>
<event>
 5   0  0.1372794E-03  0.1097105E+04  0.7818609E-02  0.9208018E-01
       -2   -1    0    0    0  501  0.00000000000E+00  0.00000000000E+00  0.23841366939E+03  0.23841366940E+03  0.25500000920E-02 0.  1.
        2   -1    0    0  501    0  0.00000000000E+00  0.00000000000E+00 -0.12621344130E+04  0.12621344130E+04  0.25500000920E-02 0. -1.
    10030    2    1    2    0    0  0.00000000000E+00  0.00000000000E+00 -0.10237207436E+04  0.15005480824E+04  0.10971054583E+04 0.  0.
        4    1    3    3  502    0  0.44853110034E+03 -0.21383873369E+01 -0.94377794027E+03  0.10449416893E+04  0.12699999809E+01 0.  1.
       -4    1    3    3    0  502 -0.44853110034E+03  0.21383873369E+01 -0.79942803307E+02  0.45560639303E+03  0.12699999809E+01 0. -1.
</event>
<event>
 5   0  0.8009636E-04  0.1101791E+04  0.7818609E-02  0.9203448E-01
       -1   -1    0    0    0  501  0.00000000000E+00  0.00000000000E+00  0.46486240705E+03  0.46486240708E+03  0.50400001928E-02 0.  1.
        1   -1    0    0  501    0  0.00000000000E+00  0.00000000000E+00 -0.65285075256E+03  0.65285075258E+03  0.50400001928E-02 0. -1.
    10030    2    1    2    0    0  0.00000000000E+00  0.00000000000E+00 -0.18798834551E+03  0.11177131597E+04  0.11017908555E+04 0.  0.
        1    1    3    3  502    0 -0.15180204824E+03 -0.44957786606E+02 -0.62927534422E+03  0.64888560108E+03  0.50400001928E-02 0. -1.
       -1    1    3    3    0  502  0.15180204824E+03  0.44957786606E+02  0.44128699871E+03  0.46882755857E+03  0.50400001928E-02 0.  1.
</event>
<event>
 5   0  0.1425432E-03  0.1131992E+04  0.7818609E-02  0.9174559E-01
        2   -1    0    0  501    0  0.00000000000E+00  0.00000000000E+00  0.94519833785E+03  0.94519833785E+03  0.25500000920E-02 0. -1.
       -2   -1    0    0    0  501  0.00000000000E+00  0.00000000000E+00 -0.33892532976E+03  0.33892532977E+03  0.25500000920E-02 0.  1.
    10030    2    1    2    0    0  0.00000000000E+00  0.00000000000E+00  0.60627300809E+03  0.12841236676E+04  0.11319923292E+04 0.  0.
        1    1    3    3  502    0  0.21348940993E+02 -0.54473298844E+03  0.13049309185E+03  0.56055173982E+03  0.50400001928E-02 0.  1.
       -1    1    3    3    0  502 -0.21348940993E+02  0.54473298844E+03  0.47577991624E+03  0.72357192779E+03  0.50400001928E-02 0. -1.
</event>
<event>
 5   0  0.5409500E-04  0.1104306E+04  0.7818609E-02  0.9201005E-01
        3   -1    0    0  501    0  0.00000000000E+00  0.00000000000E+00  0.43004333729E+03  0.43004334915E+03  0.10100000352E+00 0. -1.
       -3   -1    0    0    0  501  0.00000000000E+00  0.00000000000E+00 -0.70893487085E+03  0.70893487805E+03  0.10100000352E+00 0.  1.
    10030    2    1    2    0    0  0.00000000000E+00  0.00000000000E+00 -0.27889153357E+03  0.11389782272E+04  0.11043056255E+04 0.  0.
        4    1    3    3  502    0  0.26885443415E+03 -0.69994207366E+02 -0.63159563390E+03  0.68999750253E+03  0.12699999809E+01 0.  1.
       -4    1    3    3    0  502 -0.26885443415E+03  0.69994207366E+02  0.35270410034E+03  0.44898072467E+03  0.12699999809E+01 0. -1.
</event>
<event>
 5   0  0.8305271E-04  0.1101869E+04  0.7818609E-02  0.9203372E-01
       -1   -1    0    0    0  501  0.00000000000E+00  0.00000000000E+00  0.46499179799E+03  0.46499179802E+03  0.50400001928E-02 0.  1.
        1   -1    0    0  501    0  0.00000000000E+00  0.00000000000E+00 -0.65276180447E+03  0.65276180449E+03  0.50400001928E-02 0. -1.
    10030    2    1    2    0    0  0.00000000000E+00  0.00000000000E+00 -0.18777000648E+03  0.11177536025E+04  0.11018691123E+04 0.  0.
        5    1    3    3  502    0  0.29380408613E+03 -0.32429852167E+02  0.37771942546E+03  0.47965257292E+03  0.46999998093E+01 0.  1.
       -5    1    3    3    0  502 -0.29380408613E+03  0.32429852167E+02 -0.56548943194E+03  0.63810102959E+03  0.46999998093E+01 0. -1.
</event>
<event>
 5   0  0.1429680E-03  0.1093263E+04  0.7818609E-02  0.9211783E-01
        2   -1    0    0  501    0  0.00000000000E+00  0.00000000000E+00  0.45748880982E+03  0.45748880983E+03  0.25500000920E-02 0. -1.
       -2   -1    0    0    0  501  0.00000000000E+00  0.00000000000E+00 -0.65314432979E+03  0.65314432979E+03  0.25500000920E-02 0.  1.
    10030    2    1    2    0    0  0.00000000000E+00  0.00000000000E+00 -0.19565551997E+03  0.11106331396E+04  0.10932634121E+04 0.  0.
        3    1    3    3  502    0  0.40008903975E+03 -0.23441271168E+03 -0.39188416456E+03  0.60711923685E+03  0.10100000352E+00 0.  1.
       -3    1    3    3    0  502 -0.40008903975E+03  0.23441271168E+03  0.19622864458E+03  0.50351390277E+03  0.10100000352E+00 0. -1.
</event>
<event>
 5   0  0.8009636E-04  0.1100940E+04  0.7818609E-02  0.9204276E-01
       -1   -1    0    0    0  501  0.00000000000E+00  0.00000000000E+00  0.81867279641E+03  0.81867279642E+03  0.50400001928E-02 0. -1.
        1   -1    0    0  501    0  0.00000000000E+00  0.00000000000E+00 -0.37013218185E+03  0.37013218189E+03  0.50400001928E-02 0.  1.
    10030    2    1    2    0    0  0.00000000000E+00  0.00000000000E+00  0.44854061455E+03  0.11888049783E+04  0.11009398683E+04 0.  0.
        1    1    3    3  502    0  0.13016009836E+03  0.17738908252E+03  0.76912859275E+03  0.79997958100E+03  0.50400001928E-02 0. -1.
       -1    1    3    3    0  502 -0.13016009836E+03 -0.17738908252E+03 -0.32058797820E+03  0.38882539731E+03  0.50400001928E-02 0.  1.
</event>
<event>
 5   0  0.8305271E-04  0.1101260E+04  0.7818609E-02  0.9203964E-01
       -1   -1    0    0    0  501  0.00000000000E+00  0.00000000000E+00  0.40687171430E+03  0.40687171433E+03  0.50400001928E-02 0. -1.
        1   -1    0    0  501    0  0.00000000000E+00  0.00000000000E+00 -0.74518202999E+03  0.74518203001E+03  0.50400001928E-02 0.  1.
    10030    2    1    2    0    0  0.00000000000E+00  0.00000000000E+00 -0.33831031569E+03  0.11520537443E+04  0.11012601691E+04 0.  0.
        5    1    3    3  502    0  0.20831904964E+03 -0.95244597730E+02 -0.69295167733E+03  0.72984414566E+03  0.46999998093E+01 0.  1.
       -5    1    3    3    0  502 -0.20831904964E+03  0.95244597730E+02  0.35464136164E+03  0.42220959869E+03  0.46999998093E+01 0. -1.
</event>
<event>
 5   0  0.5409500E-04  0.1108817E+04  0.7818609E-02  0.9196640E-01
        3   -1    0    0  501    0  0.00000000000E+00  0.00000000000E+00  0.52889377804E+03  0.52889378768E+03  0.10100000352E+00 0. -1.
       -3   -1    0    0    0  501  0.00000000000E+00  0.00000000000E+00 -0.58115432420E+03  0.58115433298E+03  0.10100000352E+00 0.  1.
    10030    2    1    2    0    0  0.00000000000E+00  0.00000000000E+00 -0.52260546169E+02  0.11100481207E+04  0.11088172372E+04 0.  0.
        3    1    3    3  502    0 -0.36547534932E+03  0.10363665346E+03 -0.43038060780E+03  0.57405597695E+03  0.10100000352E+00 0.  1.
       -3    1    3    3    0  502  0.36547534932E+03 -0.10363665346E+03  0.37812006163E+03  0.53599214371E+03  0.10100000352E+00 0. -1.
</event>
<event>
 5   0  0.1402775E-03  0.1099037E+04  0.7818609E-02  0.9206131E-01
       -2   -1    0    0    0  501  0.00000000000E+00  0.00000000000E+00  0.25637960408E+03  0.25637960409E+03  0.25500000920E-02 0. -1.
        2   -1    0    0  501    0  0.00000000000E+00  0.00000000000E+00 -0.11778256870E+04  0.11778256870E+04  0.25500000920E-02 0.  1.
    10030    2    1    2    0    0  0.00000000000E+00  0.00000000000E+00 -0.92144608296E+03  0.14342052911E+04  0.10990368207E+04 0.  0.
        5    1    3    3  502    0  0.10958777790E+03 -0.12675071033E+03  0.22220323291E+03  0.27833718822E+03  0.46999998093E+01 0. -1.
       -5    1    3    3    0  502 -0.10958777790E+03  0.12675071033E+03 -0.11436493159E+04  0.11558681029E+04  0.46999998093E+01 0.  1.
</event>
<event>
 5   0  0.8009636E-04  0.1107746E+04  0.7818609E-02  0.9197675E-01
       -1   -1    0    0    0  501  0.00000000000E+00  0.00000000000E+00  0.95102376360E+03  0.95102376362E+03  0.50400001928E-02 0. -1.
        1   -1    0    0  501    0  0.00000000000E+00  0.00000000000E+00 -0.32257393606E+03  0.32257393610E+03  0.50400001928E-02 0.  1.
    10030    2    1    2    0    0  0.00000000000E+00  0.00000000000E+00  0.62844982755E+03  0.12735976997E+04  0.11077463225E+04 0.  0.
        1    1    3    3  502    0 -0.17642422239E+03 -0.89330367771E+02  0.90905351895E+03  0.93031377567E+03  0.50400001928E-02 0. -1.
       -1    1    3    3    0  502  0.17642422239E+03  0.89330367771E+02 -0.28060369140E+03  0.34328392405E+03  0.50400001928E-02 0.  1.
</event>
<event>
 5   0  0.8305271E-04  0.1100661E+04  0.7818609E-02  0.9204547E-01
       -1   -1    0    0    0  501  0.00000000000E+00  0.00000000000E+00  0.35658514299E+03  0.35658514303E+03  0.50400001928E-02 0.  1.
        1   -1    0    0  501    0  0.00000000000E+00  0.00000000000E+00 -0.84934526914E+03  0.84934526915E+03  0.50400001928E-02 0. -1.
    10030    2    1    2    0    0  0.00000000000E+00  0.00000000000E+00 -0.49276012614E+03  0.12059304122E+04  0.11006614453E+04 0.  0.
        5    1    3    3  502    0  0.41812264785E+03  0.24090346468E+03  0.43459657812E+02  0.48453261994E+03  0.46999998093E+01 0.  1.
       -5    1    3    3    0  502 -0.41812264785E+03 -0.24090346468E+03 -0.53621978396E+03  0.72139779223E+03  0.46999998093E+01 0. -1.
</event>
<event>
 5   0  0.8150924E-04  0.1089606E+04  0.7818609E-02  0.9215382E-01
       -1   -1    0    0    0  501  0.00000000000E+00  0.00000000000E+00  0.61405628977E+03  0.61405628979E+03  0.50400001928E-02 0.  1.
        1   -1    0    0  501    0  0.00000000000E+00  0.00000000000E+00 -0.48335985480E+03  0.48335985482E+03  0.50400001928E-02 0. -1.
    10030    2    1    2    0    0  0.00000000000E+00  0.00000000000E+00  0.13069643498E+03  0.10974161446E+04  0.10896057252E+04 0.  0.
        3    1    3    3  502    0  0.38348578891E+03 -0.19420661686E+03  0.40246017221E+03  0.58885631588E+03  0.10100000352E+00 0.  1.
       -3    1    3    3    0  502 -0.38348578891E+03  0.19420661686E+03 -0.27176373723E+03  0.50855982874E+03  0.10100000352E+00 0. -1.
</event>
<event>
 5   0  0.1372794E-03  0.1092968E+04  0.7818609E-02  0.9212073E-01
        2   -1    0    0  501    0  0.00000000000E+00  0.00000000000E+00  0.76269817080E+03  0.76269817080E+03  0.25500000920E-02 0.  1.
       -2   -1    0    0    0  501  0.00000000000E+00  0.00000000000E+00 -0.39156319503E+03  0.39156319504E+03  0.25500000920E-02 0. -1.
    10030    2    1    2    0    0  0.00000000000E+00  0.00000000000E+00  0.37113497576E+03  0.11542613658E+04  0.10929675798E+04 0.  0.
        4    1    3    3  502    0 -0.28124182916E+02 -0.40848906756E+01  0.76191568411E+03  0.76244657425E+03  0.12699999809E+01 0.  1.
       -4    1    3    3    0  502  0.28124182916E+02  0.40848906756E+01 -0.39078070834E+03  0.39181479159E+03  0.12699999809E+01 0. -1.
</event>
<event>
 5   0  0.8341767E-04  0.1108031E+04  0.7818609E-02  0.9197400E-01
       -1   -1    0    0    0  501  0.00000000000E+00  0.00000000000E+00  0.30741265261E+03  0.30741265265E+03  0.50400001928E-02 0. -1.
        1   -1    0    0  501    0  0.00000000000E+00  0.00000000000E+00 -0.99843963632E+03  0.99843963634E+03  0.50400001928E-02 0.  1.
    10030    2    1    2    0    0  0.00000000000E+00  0.00000000000E+00 -0.69102698371E+03  0.13058522890E+04  0.11080306442E+04 0.  0.
        2    1    3    3  502    0  0.83506775624E+02  0.16422184460E+03  0.27025331414E+03  0.32707651954E+03  0.25500000920E-02 0. -1.
       -2    1    3    3    0  502 -0.83506775624E+02 -0.16422184460E+03 -0.96128029786E+03  0.97877576945E+03  0.25500000920E-02 0.  1.
</event>
<event>
 5   0  0.5409500E-04  0.1101035E+04  0.7818609E-02  0.9204183E-01
       -3   -1    0    0    0  501  0.00000000000E+00  0.00000000000E+00  0.72134301528E+03  0.72134302235E+03  0.10100000352E+00 0.  1.
        3   -1    0    0  501    0  0.00000000000E+00  0.00000000000E+00 -0.42014650494E+03  0.42014651708E+03  0.10100000352E+00 0. -1.
    10030    2    1    2    0    0  0.00000000000E+00  0.00000000000E+00  0.30119651034E+03  0.11414895394E+04  0.11010354358E+04 0.  0.
        2    1    3    3  502    0  0.48847443032E+03  0.10399688096E+03  0.39072687009E+03  0.63410575407E+03  0.25500000920E-02 0. -1.
       -2    1    3    3    0  502 -0.48847443032E+03 -0.10399688096E+03 -0.89530359749E+02  0.50738378536E+03  0.25500000920E-02 0.  1.
</event>
<event>
 5   0  0.1425432E-03  0.1154929E+04  0.7818609E-02  0.9153248E-01
       -2   -1    0    0    0  501  0.00000000000E+00  0.00000000000E+00  0.36502398911E+03  0.36502398912E+03  0.25500000920E-02 0.  1.
        2   -1    0    0  501    0  0.00000000000E+00  0.00000000000E+00 -0.91354348430E+03  0.91354348431E+03  0.25500000920E-02 0. -1.
    10030    2    1    2    0    0  0.00000000000E+00  0.00000000000E+00 -0.54851949519E+03  0.12785674734E+04  0.11549290660E+04 0.  0.
        1    1    3    3  502    0  0.26146672123E+03 -0.19327806654E+02 -0.84385630813E+03  0.88364691999E+03  0.50400001928E-02 0. -1.
       -1    1    3    3    0  502 -0.26146672123E+03  0.19327806654E+02  0.29533681294E+03  0.39492055343E+03  0.50400001928E-02 0.  1.
</event>
<event>
 5   0  0.1372794E-03  0.1104147E+04  0.7818609E-02  0.9201159E-01
        2   -1    0    0  501    0  0.00000000000E+00  0.00000000000E+00  0.73520561197E+03  0.73520561198E+03  0.25500000920E-02 0.  1.
       -2   -1    0    0    0  501  0.00000000000E+00  0.00000000000E+00 -0.41455767626E+03  0.41455767626E+03  0.25500000920E-02 0. -1.
    10030    2    1    2    0    0  0.00000000000E+00  0.00000000000E+00  0.32064793572E+03  0.11497632882E+04  0.11041469650E+04 0.  0.
        4    1    3    3  502    0 -0.46747098177E+01  0.61423281790E+02 -0.41096620634E+03  0.41555927148E+03  0.12699999809E+01 0. -1.
       -4    1    3    3    0  502  0.46747098177E+01 -0.61423281790E+02  0.73161414206E+03  0.73420401676E+03  0.12699999809E+01 0.  1.
</event>
<event>
 5   0  0.1372794E-03  0.1101203E+04  0.7818609E-02  0.9204021E-01
       -2   -1    0    0    0  501  0.00000000000E+00  0.00000000000E+00  0.44153885725E+03  0.44153885726E+03  0.25500000920E-02 0.  1.
        2   -1    0    0  501    0  0.00000000000E+00  0.00000000000E+00 -0.68660274334E+03  0.68660274334E+03  0.25500000920E-02 0. -1.
    10030    2    1    2    0    0  0.00000000000E+00  0.00000000000E+00 -0.24506388609E+03  0.11281416006E+04  0.11012025984E+04 0.  0.
        4    1    3    3  502    0 -0.13163603031E+03 -0.39399976396E+03  0.24768974385E+03  0.48364830258E+03  0.12699999809E+01 0.  1.
       -4    1    3    3    0  502  0.13163603031E+03  0.39399976396E+03 -0.49275362994E+03  0.64449329802E+03  0.12699999809E+01 0. -1.
</event>
<event>
 5   0  0.1396936E-03  0.1102546E+04  0.7818609E-02  0.9202714E-01
        2   -1    0    0  501    0  0.00000000000E+00  0.00000000000E+00  0.10090488138E+04  0.10090488138E+04  0.25500000920E-02 0.  1.
       -2   -1    0    0    0  501  0.00000000000E+00  0.00000000000E+00 -0.30117664161E+03  0.30117664162E+03  0.25500000920E-02 0. -1.
    10030    2    1    2    0    0  0.00000000000E+00  0.00000000000E+00  0.70787217217E+03  0.13102254554E+04  0.11025460226E+04 0.  0.
        2    1    3    3  502    0  0.50837193856E+03  0.79658780780E+02  0.11890919722E+03  0.52813534862E+03  0.25500000920E-02 0. -1.
       -2    1    3    3    0  502 -0.50837193856E+03 -0.79658780780E+02  0.58896297495E+03  0.78209010678E+03  0.25500000920E-02 0.  1.
</event>
<event>
 5   0  0.1429680E-03  0.1097234E+04  0.7818609E-02  0.9207892E-01
       -2   -1    0    0    0  501  0.00000000000E+00  0.00000000000E+00  0.33940396181E+03  0.33940396182E+03  0.25500000920E-02 0.  1.
        2   -1    0    0  501    0  0.00000000000E+00  0.00000000000E+00 -0.88679155470E+03  0.88679155470E+03  0.25500000920E-02 0. -1.
    10030    2    1    2    0    0  0.00000000000E+00  0.00000000000E+00 -0.54738759289E+03  0.12261955165E+04  0.10972339167E+04 0.  0.
        3    1    3    3  502    0 -0.26604364848E+03  0.38738504295E+03  0.42657305110E+02  0.47187503672E+03  0.10100000352E+00 0.  1.
       -3    1    3    3    0  502  0.26604364848E+03 -0.38738504295E+03 -0.59004489800E+03  0.75432047981E+03  0.10100000352E+00 0. -1.
</event>
<event>
 5   0  0.8150924E-04  0.1104319E+04  0.7818609E-02  0.9200993E-01
       -1   -1    0    0    0  501  0.00000000000E+00  0.00000000000E+00  0.46224720804E+03  0.46224720806E+03  0.50400001928E-02 0. -1.
        1   -1    0    0  501    0  0.00000000000E+00  0.00000000000E+00 -0.65956049190E+03  0.65956049192E+03  0.50400001928E-02 0.  1.
    10030    2    1    2    0    0  0.00000000000E+00  0.00000000000E+00 -0.19731328387E+03  0.11218077000E+04  0.11043187872E+04 0.  0.
        3    1    3    3  502    0  0.21920320120E+03  0.46532731629E+03  0.10527226979E+03  0.52503506139E+03  0.10100000352E+00 0. -1.
       -3    1    3    3    0  502 -0.21920320120E+03 -0.46532731629E+03 -0.30258555365E+03  0.59677263860E+03  0.10100000352E+00 0.  1.
</event>
<event>
 5   0  0.7946038E-04  0.1091947E+04  0.7818609E-02  0.9213077E-01
        1   -1    0    0  501    0  0.00000000000E+00  0.00000000000E+00  0.87439955779E+03  0.87439955780E+03  0.50400001928E-02 0. -1.
       -1   -1    0    0    0  501  0.00000000000E+00  0.00000000000E+00 -0.34090465544E+03  0.34090465547E+03  0.50400001928E-02 0.  1.
    10030    2    1    2    0    0  0.00000000000E+00  0.00000000000E+00  0.53349490235E+03  0.12153042133E+04  0.10919466654E+04 0.  0.
        4    1    3    3  502    0  0.43664933361E+02  0.36389323964E+03  0.71713664008E+03  0.80536419694E+03  0.12699999809E+01 0. -1.
       -4    1    3    3    0  502 -0.43664933361E+02 -0.36389323964E+03 -0.18364173773E+03  0.40994001634E+03  0.12699999809E+01 0.  1.
</event>
<event>
 5   0  0.1429680E-03  0.1145580E+04  0.7818609E-02  0.9161871E-01
        2   -1    0    0  501    0  0.00000000000E+00  0.00000000000E+00  0.61721254111E+03  0.61721254111E+03  0.25500000920E-02 0.  1.
       -2   -1    0    0    0  501  0.00000000000E+00  0.00000000000E+00 -0.53156502324E+03  0.53156502325E+03  0.25500000920E-02 0. -1.
    10030    2    1    2    0    0  0.00000000000E+00  0.00000000000E+00  0.85647517861E+02  0.11487775644E+04  0.11455803748E+04 0.  0.
        3    1    3    3  502    0  0.83718829062E+02  0.47045441640E+03 -0.27389371977E+03  0.55077579847E+03  0.10100000352E+00 0. -1.
       -3    1    3    3    0  502 -0.83718829062E+02 -0.47045441640E+03  0.35954123763E+03  0.59800176589E+03  0.10100000352E+00 0.  1.
</event>
<event>
 5   0  0.1396936E-03  0.1098109E+04  0.7818609E-02  0.9207037E-01
       -2   -1    0    0    0  501  0.00000000000E+00  0.00000000000E+00  0.33230668010E+03  0.33230668011E+03  0.25500000920E-02 0. -1.
        2   -1    0    0  501    0  0.00000000000E+00  0.00000000000E+00 -0.90717620914E+03  0.90717620914E+03  0.25500000920E-02 0.  1.
    10030    2    1    2    0    0  0.00000000000E+00  0.00000000000E+00 -0.57486952904E+03  0.12394828892E+04  0.10981087639E+04 0.  0.
        2    1    3    3  502    0 -0.39213358054E+03  0.17891705971E+03 -0.67134133749E+03  0.79779649703E+03  0.25500000920E-02 0.  1.
       -2    1    3    3    0  502  0.39213358054E+03 -0.17891705971E+03  0.96471808449E+02  0.44168639222E+03  0.25500000920E-02 0. -1.
</event>
<event>
 5   0  0.8009636E-04  0.1070029E+04  0.7818609E-02  0.9234906E-01
       -1   -1    0    0    0  501  0.00000000000E+00  0.00000000000E+00  0.29006615450E+03  0.29006615454E+03  0.50400001928E-02 0.  1.
        1   -1    0    0  501    0  0.00000000000E+00  0.00000000000E+00 -0.98681102924E+03  0.98681102925E+03  0.50400001928E-02 0. -1.
    10030    2    1    2    0    0  0.00000000000E+00  0.00000000000E+00 -0.69674487474E+03  0.12768771838E+04  0.10700289351E+04 0.  0.
        1    1    3    3  502    0  0.11663755693E+03 -0.50682162425E+03 -0.19852754716E+03  0.55667375141E+03  0.50400001928E-02 0. -1.
       -1    1    3    3    0  502 -0.11663755693E+03  0.50682162425E+03 -0.49821732758E+03  0.72020343239E+03  0.50400001928E-02 0.  1.
</event>
<event>
 5   0  0.1425432E-03  0.1095000E+04  0.7818609E-02  0.9210078E-01
        2   -1    0    0  501    0  0.00000000000E+00  0.00000000000E+00  0.12391638270E+04  0.12391638270E+04  0.25500000920E-02 0. -1.
       -2   -1    0    0    0  501  0.00000000000E+00  0.00000000000E+00 -0.24190224184E+03  0.24190224186E+03  0.25500000920E-02 0.  1.
    10030    2    1    2    0    0  0.00000000000E+00  0.00000000000E+00  0.99726158515E+03  0.14810660689E+04  0.10950004708E+04 0.  0.
        1    1    3    3  502    0 -0.14774690540E+03  0.39884164266E+03  0.32331604303E+02  0.42655496320E+03  0.50400001928E-02 0.  1.
       -1    1    3    3    0  502  0.14774690540E+03 -0.39884164266E+03  0.96492998085E+03  0.10545111056E+04  0.50400001928E-02 0. -1.
</event>
<event>
 5   0  0.8341767E-04  0.1095744E+04  0.7818609E-02  0.9209350E-01
       -1   -1    0    0    0  501  0.00000000000E+00  0.00000000000E+00  0.29339161409E+03  0.29339161414E+03  0.50400001928E-02 0.  1.
        1   -1    0    0  501    0  0.00000000000E+00  0.00000000000E+00 -0.10230814158E+04  0.10230814158E+04  0.50400001928E-02 0. -1.
    10030    2    1    2    0    0  0.00000000000E+00  0.00000000000E+00 -0.72968980172E+03  0.13164730300E+04  0.10957435977E+04 0.  0.
        2    1    3    3  502    0 -0.19200265990E+03  0.47042446608E+03 -0.61106533535E+03  0.79471066670E+03  0.25500000920E-02 0.  1.
       -2    1    3    3    0  502  0.19200265990E+03 -0.47042446608E+03 -0.11862446637E+03  0.52176236326E+03  0.25500000920E-02 0. -1.
</event>
<event>
 5   0  0.1402775E-03  0.1100677E+04  0.7818609E-02  0.9204533E-01
       -2   -1    0    0    0  501  0.00000000000E+00  0.00000000000E+00  0.52748970726E+03  0.52748970727E+03  0.25500000920E-02 0.  1.
        2   -1    0    0  501    0  0.00000000000E+00  0.00000000000E+00 -0.57417659451E+03  0.57417659451E+03  0.25500000920E-02 0. -1.
    10030    2    1    2    0    0  0.00000000000E+00  0.00000000000E+00 -0.46686887244E+02  0.11016663018E+04  0.11006765988E+04 0.  0.
        5    1    3    3  502    0 -0.32798413568E+01 -0.49382810281E+03  0.21971890156E+03  0.54053255053E+03  0.46999998093E+01 0.  1.
       -5    1    3    3    0  502  0.32798413568E+01  0.49382810281E+03 -0.26640578880E+03  0.56113375125E+03  0.46999998093E+01 0. -1.
</event>
<event>
 5   0  0.8341767E-04  0.1129000E+04  0.7818609E-02  0.9177378E-01
       -1   -1    0    0    0  501  0.00000000000E+00  0.00000000000E+00  0.28694847975E+03  0.28694847979E+03  0.50400001928E-02 0. -1.
        1   -1    0    0  501    0  0.00000000000E+00  0.00000000000E+00 -0.11105143118E+04  0.11105143119E+04  0.50400001928E-02 0.  1.
    10030    2    1    2    0    0  0.00000000000E+00  0.00000000000E+00 -0.82356583210E+03  0.13974627917E+04  0.11290002543E+04 0.  0.
        2    1    3    3  502    0  0.36228354650E+03 -0.31437438610E+03 -0.43388117354E+02  0.48162553029E+03  0.25500000920E-02 0. -1.
       -2    1    3    3    0  502 -0.36228354650E+03  0.31437438610E+03 -0.78017771475E+03  0.91583726136E+03  0.25500000920E-02 0.  1.
</event>
<event>
 5   0  0.8150924E-04  0.1097788E+04  0.7818609E-02  0.9207351E-01
       -1   -1    0    0    0  501  0.00000000000E+00  0.00000000000E+00  0.10899367512E+04  0.10899367512E+04  0.50400001928E-02 0. -1.
        1   -1    0    0  501    0  0.00000000000E+00  0.00000000000E+00 -0.27642376061E+03  0.27642376065E+03  0.50400001928E-02 0.  1.
    10030    2    1    2    0    0  0.00000000000E+00  0.00000000000E+00  0.81351299062E+03  0.13663605119E+04  0.10977876218E+04 0.  0.
        3    1    3    3  502    0 -0.38718469032E+03 -0.36803294271E+03  0.56382005325E+03  0.77669382255E+03  0.10100000352E+00 0.  1.
       -3    1    3    3    0  502  0.38718469032E+03  0.36803294271E+03  0.24969293736E+03  0.58966668933E+03  0.10100000352E+00 0. -1.
</event>
<event>
 5   0  0.8305271E-04  0.1072659E+04  0.7818609E-02  0.9232257E-01
       -1   -1    0    0    0  501  0.00000000000E+00  0.00000000000E+00  0.41239993060E+03  0.41239993063E+03  0.50400001928E-02 0.  1.
        1   -1    0    0  501    0  0.00000000000E+00  0.00000000000E+00 -0.69750157062E+03  0.69750157064E+03  0.50400001928E-02 0. -1.
    10030    2    1    2    0    0  0.00000000000E+00  0.00000000000E+00 -0.28510164003E+03  0.11099015013E+04  0.10726594974E+04 0.  0.
        5    1    3    3  502    0  0.97767736992E+02  0.34333011480E+03  0.27158698867E+03  0.44857070851E+03  0.46999998093E+01 0.  1.
       -5    1    3    3    0  502 -0.97767736992E+02 -0.34333011480E+03 -0.55668862870E+03  0.66133079275E+03  0.46999998093E+01 0. -1.
</event>
<event>
 5   0  0.1425432E-03  0.1099663E+04  0.7818609E-02  0.9205521E-01
        2   -1    0    0  501    0  0.00000000000E+00  0.00000000000E+00  0.59717854955E+03  0.59717854956E+03  0.25500000920E-02 0.  1.
       -2   -1    0    0    0  501  0.00000000000E+00  0.00000000000E+00 -0.50623814867E+03  0.50623814868E+03  0.25500000920E-02 0. -1.
    10030    2    1    2    0    0  0.00000000000E+00  0.00000000000E+00  0.90940400880E+02  0.11034166982E+04  0.10996627908E+04 0.  0.
        1    1    3    3  502    0 -0.46642087091E+03 -0.17784295225E+03  0.27677396496E+03  0.57077173388E+03  0.50400001928E-02 0.  1.
       -1    1    3    3    0  502  0.46642087091E+03  0.17784295225E+03 -0.18583356408E+03  0.53264496435E+03  0.50400001928E-02 0. -1.
</event>
<event>
 5   0  0.8150924E-04  0.1102757E+04  0.7818609E-02  0.9202509E-01
        1   -1    0    0  501    0  0.00000000000E+00  0.00000000000E+00  0.15204801738E+04  0.15204801739E+04  0.50400001928E-02 0. -1.
       -1   -1    0    0    0  501  0.00000000000E+00  0.00000000000E+00 -0.19994891397E+03  0.19994891404E+03  0.50400001928E-02 0.  1.
    10030    2    1    2    0    0  0.00000000000E+00  0.00000000000E+00  0.13205312599E+04  0.17204290879E+04  0.11027571982E+04 0.  0.
        3    1    3    3  502    0  0.65727624243E+02 -0.27807337001E+03 -0.75430247655E+02  0.29552436813E+03  0.10100000352E+00 0.  1.
       -3    1    3    3    0  502 -0.65727624243E+02  0.27807337001E+03  0.13959615075E+04  0.14249047198E+04  0.10100000352E+00 0. -1.
</event>
<event>
 5   0  0.1396936E-03  0.1097596E+04  0.7818609E-02  0.9207538E-01
       -2   -1    0    0    0  501  0.00000000000E+00  0.00000000000E+00  0.28825831094E+03  0.28825831095E+03  0.25500000920E-02 0. -1.
        2   -1    0    0  501    0  0.00000000000E+00  0.00000000000E+00 -0.10448244540E+04  0.10448244541E+04  0.25500000920E-02 0.  1.
    10030    2    1    2    0    0  0.00000000000E+00  0.00000000000E+00 -0.75656614311E+03  0.13330827650E+04  0.10975961595E+04 0.  0.
        2    1    3    3  502    0  0.38037647041E+03  0.96440918664E+02 -0.84425200837E+03  0.93099332096E+03  0.25500000920E-02 0.  1.
       -2    1    3    3    0  502 -0.38037647041E+03 -0.96440918664E+02  0.87685865257E+02  0.40208944404E+03  0.25500000920E-02 0. -1.
</event>
<event>
 5   0  0.7946038E-04  0.1080713E+04  0.7818609E-02  0.9224197E-01
       -1   -1    0    0    0  501  0.00000000000E+00  0.00000000000E+00  0.96844439127E+03  0.96844439128E+03  0.50400001928E-02 0.  1.
        1   -1    0    0  501    0  0.00000000000E+00  0.00000000000E+00 -0.30149908591E+03  0.30149908595E+03  0.50400001928E-02 0. -1.
    10030    2    1    2    0    0  0.00000000000E+00  0.00000000000E+00  0.66694530536E+03  0.12699434772E+04  0.10807129105E+04 0.  0.
        4    1    3    3  502    0  0.18062477816E+03  0.20663124560E+03  0.88044469552E+03  0.92222896122E+03  0.12699999809E+01 0.  1.
       -4    1    3    3    0  502 -0.18062477816E+03 -0.20663124560E+03 -0.21349939016E+03  0.34771451601E+03  0.12699999809E+01 0. -1.
</event>
<event>
 5   0  0.8305271E-04  0.1090886E+04  0.7818609E-02  0.9214121E-01
       -1   -1    0    0    0  501  0.00000000000E+00  0.00000000000E+00  0.29978699160E+03  0.29978699164E+03  0.50400001928E-02 0.  1.
        1   -1    0    0  501    0  0.00000000000E+00  0.00000000000E+00 -0.99239819572E+03  0.99239819573E+03  0.50400001928E-02 0. -1.
    10030    2    1    2    0    0  0.00000000000E+00  0.00000000000E+00 -0.69261120412E+03  0.12921851874E+04  0.10908860061E+04 0.  0.
        5    1    3    3  502    0  0.10376152812E+03  0.53510543497E+03 -0.36944784898E+03  0.65849683702E+03  0.46999998093E+01 0. -1.
       -5    1    3    3    0  502 -0.10376152812E+03 -0.53510543497E+03 -0.32316335515E+03  0.63368835035E+03  0.46999998093E+01 0.  1.
</event>
<event>
 5   0  0.1402775E-03  0.1092972E+04  0.7818609E-02  0.9212069E-01
       -2   -1    0    0    0  501  0.00000000000E+00  0.00000000000E+00  0.15351293883E+03  0.15351293885E+03  0.25500000920E-02 0. -1.
        2   -1    0    0  501    0  0.00000000000E+00  0.00000000000E+00 -0.19454174854E+04  0.19454174854E+04  0.25500000920E-02 0.  1.
    10030    2    1    2    0    0  0.00000000000E+00  0.00000000000E+00 -0.17919045466E+04  0.20989304243E+04  0.10929716473E+04 0.  0.
        5    1    3    3  502    0  0.14093441739E+03  0.49169192949E+03 -0.12653524190E+04  0.13648305015E+04  0.46999998093E+01 0.  1.
       -5    1    3    3    0  502 -0.14093441739E+03 -0.49169192949E+03 -0.52655212754E+03  0.73409992273E+03  0.46999998093E+01 0. -1.
</event>
<event>
 5   0  0.8305271E-04  0.1093360E+04  0.7818609E-02  0.9211687E-01
        1   -1    0    0  501    0  0.00000000000E+00  0.00000000000E+00  0.68923340793E+03  0.68923340795E+03  0.50400001928E-02 0.  1.
       -1   -1    0    0    0  501  0.00000000000E+00  0.00000000000E+00 -0.43361113407E+03  0.43361113410E+03  0.50400001928E-02 0. -1.
    10030    2    1    2    0    0  0.00000000000E+00  0.00000000000E+00  0.25562227386E+03  0.11228445421E+04  0.10933604706E+04 0.  0.
        5    1    3    3  502    0 -0.29297235066E+03 -0.44507920833E+03  0.24165135320E+01  0.53287543523E+03  0.46999998093E+01 0. -1.
       -5    1    3    3    0  502  0.29297235066E+03  0.44507920833E+03  0.25320576033E+03  0.58996910682E+03  0.46999998093E+01 0.  1.
</event>
<event>
 5   0  0.8341767E-04  0.1101105E+04  0.7818609E-02  0.9204116E-01
        1   -1    0    0  501    0  0.00000000000E+00  0.00000000000E+00  0.16113148713E+04  0.16113148713E+04  0.50400001928E-02 0.  1.
       -1   -1    0    0    0  501  0.00000000000E+00  0.00000000000E+00 -0.18811220017E+03  0.18811220023E+03  0.50400001928E-02 0. -1.
    10030    2    1    2    0    0  0.00000000000E+00  0.00000000000E+00  0.14232026711E+04  0.17994270716E+04  0.11011048736E+04 0.  0.
        2    1    3    3  502    0  0.91087689848E+02 -0.40124041039E+03  0.11379370309E+03  0.42689558564E+03  0.25500000920E-02 0. -1.
       -2    1    3    3    0  502 -0.91087689848E+02  0.40124041039E+03  0.13094089681E+04  0.13725314859E+04  0.25500000920E-02 0.  1.
</event>
<event>
 5   0  0.1425432E-03  0.1099756E+04  0.7818609E-02  0.9205429E-01
        2   -1    0    0  501    0  0.00000000000E+00  0.00000000000E+00  0.74922721049E+03  0.74922721050E+03  0.25500000920E-02 0. -1.
       -2   -1    0    0    0  501  0.00000000000E+00  0.00000000000E+00 -0.40357043616E+03  0.40357043617E+03  0.25500000920E-02 0.  1.
    10030    2    1    2    0    0  0.00000000000E+00  0.00000000000E+00  0.34565677433E+03  0.11527976467E+04  0.10997562496E+04 0.  0.
        1    1    3    3  502    0  0.24953101715E+03 -0.42310849329E+02  0.68454296588E+03  0.72983217841E+03  0.50400001928E-02 0. -1.
       -1    1    3    3    0  502 -0.24953101715E+03  0.42310849329E+02 -0.33888619155E+03  0.42296546826E+03  0.50400001928E-02 0.  1.
</event>
<event>
 5   0  0.7946038E-04  0.1087246E+04  0.7818609E-02  0.9217713E-01
        1   -1    0    0  501    0  0.00000000000E+00  0.00000000000E+00  0.97595837538E+03  0.97595837540E+03  0.50400001928E-02 0. -1.
       -1   -1    0    0    0  501  0.00000000000E+00  0.00000000000E+00 -0.30280579262E+03  0.30280579266E+03  0.50400001928E-02 0.  1.
    10030    2    1    2    0    0  0.00000000000E+00  0.00000000000E+00  0.67315258277E+03  0.12787641681E+04  0.10872457854E+04 0.  0.
        4    1    3    3  502    0 -0.29606634936E+03  0.99187341034E+02  0.85997075416E+03  0.91490148254E+03  0.12699999809E+01 0. -1.
       -4    1    3    3    0  502  0.29606634936E+03 -0.99187341034E+02 -0.18681817139E+03  0.36386268551E+03  0.12699999809E+01 0.  1.
</event>
<event>
 5   0  0.1425432E-03  0.1097329E+04  0.7818609E-02  0.9207799E-01
        2   -1    0    0  501    0  0.00000000000E+00  0.00000000000E+00  0.17106891301E+04  0.17106891301E+04  0.25500000920E-02 0. -1.
       -2   -1    0    0    0  501  0.00000000000E+00  0.00000000000E+00 -0.17597173178E+03  0.17597173180E+03  0.25500000920E-02 0.  1.
    10030    2    1    2    0    0  0.00000000000E+00  0.00000000000E+00  0.15347173983E+04  0.18866608619E+04  0.10973293558E+04 0.  0.
        1    1    3    3  502    0  0.28287336299E+03 -0.29186537012E+02  0.15740915369E+04  0.15995728680E+04  0.50400001928E-02 0. -1.
       -1    1    3    3    0  502 -0.28287336299E+03  0.29186537012E+02 -0.39374138587E+02  0.28708799391E+03  0.50400001928E-02 0.  1.
</event>
<event>
 5   0  0.1425432E-03  0.1055456E+04  0.7818609E-02  0.9249729E-01
        2   -1    0    0  501    0  0.00000000000E+00  0.00000000000E+00  0.97229852579E+03  0.97229852580E+03  0.25500000920E-02 0.  1.
       -2   -1    0    0    0  501  0.00000000000E+00  0.00000000000E+00 -0.28643143758E+03  0.28643143760E+03  0.25500000920E-02 0. -1.
    10030    2    1    2    0    0  0.00000000000E+00  0.00000000000E+00  0.68586708821E+03  0.12587299634E+04  0.10554560427E+04 0.  0.
        1    1    3    3  502    0 -0.14661576668E+03  0.38986076036E+03 -0.43527957852E+02  0.41878667439E+03  0.50400001928E-02 0. -1.
       -1    1    3    3    0  502  0.14661576668E+03 -0.38986076036E+03  0.72939504606E+03  0.83994328901E+03  0.50400001928E-02 0.  1.
</event>
<event>
 5   0  0.7946038E-04  0.1131005E+04  0.7818609E-02  0.9175488E-01
       -1   -1    0    0    0  501  0.00000000000E+00  0.00000000000E+00  0.16975996253E+03  0.16975996260E+03  0.50400001928E-02 0. -1.
        1   -1    0    0  501    0  0.00000000000E+00  0.00000000000E+00 -0.18837953632E+04  0.18837953632E+04  0.50400001928E-02 0.  1.
    10030    2    1    2    0    0  0.00000000000E+00  0.00000000000E+00 -0.17140354007E+04  0.20535553258E+04  0.11310049166E+04 0.  0.
        4    1    3    3  502    0 -0.20790545700E+03 -0.52009311648E+03 -0.99847725129E+03  0.11448493190E+04  0.12699999809E+01 0. -1.
       -4    1    3    3    0  502  0.20790545700E+03  0.52009311648E+03 -0.71555814942E+03  0.90870600689E+03  0.12699999809E+01 0.  1.
</event>
<event>
 5   0  0.8150924E-04  0.1099177E+04  0.7818609E-02  0.9205995E-01
       -1   -1    0    0    0  501  0.00000000000E+00  0.00000000000E+00  0.22143587761E+03  0.22143587767E+03  0.50400001928E-02 0.  1.
        1   -1    0    0  501    0  0.00000000000E+00  0.00000000000E+00 -0.13640394884E+04  0.13640394884E+04  0.50400001928E-02 0. -1.
    10030    2    1    2    0    0  0.00000000000E+00  0.00000000000E+00 -0.11426036108E+04  0.15854753661E+04  0.10991765668E+04 0.  0.
        3    1    3    3  502    0 -0.38322298339E+03 -0.25736388835E+03 -0.14110413615E+03  0.48270737872E+03  0.10100000352E+00 0.  1.
       -3    1    3    3    0  502  0.38322298339E+03  0.25736388835E+03 -0.10014994747E+04  0.11027679874E+04  0.10100000352E+00 0. -1.
</event>
<event>
 5   0  0.1372794E-03  0.1101216E+04  0.7818609E-02  0.9204008E-01
       -2   -1    0    0    0  501  0.00000000000E+00  0.00000000000E+00  0.19081457354E+03  0.19081457355E+03  0.25500000920E-02 0.  1.
        2   -1    0    0  501    0  0.00000000000E+00  0.00000000000E+00 -0.15888141645E+04  0.15888141645E+04  0.25500000920E-02 0. -1.
    10030    2    1    2    0    0  0.00000000000E+00  0.00000000000E+00 -0.13979995910E+04  0.17796287381E+04  0.11012155052E+04 0.  0.
        4    1    3    3  502    0  0.54701327089E+03  0.60587604882E+02 -0.67230262807E+03  0.86884222562E+03  0.12699999809E+01 0.  1.
       -4    1    3    3    0  502 -0.54701327089E+03 -0.60587604882E+02 -0.72569696291E+03  0.91078651245E+03  0.12699999809E+01 0. -1.
</event>
<event>
 5   0  0.7946038E-04  0.1105850E+04  0.7818609E-02  0.9199508E-01
        1   -1    0    0  501    0  0.00000000000E+00  0.00000000000E+00  0.87149670204E+03  0.87149670206E+03  0.50400001928E-02 0.  1.
       -1   -1    0    0    0  501  0.00000000000E+00  0.00000000000E+00 -0.35080592461E+03  0.35080592465E+03  0.50400001928E-02 0. -1.
    10030    2    1    2    0    0  0.00000000000E+00  0.00000000000E+00  0.52069077743E+03  0.12223026267E+04  0.11058502727E+04 0.  0.
        4    1    3    3  502    0 -0.38018405599E+03  0.40133629171E+03  0.27213947299E+03  0.61617549540E+03  0.12699999809E+01 0. -1.
       -4    1    3    3    0  502  0.38018405599E+03 -0.40133629171E+03  0.24855130444E+03  0.60612713131E+03  0.12699999809E+01 0.  1.
</event>
<event>
 5   0  0.8009636E-04  0.1101226E+04  0.7818609E-02  0.9203998E-01
       -1   -1    0    0    0  501  0.00000000000E+00  0.00000000000E+00  0.97337663837E+03  0.97337663839E+03  0.50400001928E-02 0. -1.
        1   -1    0    0  501    0  0.00000000000E+00  0.00000000000E+00 -0.31146676377E+03  0.31146676381E+03  0.50400001928E-02 0.  1.
    10030    2    1    2    0    0  0.00000000000E+00  0.00000000000E+00  0.66190987461E+03  0.12848434022E+04  0.11012256290E+04 0.  0.
        1    1    3    3  502    0  0.37255969793E+03  0.30603653393E+03  0.20691330401E+02  0.48258389924E+03  0.50400001928E-02 0.  1.
       -1    1    3    3    0  502 -0.37255969793E+03 -0.30603653393E+03  0.64121854421E+03  0.80225950296E+03  0.50400001928E-02 0. -1.
</event>
<event>
 5   0  0.8305271E-04  0.1100942E+04  0.7818609E-02  0.9204274E-01
       -1   -1    0    0    0  501  0.00000000000E+00  0.00000000000E+00  0.16178037980E+03  0.16178037987E+03  0.50400001928E-02 0.  1.
        1   -1    0    0  501    0  0.00000000000E+00  0.00000000000E+00 -0.18730240700E+04  0.18730240700E+04  0.50400001928E-02 0. -1.
    10030    2    1    2    0    0  0.00000000000E+00  0.00000000000E+00 -0.17112436902E+04  0.20348044499E+04  0.11009424063E+04 0.  0.
        5    1    3    3  502    0  0.36579948375E+02  0.26805580939E+02  0.15828466023E+03  0.16472023390E+03  0.46999998093E+01 0.  1.
       -5    1    3    3    0  502 -0.36579948375E+02 -0.26805580939E+02 -0.18695283504E+04  0.18700842160E+04  0.46999998093E+01 0. -1.
</event>
<event>
 5   0  0.1372794E-03  0.1096772E+04  0.7818609E-02  0.9208344E-01
       -2   -1    0    0    0  501  0.00000000000E+00  0.00000000000E+00  0.20995639250E+03  0.20995639252E+03  0.25500000920E-02 0.  1.
        2   -1    0    0  501    0  0.00000000000E+00  0.00000000000E+00 -0.14323310742E+04  0.14323310742E+04  0.25500000920E-02 0. -1.
    10030    2    1    2    0    0  0.00000000000E+00  0.00000000000E+00 -0.12223746817E+04  0.16422874667E+04  0.10967717451E+04 0.  0.
        4    1    3    3  502    0 -0.30098505047E+03 -0.23308035804E+02 -0.12967046066E+04  0.13313826328E+04  0.12699999809E+01 0. -1.
       -4    1    3    3    0  502  0.30098505047E+03  0.23308035804E+02  0.74329924907E+02  0.31090483395E+03  0.12699999809E+01 0.  1.
</event>
<event>
 5   0  0.1396936E-03  0.1098608E+04  0.7818609E-02  0.9206550E-01
       -2   -1    0    0    0  501  0.00000000000E+00  0.00000000000E+00  0.29000583397E+03  0.29000583398E+03  0.25500000920E-02 0.  1.
        2   -1    0    0  501    0  0.00000000000E+00  0.00000000000E+00 -0.10404440717E+04  0.10404440717E+04  0.25500000920E-02 0. -1.
    10030    2    1    2    0    0  0.00000000000E+00  0.00000000000E+00 -0.75043823776E+03  0.13304499057E+04  0.10986079387E+04 0.  0.
        2    1    3    3  502    0 -0.35314152573E+02 -0.23585371253E+03 -0.97447929170E+03  0.10032367383E+04  0.25500000920E-02 0. -1.
       -2    1    3    3    0  502  0.35314152573E+02  0.23585371253E+03  0.22404105394E+03  0.32721316743E+03  0.25500000920E-02 0.  1.
</event>
<event>
 5   0  0.8305271E-04  0.1100175E+04  0.7818609E-02  0.9205021E-01
        1   -1    0    0  501    0  0.00000000000E+00  0.00000000000E+00  0.33471402311E+03  0.33471402315E+03  0.50400001928E-02 0.  1.
       -1   -1    0    0    0  501  0.00000000000E+00  0.00000000000E+00 -0.90404416719E+03  0.90404416720E+03  0.50400001928E-02 0. -1.
    10030    2    1    2    0    0  0.00000000000E+00  0.00000000000E+00 -0.56933014407E+03  0.12387581904E+04  0.11001750048E+04 0.  0.
        5    1    3    3  502    0 -0.23951292982E+03  0.35956357178E+03 -0.66802547849E+03  0.79557057236E+03  0.46999998093E+01 0. -1.
       -5    1    3    3    0  502  0.23951292982E+03 -0.35956357178E+03  0.98695334414E+02  0.44318761799E+03  0.46999998093E+01 0.  1.
</event>
<event>
 5   0  0.8009636E-04  0.1112058E+04  0.7818609E-02  0.9193519E-01
        1   -1    0    0  501    0  0.00000000000E+00  0.00000000000E+00  0.34671440414E+03  0.34671440417E+03  0.50400001928E-02 0. -1.
       -1   -1    0    0    0  501  0.00000000000E+00  0.00000000000E+00 -0.89170793223E+03  0.89170793224E+03  0.50400001928E-02 0.  1.
    10030    2    1    2    0    0  0.00000000000E+00  0.00000000000E+00 -0.54499352809E+03  0.12384223364E+04  0.11120575244E+04 0.  0.
        1    1    3    3  502    0 -0.42234065369E+03 -0.35173680808E+03 -0.36618471647E+03  0.66044050188E+03  0.50400001928E-02 0. -1.
       -1    1    3    3    0  502  0.42234065369E+03  0.35173680808E+03 -0.17880881162E+03  0.57798183454E+03  0.50400001928E-02 0.  1.
</event>
<event>
 5   0  0.1429680E-03  0.1100245E+04  0.7818609E-02  0.9204953E-01
        2   -1    0    0  501    0  0.00000000000E+00  0.00000000000E+00  0.87818349019E+03  0.87818349019E+03  0.25500000920E-02 0. -1.
       -2   -1    0    0    0  501  0.00000000000E+00  0.00000000000E+00 -0.34461448952E+03  0.34461448953E+03  0.25500000920E-02 0.  1.
    10030    2    1    2    0    0  0.00000000000E+00  0.00000000000E+00  0.53356900067E+03  0.12227979797E+04  0.11002449821E+04 0.  0.
        3    1    3    3  502    0 -0.67501954857E+02  0.18841648168E+03 -0.30271590542E+03  0.36289697447E+03  0.10100000352E+00 0.  1.
       -3    1    3    3    0  502  0.67501954857E+02 -0.18841648168E+03  0.83628490609E+03  0.85990100525E+03  0.10100000352E+00 0. -1.
</event>
<event>
 5   0  0.1372794E-03  0.1108732E+04  0.7818609E-02  0.9196723E-01
        2   -1    0    0  501    0  0.00000000000E+00  0.00000000000E+00  0.15369279768E+04  0.15369279768E+04  0.25500000920E-02 0.  1.
       -2   -1    0    0    0  501  0.00000000000E+00  0.00000000000E+00 -0.19995842407E+03  0.19995842409E+03  0.25500000920E-02 0. -1.
    10030    2    1    2    0    0  0.00000000000E+00  0.00000000000E+00  0.13369695528E+04  0.17368864009E+04  0.11087320617E+04 0.  0.
        4    1    3    3  502    0  0.36362473934E+03 -0.27613892939E+03  0.11610014024E+04  0.12475582265E+04  0.12699999809E+01 0.  1.
       -4    1    3    3    0  502 -0.36362473934E+03  0.27613892939E+03  0.17596815038E+03  0.48932817437E+03  0.12699999809E+01 0. -1.
</event>
<event>
 5   0  0.1372794E-03  0.1098406E+04  0.7818609E-02  0.9206747E-01
        2   -1    0    0  501    0  0.00000000000E+00  0.00000000000E+00  0.13619473265E+04  0.13619473265E+04  0.25500000920E-02 0.  1.
       -2   -1    0    0    0  501  0.00000000000E+00  0.00000000000E+00 -0.22146500415E+03  0.22146500417E+03  0.25500000920E-02 0. -1.
    10030    2    1    2    0    0  0.00000000000E+00  0.00000000000E+00  0.11404823224E+04  0.15834123307E+04  0.10984055177E+04 0.  0.
        4    1    3    3  502    0 -0.44058752242E+03 -0.19730257340E+03  0.94774260508E+03  0.10636086351E+04  0.12699999809E+01 0. -1.
       -4    1    3    3    0  502  0.44058752242E+03  0.19730257340E+03  0.19273971730E+03  0.51980369555E+03  0.12699999809E+01 0.  1.
</event>
<event>
 5   0  0.8150924E-04  0.1100717E+04  0.7818609E-02  0.9204493E-01
        1   -1    0    0  501    0  0.00000000000E+00  0.00000000000E+00  0.15375498181E+04  0.15375498182E+04  0.50400001928E-02 0. -1.
       -1   -1    0    0    0  501  0.00000000000E+00  0.00000000000E+00 -0.19699814512E+03  0.19699814518E+03  0.50400001928E-02 0.  1.
    10030    2    1    2    0    0  0.00000000000E+00  0.00000000000E+00  0.13405516730E+04  0.17345479633E+04  0.11007169705E+04 0.  0.
        3    1    3    3  502    0  0.43602742265E+03 -0.28764549731E+03  0.39717588361E+03  0.65620769436E+03  0.10100000352E+00 0. -1.
       -3    1    3    3    0  502 -0.43602742265E+03  0.28764549731E+03  0.94337578943E+03  0.10783402690E+04  0.10100000352E+00 0.  1.
</event>
<event>
 5   0  0.8150924E-04  0.1103994E+04  0.7818609E-02  0.9201308E-01
        1   -1    0    0  501    0  0.00000000000E+00  0.00000000000E+00  0.59806355241E+03  0.59806355243E+03  0.50400001928E-02 0. -1.
       -1   -1    0    0    0  501  0.00000000000E+00  0.00000000000E+00 -0.50947900372E+03  0.50947900375E+03  0.50400001928E-02 0.  1.
    10030    2    1    2    0    0  0.00000000000E+00  0.00000000000E+00  0.88584548690E+02  0.11075425562E+04  0.11039942443E+04 0.  0.
        3    1    3    3  502    0  0.87476399726E+02  0.11913219897E+03  0.57784393176E+03  0.59644632702E+03  0.10100000352E+00 0. -1.
       -3    1    3    3    0  502 -0.87476399726E+02 -0.11913219897E+03 -0.48925938307E+03  0.51109622916E+03  0.10100000352E+00 0.  1.
</event>
<event>
 5   0  0.8009636E-04  0.1102234E+04  0.7818609E-02  0.9203017E-01
        1   -1    0    0  501    0  0.00000000000E+00  0.00000000000E+00  0.14457854091E+04  0.14457854091E+04  0.50400001928E-02 0.  1.
       -1   -1    0    0    0  501  0.00000000000E+00  0.00000000000E+00 -0.21007964264E+03  0.21007964270E+03  0.50400001928E-02 0. -1.
    10030    2    1    2    0    0  0.00000000000E+00  0.00000000000E+00  0.12357057665E+04  0.16558650518E+04  0.11022342440E+04 0.  0.
        1    1    3    3  502    0 -0.21890674934E+03  0.23086352427E+03  0.12938990721E+04  0.13324387193E+04  0.50400001928E-02 0.  1.
       -1    1    3    3    0  502  0.21890674934E+03 -0.23086352427E+03 -0.58193305653E+02  0.32342633256E+03  0.50400001928E-02 0. -1.
</event>
<event>
 5   0  0.8341767E-04  0.1108916E+04  0.7818609E-02  0.9196545E-01
       -1   -1    0    0    0  501  0.00000000000E+00  0.00000000000E+00  0.21297127673E+03  0.21297127679E+03  0.50400001928E-02 0.  1.
        1   -1    0    0  501    0  0.00000000000E+00  0.00000000000E+00 -0.14434984725E+04  0.14434984725E+04  0.50400001928E-02 0. -1.
    10030    2    1    2    0    0  0.00000000000E+00  0.00000000000E+00 -0.12305271958E+04  0.16564697493E+04  0.11089160702E+04 0.  0.
        2    1    3    3  502    0 -0.42176015954E+03 -0.17088891848E+03 -0.14209072141E+03  0.47673307810E+03  0.25500000920E-02 0. -1.
       -2    1    3    3    0  502  0.42176015954E+03  0.17088891848E+03 -0.10884364743E+04  0.11797366712E+04  0.25500000920E-02 0.  1.
</event>
<event>
 5   0  0.1429680E-03  0.1103746E+04  0.7818609E-02  0.9201548E-01
        2   -1    0    0  501    0  0.00000000000E+00  0.00000000000E+00  0.15080218479E+04  0.15080218479E+04  0.25500000920E-02 0.  1.
       -2   -1    0    0    0  501  0.00000000000E+00  0.00000000000E+00 -0.20196255679E+03  0.20196255681E+03  0.25500000920E-02 0. -1.
    10030    2    1    2    0    0  0.00000000000E+00  0.00000000000E+00  0.13060592911E+04  0.17099844047E+04  0.11037462537E+04 0.  0.
        3    1    3    3  502    0  0.32395174100E+03 -0.41952519503E+03  0.41493874689E+03  0.67314210508E+03  0.10100000352E+00 0. -1.
       -3    1    3    3    0  502 -0.32395174100E+03  0.41952519503E+03  0.89112054421E+03  0.10368422996E+04  0.10100000352E+00 0.  1.
</event>
<event>
 5   0  0.1429680E-03  0.1098937E+04  0.7818609E-02  0.9206229E-01
       -2   -1    0    0    0  501  0.00000000000E+00  0.00000000000E+00  0.71117145104E+03  0.71117145105E+03  0.25500000920E-02 0.  1.
        2   -1    0    0  501    0  0.00000000000E+00  0.00000000000E+00 -0.42453280444E+03  0.42453280445E+03  0.25500000920E-02 0. -1.
    10030    2    1    2    0    0  0.00000000000E+00  0.00000000000E+00  0.28663864660E+03  0.11357042555E+04  0.10989369601E+04 0.  0.
        3    1    3    3  502    0 -0.61067456920E+01  0.30901903265E+03 -0.32617690942E+03  0.44935669720E+03  0.10100000352E+00 0. -1.
       -3    1    3    3    0  502  0.61067456920E+01 -0.30901903265E+03  0.61281555602E+03  0.68634755830E+03  0.10100000352E+00 0.  1.
</event>
<event>
 5   0  0.8150924E-04  0.1099636E+04  0.7818609E-02  0.9205547E-01
        1   -1    0    0  501    0  0.00000000000E+00  0.00000000000E+00  0.14419479376E+04  0.14419479376E+04  0.50400001928E-02 0. -1.
       -1   -1    0    0    0  501  0.00000000000E+00  0.00000000000E+00 -0.20964675566E+03  0.20964675572E+03  0.50400001928E-02 0.  1.
    10030    2    1    2    0    0  0.00000000000E+00  0.00000000000E+00  0.12323011819E+04  0.16515946933E+04  0.10996357706E+04 0.  0.
        3    1    3    3  502    0 -0.29230848211E+02  0.52049429466E+03  0.87858739060E+03  0.10216088128E+04  0.10100000352E+00 0. -1.
       -3    1    3    3    0  502  0.29230848211E+02 -0.52049429466E+03  0.35371379131E+03  0.62998588049E+03  0.10100000352E+00 0.  1.
</event>
<event>
 5   0  0.1396936E-03  0.1114002E+04  0.7818609E-02  0.9191651E-01
       -2   -1    0    0    0  501  0.00000000000E+00  0.00000000000E+00  0.35761721871E+03  0.35761721872E+03  0.25500000920E-02 0. -1.
        2   -1    0    0  501    0  0.00000000000E+00  0.00000000000E+00 -0.86754802747E+03  0.86754802747E+03  0.25500000920E-02 0.  1.
    10030    2    1    2    0    0  0.00000000000E+00  0.00000000000E+00 -0.50993080875E+03  0.12251652462E+04  0.11140019977E+04 0.  0.
        2    1    3    3  502    0 -0.10415142858E+02 -0.54622733149E+03 -0.13561268947E+03  0.56290636381E+03  0.25500000920E-02 0. -1.
       -2    1    3    3    0  502  0.10415142858E+02  0.54622733149E+03 -0.37431811929E+03  0.66225888239E+03  0.25500000920E-02 0.  1.
</event>
<event>
 5   0  0.1425432E-03  0.1098559E+04  0.7818609E-02  0.9206598E-01
       -2   -1    0    0    0  501  0.00000000000E+00  0.00000000000E+00  0.17656655548E+03  0.17656655549E+03  0.25500000920E-02 0.  1.
        2   -1    0    0  501    0  0.00000000000E+00  0.00000000000E+00 -0.17087477469E+04  0.17087477470E+04  0.25500000920E-02 0. -1.
    10030    2    1    2    0    0  0.00000000000E+00  0.00000000000E+00 -0.15321811915E+04  0.18853143024E+04  0.10985585171E+04 0.  0.
        1    1    3    3  502    0  0.42336879172E+02 -0.38335157387E+03 -0.14372799371E+04  0.14881278366E+04  0.50400001928E-02 0. -1.
       -1    1    3    3    0  502 -0.42336879172E+02  0.38335157387E+03 -0.94901254388E+02  0.39718646583E+03  0.50400001928E-02 0.  1.
</event>
<event>
 5   0  0.1372794E-03  0.1103121E+04  0.7818609E-02  0.9202155E-01
        2   -1    0    0  501    0  0.00000000000E+00  0.00000000000E+00  0.11821995661E+04  0.11821995661E+04  0.25500000920E-02 0.  1.
       -2   -1    0    0    0  501  0.00000000000E+00  0.00000000000E+00 -0.25733316556E+03  0.25733316557E+03  0.25500000920E-02 0. -1.
    10030    2    1    2    0    0  0.00000000000E+00  0.00000000000E+00  0.92486640054E+03  0.14395327317E+04  0.11031213110E+04 0.  0.
        4    1    3    3  502    0 -0.46972250525E+03 -0.10214518319E+03  0.10950235035E+03  0.49301647845E+03  0.12699999809E+01 0. -1.
       -4    1    3    3    0  502  0.46972250525E+03  0.10214518319E+03  0.81536405019E+03  0.94651625323E+03  0.12699999809E+01 0.  1.
</event>
<event>
 5   0  0.8305271E-04  0.1097160E+04  0.7818609E-02  0.9207965E-01
       -1   -1    0    0    0  501  0.00000000000E+00  0.00000000000E+00  0.40552018956E+03  0.40552018959E+03  0.50400001928E-02 0.  1.
        1   -1    0    0  501    0  0.00000000000E+00  0.00000000000E+00 -0.74210805335E+03  0.74210805337E+03  0.50400001928E-02 0. -1.
    10030    2    1    2    0    0  0.00000000000E+00  0.00000000000E+00 -0.33658786379E+03  0.11476282430E+04  0.10971596028E+04 0.  0.
        5    1    3    3  502    0 -0.42743311530E+03  0.12707889449E+03  0.16588542188E+03  0.47580266568E+03  0.46999998093E+01 0.  1.
       -5    1    3    3    0  502  0.42743311530E+03 -0.12707889449E+03 -0.50247328567E+03  0.67182557728E+03  0.46999998093E+01 0. -1.
</event>
<event>
 5   0  0.1425432E-03  0.1114488E+04  0.7818609E-02  0.9191185E-01
       -2   -1    0    0    0  501  0.00000000000E+00  0.00000000000E+00  0.62203605228E+03  0.62203605229E+03  0.25500000920E-02 0.  1.
        2   -1    0    0  501    0  0.00000000000E+00  0.00000000000E+00 -0.49920072766E+03  0.49920072767E+03  0.25500000920E-02 0. -1.
    10030    2    1    2    0    0  0.00000000000E+00  0.00000000000E+00  0.12283532462E+03  0.11212367800E+04  0.11144879541E+04 0.  0.
        1    1    3    3  502    0 -0.40432279248E+03 -0.37393506975E+03  0.14688202417E+03  0.56998130317E+03  0.50400001928E-02 0. -1.
       -1    1    3    3    0  502  0.40432279248E+03  0.37393506975E+03 -0.24046699551E+02  0.55125547679E+03  0.50400001928E-02 0.  1.
</event>
<event>
 5   0  0.1429680E-03  0.1101103E+04  0.7818609E-02  0.9204118E-01
        2   -1    0    0  501    0  0.00000000000E+00  0.00000000000E+00  0.71607453539E+03  0.71607453539E+03  0.25500000920E-02 0. -1.
       -2   -1    0    0    0  501  0.00000000000E+00  0.00000000000E+00 -0.42328959702E+03  0.42328959703E+03  0.25500000920E-02 0.  1.
    10030    2    1    2    0    0  0.00000000000E+00  0.00000000000E+00  0.29278493836E+03  0.11393641324E+04  0.11011029044E+04 0.  0.
        3    1    3    3  502    0  0.45525041620E+03 -0.26768352096E+03  0.30735977481E+03  0.61104619320E+03  0.10100000352E+00 0. -1.
       -3    1    3    3    0  502 -0.45525041620E+03  0.26768352096E+03 -0.14574836444E+02  0.52831793922E+03  0.10100000352E+00 0.  1.
</event>
<event>
 5   0  0.7946038E-04  0.1098115E+04  0.7818609E-02  0.9207031E-01
       -1   -1    0    0    0  501  0.00000000000E+00  0.00000000000E+00  0.30326651705E+03  0.30326651710E+03  0.50400001928E-02 0.  1.
        1   -1    0    0  501    0  0.00000000000E+00  0.00000000000E+00 -0.99405760018E+03  0.99405760020E+03  0.50400001928E-02 0. -1.
    10030    2    1    2    0    0  0.00000000000E+00  0.00000000000E+00 -0.69079108313E+03  0.12973241173E+04  0.10981154515E+04 0.  0.
        4    1    3    3  502    0 -0.48440666986E+02  0.15095129243E+03  0.27563719512E+03  0.31797840672E+03  0.12699999809E+01 0.  1.
       -4    1    3    3    0  502  0.48440666986E+02 -0.15095129243E+03 -0.96642827826E+03  0.97934571057E+03  0.12699999809E+01 0. -1.
</event>
<event>
 5   0  0.1402775E-03  0.1101780E+04  0.7818609E-02  0.9203459E-01
        2   -1    0    0  501    0  0.00000000000E+00  0.00000000000E+00  0.15799212882E+04  0.15799212882E+04  0.25500000920E-02 0.  1.
       -2   -1    0    0    0  501  0.00000000000E+00  0.00000000000E+00 -0.19208539313E+03  0.19208539315E+03  0.25500000920E-02 0. -1.
    10030    2    1    2    0    0  0.00000000000E+00  0.00000000000E+00  0.13878358950E+04  0.17720066813E+04  0.11017800176E+04 0.  0.
        5    1    3    3  502    0  0.32928031182E+03 -0.37553353310E+03  0.10676793919E+04  0.11787333592E+04  0.46999998093E+01 0. -1.
       -5    1    3    3    0  502 -0.32928031182E+03  0.37553353310E+03  0.32015650315E+03  0.59327332212E+03  0.46999998093E+01 0.  1.
</event>
<event>
 5   0  0.1396936E-03  0.1101685E+04  0.7818609E-02  0.9203551E-01
        2   -1    0    0  501    0  0.00000000000E+00  0.00000000000E+00  0.64657469090E+03  0.64657469091E+03  0.25500000920E-02 0. -1.
       -2   -1    0    0    0  501  0.00000000000E+00  0.00000000000E+00 -0.46928483547E+03  0.46928483548E+03  0.25500000920E-02 0.  1.
    10030    2    1    2    0    0  0.00000000000E+00  0.00000000000E+00  0.17728985543E+03  0.11158595264E+04  0.11016854314E+04 0.  0.
        2    1    3    3  502    0  0.30493034507E+03  0.39332597656E+03  0.32777536007E+03  0.59592325501E+03  0.25500000920E-02 0. -1.
       -2    1    3    3    0  502 -0.30493034507E+03 -0.39332597656E+03 -0.15048550464E+03  0.51993627138E+03  0.25500000920E-02 0.  1.
</event>
<event>
 5   0  0.1396936E-03  0.1098003E+04  0.7818609E-02  0.9207140E-01
       -2   -1    0    0    0  501  0.00000000000E+00  0.00000000000E+00  0.28816990229E+03  0.28816990230E+03  0.25500000920E-02 0. -1.
        2   -1    0    0  501    0  0.00000000000E+00  0.00000000000E+00 -0.10459204179E+04  0.10459204179E+04  0.25500000920E-02 0.  1.
    10030    2    1    2    0    0  0.00000000000E+00  0.00000000000E+00 -0.75775051560E+03  0.13340903202E+04  0.10980032507E+04 0.  0.
        2    1    3    3  502    0  0.48926279104E+03  0.13448060726E+03 -0.12418636025E+03  0.52238430729E+03  0.25500000920E-02 0. -1.
       -2    1    3    3    0  502 -0.48926279104E+03 -0.13448060726E+03 -0.63356415534E+03  0.81170601289E+03  0.25500000920E-02 0.  1.
</event>
<event>
 5   0  0.8150924E-04  0.1096500E+04  0.7818609E-02  0.9208610E-01
        1   -1    0    0  501    0  0.00000000000E+00  0.00000000000E+00  0.95875869591E+03  0.95875869592E+03  0.50400001928E-02 0. -1.
       -1   -1    0    0    0  501  0.00000000000E+00  0.00000000000E+00 -0.31350755225E+03  0.31350755229E+03  0.50400001928E-02 0.  1.
    10030    2    1    2    0    0  0.00000000000E+00  0.00000000000E+00  0.64525114365E+03  0.12722662482E+04  0.10965000538E+04 0.  0.
        3    1    3    3  502    0  0.44839108993E+03 -0.14036139452E+03 -0.51912015852E+01  0.46987535514E+03  0.10100000352E+00 0.  1.
       -3    1    3    3    0  502 -0.44839108993E+03  0.14036139452E+03  0.65044234524E+03  0.80239089307E+03  0.10100000352E+00 0. -1.
</event>
<event>
 5   0  0.8341767E-04  0.1099800E+04  0.7818609E-02  0.9205386E-01
        1   -1    0    0  501    0  0.00000000000E+00  0.00000000000E+00  0.86655356259E+03  0.86655356260E+03  0.50400001928E-02 0.  1.
       -1   -1    0    0    0  501  0.00000000000E+00  0.00000000000E+00 -0.34895729833E+03  0.34895729837E+03  0.50400001928E-02 0. -1.
    10030    2    1    2    0    0  0.00000000000E+00  0.00000000000E+00  0.51759626426E+03  0.12155108610E+04  0.10998003275E+04 0.  0.
        2    1    3    3  502    0 -0.39715883509E+03 -0.18815133121E+02  0.67863418518E+03  0.78653258471E+03  0.25500000920E-02 0.  1.
       -2    1    3    3    0  502  0.39715883509E+03  0.18815133121E+02 -0.16103792091E+03  0.42897827626E+03  0.25500000920E-02 0. -1.
</event>
<event>
 5   0  0.1425432E-03  0.1078163E+04  0.7818609E-02  0.9226741E-01
        2   -1    0    0  501    0  0.00000000000E+00  0.00000000000E+00  0.13121560501E+04  0.13121560501E+04  0.25500000920E-02 0.  1.
       -2   -1    0    0    0  501  0.00000000000E+00  0.00000000000E+00 -0.22147434244E+03  0.22147434245E+03  0.25500000920E-02 0. -1.
    10030    2    1    2    0    0  0.00000000000E+00  0.00000000000E+00  0.10906817077E+04  0.15336303926E+04  0.10781630645E+04 0.  0.
        1    1    3    3  502    0 -0.12490884535E+03 -0.49940779238E+03  0.31775575780E+03  0.60496205202E+03  0.50400001928E-02 0. -1.
       -1    1    3    3    0  502  0.12490884535E+03  0.49940779238E+03  0.77292594988E+03  0.92866834056E+03  0.50400001928E-02 0.  1.
</event>
<event>
 5   0  0.5409500E-04  0.1102190E+04  0.7818609E-02  0.9203060E-01
        4   -1    0    0  501    0  0.00000000000E+00  0.00000000000E+00  0.46604230068E+03  0.46604403110E+03  0.12699999809E+01 0. -1.
       -4   -1    0    0    0  501  0.00000000000E+00  0.00000000000E+00 -0.65166675016E+03  0.65166798768E+03  0.12699999809E+01 0.  1.
    10030    2    1    2    0    0  0.00000000000E+00  0.00000000000E+00 -0.18562444948E+03  0.11177120188E+04  0.11021904194E+04 0.  0.
        3    1    3    3  502    0  0.18897067840E+03 -0.32466190333E+03 -0.50171595690E+03  0.62676485254E+03  0.10100000352E+00 0.  1.
       -3    1    3    3    0  502 -0.18897067840E+03  0.32466190333E+03  0.31609150742E+03  0.49094716624E+03  0.10100000352E+00 0. -1.
</event>
<event>
 5   0  0.8305271E-04  0.1100565E+04  0.7818609E-02  0.9204641E-01
        1   -1    0    0  501    0  0.00000000000E+00  0.00000000000E+00  0.32087199960E+03  0.32087199963E+03  0.50400001928E-02 0.  1.
       -1   -1    0    0    0  501  0.00000000000E+00  0.00000000000E+00 -0.94371304022E+03  0.94371304024E+03  0.50400001928E-02 0. -1.
    10030    2    1    2    0    0  0.00000000000E+00  0.00000000000E+00 -0.62284104063E+03  0.12645850399E+04  0.11005654734E+04 0.  0.
        5    1    3    3  502    0 -0.53718452888E+03 -0.17201223614E+02 -0.17582548332E+03  0.56550843561E+03  0.46999998093E+01 0.  1.
       -5    1    3    3    0  502  0.53718452888E+03  0.17201223614E+02 -0.44701555730E+03  0.69907660426E+03  0.46999998093E+01 0. -1.
</event>
<event>
 5   0  0.1402775E-03  0.1094759E+04  0.7818609E-02  0.9210315E-01
        2   -1    0    0  501    0  0.00000000000E+00  0.00000000000E+00  0.12275346927E+04  0.12275346927E+04  0.25500000920E-02 0.  1.
       -2   -1    0    0    0  501  0.00000000000E+00  0.00000000000E+00 -0.24408634021E+03  0.24408634023E+03  0.25500000920E-02 0. -1.
    10030    2    1    2    0    0  0.00000000000E+00  0.00000000000E+00  0.98344835250E+03  0.14716210329E+04  0.10947592441E+04 0.  0.
        5    1    3    3  502    0  0.27924124069E+03  0.10079952110E+03 -0.12643139974E+03  0.32271226007E+03  0.46999998093E+01 0. -1.
       -5    1    3    3    0  502 -0.27924124069E+03 -0.10079952110E+03  0.11098797522E+04  0.11489087729E+04  0.46999998093E+01 0.  1.
</event>
<event>
 5   0  0.5409500E-04  0.1100280E+04  0.7818609E-02  0.9204919E-01
       -4   -1    0    0    0  501  0.00000000000E+00  0.00000000000E+00  0.70466758936E+03  0.70466873380E+03  0.12699999809E+01 0. -1.
        4   -1    0    0  501    0  0.00000000000E+00  0.00000000000E+00 -0.42949625195E+03  0.42949812961E+03  0.12699999809E+01 0.  1.
    10030    2    1    2    0    0  0.00000000000E+00  0.00000000000E+00  0.27517133741E+03  0.11341668634E+04  0.11002796050E+04 0.  0.
        5    1    3    3  502    0 -0.40792325466E+03 -0.35627151057E+03  0.38174004453E+02  0.54296419362E+03  0.46999998093E+01 0.  1.
       -5    1    3    3    0  502  0.40792325466E+03  0.35627151057E+03  0.23699733296E+03  0.59120266979E+03  0.46999998093E+01 0. -1.
</event>
<event>
 5   0  0.8150924E-04  0.1103336E+04  0.7818609E-02  0.9201947E-01
       -1   -1    0    0    0  501  0.00000000000E+00  0.00000000000E+00  0.20421482285E+03  0.20421482292E+03  0.50400001928E-02 0.  1.
        1   -1    0    0  501    0  0.00000000000E+00  0.00000000000E+00 -0.14902802337E+04  0.14902802337E+04  0.50400001928E-02 0. -1.
    10030    2    1    2    0    0  0.00000000000E+00  0.00000000000E+00 -0.12860654109E+04  0.16944950567E+04  0.11033355138E+04 0.  0.
        3    1    3    3  502    0 -0.51866492895E+03 -0.66720102781E+02 -0.91287999985E+03  0.10520526531E+04  0.10100000352E+00 0.  1.
       -3    1    3    3    0  502  0.51866492895E+03  0.66720102781E+02 -0.37318541103E+03  0.64244240352E+03  0.10100000352E+00 0. -1.
</event>
<event>
 5   0  0.8150924E-04  0.1104716E+04  0.7818609E-02  0.9200608E-01
       -1   -1    0    0    0  501  0.00000000000E+00  0.00000000000E+00  0.58650240493E+03  0.58650240495E+03  0.50400001928E-02 0.  1.
        1   -1    0    0  501    0  0.00000000000E+00  0.00000000000E+00 -0.52020104758E+03  0.52020104760E+03  0.50400001928E-02 0. -1.
    10030    2    1    2    0    0  0.00000000000E+00  0.00000000000E+00  0.66301357356E+02  0.11067034526E+04  0.11047156475E+04 0.  0.
        3    1    3    3  502    0 -0.49702757434E+02  0.45305699067E+03  0.34575086194E+03  0.57207925117E+03  0.10100000352E+00 0.  1.
       -3    1    3    3    0  502  0.49702757434E+02 -0.45305699067E+03 -0.27944950458E+03  0.53462420138E+03  0.10100000352E+00 0. -1.
</event>
<event>
 5   0  0.1396936E-03  0.1040236E+04  0.7818609E-02  0.9265484E-01
       -2   -1    0    0    0  501  0.00000000000E+00  0.00000000000E+00  0.29283208245E+03  0.29283208247E+03  0.25500000920E-02 0. -1.
        2   -1    0    0  501    0  0.00000000000E+00  0.00000000000E+00 -0.92381445498E+03  0.92381445498E+03  0.25500000920E-02 0.  1.
    10030    2    1    2    0    0  0.00000000000E+00  0.00000000000E+00 -0.63098237253E+03  0.12166465375E+04  0.10402355707E+04 0.  0.
        2    1    3    3  502    0 -0.17130016992E+03  0.47833495738E+03 -0.44559659251E+03  0.67579908474E+03  0.25500000920E-02 0.  1.
       -2    1    3    3    0  502  0.17130016992E+03 -0.47833495738E+03 -0.18538578001E+03  0.54084745271E+03  0.25500000920E-02 0. -1.
</event>
<event>
 5   0  0.1425432E-03  0.1102844E+04  0.7818609E-02  0.9202424E-01
        2   -1    0    0  501    0  0.00000000000E+00  0.00000000000E+00  0.62795241953E+03  0.62795241954E+03  0.25500000920E-02 0. -1.
       -2   -1    0    0    0  501  0.00000000000E+00  0.00000000000E+00 -0.48421880473E+03  0.48421880474E+03  0.25500000920E-02 0.  1.
    10030    2    1    2    0    0  0.00000000000E+00  0.00000000000E+00  0.14373361480E+03  0.11121712243E+04  0.11028442683E+04 0.  0.
        1    1    3    3  502    0  0.51517257440E+03 -0.11008860337E+03  0.23616824670E+03  0.57731942873E+03  0.50400001928E-02 0. -1.
       -1    1    3    3    0  502 -0.51517257440E+03  0.11008860337E+03 -0.92434631903E+02  0.53485179556E+03  0.50400001928E-02 0.  1.
</event>
<event>
 5   0  0.8009636E-04  0.1113151E+04  0.7818609E-02  0.9192468E-01
       -1   -1    0    0    0  501  0.00000000000E+00  0.00000000000E+00  0.54530263135E+03  0.54530263137E+03  0.50400001928E-02 0.  1.
        1   -1    0    0  501    0  0.00000000000E+00  0.00000000000E+00 -0.56808093863E+03  0.56808093865E+03  0.50400001928E-02 0. -1.
    10030    2    1    2    0    0  0.00000000000E+00  0.00000000000E+00 -0.22778307280E+02  0.11133835700E+04  0.11131505391E+04 0.  0.
        1    1    3    3  502    0  0.92901820600E+02  0.54246818902E+03  0.71535055437E+02  0.55499526895E+03  0.50400001928E-02 0.  1.
       -1    1    3    3    0  502 -0.92901820600E+02 -0.54246818902E+03 -0.94313362717E+02  0.55838830108E+03  0.50400001928E-02 0. -1.
</event>
<event>
 5   0  0.1425432E-03  0.1098320E+04  0.7818609E-02  0.9206831E-01
       -2   -1    0    0    0  501  0.00000000000E+00  0.00000000000E+00  0.59237414689E+03  0.59237414690E+03  0.25500000920E-02 0.  1.
        2   -1    0    0  501    0  0.00000000000E+00  0.00000000000E+00 -0.50909838876E+03  0.50909838876E+03  0.25500000920E-02 0. -1.
    10030    2    1    2    0    0  0.00000000000E+00  0.00000000000E+00  0.83275758132E+02  0.11014725357E+04  0.10983200330E+04 0.  0.
        1    1    3    3  502    0  0.30185502376E+03 -0.36585180852E+03 -0.23594662332E+03  0.52974976192E+03  0.50400001928E-02 0. -1.
       -1    1    3    3    0  502 -0.30185502376E+03  0.36585180852E+03  0.31922238145E+03  0.57172277374E+03  0.50400001928E-02 0.  1.
</event>
<event>
 5   0  0.1425432E-03  0.1100126E+04  0.7818609E-02  0.9205069E-01
        2   -1    0    0  501    0  0.00000000000E+00  0.00000000000E+00  0.55949159669E+03  0.55949159670E+03  0.25500000920E-02 0. -1.
       -2   -1    0    0    0  501  0.00000000000E+00  0.00000000000E+00 -0.54079309660E+03  0.54079309661E+03  0.25500000920E-02 0.  1.
    10030    2    1    2    0    0  0.00000000000E+00  0.00000000000E+00  0.18698500088E+02  0.11002846933E+04  0.11001257984E+04 0.  0.
        1    1    3    3  502    0 -0.17279964429E+03 -0.51187258830E+03 -0.94086813682E+02  0.54838452955E+03  0.50400001928E-02 0.  1.
       -1    1    3    3    0  502  0.17279964429E+03  0.51187258830E+03  0.11278531377E+03  0.55190016375E+03  0.50400001928E-02 0. -1.
</event>
<event>
 5   0  0.1402775E-03  0.1101837E+04  0.7818609E-02  0.9203403E-01
        2   -1    0    0  501    0  0.00000000000E+00  0.00000000000E+00  0.10819628617E+04  0.10819628617E+04  0.25500000920E-02 0. -1.
       -2   -1    0    0    0  501  0.00000000000E+00  0.00000000000E+00 -0.28051911528E+03  0.28051911530E+03  0.25500000920E-02 0.  1.
    10030    2    1    2    0    0  0.00000000000E+00  0.00000000000E+00  0.80144374638E+03  0.13624819770E+04  0.11018371290E+04 0.  0.
        5    1    3    3  502    0  0.39028063919E+03 -0.10302078942E+03  0.86431764941E+03  0.95393886044E+03  0.46999998093E+01 0. -1.
       -5    1    3    3    0  502 -0.39028063919E+03  0.10302078942E+03 -0.62873903030E+02  0.40854311652E+03  0.46999998093E+01 0.  1.
</event>
<event>
 5   0  0.1429680E-03  0.1097787E+04  0.7818609E-02  0.9207351E-01
       -2   -1    0    0    0  501  0.00000000000E+00  0.00000000000E+00  0.25050826459E+03  0.25050826460E+03  0.25500000920E-02 0.  1.
        2   -1    0    0  501    0  0.00000000000E+00  0.00000000000E+00 -0.12026912579E+04  0.12026912579E+04  0.25500000920E-02 0. -1.
    10030    2    1    2    0    0  0.00000000000E+00  0.00000000000E+00 -0.95218299334E+03  0.14531995225E+04  0.10977870465E+04 0.  0.
        3    1    3    3  502    0 -0.76062282576E+02  0.48041471845E+03 -0.13937813610E+03  0.50597435464E+03  0.10100000352E+00 0.  1.
       -3    1    3    3    0  502  0.76062282576E+02 -0.48041471845E+03 -0.81280485724E+03  0.94722516789E+03  0.10100000352E+00 0. -1.
</event>
<event>
 5   0  0.7946038E-04  0.1099782E+04  0.7818609E-02  0.9205405E-01
       -1   -1    0    0    0  501  0.00000000000E+00  0.00000000000E+00  0.56547049347E+03  0.56547049349E+03  0.50400001928E-02 0. -1.
        1   -1    0    0  501    0  0.00000000000E+00  0.00000000000E+00 -0.53474046618E+03  0.53474046621E+03  0.50400001928E-02 0.  1.
    10030    2    1    2    0    0  0.00000000000E+00  0.00000000000E+00  0.30730027283E+02  0.11002109597E+04  0.10997817153E+04 0.  0.
        4    1    3    3  502    0  0.36225438147E+03  0.40666082132E+03 -0.60671769515E+02  0.54798169404E+03  0.12699999809E+01 0.  1.
       -4    1    3    3    0  502 -0.36225438147E+03 -0.40666082132E+03  0.91401796799E+02  0.55222926566E+03  0.12699999809E+01 0. -1.
</event>
<event>
 5   0  0.8009636E-04  0.1088933E+04  0.7818609E-02  0.9216046E-01
       -1   -1    0    0    0  501  0.00000000000E+00  0.00000000000E+00  0.31596955067E+03  0.31596955071E+03  0.50400001928E-02 0. -1.
        1   -1    0    0  501    0  0.00000000000E+00  0.00000000000E+00 -0.93820343039E+03  0.93820343041E+03  0.50400001928E-02 0.  1.
    10030    2    1    2    0    0  0.00000000000E+00  0.00000000000E+00 -0.62223387972E+03  0.12541729811E+04  0.10889329022E+04 0.  0.
        1    1    3    3  502    0  0.16214711127E+03 -0.36911717032E+03 -0.73257462712E+03  0.83618464195E+03  0.50400001928E-02 0.  1.
       -1    1    3    3    0  502 -0.16214711127E+03  0.36911717032E+03  0.11034074740E+03  0.41798833916E+03  0.50400001928E-02 0. -1.
</event>
<event>
 5   0  0.8009636E-04  0.1101536E+04  0.7818609E-02  0.9203696E-01
        1   -1    0    0  501    0  0.00000000000E+00  0.00000000000E+00  0.57148834209E+03  0.57148834212E+03  0.50400001928E-02 0.  1.
       -1   -1    0    0    0  501  0.00000000000E+00  0.00000000000E+00 -0.53079918502E+03  0.53079918505E+03  0.50400001928E-02 0. -1.
    10030    2    1    2    0    0  0.00000000000E+00  0.00000000000E+00  0.40689157070E+02  0.11022875272E+04  0.11015362840E+04 0.  0.
        1    1    3    3  502    0  0.67299767119E+02 -0.51498068387E+03 -0.16311398306E+03  0.54437168820E+03  0.50400001928E-02 0.  1.
       -1    1    3    3    0  502 -0.67299767119E+02  0.51498068387E+03  0.20380314013E+03  0.55791583897E+03  0.50400001928E-02 0. -1.
</event>
<event>
 5   0  0.1402775E-03  0.1102207E+04  0.7818609E-02  0.9203043E-01
        2   -1    0    0  501    0  0.00000000000E+00  0.00000000000E+00  0.94275902016E+03  0.94275902016E+03  0.25500000920E-02 0.  1.
       -2   -1    0    0    0  501  0.00000000000E+00  0.00000000000E+00 -0.32215565918E+03  0.32215565919E+03  0.25500000920E-02 0. -1.
    10030    2    1    2    0    0  0.00000000000E+00  0.00000000000E+00  0.62060336098E+03  0.12649146794E+04  0.11022071558E+04 0.  0.
        5    1    3    3  502    0 -0.29432294420E+03 -0.25046517293E+03 -0.14054532112E+03  0.41125889124E+03  0.46999998093E+01 0. -1.
       -5    1    3    3    0  502  0.29432294420E+03  0.25046517293E+03  0.76114868210E+03  0.85365578812E+03  0.46999998093E+01 0.  1.
</event>
<event>
 5   0  0.1425432E-03  0.1101683E+04  0.7818609E-02  0.9203553E-01
        2   -1    0    0  501    0  0.00000000000E+00  0.00000000000E+00  0.32823669980E+03  0.32823669981E+03  0.25500000920E-02 0. -1.
       -2   -1    0    0    0  501  0.00000000000E+00  0.00000000000E+00 -0.92441326490E+03  0.92441326490E+03  0.25500000920E-02 0.  1.
    10030    2    1    2    0    0  0.00000000000E+00  0.00000000000E+00 -0.59617656510E+03  0.12526499647E+04  0.11016830022E+04 0.  0.
        1    1    3    3  502    0 -0.41019083487E+03 -0.35292039099E+03 -0.41524703136E+03  0.68208461386E+03  0.50400001928E-02 0. -1.
       -1    1    3    3    0  502  0.41019083487E+03  0.35292039099E+03 -0.18092953374E+03  0.57056535085E+03  0.50400001928E-02 0.  1.
</event>
<event>
 5   0  0.8305271E-04  0.1100259E+04  0.7818609E-02  0.9204940E-01
       -1   -1    0    0    0  501  0.00000000000E+00  0.00000000000E+00  0.98940166514E+03  0.98940166515E+03  0.50400001928E-02 0. -1.
        1   -1    0    0  501    0  0.00000000000E+00  0.00000000000E+00 -0.30588418694E+03  0.30588418698E+03  0.50400001928E-02 0.  1.
    10030    2    1    2    0    0  0.00000000000E+00  0.00000000000E+00  0.68351747820E+03  0.12952858521E+04  0.11002587404E+04 0.  0.
        5    1    3    3  502    0 -0.16515770933E+03 -0.40199070463E+03  0.73880405785E+03  0.85716224920E+03  0.46999998093E+01 0. -1.
       -5    1    3    3    0  502  0.16515770933E+03  0.40199070463E+03 -0.55286579649E+02  0.43812360293E+03  0.46999998093E+01 0.  1.
</event>
<event>
 5   0  0.8150924E-04  0.1107813E+04  0.7818609E-02  0.9197610E-01
       -1   -1    0    0    0  501  0.00000000000E+00  0.00000000000E+00  0.49313488377E+03  0.49313488380E+03  0.50400001928E-02 0. -1.
        1   -1    0    0  501    0  0.00000000000E+00  0.00000000000E+00 -0.62216685189E+03  0.62216685191E+03  0.50400001928E-02 0.  1.
    10030    2    1    2    0    0  0.00000000000E+00  0.00000000000E+00 -0.12903196812E+03  0.11153017357E+04  0.11078125802E+04 0.  0.
        3    1    3    3  502    0  0.28797846606E+02  0.28927868453E+02  0.49161865717E+03  0.49331029974E+03  0.10100000352E+00 0. -1.
       -3    1    3    3    0  502 -0.28797846606E+02 -0.28927868453E+02 -0.62065062530E+03  0.62199143598E+03  0.10100000352E+00 0.  1.
</event>
<event>
 5   0  0.1425432E-03  0.1095321E+04  0.7818609E-02  0.9209764E-01
       -2   -1    0    0    0  501  0.00000000000E+00  0.00000000000E+00  0.15564053062E+04  0.15564053062E+04  0.25500000920E-02 0.  1.
        2   -1    0    0  501    0  0.00000000000E+00  0.00000000000E+00 -0.19270816412E+03  0.19270816414E+03  0.25500000920E-02 0. -1.
    10030    2    1    2    0    0  0.00000000000E+00  0.00000000000E+00  0.13636971421E+04  0.17491134704E+04  0.10953209743E+04 0.  0.
        1    1    3    3  502    0  0.41612816259E+02 -0.69811425350E+02  0.15467217193E+04  0.15488554931E+04  0.50400001928E-02 0.  1.
       -1    1    3    3    0  502 -0.41612816259E+02  0.69811425350E+02 -0.18302457717E+03  0.20025797727E+03  0.50400001928E-02 0. -1.
</event>
<event>
 5   0  0.8009636E-04  0.1095957E+04  0.7818609E-02  0.9209142E-01
       -1   -1    0    0    0  501  0.00000000000E+00  0.00000000000E+00  0.43780102124E+03  0.43780102127E+03  0.50400001928E-02 0. -1.
        1   -1    0    0  501    0  0.00000000000E+00  0.00000000000E+00 -0.68588308997E+03  0.68588308999E+03  0.50400001928E-02 0.  1.
    10030    2    1    2    0    0  0.00000000000E+00  0.00000000000E+00 -0.24808206873E+03  0.11236841113E+04  0.10959567825E+04 0.  0.
        1    1    3    3  502    0  0.46328545563E+03  0.23992981205E+02  0.17500785559E+03  0.49581934824E+03  0.50400001928E-02 0.  1.
       -1    1    3    3    0  502 -0.46328545563E+03 -0.23992981205E+02 -0.42308992433E+03  0.62786476302E+03  0.50400001928E-02 0. -1.
</event>
<event>
 5   0  0.8341767E-04  0.1096933E+04  0.7818609E-02  0.9208186E-01
       -1   -1    0    0    0  501  0.00000000000E+00  0.00000000000E+00  0.82043568720E+03  0.82043568721E+03  0.50400001928E-02 0.  1.
        1   -1    0    0  501    0  0.00000000000E+00  0.00000000000E+00 -0.36665352824E+03  0.36665352827E+03  0.50400001928E-02 0. -1.
    10030    2    1    2    0    0  0.00000000000E+00  0.00000000000E+00  0.45378215896E+03  0.11870892155E+04  0.10969332513E+04 0.  0.
        2    1    3    3  502    0 -0.17746982982E+03  0.21723027563E+03 -0.28315316107E+03  0.39857276096E+03  0.25500000920E-02 0. -1.
       -2    1    3    3    0  502  0.17746982982E+03 -0.21723027563E+03  0.73693532003E+03  0.78851645453E+03  0.25500000920E-02 0.  1.
</event>
<event>
 5   0  0.7946038E-04  0.1098574E+04  0.7818609E-02  0.9206583E-01
       -1   -1    0    0    0  501  0.00000000000E+00  0.00000000000E+00  0.75090201821E+03  0.75090201823E+03  0.50400001928E-02 0. -1.
        1   -1    0    0  501    0  0.00000000000E+00  0.00000000000E+00 -0.40180521034E+03  0.40180521038E+03  0.50400001928E-02 0.  1.
    10030    2    1    2    0    0  0.00000000000E+00  0.00000000000E+00  0.34909680787E+03  0.11527072286E+04  0.10985742458E+04 0.  0.
        4    1    3    3  502    0  0.19442567994E+03 -0.44749267751E+03 -0.90201312391E+02  0.49617429508E+03  0.12699999809E+01 0.  1.
       -4    1    3    3    0  502 -0.19442567994E+03  0.44749267751E+03  0.43929812026E+03  0.65653293352E+03  0.12699999809E+01 0. -1.
</event>
<event>
 5   0  0.7946038E-04  0.1054430E+04  0.7818609E-02  0.9250782E-01
        1   -1    0    0  501    0  0.00000000000E+00  0.00000000000E+00  0.24092120304E+03  0.24092120310E+03  0.50400001928E-02 0.  1.
       -1   -1    0    0    0  501  0.00000000000E+00  0.00000000000E+00 -0.11537204642E+04  0.11537204642E+04  0.50400001928E-02 0. -1.
    10030    2    1    2    0    0  0.00000000000E+00  0.00000000000E+00 -0.91279926116E+03  0.13946416673E+04  0.10544301252E+04 0.  0.
        4    1    3    3  502    0 -0.28748964259E+03  0.61158895696E+02 -0.10352963710E+04  0.10762113611E+04  0.12699999809E+01 0. -1.
       -4    1    3    3    0  502  0.28748964259E+03 -0.61158895696E+02  0.12249710979E+03  0.31843030623E+03  0.12699999809E+01 0.  1.
</event>
<event>
 5   0  0.8009636E-04  0.1100692E+04  0.7818609E-02  0.9204517E-01
        1   -1    0    0  501    0  0.00000000000E+00  0.00000000000E+00  0.58025423434E+03  0.58025423436E+03  0.50400001928E-02 0. -1.
       -1   -1    0    0    0  501  0.00000000000E+00  0.00000000000E+00 -0.52197965553E+03  0.52197965556E+03  0.50400001928E-02 0.  1.
    10030    2    1    2    0    0  0.00000000000E+00  0.00000000000E+00  0.58274578802E+02  0.11022338899E+04  0.11006923374E+04 0.  0.
        1    1    3    3  502    0 -0.30601523304E+03 -0.13529859153E+03  0.46670448898E+03  0.57425091361E+03  0.50400001928E-02 0. -1.
       -1    1    3    3    0  502  0.30601523304E+03  0.13529859153E+03 -0.40842991017E+03  0.52798297631E+03  0.50400001928E-02 0.  1.
</event>
<event>
 5   0  0.8150924E-04  0.1098184E+04  0.7818609E-02  0.9206964E-01
        1   -1    0    0  501    0  0.00000000000E+00  0.00000000000E+00  0.15024870012E+04  0.15024870012E+04  0.50400001928E-02 0. -1.
       -1   -1    0    0    0  501  0.00000000000E+00  0.00000000000E+00 -0.20066858239E+03  0.20066858245E+03  0.50400001928E-02 0.  1.
    10030    2    1    2    0    0  0.00000000000E+00  0.00000000000E+00  0.13018184188E+04  0.17031555837E+04  0.10981838401E+04 0.  0.
        3    1    3    3  502    0  0.13849313120E+03 -0.17074477520E+02 -0.17271093354E+03  0.22203819928E+03  0.10100000352E+00 0.  1.
       -3    1    3    3    0  502 -0.13849313120E+03  0.17074477520E+02  0.14745293524E+04  0.14811173844E+04  0.10100000352E+00 0. -1.
</event>
<event>
 5   0  0.7946038E-04  0.1100988E+04  0.7818609E-02  0.9204230E-01
       -1   -1    0    0    0  501  0.00000000000E+00  0.00000000000E+00  0.82981147174E+03  0.82981147175E+03  0.50400001928E-02 0.  1.
        1   -1    0    0  501    0  0.00000000000E+00  0.00000000000E+00 -0.36519553330E+03  0.36519553334E+03  0.50400001928E-02 0. -1.
    10030    2    1    2    0    0  0.00000000000E+00  0.00000000000E+00  0.46461593844E+03  0.11950070051E+04  0.11009876348E+04 0.  0.
        4    1    3    3  502    0 -0.21919358072E+03  0.49647955922E+03  0.13221560410E+03  0.55858782427E+03  0.12699999809E+01 0.  1.
       -4    1    3    3    0  502  0.21919358072E+03 -0.49647955922E+03  0.33240033433E+03  0.63641918082E+03  0.12699999809E+01 0. -1.
</event>
<event>
 5   0  0.1429680E-03  0.1104125E+04  0.7818609E-02  0.9201181E-01
        2   -1    0    0  501    0  0.00000000000E+00  0.00000000000E+00  0.11177644858E+04  0.11177644858E+04  0.25500000920E-02 0.  1.
       -2   -1    0    0    0  501  0.00000000000E+00  0.00000000000E+00 -0.27266303663E+03  0.27266303664E+03  0.25500000920E-02 0. -1.
    10030    2    1    2    0    0  0.00000000000E+00  0.00000000000E+00  0.84510144921E+03  0.13904275225E+04  0.11041250997E+04 0.  0.
        3    1    3    3  502    0 -0.38668081762E+03 -0.39397709119E+03  0.41531158012E+03  0.69081381129E+03  0.10100000352E+00 0. -1.
       -3    1    3    3    0  502  0.38668081762E+03  0.39397709119E+03  0.42978986910E+03  0.69961371118E+03  0.10100000352E+00 0.  1.
</event>
<event>
 5   0  0.8341767E-04  0.1099994E+04  0.7818609E-02  0.9205198E-01
        1   -1    0    0  501    0  0.00000000000E+00  0.00000000000E+00  0.15681748055E+04  0.15681748055E+04  0.50400001928E-02 0.  1.
       -1   -1    0    0    0  501  0.00000000000E+00  0.00000000000E+00 -0.19289734245E+03  0.19289734252E+03  0.50400001928E-02 0. -1.
    10030    2    1    2    0    0  0.00000000000E+00  0.00000000000E+00  0.13752774630E+04  0.17610721480E+04  0.10999940955E+04 0.  0.
        2    1    3    3  502    0  0.23683963947E+03  0.49348275892E+03  0.60174326553E+03  0.81345756238E+03  0.25500000920E-02 0.  1.
       -2    1    3    3    0  502 -0.23683963947E+03 -0.49348275892E+03  0.77353419751E+03  0.94761458563E+03  0.25500000920E-02 0. -1.
</event>
<event>
 5   0  0.8150924E-04  0.1099625E+04  0.7818609E-02  0.9205558E-01
       -1   -1    0    0    0  501  0.00000000000E+00  0.00000000000E+00  0.83233061035E+03  0.83233061037E+03  0.50400001928E-02 0. -1.
        1   -1    0    0  501    0  0.00000000000E+00  0.00000000000E+00 -0.36318937532E+03  0.36318937536E+03  0.50400001928E-02 0.  1.
    10030    2    1    2    0    0  0.00000000000E+00  0.00000000000E+00  0.46914123503E+03  0.11955199857E+04  0.10996247259E+04 0.  0.
        3    1    3    3  502    0  0.15817464688E+03  0.51668621862E+03  0.34496235149E+03  0.64107948148E+03  0.10100000352E+00 0. -1.
       -3    1    3    3    0  502 -0.15817464688E+03 -0.51668621862E+03  0.12417888354E+03  0.55444050424E+03  0.10100000352E+00 0.  1.
</event>
<event>
 5   0  0.8341767E-04  0.1092569E+04  0.7818609E-02  0.9212465E-01
        1   -1    0    0  501    0  0.00000000000E+00  0.00000000000E+00  0.44959515034E+03  0.44959515036E+03  0.50400001928E-02 0.  1.
       -1   -1    0    0    0  501  0.00000000000E+00  0.00000000000E+00 -0.66376723765E+03  0.66376723767E+03  0.50400001928E-02 0. -1.
    10030    2    1    2    0    0  0.00000000000E+00  0.00000000000E+00 -0.21417208732E+03  0.11133623880E+04  0.10925685901E+04 0.  0.
        2    1    3    3  502    0  0.22404716163E+03 -0.48222946363E+03  0.20533814121E+02  0.53213158500E+03  0.25500000920E-02 0. -1.
       -2    1    3    3    0  502 -0.22404716163E+03  0.48222946363E+03 -0.23470590144E+03  0.58123080304E+03  0.25500000920E-02 0.  1.
</event>
<event>
 5   0  0.1425432E-03  0.1153652E+04  0.7818609E-02  0.9154421E-01
        2   -1    0    0  501    0  0.00000000000E+00  0.00000000000E+00  0.70540489397E+03  0.70540489397E+03  0.25500000920E-02 0. -1.
       -2   -1    0    0    0  501  0.00000000000E+00  0.00000000000E+00 -0.47168418964E+03  0.47168418964E+03  0.25500000920E-02 0.  1.
    10030    2    1    2    0    0  0.00000000000E+00  0.00000000000E+00  0.23372070433E+03  0.11770890836E+04  0.11536521760E+04 0.  0.
        1    1    3    3  502    0  0.41504668177E+03 -0.36934938053E+03  0.27507710158E+03  0.61995977675E+03  0.50400001928E-02 0. -1.
       -1    1    3    3    0  502 -0.41504668177E+03  0.36934938053E+03 -0.41356397246E+02  0.55712930686E+03  0.50400001928E-02 0.  1.
</event>
<event>
 5   0  0.8009636E-04  0.1100334E+04  0.7818609E-02  0.9204866E-01
       -1   -1    0    0    0  501  0.00000000000E+00  0.00000000000E+00  0.45309832572E+03  0.45309832575E+03  0.50400001928E-02 0.  1.
        1   -1    0    0  501    0  0.00000000000E+00  0.00000000000E+00 -0.66803089034E+03  0.66803089036E+03  0.50400001928E-02 0. -1.
    10030    2    1    2    0    0  0.00000000000E+00  0.00000000000E+00 -0.21493256462E+03  0.11211292161E+04  0.11003339093E+04 0.  0.
        1    1    3    3  502    0 -0.83909337739E+02 -0.24305826344E+03  0.38810593669E+03  0.46555806781E+03  0.50400001928E-02 0.  1.
       -1    1    3    3    0  502  0.83909337739E+02  0.24305826344E+03 -0.60303850131E+03  0.65557114830E+03  0.50400001928E-02 0. -1.
</event>
<event>
 5   0  0.1396936E-03  0.1096418E+04  0.7818609E-02  0.9208690E-01
       -2   -1    0    0    0  501  0.00000000000E+00  0.00000000000E+00  0.63788918695E+03  0.63788918695E+03  0.25500000920E-02 0.  1.
        2   -1    0    0  501    0  0.00000000000E+00  0.00000000000E+00 -0.47113698197E+03  0.47113698197E+03  0.25500000920E-02 0. -1.
    10030    2    1    2    0    0  0.00000000000E+00  0.00000000000E+00  0.16675220498E+03  0.11090261689E+04  0.10964181435E+04 0.  0.
        2    1    3    3  502    0 -0.38449253226E+01 -0.54773188077E+03  0.10617839492E+03  0.55794161721E+03  0.25500000920E-02 0.  1.
       -2    1    3    3    0  502  0.38449253226E+01  0.54773188077E+03  0.60573810063E+02  0.55108455171E+03  0.25500000920E-02 0. -1.
</event>
<event>
 5   0  0.8305271E-04  0.1102554E+04  0.7818609E-02  0.9202706E-01
       -1   -1    0    0    0  501  0.00000000000E+00  0.00000000000E+00  0.37350568347E+03  0.37350568350E+03  0.50400001928E-02 0. -1.
        1   -1    0    0  501    0  0.00000000000E+00  0.00000000000E+00 -0.81365865417E+03  0.81365865419E+03  0.50400001928E-02 0.  1.
    10030    2    1    2    0    0  0.00000000000E+00  0.00000000000E+00 -0.44015297070E+03  0.11871643377E+04  0.11025536391E+04 0.  0.
        5    1    3    3  502    0  0.29675080441E+03  0.15300613132E+03  0.25223372438E+03  0.41846846697E+03  0.46999998093E+01 0. -1.
       -5    1    3    3    0  502 -0.29675080441E+03 -0.15300613132E+03 -0.69238669508E+03  0.76869587072E+03  0.46999998093E+01 0.  1.
</event>
<event>
 5   0  0.7946038E-04  0.1105918E+04  0.7818609E-02  0.9199443E-01
       -1   -1    0    0    0  501  0.00000000000E+00  0.00000000000E+00  0.44640795165E+03  0.44640795167E+03  0.50400001928E-02 0. -1.
        1   -1    0    0  501    0  0.00000000000E+00  0.00000000000E+00 -0.68494272973E+03  0.68494272975E+03  0.50400001928E-02 0.  1.
    10030    2    1    2    0    0  0.00000000000E+00  0.00000000000E+00 -0.23853477809E+03  0.11313506814E+04  0.11059184075E+04 0.  0.
        4    1    3    3  502    0 -0.11290419062E+03  0.50936858881E+03  0.68135277638E+02  0.52616322988E+03  0.12699999809E+01 0.  1.
       -4    1    3    3    0  502  0.11290419062E+03 -0.50936858881E+03 -0.30667005572E+03  0.60518745154E+03  0.12699999809E+01 0. -1.
</event>
<event>
 5   0  0.8150924E-04  0.1101995E+04  0.7818609E-02  0.9203249E-01
       -1   -1    0    0    0  501  0.00000000000E+00  0.00000000000E+00  0.93672220362E+03  0.93672220363E+03  0.50400001928E-02 0.  1.
        1   -1    0    0  501    0  0.00000000000E+00  0.00000000000E+00 -0.32410719255E+03  0.32410719258E+03  0.50400001928E-02 0. -1.
    10030    2    1    2    0    0  0.00000000000E+00  0.00000000000E+00  0.61261501107E+03  0.12608293962E+04  0.11019952879E+04 0.  0.
        3    1    3    3  502    0  0.26081798776E+03  0.28555851282E+03 -0.14272462950E+03  0.41223781613E+03  0.10100000352E+00 0. -1.
       -3    1    3    3    0  502 -0.26081798776E+03 -0.28555851282E+03  0.75533964057E+03  0.84859158009E+03  0.10100000352E+00 0.  1.
</event>
<event>
 5   0  0.5409500E-04  0.1103751E+04  0.7818609E-02  0.9201543E-01
       -3   -1    0    0    0  501  0.00000000000E+00  0.00000000000E+00  0.10738169781E+04  0.10738169828E+04  0.10100000352E+00 0. -1.
        3   -1    0    0  501    0  0.00000000000E+00  0.00000000000E+00 -0.28363002206E+03  0.28363004005E+03  0.10100000352E+00 0.  1.
    10030    2    1    2    0    0  0.00000000000E+00  0.00000000000E+00  0.79018695603E+03  0.13574470229E+04  0.11037513282E+04 0.  0.
        3    1    3    3  502    0 -0.64376347944E+02  0.30483821708E+03 -0.16512393581E+03  0.35261392081E+03  0.10100000352E+00 0.  1.
       -3    1    3    3    0  502  0.64376347944E+02 -0.30483821708E+03  0.95531089184E+03  0.10048331021E+04  0.10100000352E+00 0. -1.
</event>
<event>
 5   0  0.1429680E-03  0.1101053E+04  0.7818609E-02  0.9204166E-01
        2   -1    0    0  501    0  0.00000000000E+00  0.00000000000E+00  0.17430910840E+04  0.17430910840E+04  0.25500000920E-02 0.  1.
       -2   -1    0    0    0  501  0.00000000000E+00  0.00000000000E+00 -0.17387478954E+03  0.17387478956E+03  0.25500000920E-02 0. -1.
    10030    2    1    2    0    0  0.00000000000E+00  0.00000000000E+00  0.15692162945E+04  0.19169658736E+04  0.11010533055E+04 0.  0.
        3    1    3    3  502    0  0.42371425549E+03  0.34265032308E+03  0.64822242177E+03  0.84683843352E+03  0.10100000352E+00 0. -1.
       -3    1    3    3    0  502 -0.42371425549E+03 -0.34265032308E+03  0.92099387269E+03  0.10701274400E+04  0.10100000352E+00 0.  1.
</event>
<event>
 5   0  0.1372794E-03  0.1101381E+04  0.7818609E-02  0.9203847E-01
        2   -1    0    0  501    0  0.00000000000E+00  0.00000000000E+00  0.52567751885E+03  0.52567751886E+03  0.25500000920E-02 0.  1.
       -2   -1    0    0    0  501  0.00000000000E+00  0.00000000000E+00 -0.57689407172E+03  0.57689407173E+03  0.25500000920E-02 0. -1.
    10030    2    1    2    0    0  0.00000000000E+00  0.00000000000E+00 -0.51216552871E+02  0.11025715906E+04  0.11013813949E+04 0.  0.
        4    1    3    3  502    0 -0.13138064044E+03  0.45691982505E+03  0.25258054545E+03  0.53836339404E+03  0.12699999809E+01 0.  1.
       -4    1    3    3    0  502  0.13138064044E+03 -0.45691982505E+03 -0.30379709832E+03  0.56420819655E+03  0.12699999809E+01 0. -1.
</event>
<event>
 5   0  0.7946038E-04  0.1062195E+04  0.7818609E-02  0.9242843E-01
       -1   -1    0    0    0  501  0.00000000000E+00  0.00000000000E+00  0.25049138797E+03  0.25049138802E+03  0.50400001928E-02 0. -1.
        1   -1    0    0  501    0  0.00000000000E+00  0.00000000000E+00 -0.11260459689E+04  0.11260459689E+04  0.50400001928E-02 0.  1.
    10030    2    1    2    0    0  0.00000000000E+00  0.00000000000E+00 -0.87555458092E+03  0.13765373569E+04  0.10621954956E+04 0.  0.
        4    1    3    3  502    0 -0.24080015844E+03  0.47114473102E+03 -0.49718052652E+03  0.72605245177E+03  0.12699999809E+01 0. -1.
       -4    1    3    3    0  502  0.24080015844E+03 -0.47114473102E+03 -0.37837405440E+03  0.65048490514E+03  0.12699999809E+01 0.  1.
</event>
<event>
 5   0  0.8305271E-04  0.1102514E+04  0.7818609E-02  0.9202745E-01
        1   -1    0    0  501    0  0.00000000000E+00  0.00000000000E+00  0.25010022813E+03  0.25010022818E+03  0.50400001928E-02 0. -1.
       -1   -1    0    0    0  501  0.00000000000E+00  0.00000000000E+00 -0.12150491452E+04  0.12150491452E+04  0.50400001928E-02 0.  1.
    10030    2    1    2    0    0  0.00000000000E+00  0.00000000000E+00 -0.96494891704E+03  0.14651493734E+04  0.11025136161E+04 0.  0.
        5    1    3    3  502    0 -0.25550314847E+03 -0.36282220204E+03 -0.91705309756E+03  0.10187886351E+04  0.46999998093E+01 0.  1.
       -5    1    3    3    0  502  0.25550314847E+03  0.36282220204E+03 -0.47895819480E+02  0.44636073830E+03  0.46999998093E+01 0. -1.
</event>
<event>
 5   0  0.1429680E-03  0.1100680E+04  0.7818609E-02  0.9204529E-01
       -2   -1    0    0    0  501  0.00000000000E+00  0.00000000000E+00  0.27385330529E+03  0.27385330530E+03  0.25500000920E-02 0.  1.
        2   -1    0    0  501    0  0.00000000000E+00  0.00000000000E+00 -0.11059720699E+04  0.11059720699E+04  0.25500000920E-02 0. -1.
    10030    2    1    2    0    0  0.00000000000E+00  0.00000000000E+00 -0.83211876461E+03  0.13798253752E+04  0.11006799842E+04 0.  0.
        3    1    3    3  502    0  0.45853274630E+03  0.26112844363E+03 -0.22010356988E+03  0.57173939446E+03  0.10100000352E+00 0.  1.
       -3    1    3    3    0  502 -0.45853274630E+03 -0.26112844363E+03 -0.61201519473E+03  0.80808598075E+03  0.10100000352E+00 0. -1.
</event>
<event>
 5   0  0.7946038E-04  0.1103519E+04  0.7818609E-02  0.9201769E-01
       -1   -1    0    0    0  501  0.00000000000E+00  0.00000000000E+00  0.37138045613E+03  0.37138045616E+03  0.50400001928E-02 0.  1.
        1   -1    0    0  501    0  0.00000000000E+00  0.00000000000E+00 -0.81974792278E+03  0.81974792279E+03  0.50400001928E-02 0. -1.
    10030    2    1    2    0    0  0.00000000000E+00  0.00000000000E+00 -0.44836746665E+03  0.11911283790E+04  0.11035186587E+04 0.  0.
        4    1    3    3  502    0 -0.36149728097E+03  0.38368523281E+03 -0.40003542591E+03  0.66175871502E+03  0.12699999809E+01 0. -1.
       -4    1    3    3    0  502  0.36149728097E+03 -0.38368523281E+03 -0.48332040741E+02  0.52936966393E+03  0.12699999809E+01 0.  1.
</event>
<event>
 5   0  0.1429680E-03  0.1092132E+04  0.7818609E-02  0.9212895E-01
        2   -1    0    0  501    0  0.00000000000E+00  0.00000000000E+00  0.97474998456E+03  0.97474998456E+03  0.25500000920E-02 0. -1.
       -2   -1    0    0    0  501  0.00000000000E+00  0.00000000000E+00 -0.30591216609E+03  0.30591216610E+03  0.25500000920E-02 0.  1.
    10030    2    1    2    0    0  0.00000000000E+00  0.00000000000E+00  0.66883781847E+03  0.12806621507E+04  0.10921316389E+04 0.  0.
        3    1    3    3  502    0 -0.36826643973E+03  0.35609510397E+03  0.11265928421E+03  0.52451503146E+03  0.10100000352E+00 0.  1.
       -3    1    3    3    0  502  0.36826643973E+03 -0.35609510397E+03  0.55617853426E+03  0.75614711920E+03  0.10100000352E+00 0. -1.
</event>
<event>
 5   0  0.8305271E-04  0.1103083E+04  0.7818609E-02  0.9202192E-01
       -1   -1    0    0    0  501  0.00000000000E+00  0.00000000000E+00  0.50788599833E+03  0.50788599835E+03  0.50400001928E-02 0. -1.
        1   -1    0    0  501    0  0.00000000000E+00  0.00000000000E+00 -0.59894995600E+03  0.59894995602E+03  0.50400001928E-02 0.  1.
    10030    2    1    2    0    0  0.00000000000E+00  0.00000000000E+00 -0.91063957670E+02  0.11068359544E+04  0.11030834898E+04 0.  0.
        5    1    3    3  502    0 -0.14491366131E+03  0.39767133028E+02  0.48692827971E+03  0.50961027628E+03  0.46999998093E+01 0. -1.
       -5    1    3    3    0  502  0.14491366131E+03 -0.39767133028E+02 -0.57799223738E+03  0.59722567810E+03  0.46999998093E+01 0.  1.
</event>
<event>
 5   0  0.8341767E-04  0.1099232E+04  0.7818609E-02  0.9205941E-01
        1   -1    0    0  501    0  0.00000000000E+00  0.00000000000E+00  0.31517458350E+03  0.31517458354E+03  0.50400001928E-02 0. -1.
       -1   -1    0    0    0  501  0.00000000000E+00  0.00000000000E+00 -0.95844610569E+03  0.95844610570E+03  0.50400001928E-02 0.  1.
    10030    2    1    2    0    0  0.00000000000E+00  0.00000000000E+00 -0.64327152219E+03  0.12736206892E+04  0.10992321906E+04 0.  0.
        2    1    3    3  502    0  0.13714810457E+03 -0.69990253315E+02 -0.93294587476E+03  0.94556662557E+03  0.25500000920E-02 0.  1.
       -2    1    3    3    0  502 -0.13714810457E+03  0.69990253315E+02  0.28967435257E+03  0.32805406367E+03  0.25500000920E-02 0. -1.
</event>
<event>
 5   0  0.1402775E-03  0.1028493E+04  0.7818609E-02  0.9277835E-01
        2   -1    0    0  501    0  0.00000000000E+00  0.00000000000E+00  0.40954300213E+03  0.40954300214E+03  0.25500000920E-02 0. -1.
       -2   -1    0    0    0  501  0.00000000000E+00  0.00000000000E+00 -0.64571838410E+03  0.64571838410E+03  0.25500000920E-02 0.  1.
    10030    2    1    2    0    0  0.00000000000E+00  0.00000000000E+00 -0.23617538196E+03  0.10552613862E+04  0.10284929666E+04 0.  0.
        5    1    3    3  502    0 -0.49819312058E+03  0.62227490321E+02 -0.40245609823E+01  0.50210251248E+03  0.46999998093E+01 0. -1.
       -5    1    3    3    0  502  0.49819312058E+03 -0.62227490321E+02 -0.23215082098E+03  0.55315887377E+03  0.46999998093E+01 0.  1.
</event>
<event>
 5   0  0.8009636E-04  0.1088380E+04  0.7818609E-02  0.9216592E-01
        1   -1    0    0  501    0  0.00000000000E+00  0.00000000000E+00  0.36039586010E+03  0.36039586014E+03  0.50400001928E-02 0.  1.
       -1   -1    0    0    0  501  0.00000000000E+00  0.00000000000E+00 -0.82171455401E+03  0.82171455403E+03  0.50400001928E-02 0. -1.
    10030    2    1    2    0    0  0.00000000000E+00  0.00000000000E+00 -0.46131869391E+03  0.11821104142E+04  0.10883795725E+04 0.  0.
        1    1    3    3  502    0  0.54200457600E+03  0.42436092720E+02 -0.20466632147E+03  0.58091142658E+03  0.50400001928E-02 0. -1.
       -1    1    3    3    0  502 -0.54200457600E+03 -0.42436092720E+02 -0.25665237244E+03  0.60119898758E+03  0.50400001928E-02 0.  1.
</event>
<event>
 5   0  0.8009636E-04  0.1100440E+04  0.7818609E-02  0.9204763E-01
        1   -1    0    0  501    0  0.00000000000E+00  0.00000000000E+00  0.46430786722E+03  0.46430786725E+03  0.50400001928E-02 0.  1.
       -1   -1    0    0    0  501  0.00000000000E+00  0.00000000000E+00 -0.65202867169E+03  0.65202867171E+03  0.50400001928E-02 0. -1.
    10030    2    1    2    0    0  0.00000000000E+00  0.00000000000E+00 -0.18772080447E+03  0.11163365390E+04  0.11004399883E+04 0.  0.
        1    1    3    3  502    0  0.13428876021E+02  0.28133121183E+03 -0.57335576574E+03  0.63879920131E+03  0.50400001928E-02 0. -1.
       -1    1    3    3    0  502 -0.13428876021E+02 -0.28133121183E+03  0.38563496128E+03  0.47753733764E+03  0.50400001928E-02 0.  1.
</event>
<event>
 5   0  0.1429680E-03  0.1101864E+04  0.7818609E-02  0.9203377E-01
        2   -1    0    0  501    0  0.00000000000E+00  0.00000000000E+00  0.44515921273E+03  0.44515921274E+03  0.25500000920E-02 0. -1.
       -2   -1    0    0    0  501  0.00000000000E+00  0.00000000000E+00 -0.68183771717E+03  0.68183771717E+03  0.25500000920E-02 0.  1.
    10030    2    1    2    0    0  0.00000000000E+00  0.00000000000E+00 -0.23667850443E+03  0.11269969299E+04  0.11018644951E+04 0.  0.
        3    1    3    3  502    0 -0.13632981441E+03  0.52093400695E+03  0.80053914133E+00  0.53847814157E+03  0.10100000352E+00 0. -1.
       -3    1    3    3    0  502  0.13632981441E+03 -0.52093400695E+03 -0.23747904357E+03  0.58851878834E+03  0.10100000352E+00 0.  1.
</event>
<event>
 5   0  0.7946038E-04  0.1099549E+04  0.7818609E-02  0.9205632E-01
        1   -1    0    0  501    0  0.00000000000E+00  0.00000000000E+00  0.65996508934E+03  0.65996508936E+03  0.50400001928E-02 0. -1.
       -1   -1    0    0    0  501  0.00000000000E+00  0.00000000000E+00 -0.45798145978E+03  0.45798145980E+03  0.50400001928E-02 0.  1.
    10030    2    1    2    0    0  0.00000000000E+00  0.00000000000E+00  0.20198362957E+03  0.11179465492E+04  0.10995485893E+04 0.  0.
        4    1    3    3  502    0 -0.11043679269E+02  0.50143589967E+03 -0.12792030043E+03  0.51761485730E+03  0.12699999809E+01 0.  1.
       -4    1    3    3    0  502  0.11043679269E+02 -0.50143589967E+03  0.32990393000E+03  0.60033169187E+03  0.12699999809E+01 0. -1.
</event>
<event>
 5   0  0.8009636E-04  0.1102548E+04  0.7818609E-02  0.9202712E-01
        1   -1    0    0  501    0  0.00000000000E+00  0.00000000000E+00  0.60434344892E+03  0.60434344894E+03  0.50400001928E-02 0.  1.
       -1   -1    0    0    0  501  0.00000000000E+00  0.00000000000E+00 -0.50286462795E+03  0.50286462797E+03  0.50400001928E-02 0. -1.
    10030    2    1    2    0    0  0.00000000000E+00  0.00000000000E+00  0.10147882098E+03  0.11072080769E+04  0.11025478559E+04 0.  0.
        1    1    3    3  502    0  0.20185626113E+03  0.27442493514E+03  0.48598564681E+03  0.59349561423E+03  0.50400001928E-02 0.  1.
       -1    1    3    3    0  502 -0.20185626113E+03 -0.27442493514E+03 -0.38450682583E+03  0.51371246269E+03  0.50400001928E-02 0. -1.
</event>
<event>
 5   0  0.1402775E-03  0.1110567E+04  0.7818609E-02  0.9194954E-01
       -2   -1    0    0    0  501  0.00000000000E+00  0.00000000000E+00  0.12537447919E+03  0.12537447922E+03  0.25500000920E-02 0.  1.
        2   -1    0    0  501    0  0.00000000000E+00  0.00000000000E+00 -0.24593491610E+04  0.24593491610E+04  0.25500000920E-02 0. -1.
    10030    2    1    2    0    0  0.00000000000E+00  0.00000000000E+00 -0.23339746818E+04  0.25847236402E+04  0.11105667386E+04 0.  0.
        5    1    3    3  502    0  0.46129598722E+03  0.13810074703E+03 -0.52346578303E+03  0.71126951302E+03  0.46999998093E+01 0. -1.
       -5    1    3    3    0  502 -0.46129598722E+03 -0.13810074703E+03 -0.18105088988E+04  0.18734541272E+04  0.46999998093E+01 0.  1.
</event>
<event>
 5   0  0.8305271E-04  0.1107051E+04  0.7818609E-02  0.9198346E-01
       -1   -1    0    0    0  501  0.00000000000E+00  0.00000000000E+00  0.23829135020E+03  0.23829135025E+03  0.50400001928E-02 0.  1.
        1   -1    0    0  501    0  0.00000000000E+00  0.00000000000E+00 -0.12857812958E+04  0.12857812958E+04  0.50400001928E-02 0. -1.
    10030    2    1    2    0    0  0.00000000000E+00  0.00000000000E+00 -0.10474899456E+04  0.15240726461E+04  0.11070511480E+04 0.  0.
        5    1    3    3  502    0 -0.37309150088E+03 -0.37511028557E+03 -0.29978962775E+03  0.60811257615E+03  0.46999998093E+01 0.  1.
       -5    1    3    3    0  502  0.37309150088E+03  0.37511028557E+03 -0.74770031785E+03  0.91596006992E+03  0.46999998093E+01 0. -1.
</event>
<event>
 5   0  0.1429680E-03  0.1102493E+04  0.7818609E-02  0.9202766E-01
       -2   -1    0    0    0  501  0.00000000000E+00  0.00000000000E+00  0.59274991408E+03  0.59274991408E+03  0.25500000920E-02 0.  1.
        2   -1    0    0  501    0  0.00000000000E+00  0.00000000000E+00 -0.51264873980E+03  0.51264873980E+03  0.25500000920E-02 0. -1.
    10030    2    1    2    0    0  0.00000000000E+00  0.00000000000E+00  0.80101174282E+02  0.11053986539E+04  0.11024926240E+04 0.  0.
        3    1    3    3  502    0 -0.23019114657E+03  0.49511722418E+01 -0.46212888387E+03  0.51630959082E+03  0.10100000352E+00 0. -1.
       -3    1    3    3    0  502  0.23019114657E+03 -0.49511722418E+01  0.54223005815E+03  0.58908906307E+03  0.10100000352E+00 0.  1.
</event>
<event>
 5   0  0.8341767E-04  0.1098794E+04  0.7818609E-02  0.9206368E-01
        1   -1    0    0  501    0  0.00000000000E+00  0.00000000000E+00  0.15906258452E+04  0.15906258452E+04  0.50400001928E-02 0. -1.
       -1   -1    0    0    0  501  0.00000000000E+00  0.00000000000E+00 -0.18975993373E+03  0.18975993380E+03  0.50400001928E-02 0.  1.
    10030    2    1    2    0    0  0.00000000000E+00  0.00000000000E+00  0.14008659114E+04  0.17803857790E+04  0.10987939844E+04 0.  0.
        2    1    3    3  502    0 -0.61514174477E+01  0.58970319311E+02  0.15854268576E+04  0.15865351113E+04  0.25500000920E-02 0. -1.
       -2    1    3    3    0  502  0.61514174477E+01 -0.58970319311E+02 -0.18456094619E+03  0.19385066768E+03  0.25500000920E-02 0.  1.
</event>
<event>
 5   0  0.7946038E-04  0.1097842E+04  0.7818609E-02  0.9207298E-01
        1   -1    0    0  501    0  0.00000000000E+00  0.00000000000E+00  0.16635962420E+04  0.16635962420E+04  0.50400001928E-02 0. -1.
       -1   -1    0    0    0  501  0.00000000000E+00  0.00000000000E+00 -0.18112207565E+03  0.18112207572E+03  0.50400001928E-02 0.  1.
    10030    2    1    2    0    0  0.00000000000E+00  0.00000000000E+00  0.14824741663E+04  0.18447183177E+04  0.10978415267E+04 0.  0.
        4    1    3    3  502    0  0.26071485822E+03 -0.40244345849E+03  0.11901653008E+04  0.12831321174E+04  0.12699999809E+01 0.  1.
       -4    1    3    3    0  502 -0.26071485822E+03  0.40244345849E+03  0.29230886548E+03  0.56158620026E+03  0.12699999809E+01 0. -1.
</event>
<event>
 5   0  0.8009636E-04  0.1099007E+04  0.7818609E-02  0.9206160E-01
       -1   -1    0    0    0  501  0.00000000000E+00  0.00000000000E+00  0.44530424043E+03  0.44530424046E+03  0.50400001928E-02 0.  1.
        1   -1    0    0  501    0  0.00000000000E+00  0.00000000000E+00 -0.67808527431E+03  0.67808527432E+03  0.50400001928E-02 0. -1.
    10030    2    1    2    0    0  0.00000000000E+00  0.00000000000E+00 -0.23278103387E+03  0.11233895148E+04  0.10990072758E+04 0.  0.
        1    1    3    3  502    0  0.80713975526E+02 -0.23289981968E+03 -0.61840460844E+03  0.66571865801E+03  0.50400001928E-02 0. -1.
       -1    1    3    3    0  502 -0.80713975526E+02  0.23289981968E+03  0.38562357457E+03  0.45767085678E+03  0.50400001928E-02 0.  1.
</event>
<event>
 5   0  0.7946038E-04  0.1096109E+04  0.7818609E-02  0.9208993E-01
       -1   -1    0    0    0  501  0.00000000000E+00  0.00000000000E+00  0.27822283554E+03  0.27822283559E+03  0.50400001928E-02 0.  1.
        1   -1    0    0  501    0  0.00000000000E+00  0.00000000000E+00 -0.10795794320E+04  0.10795794320E+04  0.50400001928E-02 0. -1.
    10030    2    1    2    0    0  0.00000000000E+00  0.00000000000E+00 -0.80135659647E+03  0.13578022676E+04  0.10961088464E+04 0.  0.
        4    1    3    3  502    0 -0.26634000182E+03 -0.45384847245E+03 -0.21099773352E+03  0.56695422122E+03  0.12699999809E+01 0.  1.
       -4    1    3    3    0  502  0.26634000182E+03  0.45384847245E+03 -0.59035886295E+03  0.79084804639E+03  0.12699999809E+01 0. -1.
</event>
<event>
 5   0  0.1396936E-03  0.1105234E+04  0.7818609E-02  0.9200106E-01
       -2   -1    0    0    0  501  0.00000000000E+00  0.00000000000E+00  0.22968821498E+03  0.22968821500E+03  0.25500000920E-02 0.  1.
        2   -1    0    0  501    0  0.00000000000E+00  0.00000000000E+00 -0.13295647836E+04  0.13295647836E+04  0.25500000920E-02 0. -1.
    10030    2    1    2    0    0  0.00000000000E+00  0.00000000000E+00 -0.10998765686E+04  0.15592529986E+04  0.11052336619E+04 0.  0.
        2    1    3    3  502    0  0.43297967126E+03  0.16105903389E+03 -0.97779161018E+03  0.10814286112E+04  0.25500000920E-02 0. -1.
       -2    1    3    3    0  502 -0.43297967126E+03 -0.16105903389E+03 -0.12208495842E+03  0.47782438741E+03  0.25500000920E-02 0.  1.
</event>
<event>
 5   0  0.1425432E-03  0.1097336E+04  0.7818609E-02  0.9207792E-01
        2   -1    0    0  501    0  0.00000000000E+00  0.00000000000E+00  0.60135759919E+03  0.60135759919E+03  0.25500000920E-02 0.  1.
       -2   -1    0    0    0  501  0.00000000000E+00  0.00000000000E+00 -0.50059473485E+03  0.50059473485E+03  0.25500000920E-02 0. -1.
    10030    2    1    2    0    0  0.00000000000E+00  0.00000000000E+00  0.10076286434E+03  0.11019523340E+04  0.10973357698E+04 0.  0.
        1    1    3    3  502    0  0.16104937531E+03  0.47930280203E+03 -0.16351318919E+03  0.53141757628E+03  0.50400001928E-02 0.  1.
       -1    1    3    3    0  502 -0.16104937531E+03 -0.47930280203E+03  0.26427605353E+03  0.57053475776E+03  0.50400001928E-02 0. -1.
</event>
<event>
 5   0  0.1429680E-03  0.1097522E+04  0.7818609E-02  0.9207611E-01
        2   -1    0    0  501    0  0.00000000000E+00  0.00000000000E+00  0.10963932403E+04  0.10963932403E+04  0.25500000920E-02 0. -1.
       -2   -1    0    0    0  501  0.00000000000E+00  0.00000000000E+00 -0.27466290604E+03  0.27466290605E+03  0.25500000920E-02 0.  1.
    10030    2    1    2    0    0  0.00000000000E+00  0.00000000000E+00  0.82173033424E+03  0.13710561463E+04  0.10975218514E+04 0.  0.
        3    1    3    3  502    0 -0.47161413232E+02 -0.49173688213E+03  0.70940001861E+03  0.86445228715E+03  0.10100000352E+00 0. -1.
       -3    1    3    3    0  502  0.47161413232E+02  0.49173688213E+03  0.11233031562E+03  0.50660385919E+03  0.10100000352E+00 0.  1.
</event>
<event>
 5   0  0.1425432E-03  0.1100182E+04  0.7818609E-02  0.9205015E-01
        2   -1    0    0  501    0  0.00000000000E+00  0.00000000000E+00  0.88166759944E+03  0.88166759944E+03  0.25500000920E-02 0. -1.
       -2   -1    0    0    0  501  0.00000000000E+00  0.00000000000E+00 -0.34321323031E+03  0.34321323032E+03  0.25500000920E-02 0.  1.
    10030    2    1    2    0    0  0.00000000000E+00  0.00000000000E+00  0.53845436913E+03  0.12248808298E+04  0.11001817757E+04 0.  0.
        1    1    3    3  502    0  0.12218339791E+03 -0.41998902206E+03  0.64062451339E+03  0.77570569713E+03  0.50400001928E-02 0. -1.
       -1    1    3    3    0  502 -0.12218339791E+03  0.41998902206E+03 -0.10217014426E+03  0.44917513264E+03  0.50400001928E-02 0.  1.
</event>
<event>
 5   0  0.1372794E-03  0.1105960E+04  0.7818609E-02  0.9199402E-01
       -2   -1    0    0    0  501  0.00000000000E+00  0.00000000000E+00  0.85228742289E+03  0.85228742290E+03  0.25500000920E-02 0.  1.
        2   -1    0    0  501    0  0.00000000000E+00  0.00000000000E+00 -0.35878385246E+03  0.35878385247E+03  0.25500000920E-02 0. -1.
    10030    2    1    2    0    0  0.00000000000E+00  0.00000000000E+00  0.49350357043E+03  0.12110712754E+04  0.11059601530E+04 0.  0.
        4    1    3    3  502    0  0.33470874169E+03 -0.43953092646E+03  0.27284904100E+03  0.61617009758E+03  0.12699999809E+01 0.  1.
       -4    1    3    3    0  502 -0.33470874169E+03  0.43953092646E+03  0.22065452943E+03  0.59490117779E+03  0.12699999809E+01 0. -1.
</event>
<event>
 5   0  0.8150924E-04  0.1098571E+04  0.7818609E-02  0.9206586E-01
        1   -1    0    0  501    0  0.00000000000E+00  0.00000000000E+00  0.60887443975E+03  0.60887443977E+03  0.50400001928E-02 0. -1.
       -1   -1    0    0    0  501  0.00000000000E+00  0.00000000000E+00 -0.49552824982E+03  0.49552824984E+03  0.50400001928E-02 0.  1.
    10030    2    1    2    0    0  0.00000000000E+00  0.00000000000E+00  0.11334618993E+03  0.11044026896E+04  0.10985708635E+04 0.  0.
        3    1    3    3  502    0  0.48032251737E+03  0.43570972424E+02 -0.20760324184E+03  0.52507834325E+03  0.10100000352E+00 0.  1.
       -3    1    3    3    0  502 -0.48032251737E+03 -0.43570972424E+02  0.32094943177E+03  0.57932434636E+03  0.10100000352E+00 0. -1.
</event>
<event>
 5   0  0.8009636E-04  0.1112106E+04  0.7818609E-02  0.9193473E-01
        1   -1    0    0  501    0  0.00000000000E+00  0.00000000000E+00  0.18587367821E+04  0.18587367821E+04  0.50400001928E-02 0.  1.
       -1   -1    0    0    0  501  0.00000000000E+00  0.00000000000E+00 -0.16634669045E+03  0.16634669053E+03  0.50400001928E-02 0. -1.
    10030    2    1    2    0    0  0.00000000000E+00  0.00000000000E+00  0.16923900916E+04  0.20250834726E+04  0.11121055925E+04 0.  0.
        1    1    3    3  502    0 -0.32939762060E+03  0.26752255811E+03  0.15005293940E+04  0.15593779446E+04  0.50400001928E-02 0.  1.
       -1    1    3    3    0  502  0.32939762060E+03 -0.26752255811E+03  0.19186069758E+03  0.46570552805E+03  0.50400001928E-02 0. -1.
</event>
<event>
 5   0  0.8305271E-04  0.1100459E+04  0.7818609E-02  0.9204744E-01
       -1   -1    0    0    0  501  0.00000000000E+00  0.00000000000E+00  0.45632575999E+03  0.45632576002E+03  0.50400001928E-02 0.  1.
        1   -1    0    0  501    0  0.00000000000E+00  0.00000000000E+00 -0.66345733392E+03  0.66345733394E+03  0.50400001928E-02 0. -1.
    10030    2    1    2    0    0  0.00000000000E+00  0.00000000000E+00 -0.20713157393E+03  0.11197830940E+04  0.11004593080E+04 0.  0.
        5    1    3    3  502    0 -0.36902402682E+03 -0.30392699931E+03  0.17357726978E+03  0.50862708526E+03  0.46999998093E+01 0.  1.
       -5    1    3    3    0  502  0.36902402682E+03  0.30392699931E+03 -0.38070884371E+03  0.61115600869E+03  0.46999998093E+01 0. -1.
</event>
<event>
 5   0  0.8009636E-04  0.1100022E+04  0.7818609E-02  0.9205170E-01
        1   -1    0    0  501    0  0.00000000000E+00  0.00000000000E+00  0.66738158167E+03  0.66738158169E+03  0.50400001928E-02 0. -1.
       -1   -1    0    0    0  501  0.00000000000E+00  0.00000000000E+00 -0.45328214466E+03  0.45328214468E+03  0.50400001928E-02 0.  1.
    10030    2    1    2    0    0  0.00000000000E+00  0.00000000000E+00  0.21409943701E+03  0.11206637264E+04  0.11000220992E+04 0.  0.
        1    1    3    3  502    0 -0.12603407755E+03 -0.43963861493E+03 -0.20420825919E+03  0.50086696197E+03  0.50400001928E-02 0.  1.
       -1    1    3    3    0  502  0.12603407755E+03  0.43963861493E+03  0.41830769620E+03  0.61979676441E+03  0.50400001928E-02 0. -1.
</event>
<event>
 5   0  0.7946038E-04  0.1116716E+04  0.7818609E-02  0.9189050E-01
        1   -1    0    0  501    0  0.00000000000E+00  0.00000000000E+00  0.53197144172E+03  0.53197144174E+03  0.50400001928E-02 0. -1.
       -1   -1    0    0    0  501  0.00000000000E+00  0.00000000000E+00 -0.58605371617E+03  0.58605371619E+03  0.50400001928E-02 0.  1.
    10030    2    1    2    0    0  0.00000000000E+00  0.00000000000E+00 -0.54082274447E+02  0.11180251579E+04  0.11167163299E+04 0.  0.
        4    1    3    3  502    0 -0.17719815752E+03 -0.52461417932E+03  0.44757650154E+02  0.55553945343E+03  0.12699999809E+01 0.  1.
       -4    1    3    3    0  502  0.17719815752E+03  0.52461417932E+03 -0.98839924601E+02  0.56248570450E+03  0.12699999809E+01 0. -1.
</event>
<event>
 5   0  0.8150924E-04  0.1096985E+04  0.7818609E-02  0.9208135E-01
       -1   -1    0    0    0  501  0.00000000000E+00  0.00000000000E+00  0.29561024941E+03  0.29561024945E+03  0.50400001928E-02 0. -1.
        1   -1    0    0  501    0  0.00000000000E+00  0.00000000000E+00 -0.10177051993E+04  0.10177051993E+04  0.50400001928E-02 0.  1.
    10030    2    1    2    0    0  0.00000000000E+00  0.00000000000E+00 -0.72209494989E+03  0.13133154488E+04  0.10969851190E+04 0.  0.
        3    1    3    3  502    0  0.76716963792E+02 -0.17812248625E+03  0.25319070039E+03  0.31893361943E+03  0.10100000352E+00 0. -1.
       -3    1    3    3    0  502 -0.76716963792E+02  0.17812248625E+03 -0.97528565028E+03  0.99438182932E+03  0.10100000352E+00 0.  1.
</event>
<event>
 5   0  0.1372794E-03  0.1056550E+04  0.7818609E-02  0.9248608E-01
       -2   -1    0    0    0  501  0.00000000000E+00  0.00000000000E+00  0.21309028239E+03  0.21309028241E+03  0.25500000920E-02 0. -1.
        2   -1    0    0  501    0  0.00000000000E+00  0.00000000000E+00 -0.13096529606E+04  0.13096529606E+04  0.25500000920E-02 0.  1.
    10030    2    1    2    0    0  0.00000000000E+00  0.00000000000E+00 -0.10965626782E+04  0.15227432430E+04  0.10565497039E+04 0.  0.
        4    1    3    3  502    0 -0.24914554460E+03 -0.25106243183E+03 -0.11138044709E+04  0.11686179270E+04  0.12699999809E+01 0.  1.
       -4    1    3    3    0  502  0.24914554460E+03  0.25106243183E+03  0.17241792740E+02  0.35412531594E+03  0.12699999809E+01 0. -1.
</event>
<event>
 5   0  0.8341767E-04  0.1099903E+04  0.7818609E-02  0.9205287E-01
       -1   -1    0    0    0  501  0.00000000000E+00  0.00000000000E+00  0.12377310965E+04  0.12377310965E+04  0.50400001928E-02 0.  1.
        1   -1    0    0  501    0  0.00000000000E+00  0.00000000000E+00 -0.24435555439E+03  0.24435555445E+03  0.50400001928E-02 0. -1.
    10030    2    1    2    0    0  0.00000000000E+00  0.00000000000E+00  0.99337554206E+03  0.14820866509E+04  0.10999026654E+04 0.  0.
        2    1    3    3  502    0 -0.11480565448E+03 -0.21470963026E+03 -0.16777504353E+03  0.29568400170E+03  0.25500000920E-02 0. -1.
       -2    1    3    3    0  502  0.11480565448E+03  0.21470963026E+03  0.11611505856E+04  0.11864026492E+04  0.25500000920E-02 0.  1.
</event>
<event>
 5   0  0.8150924E-04  0.1117501E+04  0.7818609E-02  0.9188300E-01
       -1   -1    0    0    0  501  0.00000000000E+00  0.00000000000E+00  0.61845561836E+03  0.61845561838E+03  0.50400001928E-02 0. -1.
        1   -1    0    0  501    0  0.00000000000E+00  0.00000000000E+00 -0.50480937926E+03  0.50480937928E+03  0.50400001928E-02 0.  1.
    10030    2    1    2    0    0  0.00000000000E+00  0.00000000000E+00  0.11364623910E+03  0.11232649977E+04  0.11175011353E+04 0.  0.
        3    1    3    3  502    0  0.11888633746E+03 -0.46213318624E+03 -0.23536701346E+03  0.53207018737E+03  0.10100000352E+00 0.  1.
       -3    1    3    3    0  502 -0.11888633746E+03  0.46213318624E+03  0.34901325256E+03  0.59119481029E+03  0.10100000352E+00 0. -1.
</event>
<event>
 5   0  0.1402775E-03  0.1132956E+04  0.7818609E-02  0.9173653E-01
        2   -1    0    0  501    0  0.00000000000E+00  0.00000000000E+00  0.14304608777E+04  0.14304608777E+04  0.25500000920E-02 0.  1.
       -2   -1    0    0    0  501  0.00000000000E+00  0.00000000000E+00 -0.22433132330E+03  0.22433132331E+03  0.25500000920E-02 0. -1.
    10030    2    1    2    0    0  0.00000000000E+00  0.00000000000E+00  0.12061295544E+04  0.16547922010E+04  0.11329557478E+04 0.  0.
        5    1    3    3  502    0 -0.44398029404E+03 -0.26992801956E+03  0.93257585243E+03  0.10675670695E+04  0.46999998093E+01 0.  1.
       -5    1    3    3    0  502  0.44398029404E+03  0.26992801956E+03  0.27355370192E+03  0.58722513151E+03  0.46999998093E+01 0. -1.
</event>
<event>
 5   0  0.8341767E-04  0.1089443E+04  0.7818609E-02  0.9215543E-01
       -1   -1    0    0    0  501  0.00000000000E+00  0.00000000000E+00  0.23981012560E+03  0.23981012565E+03  0.50400001928E-02 0.  1.
        1   -1    0    0  501    0  0.00000000000E+00  0.00000000000E+00 -0.12373190119E+04  0.12373190119E+04  0.50400001928E-02 0. -1.
    10030    2    1    2    0    0  0.00000000000E+00  0.00000000000E+00 -0.99750888631E+03  0.14771291376E+04  0.10894432114E+04 0.  0.
        2    1    3    3  502    0  0.51708195258E+03 -0.15875630925E+03 -0.58603958342E+03  0.79750843554E+03  0.25500000920E-02 0.  1.
       -2    1    3    3    0  502 -0.51708195258E+03  0.15875630925E+03 -0.41146930289E+03  0.67962070203E+03  0.25500000920E-02 0. -1.
</event>
<event>
 5   0  0.8150924E-04  0.1097358E+04  0.7818609E-02  0.9207771E-01
       -1   -1    0    0    0  501  0.00000000000E+00  0.00000000000E+00  0.72576994223E+03  0.72576994224E+03  0.50400001928E-02 0.  1.
        1   -1    0    0  501    0  0.00000000000E+00  0.00000000000E+00 -0.41479881362E+03  0.41479881365E+03  0.50400001928E-02 0. -1.
    10030    2    1    2    0    0  0.00000000000E+00  0.00000000000E+00  0.31097112861E+03  0.11405687559E+04  0.10973577557E+04 0.  0.
        3    1    3    3  502    0  0.19836847879E+03  0.41613267864E+03 -0.15377423656E+03  0.48596603342E+03  0.10100000352E+00 0. -1.
       -3    1    3    3    0  502 -0.19836847879E+03 -0.41613267864E+03  0.46474536517E+03  0.65460272247E+03  0.10100000352E+00 0.  1.
</event>
<event>
 5   0  0.8305271E-04  0.1102132E+04  0.7818609E-02  0.9203116E-01
        1   -1    0    0  501    0  0.00000000000E+00  0.00000000000E+00  0.62424894371E+03  0.62424894373E+03  0.50400001928E-02 0.  1.
       -1   -1    0    0    0  501  0.00000000000E+00  0.00000000000E+00 -0.48646266584E+03  0.48646266587E+03  0.50400001928E-02 0. -1.
    10030    2    1    2    0    0  0.00000000000E+00  0.00000000000E+00  0.13778627787E+03  0.11107116096E+04  0.11021321252E+04 0.  0.
        5    1    3    3  502    0 -0.97967432352E+01 -0.35271511943E+03 -0.35766022342E+03  0.50244089908E+03  0.46999998093E+01 0. -1.
       -5    1    3    3    0  502  0.97967432352E+01  0.35271511943E+03  0.49544650128E+03  0.60827071052E+03  0.46999998093E+01 0.  1.
</event>
<event>
 5   0  0.1396936E-03  0.1100965E+04  0.7818609E-02  0.9204252E-01
        2   -1    0    0  501    0  0.00000000000E+00  0.00000000000E+00  0.44625715646E+03  0.44625715647E+03  0.25500000920E-02 0.  1.
       -2   -1    0    0    0  501  0.00000000000E+00  0.00000000000E+00 -0.67905002138E+03  0.67905002139E+03  0.25500000920E-02 0. -1.
    10030    2    1    2    0    0  0.00000000000E+00  0.00000000000E+00 -0.23279286492E+03  0.11253071779E+04  0.11009649071E+04 0.  0.
        2    1    3    3  502    0 -0.16094026658E+03 -0.24508460872E+02 -0.65388293162E+03  0.67384369280E+03  0.25500000920E-02 0. -1.
       -2    1    3    3    0  502  0.16094026658E+03  0.24508460872E+02  0.42109006670E+03  0.45146348506E+03  0.25500000920E-02 0.  1.
</event>
<event>
 5   0  0.1396936E-03  0.1117552E+04  0.7818609E-02  0.9188252E-01
       -2   -1    0    0    0  501  0.00000000000E+00  0.00000000000E+00  0.31240045913E+03  0.31240045914E+03  0.25500000920E-02 0. -1.
        2   -1    0    0  501    0  0.00000000000E+00  0.00000000000E+00 -0.99945550789E+03  0.99945550789E+03  0.25500000920E-02 0.  1.
    10030    2    1    2    0    0  0.00000000000E+00  0.00000000000E+00 -0.68705504876E+03  0.13118559670E+04  0.11175515372E+04 0.  0.
        2    1    3    3  502    0 -0.48095656913E+03 -0.34551014957E+02 -0.12095046539E+02  0.48234767977E+03  0.25500000920E-02 0. -1.
       -2    1    3    3    0  502  0.48095656913E+03  0.34551014957E+02 -0.67496000222E+03  0.82950828726E+03  0.25500000920E-02 0.  1.
</event>
<event>
 5   0  0.1402775E-03  0.1097125E+04  0.7818609E-02  0.9207999E-01
        2   -1    0    0  501    0  0.00000000000E+00  0.00000000000E+00  0.86064988931E+03  0.86064988932E+03  0.25500000920E-02 0.  1.
       -2   -1    0    0    0  501  0.00000000000E+00  0.00000000000E+00 -0.34964340229E+03  0.34964340230E+03  0.25500000920E-02 0. -1.
    10030    2    1    2    0    0  0.00000000000E+00  0.00000000000E+00  0.51100648702E+03  0.12102932916E+04  0.10971245244E+04 0.  0.
        5    1    3    3  502    0 -0.28070891592E+03  0.35790502976E+03 -0.82725168645E+02  0.46234083675E+03  0.46999998093E+01 0. -1.
       -5    1    3    3    0  502  0.28070891592E+03 -0.35790502976E+03  0.59373165566E+03  0.74795245487E+03  0.46999998093E+01 0.  1.
</event>
<event>
 5   0  0.1372794E-03  0.1097062E+04  0.7818609E-02  0.9208060E-01
       -2   -1    0    0    0  501  0.00000000000E+00  0.00000000000E+00  0.38783619655E+03  0.38783619656E+03  0.25500000920E-02 0.  1.
        2   -1    0    0  501    0  0.00000000000E+00  0.00000000000E+00 -0.77580724254E+03  0.77580724254E+03  0.25500000920E-02 0. -1.
    10030    2    1    2    0    0  0.00000000000E+00  0.00000000000E+00 -0.38797104599E+03  0.11636434391E+04  0.10970617671E+04 0.  0.
        4    1    3    3  502    0  0.17841671847E+03 -0.23933997963E+03 -0.68209741430E+03  0.74456339339E+03  0.12699999809E+01 0. -1.
       -4    1    3    3    0  502 -0.17841671847E+03  0.23933997963E+03  0.29412636832E+03  0.41908004571E+03  0.12699999809E+01 0.  1.
</event>
<event>
 5   0  0.8009636E-04  0.1114597E+04  0.7818609E-02  0.9191080E-01
       -1   -1    0    0    0  501  0.00000000000E+00  0.00000000000E+00  0.53709996734E+03  0.53709996737E+03  0.50400001928E-02 0.  1.
        1   -1    0    0  501    0  0.00000000000E+00  0.00000000000E+00 -0.57825670879E+03  0.57825670881E+03  0.50400001928E-02 0. -1.
    10030    2    1    2    0    0  0.00000000000E+00  0.00000000000E+00 -0.41156741448E+02  0.11153566762E+04  0.11145970742E+04 0.  0.
        1    1    3    3  502    0  0.23357646217E+03 -0.13162230460E+03  0.46832317804E+03  0.53963783583E+03  0.50400001928E-02 0.  1.
       -1    1    3    3    0  502 -0.23357646217E+03  0.13162230460E+03 -0.50947991949E+03  0.57571884035E+03  0.50400001928E-02 0. -1.
</event>
<event>
 5   0  0.1372794E-03  0.1098376E+04  0.7818609E-02  0.9206776E-01
        2   -1    0    0  501    0  0.00000000000E+00  0.00000000000E+00  0.12673967903E+04  0.12673967904E+04  0.25500000920E-02 0. -1.
       -2   -1    0    0    0  501  0.00000000000E+00  0.00000000000E+00 -0.23797411303E+03  0.23797411304E+03  0.25500000920E-02 0.  1.
    10030    2    1    2    0    0  0.00000000000E+00  0.00000000000E+00  0.10294226773E+04  0.15053709034E+04  0.10983763054E+04 0.  0.
        4    1    3    3  502    0 -0.28398907485E+03 -0.47001315972E+03  0.50563578271E+03  0.74647928478E+03  0.12699999809E+01 0.  1.
       -4    1    3    3    0  502  0.28398907485E+03  0.47001315972E+03  0.52378689461E+03  0.75889161862E+03  0.12699999809E+01 0. -1.
</event>
<event>
 5   0  0.7946038E-04  0.1099683E+04  0.7818609E-02  0.9205501E-01
       -1   -1    0    0    0  501  0.00000000000E+00  0.00000000000E+00  0.16684739489E+03  0.16684739497E+03  0.50400001928E-02 0. -1.
        1   -1    0    0  501    0  0.00000000000E+00  0.00000000000E+00 -0.18119901548E+04  0.18119901548E+04  0.50400001928E-02 0.  1.
    10030    2    1    2    0    0  0.00000000000E+00  0.00000000000E+00 -0.16451427599E+04  0.19788375497E+04  0.10996832944E+04 0.  0.
        4    1    3    3  502    0 -0.29888875732E+03  0.17967944257E+03 -0.15875118515E+04  0.16253660150E+04  0.12699999809E+01 0.  1.
       -4    1    3    3    0  502  0.29888875732E+03 -0.17967944257E+03 -0.57630908380E+02  0.35347153469E+03  0.12699999809E+01 0. -1.
</event>
<event>
 5   0  0.1425432E-03  0.1101696E+04  0.7818609E-02  0.9203540E-01
       -2   -1    0    0    0  501  0.00000000000E+00  0.00000000000E+00  0.32105648540E+03  0.32105648541E+03  0.25500000920E-02 0. -1.
        2   -1    0    0  501    0  0.00000000000E+00  0.00000000000E+00 -0.94510990322E+03  0.94510990322E+03  0.25500000920E-02 0.  1.
    10030    2    1    2    0    0  0.00000000000E+00  0.00000000000E+00 -0.62405341782E+03  0.12661663886E+04  0.11016962628E+04 0.  0.
        1    1    3    3  502    0 -0.45427074604E+03  0.12526983555E+03 -0.63988462167E+03  0.79467400328E+03  0.50400001928E-02 0.  1.
       -1    1    3    3    0  502  0.45427074604E+03 -0.12526983555E+03  0.15831203855E+02  0.47149238535E+03  0.50400001928E-02 0. -1.
</event>
<event>
 5   0  0.8150924E-04  0.1103155E+04  0.7818609E-02  0.9202122E-01
        1   -1    0    0  501    0  0.00000000000E+00  0.00000000000E+00  0.18578856179E+03  0.18578856186E+03  0.50400001928E-02 0.  1.
       -1   -1    0    0    0  501  0.00000000000E+00  0.00000000000E+00 -0.16375480432E+04  0.16375480433E+04  0.50400001928E-02 0. -1.
    10030    2    1    2    0    0  0.00000000000E+00  0.00000000000E+00 -0.14517594815E+04  0.18233366051E+04  0.11031549227E+04 0.  0.
        3    1    3    3  502    0 -0.22109862324E+03 -0.21410628168E+03 -0.14824240422E+04  0.15140367077E+04  0.10100000352E+00 0. -1.
       -3    1    3    3    0  502  0.22109862324E+03  0.21410628168E+03  0.30664560781E+02  0.30929989742E+03  0.10100000352E+00 0.  1.
</event>
<event>
 5   0  0.1429680E-03  0.1097634E+04  0.7818609E-02  0.9207501E-01
       -2   -1    0    0    0  501  0.00000000000E+00  0.00000000000E+00  0.37985462959E+03  0.37985462960E+03  0.25500000920E-02 0.  1.
        2   -1    0    0  501    0  0.00000000000E+00  0.00000000000E+00 -0.79293501400E+03  0.79293501400E+03  0.25500000920E-02 0. -1.
    10030    2    1    2    0    0  0.00000000000E+00  0.00000000000E+00 -0.41308038440E+03  0.11727896436E+04  0.10976338844E+04 0.  0.
        3    1    3    3  502    0  0.42681896295E+02 -0.74925548082E+02  0.37257136406E+03  0.38241994397E+03  0.10100000352E+00 0.  1.
       -3    1    3    3    0  502 -0.42681896295E+02  0.74925548082E+02 -0.78565174847E+03  0.79036969963E+03  0.10100000352E+00 0. -1.
</event>
<event>
 5   0  0.8305271E-04  0.1094305E+04  0.7818609E-02  0.9210760E-01
       -1   -1    0    0    0  501  0.00000000000E+00  0.00000000000E+00  0.19395150164E+03  0.19395150171E+03  0.50400001928E-02 0. -1.
        1   -1    0    0  501    0  0.00000000000E+00  0.00000000000E+00 -0.15435604184E+04  0.15435604184E+04  0.50400001928E-02 0.  1.
    10030    2    1    2    0    0  0.00000000000E+00  0.00000000000E+00 -0.13496089167E+04  0.17375119201E+04  0.10943050052E+04 0.  0.
        5    1    3    3  502    0 -0.68089961598E+02 -0.52474083967E+03 -0.45385474560E+03  0.69713371156E+03  0.46999998093E+01 0. -1.
       -5    1    3    3    0  502  0.68089961598E+02  0.52474083967E+03 -0.89575417110E+03  0.10403782085E+04  0.46999998093E+01 0.  1.
</event>
<event>
 5   0  0.1425432E-03  0.1113894E+04  0.7818609E-02  0.9191755E-01
        2   -1    0    0  501    0  0.00000000000E+00  0.00000000000E+00  0.27962177377E+03  0.27962177378E+03  0.25500000920E-02 0.  1.
       -2   -1    0    0    0  501  0.00000000000E+00  0.00000000000E+00 -0.11093196849E+04  0.11093196849E+04  0.25500000920E-02 0. -1.
    10030    2    1    2    0    0  0.00000000000E+00  0.00000000000E+00 -0.82969791110E+03  0.13889414587E+04  0.11138939590E+04 0.  0.
        1    1    3    3  502    0  0.48485414678E+03  0.15558960247E+03 -0.13353478910E+03  0.52642493099E+03  0.50400001928E-02 0.  1.
       -1    1    3    3    0  502 -0.48485414678E+03 -0.15558960247E+03 -0.69616312200E+03  0.86251652766E+03  0.50400001928E-02 0. -1.
</event>
<event>
 5   0  0.1429680E-03  0.1106499E+04  0.7818609E-02  0.9198880E-01
       -2   -1    0    0    0  501  0.00000000000E+00  0.00000000000E+00  0.10414610085E+04  0.10414610085E+04  0.25500000920E-02 0. -1.
        2   -1    0    0  501    0  0.00000000000E+00  0.00000000000E+00 -0.29389974541E+03  0.29389974542E+03  0.25500000920E-02 0.  1.
    10030    2    1    2    0    0  0.00000000000E+00  0.00000000000E+00  0.74756126309E+03  0.13353607539E+04  0.11064992097E+04 0.  0.
        3    1    3    3  502    0  0.28127518279E+03  0.42192841189E+03  0.10678434325E+03  0.51821059365E+03  0.10100000352E+00 0. -1.
       -3    1    3    3    0  502 -0.28127518279E+03 -0.42192841189E+03  0.64077691985E+03  0.81715016026E+03  0.10100000352E+00 0.  1.
</event>
<event>
 5   0  0.8305271E-04  0.1089460E+04  0.7818609E-02  0.9215526E-01
        1   -1    0    0  501    0  0.00000000000E+00  0.00000000000E+00  0.13699306728E+04  0.13699306728E+04  0.50400001928E-02 0.  1.
       -1   -1    0    0    0  501  0.00000000000E+00  0.00000000000E+00 -0.21660278869E+03  0.21660278875E+03  0.50400001928E-02 0. -1.
    10030    2    1    2    0    0  0.00000000000E+00  0.00000000000E+00  0.11533278841E+04  0.15865334615E+04  0.10894600572E+04 0.  0.
        5    1    3    3  502    0 -0.35012609095E+03 -0.41156840696E+03  0.47648998560E+03  0.72044543829E+03  0.46999998093E+01 0. -1.
       -5    1    3    3    0  502  0.35012609095E+03  0.41156840696E+03  0.67683789849E+03  0.86608802324E+03  0.46999998093E+01 0.  1.
</event>
<event>
 5   0  0.7946038E-04  0.1100246E+04  0.7818609E-02  0.9204952E-01
        1   -1    0    0  501    0  0.00000000000E+00  0.00000000000E+00  0.10117620279E+04  0.10117620280E+04  0.50400001928E-02 0.  1.
       -1   -1    0    0    0  501  0.00000000000E+00  0.00000000000E+00 -0.29911733758E+03  0.29911733763E+03  0.50400001928E-02 0. -1.
    10030    2    1    2    0    0  0.00000000000E+00  0.00000000000E+00  0.71264469037E+03  0.13108793656E+04  0.11002464526E+04 0.  0.
        4    1    3    3  502    0 -0.56696611657E+02  0.40355329060E+03  0.79661471803E+03  0.89479963456E+03  0.12699999809E+01 0.  1.
       -4    1    3    3    0  502  0.56696611657E+02 -0.40355329060E+03 -0.83970027666E+02  0.41607973103E+03  0.12699999809E+01 0. -1.
</event>
<event>
 5   0  0.8341767E-04  0.1070885E+04  0.7818609E-02  0.9234044E-01
        1   -1    0    0  501    0  0.00000000000E+00  0.00000000000E+00  0.42046274573E+03  0.42046274576E+03  0.50400001928E-02 0.  1.
       -1   -1    0    0    0  501  0.00000000000E+00  0.00000000000E+00 -0.68186425271E+03  0.68186425272E+03  0.50400001928E-02 0. -1.
    10030    2    1    2    0    0  0.00000000000E+00  0.00000000000E+00 -0.26140150697E+03  0.11023269985E+04  0.10708847108E+04 0.  0.
        2    1    3    3  502    0 -0.79225671613E+02  0.52311819150E+03 -0.21539137656E+03  0.57124670189E+03  0.25500000920E-02 0. -1.
       -2    1    3    3    0  502  0.79225671613E+02 -0.52311819150E+03 -0.46010130418E+02  0.53108029659E+03  0.25500000920E-02 0.  1.
</event>
<event>
 5   0  0.1372794E-03  0.1102687E+04  0.7818609E-02  0.9202577E-01
        2   -1    0    0  501    0  0.00000000000E+00  0.00000000000E+00  0.11230452738E+04  0.11230452738E+04  0.25500000920E-02 0.  1.
       -2   -1    0    0    0  501  0.00000000000E+00  0.00000000000E+00 -0.27067422658E+03  0.27067422659E+03  0.25500000920E-02 0. -1.
    10030    2    1    2    0    0  0.00000000000E+00  0.00000000000E+00  0.85237104725E+03  0.13937195004E+04  0.11026865573E+04 0.  0.
        4    1    3    3  502    0  0.15509477189E+02 -0.52297745361E+03  0.64594902512E+03  0.83126272431E+03  0.12699999809E+01 0. -1.
       -4    1    3    3    0  502 -0.15509477189E+02  0.52297745361E+03  0.20642202212E+03  0.56245677610E+03  0.12699999809E+01 0.  1.
</event>
<event>
 5   0  0.1425432E-03  0.1072956E+04  0.7818609E-02  0.9231959E-01
        2   -1    0    0  501    0  0.00000000000E+00  0.00000000000E+00  0.53831307888E+03  0.53831307889E+03  0.25500000920E-02 0. -1.
       -2   -1    0    0    0  501  0.00000000000E+00  0.00000000000E+00 -0.53464912353E+03  0.53464912353E+03  0.25500000920E-02 0.  1.
    10030    2    1    2    0    0  0.00000000000E+00  0.00000000000E+00  0.36639553562E+01  0.10729622024E+04  0.10729559466E+04 0.  0.
        1    1    3    3  502    0  0.37017669632E+03 -0.23976664713E+03  0.30726752254E+03  0.53752410365E+03  0.50400001928E-02 0.  1.
       -1    1    3    3    0  502 -0.37017669632E+03  0.23976664713E+03 -0.30360356718E+03  0.53543809876E+03  0.50400001928E-02 0. -1.
</event>
<event>
 5   0  0.8009636E-04  0.1100179E+04  0.7818609E-02  0.9205018E-01
        1   -1    0    0  501    0  0.00000000000E+00  0.00000000000E+00  0.82203171198E+03  0.82203171200E+03  0.50400001928E-02 0. -1.
       -1   -1    0    0    0  501  0.00000000000E+00  0.00000000000E+00 -0.36811013059E+03  0.36811013062E+03  0.50400001928E-02 0.  1.
    10030    2    1    2    0    0  0.00000000000E+00  0.00000000000E+00  0.45392158139E+03  0.11901418426E+04  0.11001785326E+04 0.  0.
        1    1    3    3  502    0  0.49980105659E+03 -0.19697089078E+03  0.98965806669E+02  0.54625347495E+03  0.50400001928E-02 0. -1.
       -1    1    3    3    0  502 -0.49980105659E+03  0.19697089078E+03  0.35495577472E+03  0.64388836767E+03  0.50400001928E-02 0.  1.
</event>
<event>
 5   0  0.1402775E-03  0.1100728E+04  0.7818609E-02  0.9204483E-01
        2   -1    0    0  501    0  0.00000000000E+00  0.00000000000E+00  0.17963245984E+04  0.17963245984E+04  0.25500000920E-02 0. -1.
       -2   -1    0    0    0  501  0.00000000000E+00  0.00000000000E+00 -0.16862226054E+03  0.16862226056E+03  0.25500000920E-02 0.  1.
    10030    2    1    2    0    0  0.00000000000E+00  0.00000000000E+00  0.16277023379E+04  0.19649468590E+04  0.11007276038E+04 0.  0.
        5    1    3    3  502    0 -0.14486675478E+03 -0.22257868929E+03 -0.46632886784E+02  0.26967455515E+03  0.46999998093E+01 0.  1.
       -5    1    3    3    0  502  0.14486675478E+03  0.22257868929E+03  0.16743352247E+04  0.16952723038E+04  0.46999998093E+01 0. -1.
</event>
<event>
 5   0  0.7946038E-04  0.1112590E+04  0.7818609E-02  0.9193007E-01
       -1   -1    0    0    0  501  0.00000000000E+00  0.00000000000E+00  0.23845802387E+03  0.23845802393E+03  0.50400001928E-02 0.  1.
        1   -1    0    0  501    0  0.00000000000E+00  0.00000000000E+00 -0.12977714934E+04  0.12977714934E+04  0.50400001928E-02 0. -1.
    10030    2    1    2    0    0  0.00000000000E+00  0.00000000000E+00 -0.10593134695E+04  0.15362295174E+04  0.11125898181E+04 0.  0.
        4    1    3    3  502    0 -0.25445210458E+03  0.10852892171E+03  0.13675280761E+03  0.30858927989E+03  0.12699999809E+01 0.  1.
       -4    1    3    3    0  502  0.25445210458E+03 -0.10852892171E+03 -0.11960662772E+04  0.12276402375E+04  0.12699999809E+01 0. -1.
</event>
<event>
 5   0  0.8150924E-04  0.1100445E+04  0.7818609E-02  0.9204758E-01
       -1   -1    0    0    0  501  0.00000000000E+00  0.00000000000E+00  0.18552602388E+03  0.18552602395E+03  0.50400001928E-02 0. -1.
        1   -1    0    0  501    0  0.00000000000E+00  0.00000000000E+00 -0.16318184807E+04  0.16318184807E+04  0.50400001928E-02 0.  1.
    10030    2    1    2    0    0  0.00000000000E+00  0.00000000000E+00 -0.14462924568E+04  0.18173445047E+04  0.11004449909E+04 0.  0.
        3    1    3    3  502    0  0.27267934185E+03 -0.36559356663E+03 -0.21484926209E+03  0.50415562583E+03  0.10100000352E+00 0. -1.
       -3    1    3    3    0  502 -0.27267934185E+03  0.36559356663E+03 -0.12314431948E+04  0.13131888789E+04  0.10100000352E+00 0.  1.
</event>
<event>
 5   0  0.5409500E-04  0.1094244E+04  0.7818609E-02  0.9210820E-01
        3   -1    0    0  501    0  0.00000000000E+00  0.00000000000E+00  0.17228323944E+03  0.17228326905E+03  0.10100000352E+00 0. -1.
       -3   -1    0    0    0  501  0.00000000000E+00  0.00000000000E+00 -0.17375016005E+04  0.17375016035E+04  0.10100000352E+00 0.  1.
    10030    2    1    2    0    0  0.00000000000E+00  0.00000000000E+00 -0.15652183611E+04  0.19097848725E+04  0.10942439131E+04 0.  0.
        3    1    3    3  502    0 -0.27697783706E+03  0.20205054008E+03 -0.15267733927E+04  0.15647933237E+04  0.10100000352E+00 0.  1.
       -3    1    3    3    0  502  0.27697783706E+03 -0.20205054008E+03 -0.38444968383E+02  0.34499154883E+03  0.10100000352E+00 0. -1.
</event>
<event>
 5   0  0.8341767E-04  0.1100776E+04  0.7818609E-02  0.9204435E-01
       -1   -1    0    0    0  501  0.00000000000E+00  0.00000000000E+00  0.25797621558E+03  0.25797621563E+03  0.50400001928E-02 0.  1.
        1   -1    0    0  501    0  0.00000000000E+00  0.00000000000E+00 -0.11742445375E+04  0.11742445375E+04  0.50400001928E-02 0. -1.
    10030    2    1    2    0    0  0.00000000000E+00  0.00000000000E+00 -0.91626832192E+03  0.14322207531E+04  0.11007763842E+04 0.  0.
        2    1    3    3  502    0 -0.43112611999E+03  0.72327562450E+02 -0.23040702606E+02  0.43775778875E+03  0.25500000920E-02 0.  1.
       -2    1    3    3    0  502  0.43112611999E+03 -0.72327562450E+02 -0.89322761931E+03  0.99446296439E+03  0.25500000920E-02 0. -1.
</event>
<event>
 5   0  0.1372794E-03  0.1116217E+04  0.7818609E-02  0.9189529E-01
       -2   -1    0    0    0  501  0.00000000000E+00  0.00000000000E+00  0.34854581397E+03  0.34854581398E+03  0.25500000920E-02 0.  1.
        2   -1    0    0  501    0  0.00000000000E+00  0.00000000000E+00 -0.89367005330E+03  0.89367005330E+03  0.25500000920E-02 0. -1.
    10030    2    1    2    0    0  0.00000000000E+00  0.00000000000E+00 -0.54512423933E+03  0.12422158673E+04  0.11162167463E+04 0.  0.
        4    1    3    3  502    0 -0.30618233025E+03 -0.17240963611E+03  0.20998502916E+03  0.40935073880E+03  0.12699999809E+01 0.  1.
       -4    1    3    3    0  502  0.30618233025E+03  0.17240963611E+03 -0.75510926849E+03  0.83286512848E+03  0.12699999809E+01 0. -1.
</event>
<event>
 5   0  0.8009636E-04  0.1101270E+04  0.7818609E-02  0.9203955E-01
        1   -1    0    0  501    0  0.00000000000E+00  0.00000000000E+00  0.90393386954E+03  0.90393386956E+03  0.50400001928E-02 0. -1.
       -1   -1    0    0    0  501  0.00000000000E+00  0.00000000000E+00 -0.33542144070E+03  0.33542144074E+03  0.50400001928E-02 0.  1.
    10030    2    1    2    0    0  0.00000000000E+00  0.00000000000E+00  0.56851242884E+03  0.12393553103E+04  0.11012698141E+04 0.  0.
        1    1    3    3  502    0 -0.32710439290E+02  0.49609712239E+03  0.55061067700E+03  0.74185877722E+03  0.50400001928E-02 0. -1.
       -1    1    3    3    0  502  0.32710439290E+02 -0.49609712239E+03  0.17901751837E+02  0.49749653308E+03  0.50400001928E-02 0.  1.
</event>
<event>
 5   0  0.8150924E-04  0.1096152E+04  0.7818609E-02  0.9208951E-01
       -1   -1    0    0    0  501  0.00000000000E+00  0.00000000000E+00  0.40076310552E+03  0.40076310555E+03  0.50400001928E-02 0.  1.
        1   -1    0    0  501    0  0.00000000000E+00  0.00000000000E+00 -0.74953791539E+03  0.74953791541E+03  0.50400001928E-02 0. -1.
    10030    2    1    2    0    0  0.00000000000E+00  0.00000000000E+00 -0.34877480987E+03  0.11503010210E+04  0.10961517098E+04 0.  0.
        3    1    3    3  502    0  0.77373131837E+02  0.57408067731E+02  0.39180697768E+03  0.40347863107E+03  0.10100000352E+00 0.  1.
       -3    1    3    3    0  502 -0.77373131837E+02 -0.57408067731E+02 -0.74058178756E+03  0.74682238988E+03  0.10100000352E+00 0. -1.
</event>
<event>
 5   0  0.1396936E-03  0.1096190E+04  0.7818609E-02  0.9208914E-01
        2   -1    0    0  501    0  0.00000000000E+00  0.00000000000E+00  0.49436487901E+03  0.49436487902E+03  0.25500000920E-02 0.  1.
       -2   -1    0    0    0  501  0.00000000000E+00  0.00000000000E+00 -0.60766432697E+03  0.60766432697E+03  0.25500000920E-02 0. -1.
    10030    2    1    2    0    0  0.00000000000E+00  0.00000000000E+00 -0.11329944795E+03  0.11020292060E+04  0.10961895849E+04 0.  0.
        2    1    3    3  502    0 -0.30680286273E+03  0.11824763166E+03 -0.49750307053E+03  0.59633866566E+03  0.25500000920E-02 0. -1.
       -2    1    3    3    0  502  0.30680286273E+03 -0.11824763166E+03  0.38420362257E+03  0.50569054033E+03  0.25500000920E-02 0.  1.
</event>
<event>
 5   0  0.1372794E-03  0.1095813E+04  0.7818609E-02  0.9209283E-01
       -2   -1    0    0    0  501  0.00000000000E+00  0.00000000000E+00  0.26562466787E+03  0.26562466789E+03  0.25500000920E-02 0. -1.
        2   -1    0    0  501    0  0.00000000000E+00  0.00000000000E+00 -0.11301712421E+04  0.11301712421E+04  0.25500000920E-02 0.  1.
    10030    2    1    2    0    0  0.00000000000E+00  0.00000000000E+00 -0.86454657418E+03  0.13957959099E+04  0.10958126862E+04 0.  0.
        4    1    3    3  502    0 -0.33275239219E+02 -0.24193863782E+03  0.19246148915E+03  0.31094144742E+03  0.12699999809E+01 0. -1.
       -4    1    3    3    0  502  0.33275239219E+02  0.24193863782E+03 -0.10570080633E+04  0.10848544625E+04  0.12699999809E+01 0.  1.
</event>
<event>
 5   0  0.8305271E-04  0.1073050E+04  0.7818609E-02  0.9231865E-01
        1   -1    0    0  501    0  0.00000000000E+00  0.00000000000E+00  0.87239292268E+03  0.87239292270E+03  0.50400001928E-02 0. -1.
       -1   -1    0    0    0  501  0.00000000000E+00  0.00000000000E+00 -0.32996491879E+03  0.32996491883E+03  0.50400001928E-02 0.  1.
    10030    2    1    2    0    0  0.00000000000E+00  0.00000000000E+00  0.54242800390E+03  0.12023578415E+04  0.10730499707E+04 0.  0.
        5    1    3    3  502    0 -0.46835003239E+03 -0.26167582254E+03  0.27492708152E+03  0.60285402801E+03  0.46999998093E+01 0.  1.
       -5    1    3    3    0  502  0.46835003239E+03  0.26167582254E+03  0.26750092238E+03  0.59950381351E+03  0.46999998093E+01 0. -1.
</event>
<event>
 5   0  0.1372794E-03  0.1099540E+04  0.7818609E-02  0.9205640E-01
        2   -1    0    0  501    0  0.00000000000E+00  0.00000000000E+00  0.17064229731E+04  0.17064229731E+04  0.25500000920E-02 0. -1.
       -2   -1    0    0    0  501  0.00000000000E+00  0.00000000000E+00 -0.17712321658E+03  0.17712321659E+03  0.25500000920E-02 0.  1.
    10030    2    1    2    0    0  0.00000000000E+00  0.00000000000E+00  0.15292997565E+04  0.18835461897E+04  0.10995401327E+04 0.  0.
        4    1    3    3  502    0 -0.36445884484E+03 -0.17418570497E+03  0.14034854705E+04  0.14604601974E+04  0.12699999809E+01 0. -1.
       -4    1    3    3    0  502  0.36445884484E+03  0.17418570497E+03  0.12581428602E+03  0.42308599228E+03  0.12699999809E+01 0.  1.
</event>
<event>
 5   0  0.8341767E-04  0.1093445E+04  0.7818609E-02  0.9211605E-01
       -1   -1    0    0    0  501  0.00000000000E+00  0.00000000000E+00  0.33887748693E+03  0.33887748697E+03  0.50400001928E-02 0.  1.
        1   -1    0    0  501    0  0.00000000000E+00  0.00000000000E+00 -0.88204520225E+03  0.88204520226E+03  0.50400001928E-02 0. -1.
    10030    2    1    2    0    0  0.00000000000E+00  0.00000000000E+00 -0.54316771532E+03  0.12209226892E+04  0.10934445784E+04 0.  0.
        2    1    3    3  502    0 -0.28176212910E+03  0.52531076166E+02 -0.79143236690E+03  0.84173309471E+03  0.25500000920E-02 0. -1.
       -2    1    3    3    0  502  0.28176212910E+03 -0.52531076166E+02  0.24826465158E+03  0.37918959451E+03  0.25500000920E-02 0.  1.
</event>
<event>
 5   0  0.1402775E-03  0.1100594E+04  0.7818609E-02  0.9204613E-01
        2   -1    0    0  501    0  0.00000000000E+00  0.00000000000E+00  0.62618036492E+03  0.62618036493E+03  0.25500000920E-02 0. -1.
       -2   -1    0    0    0  501  0.00000000000E+00  0.00000000000E+00 -0.48360951614E+03  0.48360951615E+03  0.25500000920E-02 0.  1.
    10030    2    1    2    0    0  0.00000000000E+00  0.00000000000E+00  0.14257084879E+03  0.11097898811E+04  0.11005939911E+04 0.  0.
        5    1    3    3  502    0  0.68902591662E+02  0.22599265891E+03  0.57241314133E+03  0.61927307659E+03  0.46999998093E+01 0. -1.
       -5    1    3    3    0  502 -0.68902591662E+02 -0.22599265891E+03 -0.42984229255E+03  0.49051680448E+03  0.46999998093E+01 0.  1.
</event>
<event>
 5   0  0.8341767E-04  0.1098748E+04  0.7818609E-02  0.9206413E-01
        1   -1    0    0  501    0  0.00000000000E+00  0.00000000000E+00  0.68806581257E+03  0.68806581259E+03  0.50400001928E-02 0. -1.
       -1   -1    0    0    0  501  0.00000000000E+00  0.00000000000E+00 -0.43863796172E+03  0.43863796175E+03  0.50400001928E-02 0.  1.
    10030    2    1    2    0    0  0.00000000000E+00  0.00000000000E+00  0.24942785085E+03  0.11267037743E+04  0.10987479885E+04 0.  0.
        2    1    3    3  502    0 -0.18270780017E+03 -0.31866611264E+03 -0.29419134433E+03  0.47061531921E+03  0.25500000920E-02 0.  1.
       -2    1    3    3    0  502  0.18270780017E+03  0.31866611264E+03  0.54361919518E+03  0.65608845513E+03  0.25500000920E-02 0. -1.
</event>
<event>
 5   0  0.1429680E-03  0.1100049E+04  0.7818609E-02  0.9205144E-01
       -2   -1    0    0    0  501  0.00000000000E+00  0.00000000000E+00  0.21257639119E+03  0.21257639120E+03  0.25500000920E-02 0. -1.
        2   -1    0    0  501    0  0.00000000000E+00  0.00000000000E+00 -0.14231446719E+04  0.14231446719E+04  0.25500000920E-02 0.  1.
    10030    2    1    2    0    0  0.00000000000E+00  0.00000000000E+00 -0.12105682807E+04  0.16357210631E+04  0.11000490144E+04 0.  0.
        3    1    3    3  502    0  0.33092248962E+03 -0.26078219740E+03 -0.11310221943E+04  0.12069499836E+04  0.10100000352E+00 0.  1.
       -3    1    3    3    0  502 -0.33092248962E+03  0.26078219740E+03 -0.79546086446E+02  0.42877107958E+03  0.10100000352E+00 0. -1.
</event>
<event>
 5   0  0.5409500E-04  0.1083746E+04  0.7818609E-02  0.9221181E-01
        4   -1    0    0  501    0  0.00000000000E+00  0.00000000000E+00  0.74317629625E+03  0.74317738139E+03  0.12699999809E+01 0.  1.
       -4   -1    0    0    0  501  0.00000000000E+00  0.00000000000E+00 -0.39509402025E+03  0.39509606140E+03  0.12699999809E+01 0. -1.
    10030    2    1    2    0    0  0.00000000000E+00  0.00000000000E+00  0.34808227601E+03  0.11382734428E+04  0.10837458926E+04 0.  0.
        4    1    3    3  502    0  0.35366455108E+03 -0.29001701444E+03 -0.13115811236E+03  0.47580725792E+03  0.12699999809E+01 0.  1.
       -4    1    3    3    0  502 -0.35366455108E+03  0.29001701444E+03  0.47924038837E+03  0.66246618487E+03  0.12699999809E+01 0. -1.
</event>
<event>
 5   0  0.1396936E-03  0.1110645E+04  0.7818609E-02  0.9194878E-01
       -2   -1    0    0    0  501  0.00000000000E+00  0.00000000000E+00  0.50454393719E+03  0.50454393720E+03  0.25500000920E-02 0. -1.
        2   -1    0    0  501    0  0.00000000000E+00  0.00000000000E+00 -0.61121136924E+03  0.61121136924E+03  0.25500000920E-02 0.  1.
    10030    2    1    2    0    0  0.00000000000E+00  0.00000000000E+00 -0.10666743204E+03  0.11157553064E+04  0.11106448410E+04 0.  0.
        2    1    3    3  502    0  0.32302517623E+03 -0.29804788510E+03  0.28764696127E+03  0.52527952618E+03  0.25500000920E-02 0. -1.
       -2    1    3    3    0  502 -0.32302517623E+03  0.29804788510E+03 -0.39431439332E+03  0.59047578026E+03  0.25500000920E-02 0.  1.
</event>
<event>
 5   0  0.5409500E-04  0.1100511E+04  0.7818609E-02  0.9204694E-01
       -3   -1    0    0    0  501  0.00000000000E+00  0.00000000000E+00  0.61066445366E+03  0.61066446201E+03  0.10100000352E+00 0. -1.
        3   -1    0    0  501    0  0.00000000000E+00  0.00000000000E+00 -0.49582242165E+03  0.49582243194E+03  0.10100000352E+00 0.  1.
    10030    2    1    2    0    0  0.00000000000E+00  0.00000000000E+00  0.11484203201E+03  0.11064868939E+04  0.11005110423E+04 0.  0.
        2    1    3    3  502    0  0.41252398456E+03 -0.23137976770E+03  0.34013912677E+03  0.58258669767E+03  0.25500000920E-02 0. -1.
       -2    1    3    3    0  502 -0.41252398456E+03  0.23137976770E+03 -0.22529709476E+03  0.52390019627E+03  0.25500000920E-02 0.  1.
</event>
<event>
 5   0  0.1372794E-03  0.1098719E+04  0.7818609E-02  0.9206442E-01
       -2   -1    0    0    0  501  0.00000000000E+00  0.00000000000E+00  0.29765781774E+03  0.29765781775E+03  0.25500000920E-02 0. -1.
        2   -1    0    0  501    0  0.00000000000E+00  0.00000000000E+00 -0.10139015066E+04  0.10139015066E+04  0.25500000920E-02 0.  1.
    10030    2    1    2    0    0  0.00000000000E+00  0.00000000000E+00 -0.71624368890E+03  0.13115593244E+04  0.10987187263E+04 0.  0.
        4    1    3    3  502    0 -0.30267749984E+03  0.42881830430E+02  0.18674375098E+03  0.35822808617E+03  0.12699999809E+01 0. -1.
       -4    1    3    3    0  502  0.30267749984E+03 -0.42881830430E+02 -0.90298743988E+03  0.95333123822E+03  0.12699999809E+01 0.  1.
</event>
<event>
 5   0  0.1402775E-03  0.1100666E+04  0.7818609E-02  0.9204543E-01
        2   -1    0    0  501    0  0.00000000000E+00  0.00000000000E+00  0.79030410691E+03  0.79030410691E+03  0.25500000920E-02 0.  1.
       -2   -1    0    0    0  501  0.00000000000E+00  0.00000000000E+00 -0.38322795671E+03  0.38322795671E+03  0.25500000920E-02 0. -1.
    10030    2    1    2    0    0  0.00000000000E+00  0.00000000000E+00  0.40707615020E+03  0.11735320636E+04  0.11006663946E+04 0.  0.
        5    1    3    3  502    0  0.11353921170E+03  0.28729570650E+03 -0.28203978352E+03  0.41832822646E+03  0.46999998093E+01 0. -1.
       -5    1    3    3    0  502 -0.11353921170E+03 -0.28729570650E+03  0.68911593372E+03  0.75520383717E+03  0.46999998093E+01 0.  1.
</event>
<event>
 5   0  0.7946038E-04  0.1102778E+04  0.7818609E-02  0.9202489E-01
        1   -1    0    0  501    0  0.00000000000E+00  0.00000000000E+00  0.12466820509E+04  0.12466820509E+04  0.50400001928E-02 0. -1.
       -1   -1    0    0    0  501  0.00000000000E+00  0.00000000000E+00 -0.24387099337E+03  0.24387099343E+03  0.50400001928E-02 0.  1.
    10030    2    1    2    0    0  0.00000000000E+00  0.00000000000E+00  0.10028110575E+04  0.14905530443E+04  0.11027775663E+04 0.  0.
        4    1    3    3  502    0 -0.18735282590E+03 -0.14479643068E+03  0.11744613829E+04  0.11980935859E+04  0.12699999809E+01 0. -1.
       -4    1    3    3    0  502  0.18735282590E+03  0.14479643068E+03 -0.17165032540E+03  0.29245945842E+03  0.12699999809E+01 0.  1.
</event>
<event>
 5   0  0.5409500E-04  0.1095386E+04  0.7818609E-02  0.9209700E-01
        4   -1    0    0  501    0  0.00000000000E+00  0.00000000000E+00  0.36444162232E+03  0.36444383515E+03  0.12699999809E+01 0. -1.
       -4   -1    0    0    0  501  0.00000000000E+00  0.00000000000E+00 -0.82308353008E+03  0.82308450987E+03  0.12699999809E+01 0.  1.
    10030    2    1    2    0    0  0.00000000000E+00  0.00000000000E+00 -0.45864190775E+03  0.11875283450E+04  0.10953863112E+04 0.  0.
        3    1    3    3  502    0 -0.42666741901E+03  0.19186001090E+03 -0.53808049543E+03  0.71301190733E+03  0.10100000352E+00 0.  1.
       -3    1    3    3    0  502  0.42666741901E+03 -0.19186001090E+03  0.79438587681E+02  0.47451643769E+03  0.10100000352E+00 0. -1.
</event>
<event>
 5   0  0.1402775E-03  0.1100883E+04  0.7818609E-02  0.9204332E-01
        2   -1    0    0  501    0  0.00000000000E+00  0.00000000000E+00  0.93642091601E+03  0.93642091601E+03  0.25500000920E-02 0. -1.
       -2   -1    0    0    0  501  0.00000000000E+00  0.00000000000E+00 -0.32355722512E+03  0.32355722513E+03  0.25500000920E-02 0.  1.
    10030    2    1    2    0    0  0.00000000000E+00  0.00000000000E+00  0.61286369089E+03  0.12599781411E+04  0.11008828333E+04 0.  0.
        5    1    3    3  502    0  0.33485854485E+03 -0.99324700085E+02  0.79331284996E+03  0.86681198020E+03  0.46999998093E+01 0. -1.
       -5    1    3    3    0  502 -0.33485854485E+03  0.99324700085E+02 -0.18044915907E+03  0.39316616095E+03  0.46999998093E+01 0.  1.
</event>
<event>
 5   0  0.8150924E-04  0.1099615E+04  0.7818609E-02  0.9205567E-01
        1   -1    0    0  501    0  0.00000000000E+00  0.00000000000E+00  0.84274880320E+03  0.84274880322E+03  0.50400001928E-02 0.  1.
       -1   -1    0    0    0  501  0.00000000000E+00  0.00000000000E+00 -0.35869329716E+03  0.35869329719E+03  0.50400001928E-02 0. -1.
    10030    2    1    2    0    0  0.00000000000E+00  0.00000000000E+00  0.48405550605E+03  0.12014421004E+04  0.10996151089E+04 0.  0.
        3    1    3    3  502    0 -0.30473666311E+02  0.23221932280E+03  0.78551796759E+03  0.81969076232E+03  0.10100000352E+00 0.  1.
       -3    1    3    3    0  502  0.30473666311E+02 -0.23221932280E+03 -0.30146246154E+03  0.38175133810E+03  0.10100000352E+00 0. -1.
</event>
<event>
 5   0  0.1425432E-03  0.1103017E+04  0.7818609E-02  0.9202256E-01
       -2   -1    0    0    0  501  0.00000000000E+00  0.00000000000E+00  0.97127382459E+03  0.97127382459E+03  0.25500000920E-02 0. -1.
        2   -1    0    0  501    0  0.00000000000E+00  0.00000000000E+00 -0.31315733765E+03  0.31315733766E+03  0.25500000920E-02 0.  1.
    10030    2    1    2    0    0  0.00000000000E+00  0.00000000000E+00  0.65811648694E+03  0.12844311623E+04  0.11030168177E+04 0.  0.
        1    1    3    3  502    0 -0.31611450182E+03 -0.29093318638E+03  0.73175487672E+03  0.84854917172E+03  0.50400001928E-02 0. -1.
       -1    1    3    3    0  502  0.31611450182E+03  0.29093318638E+03 -0.73638389782E+02  0.43588199053E+03  0.50400001928E-02 0.  1.
</event>
<event>
 5   0  0.8009636E-04  0.1109544E+04  0.7818609E-02  0.9195940E-01
       -1   -1    0    0    0  501  0.00000000000E+00  0.00000000000E+00  0.56478639458E+03  0.56478639461E+03  0.50400001928E-02 0.  1.
        1   -1    0    0  501    0  0.00000000000E+00  0.00000000000E+00 -0.54493471519E+03  0.54493471521E+03  0.50400001928E-02 0. -1.
    10030    2    1    2    0    0  0.00000000000E+00  0.00000000000E+00  0.19851679396E+02  0.11097211098E+04  0.11095435334E+04 0.  0.
        1    1    3    3  502    0  0.31413773331E+03  0.32583196537E+03 -0.31094122782E+03  0.54912059908E+03  0.50400001928E-02 0. -1.
       -1    1    3    3    0  502 -0.31413773331E+03 -0.32583196537E+03  0.33079290721E+03  0.56060051074E+03  0.50400001928E-02 0.  1.
</event>
<event>
 5   0  0.1425432E-03  0.1102380E+04  0.7818609E-02  0.9202875E-01
       -2   -1    0    0    0  501  0.00000000000E+00  0.00000000000E+00  0.32844132146E+03  0.32844132147E+03  0.25500000920E-02 0. -1.
        2   -1    0    0  501    0  0.00000000000E+00  0.00000000000E+00 -0.92500733179E+03  0.92500733180E+03  0.25500000920E-02 0.  1.
    10030    2    1    2    0    0  0.00000000000E+00  0.00000000000E+00 -0.59656601033E+03  0.12534486533E+04  0.11023803888E+04 0.  0.
        1    1    3    3  502    0 -0.24588924551E+03  0.10725466575E+03 -0.84577080771E+03  0.88729552213E+03  0.50400001928E-02 0.  1.
       -1    1    3    3    0  502  0.24588924551E+03 -0.10725466575E+03  0.24920479738E+03  0.36615313114E+03  0.50400001928E-02 0. -1.
</event>
<event>
 5   0  0.1425432E-03  0.1067946E+04  0.7818609E-02  0.9237009E-01
        2   -1    0    0  501    0  0.00000000000E+00  0.00000000000E+00  0.56739901205E+03  0.56739901205E+03  0.25500000920E-02 0.  1.
       -2   -1    0    0    0  501  0.00000000000E+00  0.00000000000E+00 -0.50251628560E+03  0.50251628560E+03  0.25500000920E-02 0. -1.
    10030    2    1    2    0    0  0.00000000000E+00  0.00000000000E+00  0.64882726450E+02  0.10699152977E+04  0.10679461484E+04 0.  0.
        1    1    3    3  502    0 -0.46643347200E+01 -0.51444170294E+03  0.17572683050E+03  0.54364688974E+03  0.50400001928E-02 0. -1.
       -1    1    3    3    0  502  0.46643347200E+01  0.51444170294E+03 -0.11084410405E+03  0.52626840791E+03  0.50400001928E-02 0.  1.
</event>
<event>
 5   0  0.1402775E-03  0.1098862E+04  0.7818609E-02  0.9206302E-01
        2   -1    0    0  501    0  0.00000000000E+00  0.00000000000E+00  0.67856819399E+03  0.67856819400E+03  0.25500000920E-02 0.  1.
       -2   -1    0    0    0  501  0.00000000000E+00  0.00000000000E+00 -0.44486966948E+03  0.44486966949E+03  0.25500000920E-02 0. -1.
    10030    2    1    2    0    0  0.00000000000E+00  0.00000000000E+00  0.23369852451E+03  0.11234378635E+04  0.10988619717E+04 0.  0.
        5    1    3    3  502    0 -0.13551069112E+03  0.17010768931E+03 -0.39896653009E+03  0.45441848059E+03  0.46999998093E+01 0. -1.
       -5    1    3    3    0  502  0.13551069112E+03 -0.17010768931E+03  0.63266505460E+03  0.66901938289E+03  0.46999998093E+01 0.  1.
</event>
<event>
 5   0  0.1429680E-03  0.1101774E+04  0.7818609E-02  0.9203465E-01
        2   -1    0    0  501    0  0.00000000000E+00  0.00000000000E+00  0.76108184962E+03  0.76108184962E+03  0.25500000920E-02 0. -1.
       -2   -1    0    0    0  501  0.00000000000E+00  0.00000000000E+00 -0.39874348815E+03  0.39874348816E+03  0.25500000920E-02 0.  1.
    10030    2    1    2    0    0  0.00000000000E+00  0.00000000000E+00  0.36233836147E+03  0.11598253378E+04  0.11017738997E+04 0.  0.
        3    1    3    3  502    0 -0.54871638860E+03  0.37865264682E+02  0.14867248163E+03  0.56976045000E+03  0.10100000352E+00 0.  1.
       -3    1    3    3    0  502  0.54871638860E+03 -0.37865264682E+02  0.21366587984E+03  0.59006488778E+03  0.10100000352E+00 0. -1.
</event>
<event>
 5   0  0.8341767E-04  0.1099760E+04  0.7818609E-02  0.9205426E-01
        1   -1    0    0  501    0  0.00000000000E+00  0.00000000000E+00  0.10178575678E+04  0.10178575678E+04  0.50400001928E-02 0. -1.
       -1   -1    0    0    0  501  0.00000000000E+00  0.00000000000E+00 -0.29706311483E+03  0.29706311487E+03  0.50400001928E-02 0.  1.
    10030    2    1    2    0    0  0.00000000000E+00  0.00000000000E+00  0.72079445294E+03  0.13149206827E+04  0.10997598639E+04 0.  0.
        2    1    3    3  502    0  0.23824577111E+03 -0.18531836498E+03 -0.18916191369E+03  0.35621085532E+03  0.25500000920E-02 0.  1.
       -2    1    3    3    0  502 -0.23824577111E+03  0.18531836498E+03  0.90995636664E+03  0.95870982734E+03  0.25500000920E-02 0. -1.
</event>
<event>
 5   0  0.8150924E-04  0.1100362E+04  0.7818609E-02  0.9204839E-01
        1   -1    0    0  501    0  0.00000000000E+00  0.00000000000E+00  0.78131627656E+03  0.78131627657E+03  0.50400001928E-02 0. -1.
       -1   -1    0    0    0  501  0.00000000000E+00  0.00000000000E+00 -0.38742181707E+03  0.38742181711E+03  0.50400001928E-02 0.  1.
    10030    2    1    2    0    0  0.00000000000E+00  0.00000000000E+00  0.39389445948E+03  0.11687380937E+04  0.11003617071E+04 0.  0.
        3    1    3    3  502    0  0.23484353833E+03  0.49686381112E+03  0.22451844883E+03  0.59366124883E+03  0.10100000352E+00 0.  1.
       -3    1    3    3    0  502 -0.23484353833E+03 -0.49686381112E+03  0.16937601065E+03  0.57507684485E+03  0.10100000352E+00 0. -1.
</event>
<event>
 5   0  0.5409500E-04  0.1102049E+04  0.7818609E-02  0.9203197E-01
       -3   -1    0    0    0  501  0.00000000000E+00  0.00000000000E+00  0.15252943508E+03  0.15252946852E+03  0.10100000352E+00 0.  1.
        3   -1    0    0  501    0  0.00000000000E+00  0.00000000000E+00 -0.19906202987E+04  0.19906203013E+04  0.10100000352E+00 0. -1.
    10030    2    1    2    0    0  0.00000000000E+00  0.00000000000E+00 -0.18380908637E+04  0.21431497698E+04  0.11020494149E+04 0.  0.
        4    1    3    3  502    0 -0.44062887031E+03  0.62643100199E+02 -0.15508427925E+04  0.16134413343E+04  0.12699999809E+01 0. -1.
       -4    1    3    3    0  502  0.44062887031E+03 -0.62643100199E+02 -0.28724807114E+03  0.52970843548E+03  0.12699999809E+01 0.  1.
</event>
<event>
 5   0  0.8341767E-04  0.1099210E+04  0.7818609E-02  0.9205962E-01
        1   -1    0    0  501    0  0.00000000000E+00  0.00000000000E+00  0.52772684812E+03  0.52772684814E+03  0.50400001928E-02 0. -1.
       -1   -1    0    0    0  501  0.00000000000E+00  0.00000000000E+00 -0.57239014807E+03  0.57239014809E+03  0.50400001928E-02 0.  1.
    10030    2    1    2    0    0  0.00000000000E+00  0.00000000000E+00 -0.44663299951E+02  0.11001169962E+04  0.10992099868E+04 0.  0.
        2    1    3    3  502    0 -0.41910788535E+02 -0.18901054038E+02 -0.57046219787E+03  0.57231187585E+03  0.25500000920E-02 0.  1.
       -2    1    3    3    0  502  0.41910788535E+02  0.18901054038E+02  0.52579889792E+03  0.52780512038E+03  0.25500000920E-02 0. -1.
</event>
<event>
 5   0  0.8009636E-04  0.1096412E+04  0.7818609E-02  0.9208696E-01
        1   -1    0    0  501    0  0.00000000000E+00  0.00000000000E+00  0.19411676870E+04  0.19411676870E+04  0.50400001928E-02 0. -1.
       -1   -1    0    0    0  501  0.00000000000E+00  0.00000000000E+00 -0.15481912869E+03  0.15481912877E+03  0.50400001928E-02 0.  1.
    10030    2    1    2    0    0  0.00000000000E+00  0.00000000000E+00  0.17863485583E+04  0.20959868158E+04  0.10964121306E+04 0.  0.
        1    1    3    3  502    0  0.60870640621E+02 -0.39912365371E+03  0.16021077561E+04  0.16521967764E+04  0.50400001928E-02 0. -1.
       -1    1    3    3    0  502 -0.60870640621E+02  0.39912365371E+03  0.18424080226E+03  0.44379003941E+03  0.50400001928E-02 0.  1.
</event>
<event>
 5   0  0.1372794E-03  0.1093516E+04  0.7818609E-02  0.9211535E-01
       -2   -1    0    0    0  501  0.00000000000E+00  0.00000000000E+00  0.42731527112E+03  0.42731527113E+03  0.25500000920E-02 0. -1.
        2   -1    0    0  501    0  0.00000000000E+00  0.00000000000E+00 -0.69958670783E+03  0.69958670783E+03  0.25500000920E-02 0.  1.
    10030    2    1    2    0    0  0.00000000000E+00  0.00000000000E+00 -0.27227143670E+03  0.11269019790E+04  0.10935155851E+04 0.  0.
        4    1    3    3  502    0 -0.39262923224E+03  0.37472253987E+03 -0.68028790552E+02  0.54699563540E+03  0.12699999809E+01 0.  1.
       -4    1    3    3    0  502  0.39262923224E+03 -0.37472253987E+03 -0.20424264615E+03  0.57990634357E+03  0.12699999809E+01 0. -1.
</event>
<event>
 5   0  0.8150924E-04  0.1100483E+04  0.7818609E-02  0.9204721E-01
       -1   -1    0    0    0  501  0.00000000000E+00  0.00000000000E+00  0.37920623565E+03  0.37920623569E+03  0.50400001928E-02 0. -1.
        1   -1    0    0  501    0  0.00000000000E+00  0.00000000000E+00 -0.79841925990E+03  0.79841925992E+03  0.50400001928E-02 0.  1.
    10030    2    1    2    0    0  0.00000000000E+00  0.00000000000E+00 -0.41921302425E+03  0.11776254956E+04  0.11004827342E+04 0.  0.
        3    1    3    3  502    0  0.37127388914E+02  0.98512060582E+02 -0.78754170386E+03  0.79454704997E+03  0.10100000352E+00 0.  1.
       -3    1    3    3    0  502 -0.37127388914E+02 -0.98512060582E+02  0.36832867961E+03  0.38307844564E+03  0.10100000352E+00 0. -1.
</event>
<event>
 5   0  0.1396936E-03  0.1101599E+04  0.7818609E-02  0.9203635E-01
        2   -1    0    0  501    0  0.00000000000E+00  0.00000000000E+00  0.28871908632E+03  0.28871908634E+03  0.25500000920E-02 0. -1.
       -2   -1    0    0    0  501  0.00000000000E+00  0.00000000000E+00 -0.10507799090E+04  0.10507799090E+04  0.25500000920E-02 0.  1.
    10030    2    1    2    0    0  0.00000000000E+00  0.00000000000E+00 -0.76206082266E+03  0.13394989953E+04  0.11015992289E+04 0.  0.
        2    1    3    3  502    0 -0.10173014446E+03  0.36553416511E+02 -0.10377550220E+04  0.10433698578E+04  0.25500000920E-02 0.  1.
       -2    1    3    3    0  502  0.10173014446E+03 -0.36553416511E+02  0.27569419931E+03  0.29612913752E+03  0.25500000920E-02 0. -1.
</event>
<event>
 5   0  0.8305271E-04  0.1101667E+04  0.7818609E-02  0.9203569E-01
       -1   -1    0    0    0  501  0.00000000000E+00  0.00000000000E+00  0.51705850957E+03  0.51705850959E+03  0.50400001928E-02 0.  1.
        1   -1    0    0  501    0  0.00000000000E+00  0.00000000000E+00 -0.58681471730E+03  0.58681471732E+03  0.50400001928E-02 0. -1.
    10030    2    1    2    0    0  0.00000000000E+00  0.00000000000E+00 -0.69756207735E+02  0.11038732269E+04  0.11016669971E+04 0.  0.
        5    1    3    3  502    0 -0.46182902736E+03  0.29921130057E+03 -0.59051097891E+02  0.55346415879E+03  0.46999998093E+01 0. -1.
       -5    1    3    3    0  502  0.46182902736E+03 -0.29921130057E+03 -0.10705109845E+02  0.55040906813E+03  0.46999998093E+01 0.  1.
</event>
<event>
 5   0  0.1372794E-03  0.1102052E+04  0.7818609E-02  0.9203194E-01
        2   -1    0    0  501    0  0.00000000000E+00  0.00000000000E+00  0.24360748277E+04  0.24360748277E+04  0.25500000920E-02 0. -1.
       -2   -1    0    0    0  501  0.00000000000E+00  0.00000000000E+00 -0.12463888939E+03  0.12463888942E+03  0.25500000920E-02 0.  1.
    10030    2    1    2    0    0  0.00000000000E+00  0.00000000000E+00  0.23114359383E+04  0.25607137171E+04  0.11020520152E+04 0.  0.
        4    1    3    3  502    0 -0.62374392165E+02 -0.54327597999E+03  0.13131174992E+04  0.14224340178E+04  0.12699999809E+01 0. -1.
       -4    1    3    3    0  502  0.62374392165E+02  0.54327597999E+03  0.99831843904E+03  0.11382796993E+04  0.12699999809E+01 0.  1.
</event>
<event>
 5   0  0.1425432E-03  0.1090447E+04  0.7818609E-02  0.9214553E-01
        2   -1    0    0  501    0  0.00000000000E+00  0.00000000000E+00  0.72804143671E+03  0.72804143671E+03  0.25500000920E-02 0.  1.
       -2   -1    0    0    0  501  0.00000000000E+00  0.00000000000E+00 -0.40831307683E+03  0.40831307684E+03  0.25500000920E-02 0. -1.
    10030    2    1    2    0    0  0.00000000000E+00  0.00000000000E+00  0.31972835987E+03  0.11363545136E+04  0.10904473194E+04 0.  0.
        1    1    3    3  502    0  0.27006756867E+03  0.37060320392E+03  0.46721393079E+03  0.65465417096E+03  0.50400001928E-02 0.  1.
       -1    1    3    3    0  502 -0.27006756867E+03 -0.37060320392E+03 -0.14748557092E+03  0.48170034259E+03  0.50400001928E-02 0. -1.
</event>
<event>
 5   0  0.1425432E-03  0.1097522E+04  0.7818609E-02  0.9207611E-01
        2   -1    0    0  501    0  0.00000000000E+00  0.00000000000E+00  0.86984891227E+03  0.86984891228E+03  0.25500000920E-02 0.  1.
       -2   -1    0    0    0  501  0.00000000000E+00  0.00000000000E+00 -0.34619636065E+03  0.34619636066E+03  0.25500000920E-02 0. -1.
    10030    2    1    2    0    0  0.00000000000E+00  0.00000000000E+00  0.52365255162E+03  0.12160452729E+04  0.10975218043E+04 0.  0.
        1    1    3    3  502    0  0.17941918703E+03  0.60033683652E+02  0.83256928489E+03  0.85379558561E+03  0.50400001928E-02 0.  1.
       -1    1    3    3    0  502 -0.17941918703E+03 -0.60033683652E+02 -0.30891673327E+03  0.36224968732E+03  0.50400001928E-02 0. -1.
</event>
<event>
 5   0  0.7946038E-04  0.1099907E+04  0.7818609E-02  0.9205283E-01
        1   -1    0    0  501    0  0.00000000000E+00  0.00000000000E+00  0.25031801622E+04  0.25031801622E+04  0.50400001928E-02 0.  1.
       -1   -1    0    0    0  501  0.00000000000E+00  0.00000000000E+00 -0.12082579080E+03  0.12082579091E+03  0.50400001928E-02 0. -1.
    10030    2    1    2    0    0  0.00000000000E+00  0.00000000000E+00  0.23823543714E+04  0.26240059531E+04  0.10999067647E+04 0.  0.
        4    1    3    3  502    0  0.16878359616E+03  0.52340829822E+03  0.11952822463E+04  0.13157299914E+04  0.12699999809E+01 0.  1.
       -4    1    3    3    0  502 -0.16878359616E+03 -0.52340829822E+03  0.11870721251E+04  0.13082759617E+04  0.12699999809E+01 0. -1.
</event>
<event>
 5   0  0.1372794E-03  0.1101161E+04  0.7818609E-02  0.9204061E-01
       -2   -1    0    0    0  501  0.00000000000E+00  0.00000000000E+00  0.60011243615E+03  0.60011243616E+03  0.25500000920E-02 0. -1.
        2   -1    0    0  501    0  0.00000000000E+00  0.00000000000E+00 -0.50513706356E+03  0.50513706356E+03  0.25500000920E-02 0.  1.
    10030    2    1    2    0    0  0.00000000000E+00  0.00000000000E+00  0.94975372594E+02  0.11052494997E+04  0.11011612667E+04 0.  0.
        4    1    3    3  502    0  0.32470009806E+03 -0.44440980261E+03  0.61935382208E+02  0.55386625714E+03  0.12699999809E+01 0.  1.
       -4    1    3    3    0  502 -0.32470009806E+03  0.44440980261E+03  0.33039990386E+02  0.55138324258E+03  0.12699999809E+01 0. -1.
</event>
<event>
 5   0  0.1372794E-03  0.1114498E+04  0.7818609E-02  0.9191175E-01
        2   -1    0    0  501    0  0.00000000000E+00  0.00000000000E+00  0.61207155716E+03  0.61207155716E+03  0.25500000920E-02 0.  1.
       -2   -1    0    0    0  501  0.00000000000E+00  0.00000000000E+00 -0.50733688212E+03  0.50733688213E+03  0.25500000920E-02 0. -1.
    10030    2    1    2    0    0  0.00000000000E+00  0.00000000000E+00  0.10473467504E+03  0.11194084393E+04  0.11144980493E+04 0.  0.
        4    1    3    3  502    0  0.53767633848E+03  0.84312356424E+02  0.17256264367E+03  0.57094999544E+03  0.12699999809E+01 0.  1.
       -4    1    3    3    0  502 -0.53767633848E+03 -0.84312356424E+02 -0.67827968627E+02  0.54845844385E+03  0.12699999809E+01 0. -1.
</event>
<event>
 5   0  0.5409500E-04  0.1096446E+04  0.7818609E-02  0.9208663E-01
       -4   -1    0    0    0  501  0.00000000000E+00  0.00000000000E+00  0.12179327477E+04  0.12179334099E+04  0.12699999809E+01 0.  1.
        4   -1    0    0  501    0  0.00000000000E+00  0.00000000000E+00 -0.24676690033E+03  0.24677016837E+03  0.12699999809E+01 0. -1.
    10030    2    1    2    0    0  0.00000000000E+00  0.00000000000E+00  0.97116584742E+03  0.14647035783E+04  0.10964458350E+04 0.  0.
        3    1    3    3  502    0  0.23266322363E+03  0.34127413399E+03  0.96713981892E+03  0.10516461618E+04  0.10100000352E+00 0.  1.
       -3    1    3    3    0  502 -0.23266322363E+03 -0.34127413399E+03  0.40260284961E+01  0.41305741643E+03  0.10100000352E+00 0. -1.
</event>
<event>
 5   0  0.1425432E-03  0.1076397E+04  0.7818609E-02  0.9228507E-01
        2   -1    0    0  501    0  0.00000000000E+00  0.00000000000E+00  0.26955862531E+03  0.26955862532E+03  0.25500000920E-02 0.  1.
       -2   -1    0    0    0  501  0.00000000000E+00  0.00000000000E+00 -0.10745632890E+04  0.10745632891E+04  0.25500000920E-02 0. -1.
    10030    2    1    2    0    0  0.00000000000E+00  0.00000000000E+00 -0.80500466374E+03  0.13441219144E+04  0.10763973300E+04 0.  0.
        1    1    3    3  502    0 -0.43043916842E+03  0.12742772157E+03 -0.77323234734E+03  0.89409393519E+03  0.50400001928E-02 0. -1.
       -1    1    3    3    0  502  0.43043916842E+03 -0.12742772157E+03 -0.31772316396E+02  0.45002797919E+03  0.50400001928E-02 0.  1.
</event>
<event>
 5   0  0.8150924E-04  0.1101263E+04  0.7818609E-02  0.9203961E-01
       -1   -1    0    0    0  501  0.00000000000E+00  0.00000000000E+00  0.46894779372E+03  0.46894779375E+03  0.50400001928E-02 0. -1.
        1   -1    0    0  501    0  0.00000000000E+00  0.00000000000E+00 -0.64654365265E+03  0.64654365267E+03  0.50400001928E-02 0.  1.
    10030    2    1    2    0    0  0.00000000000E+00  0.00000000000E+00 -0.17759585893E+03  0.11154914464E+04  0.11012633100E+04 0.  0.
        3    1    3    3  502    0 -0.47036994165E+03  0.28619209830E+03 -0.95316140644E+02  0.55878347865E+03  0.10100000352E+00 0. -1.
       -3    1    3    3    0  502  0.47036994165E+03 -0.28619209830E+03 -0.82279718283E+02  0.55670796777E+03  0.10100000352E+00 0.  1.
</event>
<event>
 5   0  0.8305271E-04  0.1094097E+04  0.7818609E-02  0.9210964E-01
        1   -1    0    0  501    0  0.00000000000E+00  0.00000000000E+00  0.10389919018E+04  0.10389919018E+04  0.50400001928E-02 0.  1.
       -1   -1    0    0    0  501  0.00000000000E+00  0.00000000000E+00 -0.28803143532E+03  0.28803143537E+03  0.50400001928E-02 0. -1.
    10030    2    1    2    0    0  0.00000000000E+00  0.00000000000E+00  0.75096046648E+03  0.13270233372E+04  0.10940974889E+04 0.  0.
        5    1    3    3  502    0 -0.10032903507E+03 -0.52819090496E+03  0.25305195433E+03  0.59422969377E+03  0.46999998093E+01 0. -1.
       -5    1    3    3    0  502  0.10032903507E+03  0.52819090496E+03  0.49790851215E+03  0.73279364342E+03  0.46999998093E+01 0.  1.
</event>
<event>
 5   0  0.8305271E-04  0.1098375E+04  0.7818609E-02  0.9206777E-01
       -1   -1    0    0    0  501  0.00000000000E+00  0.00000000000E+00  0.32498398010E+03  0.32498398014E+03  0.50400001928E-02 0.  1.
        1   -1    0    0  501    0  0.00000000000E+00  0.00000000000E+00 -0.92806776696E+03  0.92806776697E+03  0.50400001928E-02 0. -1.
    10030    2    1    2    0    0  0.00000000000E+00  0.00000000000E+00 -0.60308378685E+03  0.12530517471E+04  0.10983754490E+04 0.  0.
        5    1    3    3  502    0  0.18204397273E+03 -0.53244491165E+02 -0.88949199281E+03  0.90950155531E+03  0.46999998093E+01 0. -1.
       -5    1    3    3    0  502 -0.18204397273E+03  0.53244491165E+02  0.28640820596E+03  0.34355019180E+03  0.46999998093E+01 0.  1.
</event>
<event>
 5   0  0.8341767E-04  0.1099070E+04  0.7818609E-02  0.9206099E-01
        1   -1    0    0  501    0  0.00000000000E+00  0.00000000000E+00  0.16861047632E+04  0.16861047632E+04  0.50400001928E-02 0.  1.
       -1   -1    0    0    0  501  0.00000000000E+00  0.00000000000E+00 -0.17910437466E+03  0.17910437473E+03  0.50400001928E-02 0. -1.
    10030    2    1    2    0    0  0.00000000000E+00  0.00000000000E+00  0.15070003885E+04  0.18652091379E+04  0.10990700420E+04 0.  0.
        2    1    3    3  502    0 -0.77750281787E+02  0.46475565334E+03  0.27365623355E+03  0.54491344064E+03  0.25500000920E-02 0. -1.
       -2    1    3    3    0  502  0.77750281787E+02 -0.46475565334E+03  0.12333441550E+04  0.13202956973E+04  0.25500000920E-02 0.  1.
</event>
<event>
 5   0  0.1429680E-03  0.1115455E+04  0.7818609E-02  0.9190258E-01
        2   -1    0    0  501    0  0.00000000000E+00  0.00000000000E+00  0.11922707046E+04  0.11922707046E+04  0.25500000920E-02 0. -1.
       -2   -1    0    0    0  501  0.00000000000E+00  0.00000000000E+00 -0.26089719732E+03  0.26089719733E+03  0.25500000920E-02 0.  1.
    10030    2    1    2    0    0  0.00000000000E+00  0.00000000000E+00  0.93137350733E+03  0.14531679020E+04  0.11154552170E+04 0.  0.
        3    1    3    3  502    0 -0.13906641179E+03 -0.45076704138E+02 -0.23549310748E+03  0.27717934630E+03  0.10100000352E+00 0.  1.
       -3    1    3    3    0  502  0.13906641179E+03  0.45076704138E+02  0.11668666148E+04  0.11759885557E+04  0.10100000352E+00 0. -1.
</event>
<event>
 5   0  0.1402775E-03  0.1098642E+04  0.7818609E-02  0.9206516E-01
       -2   -1    0    0    0  501  0.00000000000E+00  0.00000000000E+00  0.21318424490E+03  0.21318424492E+03  0.25500000920E-02 0.  1.
        2   -1    0    0  501    0  0.00000000000E+00  0.00000000000E+00 -0.14154596491E+04  0.14154596491E+04  0.25500000920E-02 0. -1.
    10030    2    1    2    0    0  0.00000000000E+00  0.00000000000E+00 -0.12022754042E+04  0.16286438940E+04  0.10986422466E+04 0.  0.
        5    1    3    3  502    0  0.52010455755E+03  0.16553220659E+03 -0.50949201813E+03  0.74666851329E+03  0.46999998093E+01 0.  1.
       -5    1    3    3    0  502 -0.52010455755E+03 -0.16553220659E+03 -0.69278338610E+03  0.88197538076E+03  0.46999998093E+01 0. -1.
</event>
<event>
 5   0  0.1396936E-03  0.1098968E+04  0.7818609E-02  0.9206198E-01
       -2   -1    0    0    0  501  0.00000000000E+00  0.00000000000E+00  0.19621278844E+03  0.19621278846E+03  0.25500000920E-02 0.  1.
        2   -1    0    0  501    0  0.00000000000E+00  0.00000000000E+00 -0.15388027578E+04  0.15388027579E+04  0.25500000920E-02 0. -1.
    10030    2    1    2    0    0  0.00000000000E+00  0.00000000000E+00 -0.13425899694E+04  0.17350155463E+04  0.10989682070E+04 0.  0.
        2    1    3    3  502    0  0.42523675058E+03  0.33044298664E+03 -0.49897106884E+03  0.73416005680E+03  0.25500000920E-02 0.  1.
       -2    1    3    3    0  502 -0.42523675058E+03 -0.33044298664E+03 -0.84361890057E+03  0.10008554895E+04  0.25500000920E-02 0. -1.
</event>
<event>
 5   0  0.8341767E-04  0.1096826E+04  0.7818609E-02  0.9208291E-01
        1   -1    0    0  501    0  0.00000000000E+00  0.00000000000E+00  0.52467128831E+03  0.52467128833E+03  0.50400001928E-02 0. -1.
       -1   -1    0    0    0  501  0.00000000000E+00  0.00000000000E+00 -0.57322874956E+03  0.57322874959E+03  0.50400001928E-02 0.  1.
    10030    2    1    2    0    0  0.00000000000E+00  0.00000000000E+00 -0.48557461253E+02  0.10979000379E+04  0.10968257228E+04 0.  0.
        2    1    3    3  502    0  0.99759956271E+02 -0.30100927533E+03 -0.47215193197E+03  0.56875836660E+03  0.25500000920E-02 0.  1.
       -2    1    3    3    0  502 -0.99759956271E+02  0.30100927533E+03  0.42359447071E+03  0.52914167132E+03  0.25500000920E-02 0. -1.
</event>
<event>
 5   0  0.1425432E-03  0.1104680E+04  0.7818609E-02  0.9200642E-01
        2   -1    0    0  501    0  0.00000000000E+00  0.00000000000E+00  0.10938158977E+04  0.10938158977E+04  0.25500000920E-02 0. -1.
       -2   -1    0    0    0  501  0.00000000000E+00  0.00000000000E+00 -0.27891314470E+03  0.27891314472E+03  0.25500000920E-02 0.  1.
    10030    2    1    2    0    0  0.00000000000E+00  0.00000000000E+00  0.81490275298E+03  0.13727290424E+04  0.11046802827E+04 0.  0.
        1    1    3    3  502    0 -0.43363390749E+03 -0.32768159430E+03  0.52962360224E+03  0.75889047500E+03  0.50400001928E-02 0.  1.
       -1    1    3    3    0  502  0.43363390749E+03  0.32768159430E+03  0.28527915074E+03  0.61383856740E+03  0.50400001928E-02 0. -1.
</event>
<event>
 5   0  0.5409500E-04  0.1099464E+04  0.7818609E-02  0.9205714E-01
        3   -1    0    0  501    0  0.00000000000E+00  0.00000000000E+00  0.20349974698E+03  0.20349977204E+03  0.10100000352E+00 0.  1.
       -3   -1    0    0    0  501  0.00000000000E+00  0.00000000000E+00 -0.14850409402E+04  0.14850409436E+04  0.10100000352E+00 0. -1.
    10030    2    1    2    0    0  0.00000000000E+00  0.00000000000E+00 -0.12815411932E+04  0.16885407157E+04  0.10994643780E+04 0.  0.
        1    1    3    3  502    0 -0.11077778667E+03  0.34794484143E+03 -0.12718794107E+04  0.13232590699E+04  0.50400001928E-02 0. -1.
       -1    1    3    3    0  502  0.11077778667E+03 -0.34794484143E+03 -0.96617825652E+01  0.36528164581E+03  0.50400001928E-02 0.  1.
</event>
<event>
 5   0  0.5409500E-04  0.1100075E+04  0.7818609E-02  0.9205119E-01
       -4   -1    0    0    0  501  0.00000000000E+00  0.00000000000E+00  0.46739710867E+03  0.46739883407E+03  0.12699999809E+01 0.  1.
        4   -1    0    0  501    0  0.00000000000E+00  0.00000000000E+00 -0.64728624414E+03  0.64728749003E+03  0.12699999809E+01 0. -1.
    10030    2    1    2    0    0  0.00000000000E+00  0.00000000000E+00 -0.17988913547E+03  0.11146863241E+04  0.11000752247E+04 0.  0.
        1    1    3    3  502    0  0.31344561497E+03 -0.18033588774E+03  0.33001425941E+03  0.48956980850E+03  0.50400001928E-02 0.  1.
       -1    1    3    3    0  502 -0.31344561497E+03  0.18033588774E+03 -0.50990339488E+03  0.62511651561E+03  0.50400001928E-02 0. -1.
</event>
<event>
 5   0  0.8009636E-04  0.1102144E+04  0.7818609E-02  0.9203104E-01
        1   -1    0    0  501    0  0.00000000000E+00  0.00000000000E+00  0.68805971385E+03  0.68805971387E+03  0.50400001928E-02 0. -1.
       -1   -1    0    0    0  501  0.00000000000E+00  0.00000000000E+00 -0.44135775875E+03  0.44135775877E+03  0.50400001928E-02 0.  1.
    10030    2    1    2    0    0  0.00000000000E+00  0.00000000000E+00  0.24670195511E+03  0.11294174726E+04  0.11021442614E+04 0.  0.
        1    1    3    3  502    0 -0.27598020409E+03 -0.25742598739E+03 -0.28814183963E+03  0.47482515920E+03  0.50400001928E-02 0.  1.
       -1    1    3    3    0  502  0.27598020409E+03  0.25742598739E+03  0.53484379474E+03  0.65459231345E+03  0.50400001928E-02 0. -1.
</event>
<event>
 5   0  0.8150924E-04  0.1101145E+04  0.7818609E-02  0.9204077E-01
        1   -1    0    0  501    0  0.00000000000E+00  0.00000000000E+00  0.23291596271E+03  0.23291596276E+03  0.50400001928E-02 0. -1.
       -1   -1    0    0    0  501  0.00000000000E+00  0.00000000000E+00 -0.13014563715E+04  0.13014563715E+04  0.50400001928E-02 0.  1.
    10030    2    1    2    0    0  0.00000000000E+00  0.00000000000E+00 -0.10685404088E+04  0.15343723342E+04  0.11011447929E+04 0.  0.
        3    1    3    3  502    0  0.31261761776E+03 -0.40475226200E+03 -0.81839331377E+03  0.96505015141E+03  0.10100000352E+00 0.  1.
       -3    1    3    3    0  502 -0.31261761776E+03  0.40475226200E+03 -0.25014709499E+03  0.56932218283E+03  0.10100000352E+00 0. -1.
</event>
<event>
 5   0  0.8341767E-04  0.1098218E+04  0.7818609E-02  0.9206931E-01
        1   -1    0    0  501    0  0.00000000000E+00  0.00000000000E+00  0.58628352892E+03  0.58628352894E+03  0.50400001928E-02 0.  1.
       -1   -1    0    0    0  501  0.00000000000E+00  0.00000000000E+00 -0.51429153786E+03  0.51429153789E+03  0.50400001928E-02 0. -1.
    10030    2    1    2    0    0  0.00000000000E+00  0.00000000000E+00  0.71991991056E+02  0.11005750668E+04  0.10982179342E+04 0.  0.
        2    1    3    3  502    0 -0.44778565290E+03  0.26615445691E+03 -0.13807330709E+03  0.53890112638E+03  0.25500000920E-02 0. -1.
       -2    1    3    3    0  502  0.44778565290E+03 -0.26615445691E+03  0.21006529814E+03  0.56167394044E+03  0.25500000920E-02 0.  1.
</event>
<event>
 5   0  0.8150924E-04  0.1092202E+04  0.7818609E-02  0.9212826E-01
        1   -1    0    0  501    0  0.00000000000E+00  0.00000000000E+00  0.52091335353E+03  0.52091335356E+03  0.50400001928E-02 0.  1.
       -1   -1    0    0    0  501  0.00000000000E+00  0.00000000000E+00 -0.57250622211E+03  0.57250622213E+03  0.50400001928E-02 0. -1.
    10030    2    1    2    0    0  0.00000000000E+00  0.00000000000E+00 -0.51592868580E+02  0.10934195757E+04  0.10922016958E+04 0.  0.
        3    1    3    3  502    0  0.37774435337E+03  0.39415610443E+03 -0.39088842884E+02  0.54733698851E+03  0.10100000352E+00 0.  1.
       -3    1    3    3    0  502 -0.37774435337E+03 -0.39415610443E+03 -0.12504025696E+02  0.54608258718E+03  0.10100000352E+00 0. -1.
</event>
<event>
 5   0  0.7946038E-04  0.1106306E+04  0.7818609E-02  0.9199067E-01
        1   -1    0    0  501    0  0.00000000000E+00  0.00000000000E+00  0.55574169165E+03  0.55574169167E+03  0.50400001928E-02 0. -1.
       -1   -1    0    0    0  501  0.00000000000E+00  0.00000000000E+00 -0.55057672762E+03  0.55057672764E+03  0.50400001928E-02 0.  1.
    10030    2    1    2    0    0  0.00000000000E+00  0.00000000000E+00  0.51649640256E+01  0.11063184193E+04  0.11063063627E+04 0.  0.
        4    1    3    3  502    0  0.20441211333E+03 -0.12013755462E+03 -0.49718239156E+03  0.55082600472E+03  0.12699999809E+01 0.  1.
       -4    1    3    3    0  502 -0.20441211333E+03  0.12013755462E+03  0.50234735558E+03  0.55549241459E+03  0.12699999809E+01 0. -1.
</event>
<event>
 5   0  0.8341767E-04  0.1099021E+04  0.7818609E-02  0.9206147E-01
        1   -1    0    0  501    0  0.00000000000E+00  0.00000000000E+00  0.11566072988E+04  0.11566072988E+04  0.50400001928E-02 0. -1.
       -1   -1    0    0    0  501  0.00000000000E+00  0.00000000000E+00 -0.26107524403E+03  0.26107524408E+03  0.50400001928E-02 0.  1.
    10030    2    1    2    0    0  0.00000000000E+00  0.00000000000E+00  0.89553205478E+03  0.14176825429E+04  0.10990205327E+04 0.  0.
        2    1    3    3  502    0  0.37932566535E+03  0.39319293912E+03  0.52378436878E+03  0.75686109211E+03  0.25500000920E-02 0.  1.
       -2    1    3    3    0  502 -0.37932566535E+03 -0.39319293912E+03  0.37174768600E+03  0.66082145079E+03  0.25500000920E-02 0. -1.
</event>
<event>
 5   0  0.1396936E-03  0.1098521E+04  0.7818609E-02  0.9206635E-01
       -2   -1    0    0    0  501  0.00000000000E+00  0.00000000000E+00  0.31176374065E+03  0.31176374066E+03  0.25500000920E-02 0. -1.
        2   -1    0    0  501    0  0.00000000000E+00  0.00000000000E+00 -0.96767799647E+03  0.96767799648E+03  0.25500000920E-02 0.  1.
    10030    2    1    2    0    0  0.00000000000E+00  0.00000000000E+00 -0.65591425583E+03  0.12794417371E+04  0.10985206633E+04 0.  0.
        2    1    3    3  502    0 -0.49961160949E+03  0.82665597043E+02 -0.80225746495E+02  0.51271973990E+03  0.25500000920E-02 0. -1.
       -2    1    3    3    0  502  0.49961160949E+03 -0.82665597043E+02 -0.57568850933E+03  0.76672199724E+03  0.25500000920E-02 0.  1.
</event>
<event>
 5   0  0.8341767E-04  0.1105109E+04  0.7818609E-02  0.9200226E-01
       -1   -1    0    0    0  501  0.00000000000E+00  0.00000000000E+00  0.50489357924E+03  0.50489357927E+03  0.50400001928E-02 0. -1.
        1   -1    0    0  501    0  0.00000000000E+00  0.00000000000E+00 -0.60471464759E+03  0.60471464761E+03  0.50400001928E-02 0.  1.
    10030    2    1    2    0    0  0.00000000000E+00  0.00000000000E+00 -0.99821068348E+02  0.11096082269E+04  0.11051091220E+04 0.  0.
        2    1    3    3  502    0  0.33521560003E+03 -0.33681976652E+03  0.23319390122E+03  0.52933585670E+03  0.25500000920E-02 0.  1.
       -2    1    3    3    0  502 -0.33521560003E+03  0.33681976652E+03 -0.33301496957E+03  0.58027237017E+03  0.25500000920E-02 0. -1.
</event>
<event>
 5   0  0.8305271E-04  0.1101270E+04  0.7818609E-02  0.9203955E-01
        1   -1    0    0  501    0  0.00000000000E+00  0.00000000000E+00  0.17111032575E+04  0.17111032575E+04  0.50400001928E-02 0.  1.
       -1   -1    0    0    0  501  0.00000000000E+00  0.00000000000E+00 -0.17719482394E+03  0.17719482401E+03  0.50400001928E-02 0. -1.
    10030    2    1    2    0    0  0.00000000000E+00  0.00000000000E+00  0.15339084335E+04  0.18882980815E+04  0.11012695229E+04 0.  0.
        5    1    3    3  502    0  0.33912875800E+03  0.42593417467E+03  0.90780997321E+03  0.10585694465E+04  0.46999998093E+01 0.  1.
       -5    1    3    3    0  502 -0.33912875800E+03 -0.42593417467E+03  0.62609846031E+03  0.82972863495E+03  0.46999998093E+01 0. -1.
</event>
<event>
 5   0  0.5409500E-04  0.1100650E+04  0.7818609E-02  0.9204558E-01
       -3   -1    0    0    0  501  0.00000000000E+00  0.00000000000E+00  0.53531795710E+03  0.53531796663E+03  0.10100000352E+00 0. -1.
        3   -1    0    0  501    0  0.00000000000E+00  0.00000000000E+00 -0.56575304116E+03  0.56575305018E+03  0.10100000352E+00 0.  1.
    10030    2    1    2    0    0  0.00000000000E+00  0.00000000000E+00 -0.30435084064E+02  0.11010710168E+04  0.11006503031E+04 0.  0.
        4    1    3    3  502    0 -0.55134940942E+02  0.40624436579E+03  0.35204921531E+03  0.54038376118E+03  0.12699999809E+01 0. -1.
       -4    1    3    3    0  502  0.55134940942E+02 -0.40624436579E+03 -0.38248429937E+03  0.56068725562E+03  0.12699999809E+01 0.  1.
</event>
<event>
 5   0  0.1429680E-03  0.1099661E+04  0.7818609E-02  0.9205522E-01
       -2   -1    0    0    0  501  0.00000000000E+00  0.00000000000E+00  0.36361103620E+03  0.36361103621E+03  0.25500000920E-02 0.  1.
        2   -1    0    0  501    0  0.00000000000E+00  0.00000000000E+00 -0.83142079616E+03  0.83142079617E+03  0.25500000920E-02 0. -1.
    10030    2    1    2    0    0  0.00000000000E+00  0.00000000000E+00 -0.46780975997E+03  0.11950318324E+04  0.10996613610E+04 0.  0.
        3    1    3    3  502    0 -0.22545991577E+03  0.48568827840E+03 -0.98222789134E+02  0.54440150983E+03  0.10100000352E+00 0. -1.
       -3    1    3    3    0  502  0.22545991577E+03 -0.48568827840E+03 -0.36958697083E+03  0.65063032254E+03  0.10100000352E+00 0.  1.
</event>
<event>
 5   0  0.1429680E-03  0.1065273E+04  0.7818609E-02  0.9239716E-01
       -2   -1    0    0    0  501  0.00000000000E+00  0.00000000000E+00  0.87140249194E+03  0.87140249194E+03  0.25500000920E-02 0.  1.
        2   -1    0    0  501    0  0.00000000000E+00  0.00000000000E+00 -0.32556921376E+03  0.32556921377E+03  0.25500000920E-02 0. -1.
    10030    2    1    2    0    0  0.00000000000E+00  0.00000000000E+00  0.54583327818E+03  0.11969717057E+04  0.10652733437E+04 0.  0.
        3    1    3    3  502    0 -0.48966390820E+03 -0.17278774703E+03  0.40622402352E+03  0.65927559943E+03  0.10100000352E+00 0.  1.
       -3    1    3    3    0  502  0.48966390820E+03  0.17278774703E+03  0.13960925466E+03  0.53769610628E+03  0.10100000352E+00 0. -1.
</event>
<event>
 5   0  0.1372794E-03  0.1106137E+04  0.7818609E-02  0.9199231E-01
        2   -1    0    0  501    0  0.00000000000E+00  0.00000000000E+00  0.11679823470E+04  0.11679823470E+04  0.25500000920E-02 0. -1.
       -2   -1    0    0    0  501  0.00000000000E+00  0.00000000000E+00 -0.26189165528E+03  0.26189165529E+03  0.25500000920E-02 0.  1.
    10030    2    1    2    0    0  0.00000000000E+00  0.00000000000E+00  0.90609069167E+03  0.14298740022E+04  0.11061371166E+04 0.  0.
        4    1    3    3  502    0  0.24050482381E+03  0.47738708741E+03  0.63650578415E+03  0.83119325530E+03  0.12699999809E+01 0. -1.
       -4    1    3    3    0  502 -0.24050482381E+03 -0.47738708741E+03  0.26958490753E+03  0.59868074695E+03  0.12699999809E+01 0.  1.
</event>
<event>
 5   0  0.1429680E-03  0.1090468E+04  0.7818609E-02  0.9214533E-01
        2   -1    0    0  501    0  0.00000000000E+00  0.00000000000E+00  0.59952029985E+03  0.59952029986E+03  0.25500000920E-02 0. -1.
       -2   -1    0    0    0  501  0.00000000000E+00  0.00000000000E+00 -0.49586317677E+03  0.49586317678E+03  0.25500000920E-02 0.  1.
    10030    2    1    2    0    0  0.00000000000E+00  0.00000000000E+00  0.10365712308E+03  0.10953834766E+04  0.10904678637E+04 0.  0.
        3    1    3    3  502    0  0.38429520434E+01 -0.20357826684E+03 -0.45623908321E+03  0.49961284037E+03  0.10100000352E+00 0.  1.
       -3    1    3    3    0  502 -0.38429520434E+01  0.20357826684E+03  0.55989620629E+03  0.59577063626E+03  0.10100000352E+00 0. -1.
</event>
<event>
 5   0  0.1425432E-03  0.1097050E+04  0.7818609E-02  0.9208072E-01
       -2   -1    0    0    0  501  0.00000000000E+00  0.00000000000E+00  0.16313884092E+03  0.16313884094E+03  0.25500000920E-02 0. -1.
        2   -1    0    0  501    0  0.00000000000E+00  0.00000000000E+00 -0.18443153203E+04  0.18443153203E+04  0.25500000920E-02 0.  1.
    10030    2    1    2    0    0  0.00000000000E+00  0.00000000000E+00 -0.16811764794E+04  0.20074541612E+04  0.10970496136E+04 0.  0.
        1    1    3    3  502    0 -0.30155595281E+03  0.43403519543E+03 -0.11092542489E+04  0.12287259793E+04  0.50400001928E-02 0.  1.
       -1    1    3    3    0  502  0.30155595281E+03 -0.43403519543E+03 -0.57192223051E+03  0.77872818193E+03  0.50400001928E-02 0. -1.
</event>
<event>
 5   0  0.1429680E-03  0.1100963E+04  0.7818609E-02  0.9204254E-01
       -2   -1    0    0    0  501  0.00000000000E+00  0.00000000000E+00  0.61147180688E+03  0.61147180689E+03  0.25500000920E-02 0. -1.
        2   -1    0    0  501    0  0.00000000000E+00  0.00000000000E+00 -0.49557451388E+03  0.49557451389E+03  0.25500000920E-02 0.  1.
    10030    2    1    2    0    0  0.00000000000E+00  0.00000000000E+00  0.11589729300E+03  0.11070463208E+04  0.11009629303E+04 0.  0.
        3    1    3    3  502    0  0.33278198583E+02  0.20907397209E+03  0.56890054801E+03  0.60701499820E+03  0.10100000352E+00 0. -1.
       -3    1    3    3    0  502 -0.33278198583E+02 -0.20907397209E+03 -0.45300325501E+03  0.50003132258E+03  0.10100000352E+00 0.  1.
</event>
<event>
 5   0  0.1402775E-03  0.1093514E+04  0.7818609E-02  0.9211537E-01
        2   -1    0    0  501    0  0.00000000000E+00  0.00000000000E+00  0.59104848681E+03  0.59104848681E+03  0.25500000920E-02 0. -1.
       -2   -1    0    0    0  501  0.00000000000E+00  0.00000000000E+00 -0.50578424025E+03  0.50578424025E+03  0.25500000920E-02 0.  1.
    10030    2    1    2    0    0  0.00000000000E+00  0.00000000000E+00  0.85264246560E+02  0.10968327271E+04  0.10935136210E+04 0.  0.
        5    1    3    3  502    0 -0.51164571457E+03 -0.59895833258E+02 -0.14109609963E+03  0.53413392273E+03  0.46999998093E+01 0.  1.
       -5    1    3    3    0  502  0.51164571457E+03  0.59895833258E+02  0.22636034619E+03  0.56269880434E+03  0.46999998093E+01 0. -1.
</event>
<event>
 5   0  0.8150924E-04  0.1082127E+04  0.7818609E-02  0.9222790E-01
        1   -1    0    0  501    0  0.00000000000E+00  0.00000000000E+00  0.15181795210E+04  0.15181795210E+04  0.50400001928E-02 0.  1.
       -1   -1    0    0    0  501  0.00000000000E+00  0.00000000000E+00 -0.19282933716E+03  0.19282933723E+03  0.50400001928E-02 0. -1.
    10030    2    1    2    0    0  0.00000000000E+00  0.00000000000E+00  0.13253501838E+04  0.17110088582E+04  0.10821267038E+04 0.  0.
        3    1    3    3  502    0  0.33868062538E+03 -0.41610964027E+03  0.77333035869E+03  0.94121817481E+03  0.10100000352E+00 0.  1.
       -3    1    3    3    0  502 -0.33868062538E+03  0.41610964027E+03  0.55201982515E+03  0.76979068343E+03  0.10100000352E+00 0. -1.
</event>
<event>
 5   0  0.8009636E-04  0.1098635E+04  0.7818609E-02  0.9206523E-01
        1   -1    0    0  501    0  0.00000000000E+00  0.00000000000E+00  0.18558708884E+03  0.18558708891E+03  0.50400001928E-02 0. -1.
       -1   -1    0    0    0  501  0.00000000000E+00  0.00000000000E+00 -0.16259209608E+04  0.16259209608E+04  0.50400001928E-02 0.  1.
    10030    2    1    2    0    0  0.00000000000E+00  0.00000000000E+00 -0.14403338719E+04  0.18115080497E+04  0.10986354042E+04 0.  0.
        1    1    3    3  502    0 -0.30399056676E+02  0.44382076899E+03 -0.12515255851E+04  0.13282384077E+04  0.50400001928E-02 0.  1.
       -1    1    3    3    0  502  0.30399056676E+02 -0.44382076899E+03 -0.18880828684E+03  0.48326964196E+03  0.50400001928E-02 0. -1.
</event>
<event>
 5   0  0.8150924E-04  0.1098980E+04  0.7818609E-02  0.9206186E-01
        1   -1    0    0  501    0  0.00000000000E+00  0.00000000000E+00  0.10918625555E+04  0.10918625555E+04  0.50400001928E-02 0.  1.
       -1   -1    0    0    0  501  0.00000000000E+00  0.00000000000E+00 -0.27653603072E+03  0.27653603076E+03  0.50400001928E-02 0. -1.
    10030    2    1    2    0    0  0.00000000000E+00  0.00000000000E+00  0.81532652476E+03  0.13683985863E+04  0.10989801404E+04 0.  0.
        3    1    3    3  502    0  0.45380695128E+02 -0.51953248263E+03  0.62320757760E+03  0.81262605359E+03  0.10100000352E+00 0. -1.
       -3    1    3    3    0  502 -0.45380695128E+02  0.51953248263E+03  0.19211894716E+03  0.55577253266E+03  0.10100000352E+00 0.  1.
</event>
<event>
 5   0  0.8009636E-04  0.1099955E+04  0.7818609E-02  0.9205236E-01
        1   -1    0    0  501    0  0.00000000000E+00  0.00000000000E+00  0.11174851217E+04  0.11174851217E+04  0.50400001928E-02 0. -1.
       -1   -1    0    0    0  501  0.00000000000E+00  0.00000000000E+00 -0.27067502145E+03  0.27067502150E+03  0.50400001928E-02 0.  1.
    10030    2    1    2    0    0  0.00000000000E+00  0.00000000000E+00  0.84681010023E+03  0.13881601432E+04  0.10999551069E+04 0.  0.
        1    1    3    3  502    0  0.32807258376E+03 -0.77833078119E+02  0.97174407935E+03  0.10285796829E+04  0.50400001928E-02 0. -1.
       -1    1    3    3    0  502 -0.32807258376E+03  0.77833078119E+02 -0.12493397913E+03  0.35958046030E+03  0.50400001928E-02 0.  1.
</event>
<event>
 5   0  0.7946038E-04  0.1059069E+04  0.7818609E-02  0.9246030E-01
       -1   -1    0    0    0  501  0.00000000000E+00  0.00000000000E+00  0.19878991819E+03  0.19878991825E+03  0.50400001928E-02 0.  1.
        1   -1    0    0  501    0  0.00000000000E+00  0.00000000000E+00 -0.14105693141E+04  0.14105693141E+04  0.50400001928E-02 0. -1.
    10030    2    1    2    0    0  0.00000000000E+00  0.00000000000E+00 -0.12117793959E+04  0.16093592324E+04  0.10590693247E+04 0.  0.
        4    1    3    3  502    0  0.13915333085E+03  0.38980165636E+03 -0.10397057008E+03  0.42675575348E+03  0.12699999809E+01 0.  1.
       -4    1    3    3    0  502 -0.13915333085E+03 -0.38980165636E+03 -0.11078088259E+04  0.11826034789E+04  0.12699999809E+01 0. -1.
</event>
<event>
 5   0  0.1372794E-03  0.1087189E+04  0.7818609E-02  0.9217769E-01
       -2   -1    0    0    0  501  0.00000000000E+00  0.00000000000E+00  0.11334184251E+03  0.11334184254E+03  0.25500000920E-02 0.  1.
        2   -1    0    0  501    0  0.00000000000E+00  0.00000000000E+00 -0.26071140864E+04  0.26071140864E+04  0.25500000920E-02 0. -1.
    10030    2    1    2    0    0  0.00000000000E+00  0.00000000000E+00 -0.24937722439E+04  0.27204559289E+04  0.10871892461E+04 0.  0.
        4    1    3    3  502    0  0.25851186579E+03  0.31439556143E+03 -0.21484744175E+04  0.21866908536E+04  0.12699999809E+01 0. -1.
       -4    1    3    3    0  502 -0.25851186579E+03 -0.31439556143E+03 -0.34529782638E+03  0.53376507530E+03  0.12699999809E+01 0.  1.
</event>
<event>
 5   0  0.1402775E-03  0.1132596E+04  0.7818609E-02  0.9173991E-01
        2   -1    0    0  501    0  0.00000000000E+00  0.00000000000E+00  0.17754992281E+04  0.17754992281E+04  0.25500000920E-02 0.  1.
       -2   -1    0    0    0  501  0.00000000000E+00  0.00000000000E+00 -0.18062151471E+03  0.18062151473E+03  0.25500000920E-02 0. -1.
    10030    2    1    2    0    0  0.00000000000E+00  0.00000000000E+00  0.15948777134E+04  0.19561207428E+04  0.11325958855E+04 0.  0.
        5    1    3    3  502    0 -0.84639907776E+02  0.25212992144E+03  0.16608878772E+04  0.16820535193E+04  0.46999998093E+01 0.  1.
       -5    1    3    3    0  502  0.84639907776E+02 -0.25212992144E+03 -0.66010163809E+02  0.27406722350E+03  0.46999998093E+01 0. -1.
</event>
<event>
 5   0  0.7946038E-04  0.1100686E+04  0.7818609E-02  0.9204524E-01
        1   -1    0    0  501    0  0.00000000000E+00  0.00000000000E+00  0.47854404216E+03  0.47854404219E+03  0.50400001928E-02 0. -1.
       -1   -1    0    0    0  501  0.00000000000E+00  0.00000000000E+00 -0.63291432834E+03  0.63291432836E+03  0.50400001928E-02 0.  1.
    10030    2    1    2    0    0  0.00000000000E+00  0.00000000000E+00 -0.15437028618E+03  0.11114583705E+04  0.11006859335E+04 0.  0.
        4    1    3    3  502    0  0.30175379471E+03 -0.15402942829E+03  0.36075909326E+03  0.49490317605E+03  0.12699999809E+01 0. -1.
       -4    1    3    3    0  502 -0.30175379471E+03  0.15402942829E+03 -0.51512937944E+03  0.61655519449E+03  0.12699999809E+01 0.  1.
</event>
<event>
 5   0  0.1429680E-03  0.1099592E+04  0.7818609E-02  0.9205589E-01
       -2   -1    0    0    0  501  0.00000000000E+00  0.00000000000E+00  0.45902173030E+03  0.45902173031E+03  0.25500000920E-02 0. -1.
        2   -1    0    0  501    0  0.00000000000E+00  0.00000000000E+00 -0.65852199498E+03  0.65852199499E+03  0.25500000920E-02 0.  1.
    10030    2    1    2    0    0  0.00000000000E+00  0.00000000000E+00 -0.19950026468E+03  0.11175437253E+04  0.10995924801E+04 0.  0.
        3    1    3    3  502    0  0.51587220113E+03 -0.12681632786E+03  0.44229085988E+02  0.53306916170E+03  0.10100000352E+00 0.  1.
       -3    1    3    3    0  502 -0.51587220113E+03  0.12681632786E+03 -0.24372935067E+03  0.58447456359E+03  0.10100000352E+00 0. -1.
</event>
<event>
 5   0  0.1425432E-03  0.1099926E+04  0.7818609E-02  0.9205264E-01
        2   -1    0    0  501    0  0.00000000000E+00  0.00000000000E+00  0.39292223713E+03  0.39292223714E+03  0.25500000920E-02 0.  1.
       -2   -1    0    0    0  501  0.00000000000E+00  0.00000000000E+00 -0.76976952383E+03  0.76976952383E+03  0.25500000920E-02 0. -1.
    10030    2    1    2    0    0  0.00000000000E+00  0.00000000000E+00 -0.37684728670E+03  0.11626917610E+04  0.10999264764E+04 0.  0.
        1    1    3    3  502    0  0.14131316093E+03  0.32163458802E+03  0.25885442696E+03  0.43637579223E+03  0.50400001928E-02 0.  1.
       -1    1    3    3    0  502 -0.14131316093E+03 -0.32163458802E+03 -0.63570171367E+03  0.72631596874E+03  0.50400001928E-02 0. -1.
</event>
<event>
 5   0  0.1396936E-03  0.1100513E+04  0.7818609E-02  0.9204692E-01
        2   -1    0    0  501    0  0.00000000000E+00  0.00000000000E+00  0.26071309315E+04  0.26071309315E+04  0.25500000920E-02 0. -1.
       -2   -1    0    0    0  501  0.00000000000E+00  0.00000000000E+00 -0.11613626651E+03  0.11613626653E+03  0.25500000920E-02 0.  1.
    10030    2    1    2    0    0  0.00000000000E+00  0.00000000000E+00  0.24909946650E+04  0.27232671980E+04  0.11005134306E+04 0.  0.
        2    1    3    3  502    0 -0.90996096841E+02  0.49955651076E+03  0.17701088266E+04  0.18415000014E+04  0.25500000920E-02 0. -1.
       -2    1    3    3    0  502  0.90996096841E+02 -0.49955651076E+03  0.72088583840E+03  0.88176719666E+03  0.25500000920E-02 0.  1.
</event>
<event>
 5   0  0.5409500E-04  0.1099687E+04  0.7818609E-02  0.9205497E-01
       -4   -1    0    0    0  501  0.00000000000E+00  0.00000000000E+00  0.85057321578E+03  0.85057416391E+03  0.12699999809E+01 0. -1.
        4   -1    0    0  501    0  0.00000000000E+00  0.00000000000E+00 -0.35543781964E+03  0.35544008853E+03  0.12699999809E+01 0.  1.
    10030    2    1    2    0    0  0.00000000000E+00  0.00000000000E+00  0.49513539614E+03  0.12060142524E+04  0.10996869175E+04 0.  0.
        3    1    3    3  502    0 -0.10134118582E+03  0.37934909342E+03 -0.17455354844E+03  0.42970306270E+03  0.10100000352E+00 0.  1.
       -3    1    3    3    0  502  0.10134118582E+03 -0.37934909342E+03  0.66968894457E+03  0.77631118973E+03  0.10100000352E+00 0. -1.
</event>
<event>
 5   0  0.7946038E-04  0.1100747E+04  0.7818609E-02  0.9204464E-01
        1   -1    0    0  501    0  0.00000000000E+00  0.00000000000E+00  0.28150941250E+03  0.28150941254E+03  0.50400001928E-02 0.  1.
       -1   -1    0    0    0  501  0.00000000000E+00  0.00000000000E+00 -0.10760245703E+04  0.10760245703E+04  0.50400001928E-02 0. -1.
    10030    2    1    2    0    0  0.00000000000E+00  0.00000000000E+00 -0.79451515778E+03  0.13575339828E+04  0.11007471002E+04 0.  0.
        4    1    3    3  502    0 -0.15895931760E+03  0.17444126377E+03 -0.10104511511E+04  0.10376468382E+04  0.12699999809E+01 0. -1.
       -4    1    3    3    0  502  0.15895931760E+03 -0.17444126377E+03  0.21593599335E+03  0.31988714460E+03  0.12699999809E+01 0.  1.
</event>
<event>
 5   0  0.1402775E-03  0.1104627E+04  0.7818609E-02  0.9200694E-01
       -2   -1    0    0    0  501  0.00000000000E+00  0.00000000000E+00  0.46007489912E+03  0.46007489913E+03  0.25500000920E-02 0.  1.
        2   -1    0    0  501    0  0.00000000000E+00  0.00000000000E+00 -0.66304414718E+03  0.66304414719E+03  0.25500000920E-02 0. -1.
    10030    2    1    2    0    0  0.00000000000E+00  0.00000000000E+00 -0.20296924806E+03  0.11231190463E+04  0.11046265779E+04 0.  0.
        5    1    3    3  502    0 -0.11068271260E+03  0.52551550192E+03  0.29555388191E+02  0.53787806852E+03  0.46999998093E+01 0.  1.
       -5    1    3    3    0  502  0.11068271260E+03 -0.52551550192E+03 -0.23252463625E+03  0.58524097780E+03  0.46999998093E+01 0. -1.
</event>
<event>
 5   0  0.5409500E-04  0.1093126E+04  0.7818609E-02  0.9211918E-01
       -4   -1    0    0    0  501  0.00000000000E+00  0.00000000000E+00  0.66909090895E+03  0.66909211424E+03  0.12699999809E+01 0.  1.
        4   -1    0    0  501    0  0.00000000000E+00  0.00000000000E+00 -0.44647058971E+03  0.44647239598E+03  0.12699999809E+01 0. -1.
    10030    2    1    2    0    0  0.00000000000E+00  0.00000000000E+00  0.22262031924E+03  0.11155645102E+04  0.10931259625E+04 0.  0.
        4    1    3    3  502    0  0.31871955287E+03 -0.21568808761E+03  0.50738240998E+03  0.63682181760E+03  0.12699999809E+01 0.  1.
       -4    1    3    3    0  502 -0.31871955287E+03  0.21568808761E+03 -0.28476209074E+03  0.47874269262E+03  0.12699999809E+01 0. -1.
</event>
<event>
 5   0  0.8305271E-04  0.1101760E+04  0.7818609E-02  0.9203478E-01
        1   -1    0    0  501    0  0.00000000000E+00  0.00000000000E+00  0.19733939803E+04  0.19733939803E+04  0.50400001928E-02 0.  1.
       -1   -1    0    0    0  501  0.00000000000E+00  0.00000000000E+00 -0.15378003103E+03  0.15378003111E+03  0.50400001928E-02 0. -1.
    10030    2    1    2    0    0  0.00000000000E+00  0.00000000000E+00  0.18196139493E+04  0.21271740114E+04  0.11017596610E+04 0.  0.
        5    1    3    3  502    0 -0.24791270961E+02 -0.28023847401E+03 -0.45781043494E+01  0.28140941432E+03  0.46999998093E+01 0. -1.
       -5    1    3    3    0  502  0.24791270961E+02  0.28023847401E+03  0.18241920536E+04  0.18457645971E+04  0.46999998093E+01 0.  1.
</event>
<event>
 5   0  0.7946038E-04  0.1103314E+04  0.7818609E-02  0.9201968E-01
        1   -1    0    0  501    0  0.00000000000E+00  0.00000000000E+00  0.57243263866E+03  0.57243263868E+03  0.50400001928E-02 0. -1.
       -1   -1    0    0    0  501  0.00000000000E+00  0.00000000000E+00 -0.53163551159E+03  0.53163551161E+03  0.50400001928E-02 0.  1.
    10030    2    1    2    0    0  0.00000000000E+00  0.00000000000E+00  0.40797127072E+02  0.11040681503E+04  0.11033141325E+04 0.  0.
        4    1    3    3  502    0  0.48285996926E+02  0.21493784920E+03 -0.48570798072E+03  0.53333260912E+03  0.12699999809E+01 0.  1.
       -4    1    3    3    0  502 -0.48285996926E+02 -0.21493784920E+03  0.52650510779E+03  0.57073554117E+03  0.12699999809E+01 0. -1.
</event>
<event>
 5   0  0.8150924E-04  0.1110936E+04  0.7818609E-02  0.9194598E-01
        1   -1    0    0  501    0  0.00000000000E+00  0.00000000000E+00  0.33725823040E+03  0.33725823044E+03  0.50400001928E-02 0.  1.
       -1   -1    0    0    0  501  0.00000000000E+00  0.00000000000E+00 -0.91486263571E+03  0.91486263572E+03  0.50400001928E-02 0. -1.
    10030    2    1    2    0    0  0.00000000000E+00  0.00000000000E+00 -0.57760440531E+03  0.12521208662E+04  0.11109364583E+04 0.  0.
        3    1    3    3  502    0  0.26861526814E+03  0.47432998565E+03 -0.40915179288E+03  0.68157779995E+03  0.10100000352E+00 0. -1.
       -3    1    3    3    0  502 -0.26861526814E+03 -0.47432998565E+03 -0.16845261243E+03  0.57054306621E+03  0.10100000352E+00 0.  1.
</event>
<event>
 5   0  0.5409500E-04  0.1101363E+04  0.7818609E-02  0.9203864E-01
       -3   -1    0    0    0  501  0.00000000000E+00  0.00000000000E+00  0.48872909148E+03  0.48872910191E+03  0.10100000352E+00 0.  1.
        3   -1    0    0  501    0  0.00000000000E+00  0.00000000000E+00 -0.62048727098E+03  0.62048727920E+03  0.10100000352E+00 0. -1.
    10030    2    1    2    0    0  0.00000000000E+00  0.00000000000E+00 -0.13175817951E+03  0.11092163811E+04  0.11013631382E+04 0.  0.
        3    1    3    3  502    0  0.23752803714E+03 -0.46331850467E+03 -0.24650836919E+03  0.57606422513E+03  0.10100000352E+00 0.  1.
       -3    1    3    3    0  502 -0.23752803714E+03  0.46331850467E+03  0.11475018968E+03  0.53315215598E+03  0.10100000352E+00 0. -1.
</event>
<event>
 5   0  0.8305271E-04  0.1108443E+04  0.7818609E-02  0.9197001E-01
        1   -1    0    0  501    0  0.00000000000E+00  0.00000000000E+00  0.20503164147E+04  0.20503164147E+04  0.50400001928E-02 0. -1.
       -1   -1    0    0    0  501  0.00000000000E+00  0.00000000000E+00 -0.14981183273E+03  0.14981183282E+03  0.50400001928E-02 0.  1.
    10030    2    1    2    0    0  0.00000000000E+00  0.00000000000E+00  0.19005045820E+04  0.22001282475E+04  0.11084433407E+04 0.  0.
        5    1    3    3  502    0 -0.43056784836E+03 -0.61562245614E+02  0.16319686231E+04  0.16889411650E+04  0.46999998093E+01 0. -1.
       -5    1    3    3    0  502  0.43056784836E+03  0.61562245614E+02  0.26853595889E+03  0.51118708252E+03  0.46999998093E+01 0.  1.
</event>
<event>
 5   0  0.8009636E-04  0.1100045E+04  0.7818609E-02  0.9205148E-01
        1   -1    0    0  501    0  0.00000000000E+00  0.00000000000E+00  0.19387728717E+04  0.19387728717E+04  0.50400001928E-02 0. -1.
       -1   -1    0    0    0  501  0.00000000000E+00  0.00000000000E+00 -0.15603936022E+03  0.15603936030E+03  0.50400001928E-02 0.  1.
    10030    2    1    2    0    0  0.00000000000E+00  0.00000000000E+00  0.17827335115E+04  0.20948122320E+04  0.11000452329E+04 0.  0.
        1    1    3    3  502    0  0.14319533514E+03 -0.30547234555E+03  0.64133230857E+02  0.34341131203E+03  0.50400001928E-02 0.  1.
       -1    1    3    3    0  502 -0.14319533514E+03  0.30547234555E+03  0.17186002806E+04  0.17514009200E+04  0.50400001928E-02 0. -1.
</event>
<event>
 5   0  0.5409500E-04  0.1101443E+04  0.7818609E-02  0.9203786E-01
       -3   -1    0    0    0  501  0.00000000000E+00  0.00000000000E+00  0.18837949727E+04  0.18837949754E+04  0.10100000352E+00 0. -1.
        3   -1    0    0  501    0  0.00000000000E+00  0.00000000000E+00 -0.16100172224E+03  0.16100175392E+03  0.10100000352E+00 0.  1.
    10030    2    1    2    0    0  0.00000000000E+00  0.00000000000E+00  0.17227932505E+04  0.20447967294E+04  0.11014431808E+04 0.  0.
        4    1    3    3  502    0 -0.24841565416E+03 -0.47750794445E+03  0.64514783315E+03  0.84020325740E+03  0.12699999809E+01 0. -1.
       -4    1    3    3    0  502  0.24841565416E+03  0.47750794445E+03  0.10776454174E+04  0.12045934720E+04  0.12699999809E+01 0.  1.
</event>
<event>
 5   0  0.1425432E-03  0.1102417E+04  0.7818609E-02  0.9202839E-01
        2   -1    0    0  501    0  0.00000000000E+00  0.00000000000E+00  0.74088927216E+03  0.74088927216E+03  0.25500000920E-02 0. -1.
       -2   -1    0    0    0  501  0.00000000000E+00  0.00000000000E+00 -0.41008926256E+03  0.41008926257E+03  0.25500000920E-02 0.  1.
    10030    2    1    2    0    0  0.00000000000E+00  0.00000000000E+00  0.33080000960E+03  0.11509785347E+04  0.11024168636E+04 0.  0.
        1    1    3    3  502    0 -0.46969241760E+03 -0.75286746042E+01  0.46648331189E+03  0.66202290624E+03  0.50400001928E-02 0. -1.
       -1    1    3    3    0  502  0.46969241760E+03  0.75286746042E+01 -0.13568330229E+03  0.48895562849E+03  0.50400001928E-02 0.  1.
</event>
<event>
 5   0  0.8009636E-04  0.1105784E+04  0.7818609E-02  0.9199572E-01
       -1   -1    0    0    0  501  0.00000000000E+00  0.00000000000E+00  0.55433294908E+03  0.55433294910E+03  0.50400001928E-02 0. -1.
        1   -1    0    0  501    0  0.00000000000E+00  0.00000000000E+00 -0.55145499788E+03  0.55145499790E+03  0.50400001928E-02 0.  1.
    10030    2    1    2    0    0  0.00000000000E+00  0.00000000000E+00  0.28779511984E+01  0.11057879470E+04  0.11057842019E+04 0.  0.
        1    1    3    3  502    0 -0.33692612655E+03  0.20033137135E+03 -0.38848259602E+03  0.55187915392E+03  0.50400001928E-02 0.  1.
       -1    1    3    3    0  502  0.33692612655E+03 -0.20033137135E+03  0.39136054722E+03  0.55390879307E+03  0.50400001928E-02 0. -1.
</event>
<event>
 5   0  0.1372794E-03  0.1102585E+04  0.7818609E-02  0.9202676E-01
       -2   -1    0    0    0  501  0.00000000000E+00  0.00000000000E+00  0.24068398268E+03  0.24068398270E+03  0.25500000920E-02 0.  1.
        2   -1    0    0  501    0  0.00000000000E+00  0.00000000000E+00 -0.12627483996E+04  0.12627483996E+04  0.25500000920E-02 0. -1.
    10030    2    1    2    0    0  0.00000000000E+00  0.00000000000E+00 -0.10220644169E+04  0.15034323823E+04  0.11025848066E+04 0.  0.
        4    1    3    3  502    0  0.43545676569E+03  0.28477507374E+03 -0.26257263036E+03  0.58280823306E+03  0.12699999809E+01 0.  1.
       -4    1    3    3    0  502 -0.43545676569E+03 -0.28477507374E+03 -0.75949178651E+03  0.92062414920E+03  0.12699999809E+01 0. -1.
</event>
<event>
 5   0  0.1402775E-03  0.1096485E+04  0.7818609E-02  0.9208625E-01
       -2   -1    0    0    0  501  0.00000000000E+00  0.00000000000E+00  0.17000640596E+03  0.17000640598E+03  0.25500000920E-02 0. -1.
        2   -1    0    0  501    0  0.00000000000E+00  0.00000000000E+00 -0.17679900568E+04  0.17679900568E+04  0.25500000920E-02 0.  1.
    10030    2    1    2    0    0  0.00000000000E+00  0.00000000000E+00 -0.15979836508E+04  0.19379964628E+04  0.10964846289E+04 0.  0.
        5    1    3    3  502    0  0.11153379596E+03 -0.26172127371E+03  0.29286360658E+02  0.28603774868E+03  0.46999998093E+01 0. -1.
       -5    1    3    3    0  502 -0.11153379596E+03  0.26172127371E+03 -0.16272700115E+04  0.16519587141E+04  0.46999998093E+01 0.  1.
</event>
<event>
 5   0  0.8341767E-04  0.1091903E+04  0.7818609E-02  0.9213120E-01
        1   -1    0    0  501    0  0.00000000000E+00  0.00000000000E+00  0.55587359870E+03  0.55587359872E+03  0.50400001928E-02 0.  1.
       -1   -1    0    0    0  501  0.00000000000E+00  0.00000000000E+00 -0.53620661571E+03  0.53620661573E+03  0.50400001928E-02 0. -1.
    10030    2    1    2    0    0  0.00000000000E+00  0.00000000000E+00  0.19666982986E+02  0.10920802145E+04  0.10919031114E+04 0.  0.
        2    1    3    3  502    0 -0.38165650358E+03 -0.22506724066E+03 -0.30919497128E+03  0.54029480824E+03  0.25500000920E-02 0. -1.
       -2    1    3    3    0  502  0.38165650358E+03  0.22506724066E+03  0.32886195427E+03  0.55178540621E+03  0.25500000920E-02 0.  1.
</event>
<event>
 5   0  0.8009636E-04  0.1111036E+04  0.7818609E-02  0.9194502E-01
       -1   -1    0    0    0  501  0.00000000000E+00  0.00000000000E+00  0.41713090820E+03  0.41713090823E+03  0.50400001928E-02 0. -1.
        1   -1    0    0  501    0  0.00000000000E+00  0.00000000000E+00 -0.73981655051E+03  0.73981655053E+03  0.50400001928E-02 0.  1.
    10030    2    1    2    0    0  0.00000000000E+00  0.00000000000E+00 -0.32268564231E+03  0.11569474588E+04  0.11110361824E+04 0.  0.
        1    1    3    3  502    0  0.21414080285E+03 -0.17425758507E+03  0.34063355075E+03  0.43846688052E+03  0.50400001928E-02 0. -1.
       -1    1    3    3    0  502 -0.21414080285E+03  0.17425758507E+03 -0.66331919306E+03  0.71848057824E+03  0.50400001928E-02 0.  1.
</event>
<event>
 5   0  0.1396936E-03  0.1098014E+04  0.7818609E-02  0.9207130E-01
        2   -1    0    0  501    0  0.00000000000E+00  0.00000000000E+00  0.18230538645E+04  0.18230538645E+04  0.25500000920E-02 0. -1.
       -2   -1    0    0    0  501  0.00000000000E+00  0.00000000000E+00 -0.16533174109E+03  0.16533174111E+03  0.25500000920E-02 0.  1.
    10030    2    1    2    0    0  0.00000000000E+00  0.00000000000E+00  0.16577221234E+04  0.19883856056E+04  0.10980139699E+04 0.  0.
        2    1    3    3  502    0 -0.80736877075E+02 -0.14258704795E+02  0.18119055474E+04  0.18137594843E+04  0.25500000920E-02 0. -1.
       -2    1    3    3    0  502  0.80736877075E+02  0.14258704795E+02 -0.15418342406E+03  0.17462612131E+03  0.25500000920E-02 0.  1.
</event>
<event>
 5   0  0.8150924E-04  0.1100664E+04  0.7818609E-02  0.9204545E-01
        1   -1    0    0  501    0  0.00000000000E+00  0.00000000000E+00  0.56129296205E+03  0.56129296207E+03  0.50400001928E-02 0.  1.
       -1   -1    0    0    0  501  0.00000000000E+00  0.00000000000E+00 -0.53958495684E+03  0.53958495686E+03  0.50400001928E-02 0. -1.
    10030    2    1    2    0    0  0.00000000000E+00  0.00000000000E+00  0.21708005207E+02  0.11008779189E+04  0.11006638701E+04 0.  0.
        3    1    3    3  502    0  0.21727675163E+03  0.21560200430E+03  0.46829600079E+03  0.55945917243E+03  0.10100000352E+00 0.  1.
       -3    1    3    3    0  502 -0.21727675163E+03 -0.21560200430E+03 -0.44658799559E+03  0.54141874650E+03  0.10100000352E+00 0. -1.
</event>
<event>
 5   0  0.8150924E-04  0.1102992E+04  0.7818609E-02  0.9202281E-01
       -1   -1    0    0    0  501  0.00000000000E+00  0.00000000000E+00  0.16909218154E+03  0.16909218162E+03  0.50400001928E-02 0. -1.
        1   -1    0    0  501    0  0.00000000000E+00  0.00000000000E+00 -0.17987098489E+04  0.17987098489E+04  0.50400001928E-02 0.  1.
    10030    2    1    2    0    0  0.00000000000E+00  0.00000000000E+00 -0.16296176673E+04  0.19678020305E+04  0.11029918810E+04 0.  0.
        3    1    3    3  502    0 -0.46012218180E+03  0.50107157188E+02 -0.27981549202E+03  0.54085106005E+03  0.10100000352E+00 0. -1.
       -3    1    3    3    0  502  0.46012218180E+03 -0.50107157188E+02 -0.13498021753E+04  0.14269509705E+04  0.10100000352E+00 0.  1.
</event>
<event>
 5   0  0.1396936E-03  0.1101088E+04  0.7818609E-02  0.9204132E-01
        2   -1    0    0  501    0  0.00000000000E+00  0.00000000000E+00  0.57862771461E+03  0.57862771461E+03  0.25500000920E-02 0.  1.
       -2   -1    0    0    0  501  0.00000000000E+00  0.00000000000E+00 -0.52382358233E+03  0.52382358233E+03  0.25500000920E-02 0. -1.
    10030    2    1    2    0    0  0.00000000000E+00  0.00000000000E+00  0.54804132281E+02  0.11024512969E+04  0.11010882659E+04 0.  0.
        2    1    3    3  502    0 -0.12271188014E+03 -0.23038130674E+02  0.56426530354E+03  0.57791374251E+03  0.25500000920E-02 0.  1.
       -2    1    3    3    0  502  0.12271188014E+03  0.23038130674E+02 -0.50946117126E+03  0.52453755444E+03  0.25500000920E-02 0. -1.
</event>
<event>
 5   0  0.8305271E-04  0.1105246E+04  0.7818609E-02  0.9200094E-01
       -1   -1    0    0    0  501  0.00000000000E+00  0.00000000000E+00  0.32910226684E+03  0.32910226688E+03  0.50400001928E-02 0. -1.
        1   -1    0    0  501    0  0.00000000000E+00  0.00000000000E+00 -0.92795453097E+03  0.92795453098E+03  0.50400001928E-02 0.  1.
    10030    2    1    2    0    0  0.00000000000E+00  0.00000000000E+00 -0.59885226413E+03  0.12570567979E+04  0.11052455649E+04 0.  0.
        5    1    3    3  502    0  0.14840224292E+03  0.13971999895E+03 -0.88361603842E+03  0.90683201154E+03  0.46999998093E+01 0.  1.
       -5    1    3    3    0  502 -0.14840224292E+03 -0.13971999895E+03  0.28476377429E+03  0.35022478632E+03  0.46999998093E+01 0. -1.
</event>
<event>
 5   0  0.1429680E-03  0.1098800E+04  0.7818609E-02  0.9206362E-01
        2   -1    0    0  501    0  0.00000000000E+00  0.00000000000E+00  0.32110255816E+03  0.32110255817E+03  0.25500000920E-02 0. -1.
       -2   -1    0    0    0  501  0.00000000000E+00  0.00000000000E+00 -0.94001295396E+03  0.94001295396E+03  0.25500000920E-02 0.  1.
    10030    2    1    2    0    0  0.00000000000E+00  0.00000000000E+00 -0.61891039579E+03  0.12611155121E+04  0.10988003717E+04 0.  0.
        3    1    3    3  502    0  0.38361285464E+03 -0.39065820975E+03 -0.36164676110E+03  0.65617150891E+03  0.10100000352E+00 0.  1.
       -3    1    3    3    0  502 -0.38361285464E+03  0.39065820975E+03 -0.25726363470E+03  0.60494400322E+03  0.10100000352E+00 0. -1.
</event>
<event>
 5   0  0.1429680E-03  0.1101785E+04  0.7818609E-02  0.9203453E-01
       -2   -1    0    0    0  501  0.00000000000E+00  0.00000000000E+00  0.10201498007E+03  0.10201498011E+03  0.25500000920E-02 0.  1.
        2   -1    0    0  501    0  0.00000000000E+00  0.00000000000E+00 -0.29748847440E+04  0.29748847440E+04  0.25500000920E-02 0. -1.
    10030    2    1    2    0    0  0.00000000000E+00  0.00000000000E+00 -0.28728697639E+04  0.30768997241E+04  0.11017854745E+04 0.  0.
        3    1    3    3  502    0  0.38238278261E+03 -0.22331656782E+03 -0.52124716372E+03  0.68394846135E+03  0.10100000352E+00 0.  1.
       -3    1    3    3    0  502 -0.38238278261E+03  0.22331656782E+03 -0.23516226002E+04  0.23929512627E+04  0.10100000352E+00 0. -1.
</event>
<event>
 5   0  0.1396936E-03  0.1104504E+04  0.7818609E-02  0.9200813E-01
        2   -1    0    0  501    0  0.00000000000E+00  0.00000000000E+00  0.54780597426E+03  0.54780597426E+03  0.25500000920E-02 0.  1.
       -2   -1    0    0    0  501  0.00000000000E+00  0.00000000000E+00 -0.55673379380E+03  0.55673379380E+03  0.25500000920E-02 0. -1.
    10030    2    1    2    0    0  0.00000000000E+00  0.00000000000E+00 -0.89278195391E+01  0.11045397681E+04  0.11045036864E+04 0.  0.
        2    1    3    3  502    0  0.15706081150E+03  0.52802010938E+03  0.34380169273E+02  0.55195591351E+03  0.25500000920E-02 0.  1.
       -2    1    3    3    0  502 -0.15706081150E+03 -0.52802010938E+03 -0.43307988812E+02  0.55258385456E+03  0.25500000920E-02 0. -1.
</event>
<event>
 5   0  0.7946038E-04  0.1102899E+04  0.7818609E-02  0.9202371E-01
       -1   -1    0    0    0  501  0.00000000000E+00  0.00000000000E+00  0.28101271140E+03  0.28101271144E+03  0.50400001928E-02 0. -1.
        1   -1    0    0  501    0  0.00000000000E+00  0.00000000000E+00 -0.10821443554E+04  0.10821443554E+04  0.50400001928E-02 0.  1.
    10030    2    1    2    0    0  0.00000000000E+00  0.00000000000E+00 -0.80113164402E+03  0.13631570669E+04  0.11028985801E+04 0.  0.
        4    1    3    3  502    0  0.71009335333E+02  0.54605770224E+03 -0.43709237045E+03  0.70304529945E+03  0.12699999809E+01 0.  1.
       -4    1    3    3    0  502 -0.71009335333E+02 -0.54605770224E+03 -0.36403927357E+03  0.66011176742E+03  0.12699999809E+01 0. -1.
</event>
<event>
 5   0  0.1425432E-03  0.1099388E+04  0.7818609E-02  0.9205789E-01
       -2   -1    0    0    0  501  0.00000000000E+00  0.00000000000E+00  0.24982893902E+03  0.24982893903E+03  0.25500000920E-02 0. -1.
        2   -1    0    0  501    0  0.00000000000E+00  0.00000000000E+00 -0.12094806350E+04  0.12094806350E+04  0.25500000920E-02 0.  1.
    10030    2    1    2    0    0  0.00000000000E+00  0.00000000000E+00 -0.95965169601E+03  0.14593095741E+04  0.10993875819E+04 0.  0.
        1    1    3    3  502    0 -0.27132500025E+01  0.51214780250E+03 -0.74483943579E+03  0.90392948755E+03  0.50400001928E-02 0.  1.
       -1    1    3    3    0  502  0.27132500025E+01 -0.51214780250E+03 -0.21481226022E+03  0.55538008651E+03  0.50400001928E-02 0. -1.
</event>
<event>
 5   0  0.1396936E-03  0.1102632E+04  0.7818609E-02  0.9202631E-01
       -2   -1    0    0    0  501  0.00000000000E+00  0.00000000000E+00  0.20861943343E+03  0.20861943345E+03  0.25500000920E-02 0.  1.
        2   -1    0    0  501    0  0.00000000000E+00  0.00000000000E+00 -0.14569552243E+04  0.14569552243E+04  0.25500000920E-02 0. -1.
    10030    2    1    2    0    0  0.00000000000E+00  0.00000000000E+00 -0.12483357909E+04  0.16655746577E+04  0.11026317127E+04 0.  0.
        2    1    3    3  502    0 -0.44387930279E+02  0.54099653636E+03 -0.76985235226E+03  0.94197674334E+03  0.25500000920E-02 0.  1.
       -2    1    3    3    0  502  0.44387930279E+02 -0.54099653636E+03 -0.47848343860E+03  0.72359791440E+03  0.25500000920E-02 0. -1.
</event>
<event>
 5   0  0.1425432E-03  0.1100298E+04  0.7818609E-02  0.9204902E-01
        2   -1    0    0  501    0  0.00000000000E+00  0.00000000000E+00  0.17664296293E+03  0.17664296294E+03  0.25500000920E-02 0. -1.
       -2   -1    0    0    0  501  0.00000000000E+00  0.00000000000E+00 -0.17134215999E+04  0.17134215999E+04  0.25500000920E-02 0.  1.
    10030    2    1    2    0    0  0.00000000000E+00  0.00000000000E+00 -0.15367786370E+04  0.18900645628E+04  0.11002979018E+04 0.  0.
        1    1    3    3  502    0  0.31685857045E+03 -0.93950920253E+01  0.39913929749E+01  0.31702295290E+03  0.50400001928E-02 0. -1.
       -1    1    3    3    0  502 -0.31685857045E+03  0.93950920253E+01 -0.15407700299E+04  0.15730416099E+04  0.50400001928E-02 0.  1.
</event>
<event>
 5   0  0.1429680E-03  0.1093107E+04  0.7818609E-02  0.9211936E-01
        2   -1    0    0  501    0  0.00000000000E+00  0.00000000000E+00  0.62874092296E+03  0.62874092296E+03  0.25500000920E-02 0.  1.
       -2   -1    0    0    0  501  0.00000000000E+00  0.00000000000E+00 -0.47510984183E+03  0.47510984184E+03  0.25500000920E-02 0. -1.
    10030    2    1    2    0    0  0.00000000000E+00  0.00000000000E+00  0.15363108113E+03  0.11038507648E+04  0.10931074979E+04 0.  0.
        3    1    3    3  502    0 -0.35290361119E+03 -0.32133287709E+03  0.34575084368E+03  0.58935509907E+03  0.10100000352E+00 0.  1.
       -3    1    3    3    0  502  0.35290361119E+03  0.32133287709E+03 -0.19211976256E+03  0.51449566573E+03  0.10100000352E+00 0. -1.
</event>
<event>
 5   0  0.8341767E-04  0.1094816E+04  0.7818609E-02  0.9210260E-01
        1   -1    0    0  501    0  0.00000000000E+00  0.00000000000E+00  0.13176843255E+04  0.13176843255E+04  0.50400001928E-02 0. -1.
       -1   -1    0    0    0  501  0.00000000000E+00  0.00000000000E+00 -0.22741053425E+03  0.22741053430E+03  0.50400001928E-02 0.  1.
    10030    2    1    2    0    0  0.00000000000E+00  0.00000000000E+00  0.10902737912E+04  0.15450948598E+04  0.10948155945E+04 0.  0.
        2    1    3    3  502    0  0.28224871842E+03 -0.38149384343E+03  0.16005202646E+03  0.50081787389E+03  0.25500000920E-02 0.  1.
       -2    1    3    3    0  502 -0.28224871842E+03  0.38149384343E+03  0.93022176476E+03  0.10442769859E+04  0.25500000920E-02 0. -1.
</event>
<event>
 5   0  0.1425432E-03  0.1098843E+04  0.7818609E-02  0.9206321E-01
       -2   -1    0    0    0  501  0.00000000000E+00  0.00000000000E+00  0.25402204221E+03  0.25402204222E+03  0.25500000920E-02 0. -1.
        2   -1    0    0  501    0  0.00000000000E+00  0.00000000000E+00 -0.11883372314E+04  0.11883372315E+04  0.25500000920E-02 0.  1.
    10030    2    1    2    0    0  0.00000000000E+00  0.00000000000E+00 -0.93431518924E+03  0.14423592737E+04  0.10988427556E+04 0.  0.
        1    1    3    3  502    0 -0.54827762664E+03  0.20909086877E+02 -0.50470633631E+03  0.74550253637E+03  0.50400001928E-02 0. -1.
       -1    1    3    3    0  502  0.54827762664E+03 -0.20909086877E+02 -0.42960885293E+03  0.69685673731E+03  0.50400001928E-02 0.  1.
</event>
<event>
 5   0  0.1372794E-03  0.1118473E+04  0.7818609E-02  0.9187371E-01
       -2   -1    0    0    0  501  0.00000000000E+00  0.00000000000E+00  0.13091435409E+04  0.13091435409E+04  0.25500000920E-02 0. -1.
        2   -1    0    0  501    0  0.00000000000E+00  0.00000000000E+00 -0.23889337284E+03  0.23889337285E+03  0.25500000920E-02 0.  1.
    10030    2    1    2    0    0  0.00000000000E+00  0.00000000000E+00  0.10702501681E+04  0.15480369138E+04  0.11184734526E+04 0.  0.
        4    1    3    3  502    0  0.62416343810E+02 -0.14360788871E+02 -0.23379852237E+03  0.24241574659E+03  0.12699999809E+01 0.  1.
       -4    1    3    3    0  502 -0.62416343810E+02  0.14360788871E+02  0.13040486904E+04  0.13056211672E+04  0.12699999809E+01 0. -1.
</event>
<event>
 5   0  0.8009636E-04  0.1096557E+04  0.7818609E-02  0.9208554E-01
        1   -1    0    0  501    0  0.00000000000E+00  0.00000000000E+00  0.10232918698E+04  0.10232918698E+04  0.50400001928E-02 0.  1.
       -1   -1    0    0    0  501  0.00000000000E+00  0.00000000000E+00 -0.29376708666E+03  0.29376708671E+03  0.50400001928E-02 0. -1.
    10030    2    1    2    0    0  0.00000000000E+00  0.00000000000E+00  0.72952478316E+03  0.13170589565E+04  0.10965572880E+04 0.  0.
        1    1    3    3  502    0 -0.39783626036E+03  0.12028885359E+03 -0.64726626665E+02  0.42063361086E+03  0.50400001928E-02 0. -1.
       -1    1    3    3    0  502  0.39783626036E+03 -0.12028885359E+03  0.79425140982E+03  0.89642534568E+03  0.50400001928E-02 0.  1.
</event>
<event>
 5   0  0.8341767E-04  0.1097402E+04  0.7818609E-02  0.9207728E-01
        1   -1    0    0  501    0  0.00000000000E+00  0.00000000000E+00  0.72378291336E+03  0.72378291338E+03  0.50400001928E-02 0. -1.
       -1   -1    0    0    0  501  0.00000000000E+00  0.00000000000E+00 -0.41597097593E+03  0.41597097596E+03  0.50400001928E-02 0.  1.
    10030    2    1    2    0    0  0.00000000000E+00  0.00000000000E+00  0.30781193742E+03  0.11397538893E+04  0.10974018131E+04 0.  0.
        2    1    3    3  502    0  0.59885500846E+01  0.22184764401E+03  0.67508976264E+03  0.71063241378E+03  0.25500000920E-02 0. -1.
       -2    1    3    3    0  502 -0.59885500846E+01 -0.22184764401E+03 -0.36727782521E+03  0.42912147556E+03  0.25500000920E-02 0.  1.
</event>
<event>
 5   0  0.8305271E-04  0.1093992E+04  0.7818609E-02  0.9211067E-01
       -1   -1    0    0    0  501  0.00000000000E+00  0.00000000000E+00  0.43658312266E+03  0.43658312269E+03  0.50400001928E-02 0. -1.
        1   -1    0    0  501    0  0.00000000000E+00  0.00000000000E+00 -0.68533271719E+03  0.68533271721E+03  0.50400001928E-02 0.  1.
    10030    2    1    2    0    0  0.00000000000E+00  0.00000000000E+00 -0.24874959453E+03  0.11219158399E+04  0.10939921348E+04 0.  0.
        5    1    3    3  502    0  0.15328988236E+03 -0.13498772167E+03  0.39598484489E+03  0.44558451546E+03  0.46999998093E+01 0. -1.
       -5    1    3    3    0  502 -0.15328988236E+03  0.13498772167E+03 -0.64473443943E+03  0.67633132444E+03  0.46999998093E+01 0.  1.
</event>
<event>
 5   0  0.5409500E-04  0.1096856E+04  0.7818609E-02  0.9208262E-01
        3   -1    0    0  501    0  0.00000000000E+00  0.00000000000E+00  0.30983472917E+03  0.30983474563E+03  0.10100000352E+00 0.  1.
       -3   -1    0    0    0  501  0.00000000000E+00  0.00000000000E+00 -0.97075399472E+03  0.97075399997E+03  0.10100000352E+00 0. -1.
    10030    2    1    2    0    0  0.00000000000E+00  0.00000000000E+00 -0.66091926555E+03  0.12805887456E+04  0.10968560798E+04 0.  0.
        4    1    3    3  502    0 -0.28400006661E+03 -0.81942717645E+02 -0.86979427333E+03  0.91864810326E+03  0.12699999809E+01 0. -1.
       -4    1    3    3    0  502  0.28400006661E+03  0.81942717645E+02  0.20887500778E+03  0.36194064235E+03  0.12699999809E+01 0.  1.
</event>
<event>
 5   0  0.8150924E-04  0.1096127E+04  0.7818609E-02  0.9208975E-01
        1   -1    0    0  501    0  0.00000000000E+00  0.00000000000E+00  0.55434672936E+03  0.55434672938E+03  0.50400001928E-02 0.  1.
       -1   -1    0    0    0  501  0.00000000000E+00  0.00000000000E+00 -0.54185101276E+03  0.54185101279E+03  0.50400001928E-02 0. -1.
    10030    2    1    2    0    0  0.00000000000E+00  0.00000000000E+00  0.12495716599E+02  0.10961977422E+04  0.10961265196E+04 0.  0.
        3    1    3    3  502    0 -0.10774197789E+03  0.53184467388E+03 -0.70609172476E+02  0.54722276668E+03  0.10100000352E+00 0. -1.
       -3    1    3    3    0  502  0.10774197789E+03 -0.53184467388E+03  0.83104889074E+02  0.54897497549E+03  0.10100000352E+00 0.  1.
</event>
<event>
 5   0  0.1372794E-03  0.1096439E+04  0.7818609E-02  0.9208670E-01
        2   -1    0    0  501    0  0.00000000000E+00  0.00000000000E+00  0.48530872677E+03  0.48530872677E+03  0.25500000920E-02 0. -1.
       -2   -1    0    0    0  501  0.00000000000E+00  0.00000000000E+00 -0.61928522029E+03  0.61928522030E+03  0.25500000920E-02 0.  1.
    10030    2    1    2    0    0  0.00000000000E+00  0.00000000000E+00 -0.13397649352E+03  0.11045939471E+04  0.10964388205E+04 0.  0.
        4    1    3    3  502    0  0.49375244691E+03  0.17306248271E+03  0.97938917510E+02  0.53229291393E+03  0.12699999809E+01 0. -1.
       -4    1    3    3    0  502 -0.49375244691E+03 -0.17306248271E+03 -0.23191541104E+03  0.57230103314E+03  0.12699999809E+01 0.  1.
</event>
<event>
 5   0  0.8009636E-04  0.1080484E+04  0.7818609E-02  0.9224425E-01
       -1   -1    0    0    0  501  0.00000000000E+00  0.00000000000E+00  0.22586319173E+03  0.22586319178E+03  0.50400001928E-02 0.  1.
        1   -1    0    0  501    0  0.00000000000E+00  0.00000000000E+00 -0.12922046377E+04  0.12922046377E+04  0.50400001928E-02 0. -1.
    10030    2    1    2    0    0  0.00000000000E+00  0.00000000000E+00 -0.10663414460E+04  0.15180678295E+04  0.10804840839E+04 0.  0.
        1    1    3    3  502    0  0.40813359674E+02 -0.34053292589E+03  0.53288856946E+02  0.34708515705E+03  0.50400001928E-02 0.  1.
       -1    1    3    3    0  502 -0.40813359674E+02  0.34053292589E+03 -0.11196303029E+04  0.11709826725E+04  0.50400001928E-02 0. -1.
</event>
<event>
 5   0  0.1402775E-03  0.1106527E+04  0.7818609E-02  0.9198853E-01
       -2   -1    0    0    0  501  0.00000000000E+00  0.00000000000E+00  0.69290987186E+03  0.69290987187E+03  0.25500000920E-02 0. -1.
        2   -1    0    0  501    0  0.00000000000E+00  0.00000000000E+00 -0.44176126191E+03  0.44176126192E+03  0.25500000920E-02 0.  1.
    10030    2    1    2    0    0  0.00000000000E+00  0.00000000000E+00  0.25114860996E+03  0.11346711338E+04  0.11065274319E+04 0.  0.
        5    1    3    3  502    0  0.34059023635E+03 -0.39754132883E+03 -0.57969352863E+02  0.52670993259E+03  0.46999998093E+01 0.  1.
       -5    1    3    3    0  502 -0.34059023635E+03  0.39754132883E+03  0.30911796282E+03  0.60796120119E+03  0.46999998093E+01 0. -1.
</event>
<event>
 5   0  0.1402775E-03  0.1100159E+04  0.7818609E-02  0.9205037E-01
       -2   -1    0    0    0  501  0.00000000000E+00  0.00000000000E+00  0.39310358760E+03  0.39310358761E+03  0.25500000920E-02 0. -1.
        2   -1    0    0  501    0  0.00000000000E+00  0.00000000000E+00 -0.76973990317E+03  0.76973990317E+03  0.25500000920E-02 0.  1.
    10030    2    1    2    0    0  0.00000000000E+00  0.00000000000E+00 -0.37663631557E+03  0.11628434908E+04  0.11001591111E+04 0.  0.
        5    1    3    3  502    0 -0.21336181096E+03  0.45132709335E+03 -0.43244569936E+03  0.66049283150E+03  0.46999998093E+01 0.  1.
       -5    1    3    3    0  502  0.21336181096E+03 -0.45132709335E+03  0.55809383784E+02  0.50235065929E+03  0.46999998093E+01 0. -1.
</event>
<event>
 5   0  0.1402775E-03  0.1112373E+04  0.7818609E-02  0.9193216E-01
       -2   -1    0    0    0  501  0.00000000000E+00  0.00000000000E+00  0.49404455400E+03  0.49404455401E+03  0.25500000920E-02 0. -1.
        2   -1    0    0  501    0  0.00000000000E+00  0.00000000000E+00 -0.62614446290E+03  0.62614446290E+03  0.25500000920E-02 0.  1.
    10030    2    1    2    0    0  0.00000000000E+00  0.00000000000E+00 -0.13209990890E+03  0.11201890169E+04  0.11123727108E+04 0.  0.
        5    1    3    3  502    0 -0.15132038170E+02 -0.29728095647E+03  0.40705567452E+03  0.50430284335E+03  0.46999998093E+01 0. -1.
       -5    1    3    3    0  502  0.15132038170E+02  0.29728095647E+03 -0.53915558342E+03  0.61588617356E+03  0.46999998093E+01 0.  1.
</event>
<event>
 5   0  0.1396936E-03  0.1096328E+04  0.7818609E-02  0.9208778E-01
        2   -1    0    0  501    0  0.00000000000E+00  0.00000000000E+00  0.48241315245E+03  0.48241315246E+03  0.25500000920E-02 0. -1.
       -2   -1    0    0    0  501  0.00000000000E+00  0.00000000000E+00 -0.62287613773E+03  0.62287613774E+03  0.25500000920E-02 0.  1.
    10030    2    1    2    0    0  0.00000000000E+00  0.00000000000E+00 -0.14046298528E+03  0.11052892902E+04  0.10963277634E+04 0.  0.
        2    1    3    3  502    0 -0.39178838972E+03  0.19674637166E+03 -0.40197496149E+03  0.59480345221E+03  0.25500000920E-02 0. -1.
       -2    1    3    3    0  502  0.39178838972E+03 -0.19674637166E+03  0.26151197620E+03  0.51048583799E+03  0.25500000920E-02 0.  1.
</event>
<event>
 5   0  0.7946038E-04  0.1099887E+04  0.7818609E-02  0.9205302E-01
        1   -1    0    0  501    0  0.00000000000E+00  0.00000000000E+00  0.70530903071E+03  0.70530903073E+03  0.50400001928E-02 0.  1.
       -1   -1    0    0    0  501  0.00000000000E+00  0.00000000000E+00 -0.42880215726E+03  0.42880215729E+03  0.50400001928E-02 0. -1.
    10030    2    1    2    0    0  0.00000000000E+00  0.00000000000E+00  0.27650687345E+03  0.11341111880E+04  0.10998873287E+04 0.  0.
        4    1    3    3  502    0 -0.71284902659E+02 -0.18509641640E+02  0.70019950446E+03  0.70406328063E+03  0.12699999809E+01 0.  1.
       -4    1    3    3    0  502  0.71284902659E+02  0.18509641640E+02 -0.42369263101E+03  0.43004790740E+03  0.12699999809E+01 0. -1.
</event>
<event>
 5   0  0.1425432E-03  0.1094881E+04  0.7818609E-02  0.9210196E-01
        2   -1    0    0  501    0  0.00000000000E+00  0.00000000000E+00  0.13559208712E+04  0.13559208712E+04  0.25500000920E-02 0. -1.
       -2   -1    0    0    0  501  0.00000000000E+00  0.00000000000E+00 -0.22102399473E+03  0.22102399475E+03  0.25500000920E-02 0.  1.
    10030    2    1    2    0    0  0.00000000000E+00  0.00000000000E+00  0.11348968764E+04  0.15769448659E+04  0.10948809022E+04 0.  0.
        1    1    3    3  502    0  0.34117431246E+03 -0.42362313684E+03  0.47826007653E+03  0.72428528521E+03  0.50400001928E-02 0. -1.
       -1    1    3    3    0  502 -0.34117431246E+03  0.42362313684E+03  0.65663679991E+03  0.85265958071E+03  0.50400001928E-02 0.  1.
</event>
<event>
 5   0  0.1402775E-03  0.1095767E+04  0.7818609E-02  0.9209327E-01
        2   -1    0    0  501    0  0.00000000000E+00  0.00000000000E+00  0.69789185684E+03  0.69789185685E+03  0.25500000920E-02 0.  1.
       -2   -1    0    0    0  501  0.00000000000E+00  0.00000000000E+00 -0.43011904235E+03  0.43011904236E+03  0.25500000920E-02 0. -1.
    10030    2    1    2    0    0  0.00000000000E+00  0.00000000000E+00  0.26777281449E+03  0.11280108992E+04  0.10957674519E+04 0.  0.
        5    1    3    3  502    0 -0.11218379271E+03  0.44949151119E+03 -0.16716847109E+03  0.49253955141E+03  0.46999998093E+01 0.  1.
       -5    1    3    3    0  502  0.11218379271E+03 -0.44949151119E+03  0.43494128558E+03  0.63547134780E+03  0.46999998093E+01 0. -1.
</event>
<event>
 5   0  0.1372794E-03  0.1095650E+04  0.7818609E-02  0.9209442E-01
       -2   -1    0    0    0  501  0.00000000000E+00  0.00000000000E+00  0.47980980608E+03  0.47980980609E+03  0.25500000920E-02 0.  1.
        2   -1    0    0  501    0  0.00000000000E+00  0.00000000000E+00 -0.62548217907E+03  0.62548217907E+03  0.25500000920E-02 0. -1.
    10030    2    1    2    0    0  0.00000000000E+00  0.00000000000E+00 -0.14567237298E+03  0.11052919852E+04  0.10956504608E+04 0.  0.
        4    1    3    3  502    0  0.23174531733E+03 -0.46488891100E+03  0.10271607974E+03  0.52950901561E+03  0.12699999809E+01 0. -1.
       -4    1    3    3    0  502 -0.23174531733E+03  0.46488891100E+03 -0.24838845273E+03  0.57578296955E+03  0.12699999809E+01 0.  1.
</event>
<event>
 5   0  0.1429680E-03  0.1101855E+04  0.7818609E-02  0.9203386E-01
       -2   -1    0    0    0  501  0.00000000000E+00  0.00000000000E+00  0.43941707030E+03  0.43941707031E+03  0.25500000920E-02 0. -1.
        2   -1    0    0  501    0  0.00000000000E+00  0.00000000000E+00 -0.69073547268E+03  0.69073547269E+03  0.25500000920E-02 0.  1.
    10030    2    1    2    0    0  0.00000000000E+00  0.00000000000E+00 -0.25131840238E+03  0.11301525430E+04  0.11018547232E+04 0.  0.
        3    1    3    3  502    0  0.44780602903E+02  0.54544763920E+03 -0.19054944096E+03  0.57950628052E+03  0.10100000352E+00 0.  1.
       -3    1    3    3    0  502 -0.44780602903E+02 -0.54544763920E+03 -0.60768961422E+02  0.55064626248E+03  0.10100000352E+00 0. -1.
</event>
<event>
 5   0  0.1402775E-03  0.1104403E+04  0.7818609E-02  0.9200911E-01
        2   -1    0    0  501    0  0.00000000000E+00  0.00000000000E+00  0.80752528956E+03  0.80752528956E+03  0.25500000920E-02 0.  1.
       -2   -1    0    0    0  501  0.00000000000E+00  0.00000000000E+00 -0.37760582724E+03  0.37760582725E+03  0.25500000920E-02 0. -1.
    10030    2    1    2    0    0  0.00000000000E+00  0.00000000000E+00  0.42991946232E+03  0.11851311168E+04  0.11044025625E+04 0.  0.
        5    1    3    3  502    0  0.20515793206E+03  0.45058118383E+03 -0.47436050162E+02  0.49737857730E+03  0.46999998093E+01 0. -1.
       -5    1    3    3    0  502 -0.20515793206E+03 -0.45058118383E+03  0.47735551248E+03  0.68775253951E+03  0.46999998093E+01 0.  1.
</event>
<event>
 5   0  0.7946038E-04  0.1095733E+04  0.7818609E-02  0.9209361E-01
       -1   -1    0    0    0  501  0.00000000000E+00  0.00000000000E+00  0.19564200031E+03  0.19564200038E+03  0.50400001928E-02 0. -1.
        1   -1    0    0  501    0  0.00000000000E+00  0.00000000000E+00 -0.15342193496E+04  0.15342193497E+04  0.50400001928E-02 0.  1.
    10030    2    1    2    0    0  0.00000000000E+00  0.00000000000E+00 -0.13385773493E+04  0.17298613500E+04  0.10957330743E+04 0.  0.
        4    1    3    3  502    0  0.11835220166E+03  0.17591849883E+03 -0.14668208142E+04  0.14820659485E+04  0.12699999809E+01 0.  1.
       -4    1    3    3    0  502 -0.11835220166E+03 -0.17591849883E+03  0.12824346482E+03  0.24779540157E+03  0.12699999809E+01 0. -1.
</event>
<event>
 5   0  0.8150924E-04  0.1132512E+04  0.7818609E-02  0.9174070E-01
       -1   -1    0    0    0  501  0.00000000000E+00  0.00000000000E+00  0.21875568318E+04  0.21875568318E+04  0.50400001928E-02 0. -1.
        1   -1    0    0  501    0  0.00000000000E+00  0.00000000000E+00 -0.14657713953E+03  0.14657713961E+03  0.50400001928E-02 0.  1.
    10030    2    1    2    0    0  0.00000000000E+00  0.00000000000E+00  0.20409796923E+04  0.23341339714E+04  0.11325119391E+04 0.  0.
        3    1    3    3  502    0 -0.14357188651E+03  0.34771216172E+03  0.18927904194E+04  0.19298114457E+04  0.10100000352E+00 0. -1.
       -3    1    3    3    0  502  0.14357188651E+03 -0.34771216172E+03  0.14818927287E+03  0.40432252571E+03  0.10100000352E+00 0.  1.
</event>
<event>
 5   0  0.8305271E-04  0.1054810E+04  0.7818609E-02  0.9250392E-01
        1   -1    0    0  501    0  0.00000000000E+00  0.00000000000E+00  0.39501255923E+03  0.39501255926E+03  0.50400001928E-02 0. -1.
       -1   -1    0    0    0  501  0.00000000000E+00  0.00000000000E+00 -0.70416972239E+03  0.70416972241E+03  0.50400001928E-02 0.  1.
    10030    2    1    2    0    0  0.00000000000E+00  0.00000000000E+00 -0.30915716316E+03  0.10991822817E+04  0.10548097159E+04 0.  0.
        5    1    3    3  502    0 -0.12054321431E+03 -0.20420355613E+03  0.33630465078E+03  0.41152480726E+03  0.46999998093E+01 0. -1.
       -5    1    3    3    0  502  0.12054321431E+03  0.20420355613E+03 -0.64546181395E+03  0.68765747441E+03  0.46999998093E+01 0.  1.
</event>
<event>
 5   0  0.1425432E-03  0.1089634E+04  0.7818609E-02  0.9215355E-01
       -2   -1    0    0    0  501  0.00000000000E+00  0.00000000000E+00  0.22964804677E+03  0.22964804679E+03  0.25500000920E-02 0. -1.
        2   -1    0    0  501    0  0.00000000000E+00  0.00000000000E+00 -0.12925234124E+04  0.12925234124E+04  0.25500000920E-02 0.  1.
    10030    2    1    2    0    0  0.00000000000E+00  0.00000000000E+00 -0.10628753656E+04  0.15221714592E+04  0.10896338414E+04 0.  0.
        1    1    3    3  502    0  0.12178218293E+03  0.48749463468E+03 -0.23726776395E+03  0.55567788399E+03  0.50400001928E-02 0.  1.
       -1    1    3    3    0  502 -0.12178218293E+03 -0.48749463468E+03 -0.82560760167E+03  0.96649357519E+03  0.50400001928E-02 0. -1.
</event>
<event>
 5   0  0.1402775E-03  0.1096295E+04  0.7818609E-02  0.9208811E-01
        2   -1    0    0  501    0  0.00000000000E+00  0.00000000000E+00  0.35137575731E+03  0.35137575732E+03  0.25500000920E-02 0.  1.
       -2   -1    0    0    0  501  0.00000000000E+00  0.00000000000E+00 -0.85511199929E+03  0.85511199929E+03  0.25500000920E-02 0. -1.
    10030    2    1    2    0    0  0.00000000000E+00  0.00000000000E+00 -0.50373624198E+03  0.12064877566E+04  0.10962948989E+04 0.  0.
        5    1    3    3  502    0 -0.34399131636E+03 -0.34770283382E+03 -0.52415636213E+03  0.71693044874E+03  0.46999998093E+01 0. -1.
       -5    1    3    3    0  502  0.34399131636E+03  0.34770283382E+03  0.20420120150E+02  0.48955730786E+03  0.46999998093E+01 0.  1.
</event>
<event>
 5   0  0.8305271E-04  0.1048096E+04  0.7818609E-02  0.9257312E-01
        1   -1    0    0  501    0  0.00000000000E+00  0.00000000000E+00  0.83763470090E+03  0.83763470092E+03  0.50400001928E-02 0.  1.
       -1   -1    0    0    0  501  0.00000000000E+00  0.00000000000E+00 -0.32785922086E+03  0.32785922090E+03  0.50400001928E-02 0. -1.
    10030    2    1    2    0    0  0.00000000000E+00  0.00000000000E+00  0.50977548004E+03  0.11654939218E+04  0.10480959125E+04 0.  0.
        5    1    3    3  502    0  0.29784886931E+03  0.35272071330E+03 -0.20833346309E+02  0.46214929282E+03  0.46999998093E+01 0. -1.
       -5    1    3    3    0  502 -0.29784886931E+03 -0.35272071330E+03  0.53060882635E+03  0.70334462899E+03  0.46999998093E+01 0.  1.
</event>
<event>
 5   0  0.8009636E-04  0.1104377E+04  0.7818609E-02  0.9200936E-01
        1   -1    0    0  501    0  0.00000000000E+00  0.00000000000E+00  0.46272851279E+03  0.46272851282E+03  0.50400001928E-02 0.  1.
       -1   -1    0    0    0  501  0.00000000000E+00  0.00000000000E+00 -0.65894381488E+03  0.65894381490E+03  0.50400001928E-02 0. -1.
    10030    2    1    2    0    0  0.00000000000E+00  0.00000000000E+00 -0.19621530209E+03  0.11216723277E+04  0.11043769130E+04 0.  0.
        1    1    3    3  502    0  0.12327954467E+03  0.50540501520E+03 -0.28615585690E+03  0.59373163128E+03  0.50400001928E-02 0. -1.
       -1    1    3    3    0  502 -0.12327954467E+03 -0.50540501520E+03  0.89940554807E+02  0.52794069643E+03  0.50400001928E-02 0.  1.
</event>
<event>
 5   0  0.1372794E-03  0.1092049E+04  0.7818609E-02  0.9212976E-01
        2   -1    0    0  501    0  0.00000000000E+00  0.00000000000E+00  0.16413307206E+04  0.16413307206E+04  0.25500000920E-02 0. -1.
       -2   -1    0    0    0  501  0.00000000000E+00  0.00000000000E+00 -0.18164701764E+03  0.18164701766E+03  0.25500000920E-02 0.  1.
    10030    2    1    2    0    0  0.00000000000E+00  0.00000000000E+00  0.14596837029E+04  0.18229777382E+04  0.10920491388E+04 0.  0.
        4    1    3    3  502    0 -0.48644844185E+03 -0.11106221113E+03  0.11000179288E+04  0.12078940177E+04  0.12699999809E+01 0. -1.
       -4    1    3    3    0  502  0.48644844185E+03  0.11106221113E+03  0.35966577409E+03  0.61508372054E+03  0.12699999809E+01 0.  1.
</event>
<event>
 5   0  0.8009636E-04  0.1091864E+04  0.7818609E-02  0.9213158E-01
        1   -1    0    0  501    0  0.00000000000E+00  0.00000000000E+00  0.18447867029E+04  0.18447867029E+04  0.50400001928E-02 0. -1.
       -1   -1    0    0    0  501  0.00000000000E+00  0.00000000000E+00 -0.16155890288E+03  0.16155890296E+03  0.50400001928E-02 0.  1.
    10030    2    1    2    0    0  0.00000000000E+00  0.00000000000E+00  0.16832278001E+04  0.20063456059E+04  0.10918639400E+04 0.  0.
        1    1    3    3  502    0  0.31056814891E+01  0.44743717920E+03  0.26686548869E+03  0.52098643329E+03  0.50400001928E-02 0.  1.
       -1    1    3    3    0  502 -0.31056814891E+01 -0.44743717920E+03  0.14163623114E+04  0.14853591726E+04  0.50400001928E-02 0. -1.
</event>
<event>
 5   0  0.1372794E-03  0.1098254E+04  0.7818609E-02  0.9206896E-01
        2   -1    0    0  501    0  0.00000000000E+00  0.00000000000E+00  0.11362521091E+04  0.11362521091E+04  0.25500000920E-02 0. -1.
       -2   -1    0    0    0  501  0.00000000000E+00  0.00000000000E+00 -0.26538141983E+03  0.26538141985E+03  0.25500000920E-02 0.  1.
    10030    2    1    2    0    0  0.00000000000E+00  0.00000000000E+00  0.87087068923E+03  0.14016335289E+04  0.10982535190E+04 0.  0.
        4    1    3    3  502    0 -0.13375947078E+03 -0.51955201718E+03  0.58488441287E+03  0.79367328536E+03  0.12699999809E+01 0. -1.
       -4    1    3    3    0  502  0.13375947078E+03  0.51955201718E+03  0.28598627636E+03  0.60796024356E+03  0.12699999809E+01 0.  1.
</event>
<event>
 5   0  0.1425432E-03  0.1111341E+04  0.7818609E-02  0.9194208E-01
        2   -1    0    0  501    0  0.00000000000E+00  0.00000000000E+00  0.91928552146E+03  0.91928552146E+03  0.25500000920E-02 0.  1.
       -2   -1    0    0    0  501  0.00000000000E+00  0.00000000000E+00 -0.33588013962E+03  0.33588013963E+03  0.25500000920E-02 0. -1.
    10030    2    1    2    0    0  0.00000000000E+00  0.00000000000E+00  0.58340538184E+03  0.12551656611E+04  0.11113410805E+04 0.  0.
        1    1    3    3  502    0 -0.37095032398E+02  0.22348255051E+01 -0.33447507043E+03  0.33653322070E+03  0.50400001928E-02 0. -1.
       -1    1    3    3    0  502  0.37095032398E+02 -0.22348255051E+01  0.91788045226E+03  0.91863244039E+03  0.50400001928E-02 0.  1.
</event>
<event>
 5   0  0.5409500E-04  0.1076578E+04  0.7818609E-02  0.9228326E-01
        4   -1    0    0  501    0  0.00000000000E+00  0.00000000000E+00  0.46621801664E+03  0.46621974640E+03  0.12699999809E+01 0.  1.
       -4   -1    0    0    0  501  0.00000000000E+00  0.00000000000E+00 -0.62149778613E+03  0.62149908372E+03  0.12699999809E+01 0. -1.
    10030    2    1    2    0    0  0.00000000000E+00  0.00000000000E+00 -0.15527976949E+03  0.10877188301E+04  0.10765781191E+04 0.  0.
        4    1    3    3  502    0 -0.40268371437E+03 -0.65039061161E+01 -0.43848704136E+03  0.59537296962E+03  0.12699999809E+01 0. -1.
       -4    1    3    3    0  502  0.40268371437E+03  0.65039061161E+01  0.28320727187E+03  0.49234586050E+03  0.12699999809E+01 0.  1.
</event>
<event>
 5   0  0.8009636E-04  0.1100167E+04  0.7818609E-02  0.9205029E-01
       -1   -1    0    0    0  501  0.00000000000E+00  0.00000000000E+00  0.20094580221E+03  0.20094580227E+03  0.50400001928E-02 0. -1.
        1   -1    0    0  501    0  0.00000000000E+00  0.00000000000E+00 -0.15058386902E+04  0.15058386902E+04  0.50400001928E-02 0.  1.
    10030    2    1    2    0    0  0.00000000000E+00  0.00000000000E+00 -0.13048928880E+04  0.17067844925E+04  0.11001671939E+04 0.  0.
        1    1    3    3  502    0  0.26597536977E+03 -0.29511703791E+03 -0.62195371357E+02  0.40212588530E+03  0.50400001928E-02 0. -1.
       -1    1    3    3    0  502 -0.26597536977E+03  0.29511703791E+03 -0.12426975167E+04  0.13046586072E+04  0.50400001928E-02 0.  1.
</event>
<event>
 5   0  0.5409500E-04  0.1103521E+04  0.7818609E-02  0.9201767E-01
        3   -1    0    0  501    0  0.00000000000E+00  0.00000000000E+00  0.65888133631E+03  0.65888134405E+03  0.10100000352E+00 0. -1.
       -3   -1    0    0    0  501  0.00000000000E+00  0.00000000000E+00 -0.46205557762E+03  0.46205558865E+03  0.10100000352E+00 0.  1.
    10030    2    1    2    0    0  0.00000000000E+00  0.00000000000E+00  0.19682575869E+03  0.11209369327E+04  0.11035212856E+04 0.  0.
        2    1    3    3  502    0 -0.27663112497E+03  0.77608518153E+02  0.57690108033E+03  0.64448639853E+03  0.25500000920E-02 0. -1.
       -2    1    3    3    0  502  0.27663112497E+03 -0.77608518153E+02 -0.38007532164E+03  0.47645053418E+03  0.25500000920E-02 0.  1.
</event>
<event>
 5   0  0.1372794E-03  0.1097409E+04  0.7818609E-02  0.9207721E-01
        2   -1    0    0  501    0  0.00000000000E+00  0.00000000000E+00  0.62221059688E+03  0.62221059688E+03  0.25500000920E-02 0. -1.
       -2   -1    0    0    0  501  0.00000000000E+00  0.00000000000E+00 -0.48388179364E+03  0.48388179365E+03  0.25500000920E-02 0.  1.
    10030    2    1    2    0    0  0.00000000000E+00  0.00000000000E+00  0.13832880324E+03  0.11060923905E+04  0.10974085468E+04 0.  0.
        4    1    3    3  502    0 -0.43551409905E+03  0.29065497362E+03  0.23454177955E+03  0.57372842305E+03  0.12699999809E+01 0.  1.
       -4    1    3    3    0  502  0.43551409905E+03 -0.29065497362E+03 -0.96212976313E+02  0.53236396748E+03  0.12699999809E+01 0. -1.
</event>
<event>
 5   0  0.7946038E-04  0.1099162E+04  0.7818609E-02  0.9206009E-01
       -1   -1    0    0    0  501  0.00000000000E+00  0.00000000000E+00  0.12561161565E+04  0.12561161565E+04  0.50400001928E-02 0. -1.
        1   -1    0    0  501    0  0.00000000000E+00  0.00000000000E+00 -0.24045489849E+03  0.24045489855E+03  0.50400001928E-02 0.  1.
    10030    2    1    2    0    0  0.00000000000E+00  0.00000000000E+00  0.10156612580E+04  0.14965710551E+04  0.10991620135E+04 0.  0.
        4    1    3    3  502    0  0.45313572207E+03 -0.33481666251E+02  0.86881376522E+02  0.46260457313E+03  0.12699999809E+01 0.  1.
       -4    1    3    3    0  502 -0.45313572207E+03  0.33481666251E+02  0.92877988150E+03  0.10339664819E+04  0.12699999809E+01 0. -1.
</event>
<event>
 5   0  0.1372794E-03  0.1100545E+04  0.7818609E-02  0.9204661E-01
        2   -1    0    0  501    0  0.00000000000E+00  0.00000000000E+00  0.11620310209E+04  0.11620310209E+04  0.25500000920E-02 0.  1.
       -2   -1    0    0    0  501  0.00000000000E+00  0.00000000000E+00 -0.26057810611E+03  0.26057810612E+03  0.25500000920E-02 0. -1.
    10030    2    1    2    0    0  0.00000000000E+00  0.00000000000E+00  0.90145291478E+03  0.14226091270E+04  0.11005450335E+04 0.  0.
        4    1    3    3  502    0  0.60428852748E+02  0.76652397874E+02  0.11507494866E+04  0.11548823447E+04  0.12699999809E+01 0.  1.
       -4    1    3    3    0  502 -0.60428852748E+02 -0.76652397874E+02 -0.24929657181E+03  0.26772678230E+03  0.12699999809E+01 0. -1.
</event>
<event>
 5   0  0.8341767E-04  0.1099444E+04  0.7818609E-02  0.9205734E-01
        1   -1    0    0  501    0  0.00000000000E+00  0.00000000000E+00  0.10319669377E+04  0.10319669377E+04  0.50400001928E-02 0.  1.
       -1   -1    0    0    0  501  0.00000000000E+00  0.00000000000E+00 -0.29283317537E+03  0.29283317541E+03  0.50400001928E-02 0. -1.
    10030    2    1    2    0    0  0.00000000000E+00  0.00000000000E+00  0.73913376237E+03  0.13248001132E+04  0.10994437781E+04 0.  0.
        2    1    3    3  502    0  0.27207132530E+03 -0.45325222260E+03  0.55124937403E+03  0.76376452897E+03  0.25500000920E-02 0.  1.
       -2    1    3    3    0  502 -0.27207132530E+03  0.45325222260E+03  0.18788438834E+03  0.56103558419E+03  0.25500000920E-02 0. -1.
</event>
<event>
 5   0  0.1425432E-03  0.1103575E+04  0.7818609E-02  0.9201715E-01
        2   -1    0    0  501    0  0.00000000000E+00  0.00000000000E+00  0.20795391809E+04  0.20795391809E+04  0.25500000920E-02 0. -1.
       -2   -1    0    0    0  501  0.00000000000E+00  0.00000000000E+00 -0.14641187860E+03  0.14641187862E+03  0.25500000920E-02 0.  1.
    10030    2    1    2    0    0  0.00000000000E+00  0.00000000000E+00  0.19331273023E+04  0.22259510595E+04  0.11035746248E+04 0.  0.
        1    1    3    3  502    0  0.18823750914E+03  0.95291378194E+02  0.19949666956E+04  0.20060922020E+04  0.50400001928E-02 0. -1.
       -1    1    3    3    0  502 -0.18823750914E+03 -0.95291378194E+02 -0.61839393313E+02  0.21985885744E+03  0.50400001928E-02 0.  1.
</event>
<event>
 5   0  0.8009636E-04  0.1097338E+04  0.7818609E-02  0.9207790E-01
       -1   -1    0    0    0  501  0.00000000000E+00  0.00000000000E+00  0.25482794181E+03  0.25482794186E+03  0.50400001928E-02 0.  1.
        1   -1    0    0  501    0  0.00000000000E+00  0.00000000000E+00 -0.11813378800E+04  0.11813378800E+04  0.50400001928E-02 0. -1.
    10030    2    1    2    0    0  0.00000000000E+00  0.00000000000E+00 -0.92650993816E+03  0.14361658218E+04  0.10973384174E+04 0.  0.
        1    1    3    3  502    0 -0.38889369709E+03  0.30772207968E+03 -0.77048683814E+03  0.91628661113E+03  0.50400001928E-02 0. -1.
       -1    1    3    3    0  502  0.38889369709E+03 -0.30772207968E+03 -0.15602310002E+03  0.51987921071E+03  0.50400001928E-02 0.  1.
</event>
<event>
 5   0  0.8009636E-04  0.1099223E+04  0.7818609E-02  0.9205950E-01
        1   -1    0    0  501    0  0.00000000000E+00  0.00000000000E+00  0.45657763092E+03  0.45657763095E+03  0.50400001928E-02 0. -1.
       -1   -1    0    0    0  501  0.00000000000E+00  0.00000000000E+00 -0.66160215046E+03  0.66160215048E+03  0.50400001928E-02 0.  1.
    10030    2    1    2    0    0  0.00000000000E+00  0.00000000000E+00 -0.20502451954E+03  0.11181797814E+04  0.10992228937E+04 0.  0.
        1    1    3    3  502    0  0.60010768147E+02 -0.12624184657E+03  0.43819421781E+03  0.45994833260E+03  0.50400001928E-02 0. -1.
       -1    1    3    3    0  502 -0.60010768147E+02  0.12624184657E+03 -0.64321873735E+03  0.65823144882E+03  0.50400001928E-02 0.  1.
</event>
<event>
 5   0  0.8150924E-04  0.1100139E+04  0.7818609E-02  0.9205056E-01
       -1   -1    0    0    0  501  0.00000000000E+00  0.00000000000E+00  0.52606476106E+03  0.52606476108E+03  0.50400001928E-02 0. -1.
        1   -1    0    0  501    0  0.00000000000E+00  0.00000000000E+00 -0.57516963594E+03  0.57516963596E+03  0.50400001928E-02 0.  1.
    10030    2    1    2    0    0  0.00000000000E+00  0.00000000000E+00 -0.49104874876E+02  0.11012343970E+04  0.11001390405E+04 0.  0.
        3    1    3    3  502    0 -0.37579893355E+03  0.38370682944E+03  0.94396417681E+02  0.54531317908E+03  0.10100000352E+00 0. -1.
       -3    1    3    3    0  502  0.37579893355E+03 -0.38370682944E+03 -0.14350129256E+03  0.55592121796E+03  0.10100000352E+00 0.  1.
</event>
<event>
 5   0  0.1429680E-03  0.1094777E+04  0.7818609E-02  0.9210298E-01
        2   -1    0    0  501    0  0.00000000000E+00  0.00000000000E+00  0.41880468985E+03  0.41880468986E+03  0.25500000920E-02 0. -1.
       -2   -1    0    0    0  501  0.00000000000E+00  0.00000000000E+00 -0.71545046927E+03  0.71545046927E+03  0.25500000920E-02 0.  1.
    10030    2    1    2    0    0  0.00000000000E+00  0.00000000000E+00 -0.29664577942E+03  0.11342551591E+04  0.10947767113E+04 0.  0.
        3    1    3    3  502    0 -0.36740866311E+03  0.38664760866E+03 -0.20805308275E+02  0.53377745369E+03  0.10100000352E+00 0.  1.
       -3    1    3    3    0  502  0.36740866311E+03 -0.38664760866E+03 -0.27584047114E+03  0.60047770544E+03  0.10100000352E+00 0. -1.
</event>
<event>
 5   0  0.1396936E-03  0.1096450E+04  0.7818609E-02  0.9208659E-01
       -2   -1    0    0    0  501  0.00000000000E+00  0.00000000000E+00  0.17952989175E+03  0.17952989177E+03  0.25500000920E-02 0. -1.
        2   -1    0    0  501    0  0.00000000000E+00  0.00000000000E+00 -0.16740990052E+04  0.16740990052E+04  0.25500000920E-02 0.  1.
    10030    2    1    2    0    0  0.00000000000E+00  0.00000000000E+00 -0.14945691135E+04  0.18536288970E+04  0.10964502966E+04 0.  0.
        2    1    3    3  502    0 -0.29117915382E+03  0.25964821780E+03 -0.96143390444E+02  0.40180349446E+03  0.25500000920E-02 0. -1.
       -2    1    3    3    0  502  0.29117915382E+03 -0.25964821780E+03 -0.13984257230E+04  0.14518254025E+04  0.25500000920E-02 0.  1.
</event>
<event>
 5   0  0.8341767E-04  0.1100385E+04  0.7818609E-02  0.9204816E-01
        1   -1    0    0  501    0  0.00000000000E+00  0.00000000000E+00  0.26962641897E+03  0.26962641902E+03  0.50400001928E-02 0. -1.
       -1   -1    0    0    0  501  0.00000000000E+00  0.00000000000E+00 -0.11227091511E+04  0.11227091511E+04  0.50400001928E-02 0.  1.
    10030    2    1    2    0    0  0.00000000000E+00  0.00000000000E+00 -0.85308273210E+03  0.13923355701E+04  0.11003854743E+04 0.  0.
        2    1    3    3  502    0 -0.52708977843E+03 -0.11821506205E+03 -0.29435601298E+03  0.61517793996E+03  0.25500000920E-02 0.  1.
       -2    1    3    3    0  502  0.52708977843E+03  0.11821506205E+03 -0.55872671913E+03  0.77715763015E+03  0.25500000920E-02 0. -1.
</event>
<event>
 5   0  0.1425432E-03  0.1099494E+04  0.7818609E-02  0.9205685E-01
       -2   -1    0    0    0  501  0.00000000000E+00  0.00000000000E+00  0.73382563100E+03  0.73382563101E+03  0.25500000920E-02 0. -1.
        2   -1    0    0  501    0  0.00000000000E+00  0.00000000000E+00 -0.41184397695E+03  0.41184397696E+03  0.25500000920E-02 0.  1.
    10030    2    1    2    0    0  0.00000000000E+00  0.00000000000E+00  0.32198165405E+03  0.11456696080E+04  0.10994938222E+04 0.  0.
        1    1    3    3  502    0  0.33764927287E+03 -0.12180176467E+02 -0.29088807388E+03  0.44583770558E+03  0.50400001928E-02 0.  1.
       -1    1    3    3    0  502 -0.33764927287E+03  0.12180176467E+02  0.61286972793E+03  0.69983190239E+03  0.50400001928E-02 0. -1.
</event>
<event>
 5   0  0.1402775E-03  0.1176576E+04  0.7818609E-02  0.9133611E-01
       -2   -1    0    0    0  501  0.00000000000E+00  0.00000000000E+00  0.50293176601E+03  0.50293176602E+03  0.25500000920E-02 0.  1.
        2   -1    0    0  501    0  0.00000000000E+00  0.00000000000E+00 -0.68813026888E+03  0.68813026889E+03  0.25500000920E-02 0. -1.
    10030    2    1    2    0    0  0.00000000000E+00  0.00000000000E+00 -0.18519850287E+03  0.11910620349E+04  0.11765756608E+04 0.  0.
        5    1    3    3  502    0  0.17342788330E+03 -0.60122232489E+01 -0.66161162559E+03  0.68400687910E+03  0.46999998093E+01 0. -1.
       -5    1    3    3    0  502 -0.17342788330E+03  0.60122232489E+01  0.47641312272E+03  0.50705515581E+03  0.46999998093E+01 0.  1.
</event>
<event>
 5   0  0.7946038E-04  0.1112101E+04  0.7818609E-02  0.9193477E-01
       -1   -1    0    0    0  501  0.00000000000E+00  0.00000000000E+00  0.10567632807E+04  0.10567632807E+04  0.50400001928E-02 0.  1.
        1   -1    0    0  501    0  0.00000000000E+00  0.00000000000E+00 -0.29258429977E+03  0.29258429982E+03  0.50400001928E-02 0. -1.
    10030    2    1    2    0    0  0.00000000000E+00  0.00000000000E+00  0.76417898090E+03  0.13493475805E+04  0.11121013345E+04 0.  0.
        4    1    3    3  502    0  0.93023312482E+02  0.64644993266E+02  0.10426127388E+04  0.10487493732E+04  0.12699999809E+01 0.  1.
       -4    1    3    3    0  502 -0.93023312482E+02 -0.64644993266E+02 -0.27843375787E+03  0.30059820731E+03  0.12699999809E+01 0. -1.
</event>
<event>
 5   0  0.1425432E-03  0.1099249E+04  0.7818609E-02  0.9205924E-01
        2   -1    0    0  501    0  0.00000000000E+00  0.00000000000E+00  0.16720261158E+03  0.16720261160E+03  0.25500000920E-02 0. -1.
       -2   -1    0    0    0  501  0.00000000000E+00  0.00000000000E+00 -0.18067126130E+04  0.18067126130E+04  0.25500000920E-02 0.  1.
    10030    2    1    2    0    0  0.00000000000E+00  0.00000000000E+00 -0.16395100014E+04  0.19739152246E+04  0.10992489569E+04 0.  0.
        1    1    3    3  502    0 -0.27590758606E+03 -0.45349283873E+03 -0.56386812637E+03  0.77442108364E+03  0.50400001928E-02 0. -1.
       -1    1    3    3    0  502  0.27590758606E+03  0.45349283873E+03 -0.10756418751E+04  0.11994941410E+04  0.50400001928E-02 0.  1.
</event>
<event>
 5   0  0.8009636E-04  0.1095031E+04  0.7818609E-02  0.9210048E-01
        1   -1    0    0  501    0  0.00000000000E+00  0.00000000000E+00  0.42808137053E+03  0.42808137056E+03  0.50400001928E-02 0. -1.
       -1   -1    0    0    0  501  0.00000000000E+00  0.00000000000E+00 -0.70027180429E+03  0.70027180431E+03  0.50400001928E-02 0.  1.
    10030    2    1    2    0    0  0.00000000000E+00  0.00000000000E+00 -0.27219043376E+03  0.11283531749E+04  0.10950311662E+04 0.  0.
        1    1    3    3  502    0  0.32408817670E+03  0.16855848385E+03 -0.55633922070E+03  0.66555122813E+03  0.50400001928E-02 0.  1.
       -1    1    3    3    0  502 -0.32408817670E+03 -0.16855848385E+03  0.28414878694E+03  0.46280194673E+03  0.50400001928E-02 0. -1.
</event>
<event>
 5   0  0.1425432E-03  0.1107839E+04  0.7818609E-02  0.9197585E-01
        2   -1    0    0  501    0  0.00000000000E+00  0.00000000000E+00  0.52510352436E+03  0.52510352436E+03  0.25500000920E-02 0.  1.
       -2   -1    0    0    0  501  0.00000000000E+00  0.00000000000E+00 -0.58431629469E+03  0.58431629470E+03  0.25500000920E-02 0. -1.
    10030    2    1    2    0    0  0.00000000000E+00  0.00000000000E+00 -0.59212770337E+02  0.11094198191E+04  0.11078385184E+04 0.  0.
        1    1    3    3  502    0  0.29247240731E+02  0.43518158883E+03 -0.37154380159E+03  0.57296004475E+03  0.50400001928E-02 0. -1.
       -1    1    3    3    0  502 -0.29247240731E+02 -0.43518158883E+03  0.31233103125E+03  0.53645977432E+03  0.50400001928E-02 0.  1.
</event>
<event>
 5   0  0.7946038E-04  0.1096717E+04  0.7818609E-02  0.9208398E-01
        1   -1    0    0  501    0  0.00000000000E+00  0.00000000000E+00  0.93988769088E+03  0.93988769089E+03  0.50400001928E-02 0.  1.
       -1   -1    0    0    0  501  0.00000000000E+00  0.00000000000E+00 -0.31992850636E+03  0.31992850640E+03  0.50400001928E-02 0. -1.
    10030    2    1    2    0    0  0.00000000000E+00  0.00000000000E+00  0.61995918452E+03  0.12598161973E+04  0.10967166728E+04 0.  0.
        4    1    3    3  502    0  0.79013644415E+02  0.39572264420E+02  0.93165279315E+03  0.93583527397E+03  0.12699999809E+01 0.  1.
       -4    1    3    3    0  502 -0.79013644415E+02 -0.39572264420E+02 -0.31169360863E+03  0.32398092332E+03  0.12699999809E+01 0. -1.
</event>
<event>
 5   0  0.1396936E-03  0.1092352E+04  0.7818609E-02  0.9212678E-01
       -2   -1    0    0    0  501  0.00000000000E+00  0.00000000000E+00  0.44653394855E+03  0.44653394856E+03  0.25500000920E-02 0. -1.
        2   -1    0    0  501    0  0.00000000000E+00  0.00000000000E+00 -0.66805267060E+03  0.66805267061E+03  0.25500000920E-02 0.  1.
    10030    2    1    2    0    0  0.00000000000E+00  0.00000000000E+00 -0.22151872205E+03  0.11145866192E+04  0.10923519522E+04 0.  0.
        2    1    3    3  502    0  0.60824714781E+02 -0.28943840952E+03 -0.57927222169E+03  0.65040798401E+03  0.25500000920E-02 0.  1.
       -2    1    3    3    0  502 -0.60824714781E+02  0.28943840952E+03  0.35775349963E+03  0.46417863516E+03  0.25500000920E-02 0. -1.
</event>
<event>
 5   0  0.1396936E-03  0.1086803E+04  0.7818609E-02  0.9218151E-01
        2   -1    0    0  501    0  0.00000000000E+00  0.00000000000E+00  0.11200027215E+04  0.11200027215E+04  0.25500000920E-02 0. -1.
       -2   -1    0    0    0  501  0.00000000000E+00  0.00000000000E+00 -0.26364663325E+03  0.26364663326E+03  0.25500000920E-02 0.  1.
    10030    2    1    2    0    0  0.00000000000E+00  0.00000000000E+00  0.85635608823E+03  0.13836493547E+04  0.10868025520E+04 0.  0.
        2    1    3    3  502    0 -0.28549635865E+03 -0.30827502670E+03  0.86689045750E+03  0.96334870540E+03  0.25500000920E-02 0. -1.
       -2    1    3    3    0  502  0.28549635865E+03  0.30827502670E+03 -0.10534369267E+02  0.42030064934E+03  0.25500000920E-02 0.  1.
</event>
<event>
 5   0  0.7946038E-04  0.1101186E+04  0.7818609E-02  0.9204036E-01
       -1   -1    0    0    0  501  0.00000000000E+00  0.00000000000E+00  0.31816694846E+03  0.31816694850E+03  0.50400001928E-02 0. -1.
        1   -1    0    0  501    0  0.00000000000E+00  0.00000000000E+00 -0.95281082468E+03  0.95281082469E+03  0.50400001928E-02 0.  1.
    10030    2    1    2    0    0  0.00000000000E+00  0.00000000000E+00 -0.63464387622E+03  0.12709777732E+04  0.11011864739E+04 0.  0.
        4    1    3    3  502    0 -0.53495345343E+03 -0.26279239003E+02 -0.17003043695E+03  0.56194106286E+03  0.12699999809E+01 0. -1.
       -4    1    3    3    0  502  0.53495345343E+03  0.26279239003E+02 -0.46461343927E+03  0.70903671033E+03  0.12699999809E+01 0.  1.
</event>
<event>
 5   0  0.8305271E-04  0.1107252E+04  0.7818609E-02  0.9198152E-01
        1   -1    0    0  501    0  0.00000000000E+00  0.00000000000E+00  0.10542285557E+04  0.10542285558E+04  0.50400001928E-02 0. -1.
       -1   -1    0    0    0  501  0.00000000000E+00  0.00000000000E+00 -0.29073582357E+03  0.29073582361E+03  0.50400001928E-02 0.  1.
    10030    2    1    2    0    0  0.00000000000E+00  0.00000000000E+00  0.76349273218E+03  0.13449643794E+04  0.11072524688E+04 0.  0.
        5    1    3    3  502    0 -0.90798441759E+02  0.10195765133E+03  0.10334345510E+04  0.10424244725E+04  0.46999998093E+01 0. -1.
       -5    1    3    3    0  502  0.90798441759E+02 -0.10195765133E+03 -0.26994181883E+03  0.30253990686E+03  0.46999998093E+01 0.  1.
</event>
<event>
 5   0  0.8341767E-04  0.1099093E+04  0.7818609E-02  0.9206076E-01
        1   -1    0    0  501    0  0.00000000000E+00  0.00000000000E+00  0.29844484786E+03  0.29844484790E+03  0.50400001928E-02 0. -1.
       -1   -1    0    0    0  501  0.00000000000E+00  0.00000000000E+00 -0.10119165093E+04  0.10119165093E+04  0.50400001928E-02 0.  1.
    10030    2    1    2    0    0  0.00000000000E+00  0.00000000000E+00 -0.71347166148E+03  0.13103613572E+04  0.10990928418E+04 0.  0.
        2    1    3    3  502    0 -0.33153877241E+03  0.16696243196E+03  0.12638119468E+03  0.39213086804E+03  0.25500000920E-02 0. -1.
       -2    1    3    3    0  502  0.33153877241E+03 -0.16696243196E+03 -0.83985285616E+03  0.91823048921E+03  0.25500000920E-02 0.  1.
</event>
<event>
 5   0  0.1429680E-03  0.1102300E+04  0.7818609E-02  0.9202953E-01
        2   -1    0    0  501    0  0.00000000000E+00  0.00000000000E+00  0.83835658324E+03  0.83835658325E+03  0.25500000920E-02 0. -1.
       -2   -1    0    0    0  501  0.00000000000E+00  0.00000000000E+00 -0.36233534347E+03  0.36233534348E+03  0.25500000920E-02 0.  1.
    10030    2    1    2    0    0  0.00000000000E+00  0.00000000000E+00  0.47602123977E+03  0.12006919267E+04  0.11022998150E+04 0.  0.
        3    1    3    3  502    0  0.16646594591E+03  0.25778181936E+03  0.73670154576E+03  0.79805485730E+03  0.10100000352E+00 0. -1.
       -3    1    3    3    0  502 -0.16646594591E+03 -0.25778181936E+03 -0.26068030599E+03  0.40263706942E+03  0.10100000352E+00 0.  1.
</event>
<event>
 5   0  0.8341767E-04  0.1100808E+04  0.7818609E-02  0.9204405E-01
        1   -1    0    0  501    0  0.00000000000E+00  0.00000000000E+00  0.12525111862E+03  0.12525111872E+03  0.50400001928E-02 0. -1.
       -1   -1    0    0    0  501  0.00000000000E+00  0.00000000000E+00 -0.24186981214E+04  0.24186981214E+04  0.50400001928E-02 0.  1.
    10030    2    1    2    0    0  0.00000000000E+00  0.00000000000E+00 -0.22934470028E+04  0.25439492401E+04  0.11008081494E+04 0.  0.
        2    1    3    3  502    0 -0.39675232882E+03  0.17556590460E+03 -0.19294233772E+04  0.19776021758E+04  0.25500000920E-02 0.  1.
       -2    1    3    3    0  502  0.39675232882E+03 -0.17556590460E+03 -0.36402362561E+03  0.56634706435E+03  0.25500000920E-02 0. -1.
</event>
<event>
 5   0  0.8009636E-04  0.1111568E+04  0.7818609E-02  0.9193990E-01
       -1   -1    0    0    0  501  0.00000000000E+00  0.00000000000E+00  0.37800320542E+03  0.37800320546E+03  0.50400001928E-02 0.  1.
        1   -1    0    0  501    0  0.00000000000E+00  0.00000000000E+00 -0.81717722847E+03  0.81717722849E+03  0.50400001928E-02 0. -1.
    10030    2    1    2    0    0  0.00000000000E+00  0.00000000000E+00 -0.43917402305E+03  0.11951804339E+04  0.11115675630E+04 0.  0.
        1    1    3    3  502    0  0.22263342781E+03  0.45709855148E+03  0.21777599106E+02  0.50889978659E+03  0.50400001928E-02 0.  1.
       -1    1    3    3    0  502 -0.22263342781E+03 -0.45709855148E+03 -0.46095162215E+03  0.68628064735E+03  0.50400001928E-02 0. -1.
</event>
<event>
 5   0  0.1425432E-03  0.1099277E+04  0.7818609E-02  0.9205896E-01
        2   -1    0    0  501    0  0.00000000000E+00  0.00000000000E+00  0.83212464503E+03  0.83212464503E+03  0.25500000920E-02 0.  1.
       -2   -1    0    0    0  501  0.00000000000E+00  0.00000000000E+00 -0.36304987915E+03  0.36304987916E+03  0.25500000920E-02 0. -1.
    10030    2    1    2    0    0  0.00000000000E+00  0.00000000000E+00  0.46907476588E+03  0.11951745242E+04  0.10992774933E+04 0.  0.
        1    1    3    3  502    0  0.39137821743E+03 -0.37368338678E+03  0.12976383764E+03  0.55646638373E+03  0.50400001928E-02 0.  1.
       -1    1    3    3    0  502 -0.39137821743E+03  0.37368338678E+03  0.33931092824E+03  0.63870814046E+03  0.50400001928E-02 0. -1.
</event>
<event>
 5   0  0.8305271E-04  0.1101037E+04  0.7818609E-02  0.9204182E-01
       -1   -1    0    0    0  501  0.00000000000E+00  0.00000000000E+00  0.46490573999E+03  0.46490574002E+03  0.50400001928E-02 0.  1.
        1   -1    0    0  501    0  0.00000000000E+00  0.00000000000E+00 -0.65189662123E+03  0.65189662125E+03  0.50400001928E-02 0. -1.
    10030    2    1    2    0    0  0.00000000000E+00  0.00000000000E+00 -0.18699088124E+03  0.11168023613E+04  0.11010367498E+04 0.  0.
        5    1    3    3  502    0  0.90510992873E+02  0.24745295592E+03  0.39677135383E+03  0.47631376471E+03  0.46999998093E+01 0.  1.
       -5    1    3    3    0  502 -0.90510992873E+02 -0.24745295592E+03 -0.58376223508E+03  0.64048859656E+03  0.46999998093E+01 0. -1.
</event>
<event>
 5   0  0.8305271E-04  0.1093414E+04  0.7818609E-02  0.9211635E-01
       -1   -1    0    0    0  501  0.00000000000E+00  0.00000000000E+00  0.21899547627E+03  0.21899547633E+03  0.50400001928E-02 0.  1.
        1   -1    0    0  501    0  0.00000000000E+00  0.00000000000E+00 -0.13648166740E+04  0.13648166740E+04  0.50400001928E-02 0. -1.
    10030    2    1    2    0    0  0.00000000000E+00  0.00000000000E+00 -0.11458211977E+04  0.15838121503E+04  0.10934142446E+04 0.  0.
        5    1    3    3  502    0  0.22802655268E+03  0.30308191951E+02  0.14545251967E+03  0.27220069931E+03  0.46999998093E+01 0.  1.
       -5    1    3    3    0  502 -0.22802655268E+03 -0.30308191951E+02 -0.12912737173E+04  0.13116114510E+04  0.46999998093E+01 0. -1.
</event>
<event>
 5   0  0.1396936E-03  0.1094604E+04  0.7818609E-02  0.9210467E-01
       -2   -1    0    0    0  501  0.00000000000E+00  0.00000000000E+00  0.95951330467E+03  0.95951330468E+03  0.25500000920E-02 0.  1.
        2   -1    0    0  501    0  0.00000000000E+00  0.00000000000E+00 -0.31217873956E+03  0.31217873957E+03  0.25500000920E-02 0. -1.
    10030    2    1    2    0    0  0.00000000000E+00  0.00000000000E+00  0.64733456512E+03  0.12716920442E+04  0.10946043195E+04 0.  0.
        2    1    3    3  502    0  0.16552468637E+03  0.36236221794E+03  0.75966063997E+03  0.85778149124E+03  0.25500000920E-02 0.  1.
       -2    1    3    3    0  502 -0.16552468637E+03 -0.36236221794E+03 -0.11232607486E+03  0.41391055300E+03  0.25500000920E-02 0. -1.
</event>
<event>
 5   0  0.1396936E-03  0.1088610E+04  0.7818609E-02  0.9216365E-01
        2   -1    0    0  501    0  0.00000000000E+00  0.00000000000E+00  0.81945444694E+03  0.81945444694E+03  0.25500000920E-02 0. -1.
       -2   -1    0    0    0  501  0.00000000000E+00  0.00000000000E+00 -0.36154264108E+03  0.36154264108E+03  0.25500000920E-02 0.  1.
    10030    2    1    2    0    0  0.00000000000E+00  0.00000000000E+00  0.45791180586E+03  0.11809970880E+04  0.10886096178E+04 0.  0.
        2    1    3    3  502    0 -0.93044622807E+02  0.34468948117E+03 -0.21676432788E+03  0.41767800291E+03  0.25500000920E-02 0.  1.
       -2    1    3    3    0  502  0.93044622807E+02 -0.34468948117E+03  0.67467613374E+03  0.76331908512E+03  0.25500000920E-02 0. -1.
</event>
<event>
 5   0  0.8150924E-04  0.1098859E+04  0.7818609E-02  0.9206305E-01
        1   -1    0    0  501    0  0.00000000000E+00  0.00000000000E+00  0.13327524103E+03  0.13327524112E+03  0.50400001928E-02 0. -1.
       -1   -1    0    0    0  501  0.00000000000E+00  0.00000000000E+00 -0.22650320417E+04  0.22650320417E+04  0.50400001928E-02 0.  1.
    10030    2    1    2    0    0  0.00000000000E+00  0.00000000000E+00 -0.21317568007E+04  0.23983072828E+04  0.10988588470E+04 0.  0.
        3    1    3    3  502    0 -0.53722433955E+03  0.74733984469E+02 -0.12571160712E+04  0.13691369493E+04  0.10100000352E+00 0.  1.
       -3    1    3    3    0  502  0.53722433955E+03 -0.74733984469E+02 -0.87464072954E+03  0.10291703335E+04  0.10100000352E+00 0. -1.
</event>
<event>
 5   0  0.1402775E-03  0.1101971E+04  0.7818609E-02  0.9203272E-01
       -2   -1    0    0    0  501  0.00000000000E+00  0.00000000000E+00  0.18265364674E+03  0.18265364676E+03  0.25500000920E-02 0.  1.
        2   -1    0    0  501    0  0.00000000000E+00  0.00000000000E+00 -0.16620817631E+04  0.16620817631E+04  0.25500000920E-02 0. -1.
    10030    2    1    2    0    0  0.00000000000E+00  0.00000000000E+00 -0.14794281164E+04  0.18447354099E+04  0.11019714973E+04 0.  0.
        5    1    3    3  502    0  0.27514246857E+03 -0.38132706401E+03 -0.25903220249E+03  0.53687380238E+03  0.46999998093E+01 0.  1.
       -5    1    3    3    0  502 -0.27514246857E+03  0.38132706401E+03 -0.12203959139E+04  0.13078616075E+04  0.46999998093E+01 0. -1.
</event>
<event>
 5   0  0.7946038E-04  0.1106540E+04  0.7818609E-02  0.9198841E-01
        1   -1    0    0  501    0  0.00000000000E+00  0.00000000000E+00  0.10761360080E+04  0.10761360080E+04  0.50400001928E-02 0. -1.
       -1   -1    0    0    0  501  0.00000000000E+00  0.00000000000E+00 -0.28445079398E+03  0.28445079403E+03  0.50400001928E-02 0.  1.
    10030    2    1    2    0    0  0.00000000000E+00  0.00000000000E+00  0.79168521405E+03  0.13605868021E+04  0.11065400887E+04 0.  0.
        4    1    3    3  502    0  0.33183876803E+03  0.21922996839E+03  0.86875793131E+03  0.95546883943E+03  0.12699999809E+01 0. -1.
       -4    1    3    3    0  502 -0.33183876803E+03 -0.21922996839E+03 -0.77072717258E+02  0.40511796264E+03  0.12699999809E+01 0.  1.
</event>
<event>
 5   0  0.1396936E-03  0.1101773E+04  0.7818609E-02  0.9203466E-01
        2   -1    0    0  501    0  0.00000000000E+00  0.00000000000E+00  0.86199929276E+03  0.86199929276E+03  0.25500000920E-02 0. -1.
       -2   -1    0    0    0  501  0.00000000000E+00  0.00000000000E+00 -0.35206022507E+03  0.35206022508E+03  0.25500000920E-02 0.  1.
    10030    2    1    2    0    0  0.00000000000E+00  0.00000000000E+00  0.50993906769E+03  0.12140595178E+04  0.11017725083E+04 0.  0.
        2    1    3    3  502    0  0.16518904342E+03 -0.50246039729E+03  0.42468515291E+03  0.67831508166E+03  0.25500000920E-02 0.  1.
       -2    1    3    3    0  502 -0.16518904342E+03  0.50246039729E+03  0.85253914780E+02  0.53574443618E+03  0.25500000920E-02 0. -1.
</event>
<event>
 5   0  0.8150924E-04  0.1097360E+04  0.7818609E-02  0.9207769E-01
        1   -1    0    0  501    0  0.00000000000E+00  0.00000000000E+00  0.70271229849E+03  0.70271229851E+03  0.50400001928E-02 0. -1.
       -1   -1    0    0    0  501  0.00000000000E+00  0.00000000000E+00 -0.42841130097E+03  0.42841130100E+03  0.50400001928E-02 0.  1.
    10030    2    1    2    0    0  0.00000000000E+00  0.00000000000E+00  0.27430099753E+03  0.11311235995E+04  0.10973602691E+04 0.  0.
        3    1    3    3  502    0 -0.19781995769E+02  0.54663901390E+03  0.18141763592E+03  0.57629671845E+03  0.10100000352E+00 0. -1.
       -3    1    3    3    0  502  0.19781995769E+02 -0.54663901390E+03  0.92883361606E+02  0.55482688106E+03  0.10100000352E+00 0.  1.
</event>
<event>
 5   0  0.8305271E-04  0.1067553E+04  0.7818609E-02  0.9237407E-01
       -1   -1    0    0    0  501  0.00000000000E+00  0.00000000000E+00  0.17840365446E+03  0.17840365453E+03  0.50400001928E-02 0.  1.
        1   -1    0    0  501    0  0.00000000000E+00  0.00000000000E+00 -0.15970374476E+04  0.15970374476E+04  0.50400001928E-02 0. -1.
    10030    2    1    2    0    0  0.00000000000E+00  0.00000000000E+00 -0.14186337932E+04  0.17754411022E+04  0.10675529346E+04 0.  0.
        5    1    3    3  502    0 -0.30975261058E+03 -0.41266303832E+02 -0.14289691795E+04  0.14627455669E+04  0.46999998093E+01 0. -1.
       -5    1    3    3    0  502  0.30975261058E+03  0.41266303832E+02  0.10335386278E+02  0.31269553530E+03  0.46999998093E+01 0.  1.
</event>
<event>
 5   0  0.8341767E-04  0.1095638E+04  0.7818609E-02  0.9209454E-01
       -1   -1    0    0    0  501  0.00000000000E+00  0.00000000000E+00  0.28107359870E+03  0.28107359874E+03  0.50400001928E-02 0.  1.
        1   -1    0    0  501    0  0.00000000000E+00  0.00000000000E+00 -0.10677123601E+04  0.10677123601E+04  0.50400001928E-02 0. -1.
    10030    2    1    2    0    0  0.00000000000E+00  0.00000000000E+00 -0.78663876140E+03  0.13487859589E+04  0.10956381802E+04 0.  0.
        2    1    3    3  502    0 -0.45353056306E+03 -0.19940740622E+03 -0.10552601631E+03  0.50654617303E+03  0.25500000920E-02 0.  1.
       -2    1    3    3    0  502  0.45353056306E+03  0.19940740622E+03 -0.68111274508E+03  0.84223978582E+03  0.25500000920E-02 0. -1.
</event>
<event>
 5   0  0.8305271E-04  0.1100401E+04  0.7818609E-02  0.9204801E-01
       -1   -1    0    0    0  501  0.00000000000E+00  0.00000000000E+00  0.82550836977E+03  0.82550836978E+03  0.50400001928E-02 0.  1.
        1   -1    0    0  501    0  0.00000000000E+00  0.00000000000E+00 -0.36670788722E+03  0.36670788726E+03  0.50400001928E-02 0. -1.
    10030    2    1    2    0    0  0.00000000000E+00  0.00000000000E+00  0.45880048255E+03  0.11922162570E+04  0.11004007092E+04 0.  0.
        5    1    3    3  502    0  0.28105617732E+03  0.89632961620E+02 -0.27375355795E+03  0.40247949402E+03  0.46999998093E+01 0. -1.
       -5    1    3    3    0  502 -0.28105617732E+03 -0.89632961620E+02  0.73255404050E+03  0.78973676302E+03  0.46999998093E+01 0.  1.
</event>
<event>
 5   0  0.1396936E-03  0.1099488E+04  0.7818609E-02  0.9205691E-01
       -2   -1    0    0    0  501  0.00000000000E+00  0.00000000000E+00  0.41176851425E+03  0.41176851426E+03  0.25500000920E-02 0. -1.
        2   -1    0    0  501    0  0.00000000000E+00  0.00000000000E+00 -0.73395189601E+03  0.73395189601E+03  0.25500000920E-02 0.  1.
    10030    2    1    2    0    0  0.00000000000E+00  0.00000000000E+00 -0.32218338175E+03  0.11457204103E+04  0.10994876657E+04 0.  0.
        2    1    3    3  502    0 -0.21799122215E+03 -0.22114875517E+03 -0.63380935656E+03  0.70579121935E+03  0.25500000920E-02 0.  1.
       -2    1    3    3    0  502  0.21799122215E+03  0.22114875517E+03  0.31162597481E+03  0.43992919092E+03  0.25500000920E-02 0. -1.
</event>
<event>
 5   0  0.1396936E-03  0.1108294E+04  0.7818609E-02  0.9197145E-01
       -2   -1    0    0    0  501  0.00000000000E+00  0.00000000000E+00  0.19567059128E+03  0.19567059130E+03  0.25500000920E-02 0.  1.
        2   -1    0    0  501    0  0.00000000000E+00  0.00000000000E+00 -0.15693673244E+04  0.15693673244E+04  0.25500000920E-02 0. -1.
    10030    2    1    2    0    0  0.00000000000E+00  0.00000000000E+00 -0.13736967332E+04  0.17650379157E+04  0.11082942431E+04 0.  0.
        2    1    3    3  502    0 -0.31295135930E+03 -0.42068670947E+03 -0.97246164548E+03  0.11048065499E+04  0.25500000920E-02 0. -1.
       -2    1    3    3    0  502  0.31295135930E+03  0.42068670947E+03 -0.40123508769E+03  0.66023136582E+03  0.25500000920E-02 0.  1.
</event>
<event>
 5   0  0.7946038E-04  0.1068794E+04  0.7818609E-02  0.9236152E-01
        1   -1    0    0  501    0  0.00000000000E+00  0.00000000000E+00  0.22699141189E+03  0.22699141194E+03  0.50400001928E-02 0.  1.
       -1   -1    0    0    0  501  0.00000000000E+00  0.00000000000E+00 -0.12581110704E+04  0.12581110705E+04  0.50400001928E-02 0. -1.
    10030    2    1    2    0    0  0.00000000000E+00  0.00000000000E+00 -0.10311196586E+04  0.14851024824E+04  0.10687944765E+04 0.  0.
        4    1    3    3  502    0 -0.67136299096E+02  0.40743677746E+03 -0.98690299341E+03  0.10698089276E+04  0.12699999809E+01 0. -1.
       -4    1    3    3    0  502  0.67136299096E+02 -0.40743677746E+03 -0.44216665154E+02  0.41529355480E+03  0.12699999809E+01 0.  1.
</event>
<event>
 5   0  0.1372794E-03  0.1095591E+04  0.7818609E-02  0.9209500E-01
        2   -1    0    0  501    0  0.00000000000E+00  0.00000000000E+00  0.61747766276E+03  0.61747766277E+03  0.25500000920E-02 0. -1.
       -2   -1    0    0    0  501  0.00000000000E+00  0.00000000000E+00 -0.48597707507E+03  0.48597707508E+03  0.25500000920E-02 0.  1.
    10030    2    1    2    0    0  0.00000000000E+00  0.00000000000E+00  0.13150058769E+03  0.11034547378E+04  0.10955911436E+04 0.  0.
        4    1    3    3  502    0 -0.51122566540E+03 -0.13943014505E+03  0.20562084802E+03  0.56839598200E+03  0.12699999809E+01 0. -1.
       -4    1    3    3    0  502  0.51122566540E+03  0.13943014505E+03 -0.74120260331E+02  0.53505875584E+03  0.12699999809E+01 0.  1.
</event>
<event>
 5   0  0.5409500E-04  0.1100254E+04  0.7818609E-02  0.9204944E-01
        3   -1    0    0  501    0  0.00000000000E+00  0.00000000000E+00  0.73103943557E+03  0.73103944254E+03  0.10100000352E+00 0. -1.
       -3   -1    0    0    0  501  0.00000000000E+00  0.00000000000E+00 -0.41398551626E+03  0.41398552858E+03  0.10100000352E+00 0.  1.
    10030    2    1    2    0    0  0.00000000000E+00  0.00000000000E+00  0.31705391931E+03  0.11450249711E+04  0.11002540601E+04 0.  0.
        2    1    3    3  502    0 -0.20568710878E+03  0.42338685294E+03  0.45485209904E+03  0.65456401212E+03  0.25500000920E-02 0. -1.
       -2    1    3    3    0  502  0.20568710878E+03 -0.42338685294E+03 -0.13779817973E+03  0.49046095900E+03  0.25500000920E-02 0.  1.
</event>
<event>
 5   0  0.8305271E-04  0.1116435E+04  0.7818609E-02  0.9189320E-01
        1   -1    0    0  501    0  0.00000000000E+00  0.00000000000E+00  0.69045753633E+03  0.69045753635E+03  0.50400001928E-02 0. -1.
       -1   -1    0    0    0  501  0.00000000000E+00  0.00000000000E+00 -0.45130446828E+03  0.45130446831E+03  0.50400001928E-02 0.  1.
    10030    2    1    2    0    0  0.00000000000E+00  0.00000000000E+00  0.23915306805E+03  0.11417620047E+04  0.11164346310E+04 0.  0.
        5    1    3    3  502    0 -0.44067438824E+03 -0.57309010208E+02 -0.22588284551E+03  0.49852120216E+03  0.46999998093E+01 0.  1.
       -5    1    3    3    0  502  0.44067438824E+03  0.57309010208E+02  0.46503591356E+03  0.64324080250E+03  0.46999998093E+01 0. -1.
</event>
<event>
 5   0  0.8150924E-04  0.1101331E+04  0.7818609E-02  0.9203896E-01
        1   -1    0    0  501    0  0.00000000000E+00  0.00000000000E+00  0.80403417441E+03  0.80403417443E+03  0.50400001928E-02 0. -1.
       -1   -1    0    0    0  501  0.00000000000E+00  0.00000000000E+00 -0.37713877521E+03  0.37713877525E+03  0.50400001928E-02 0.  1.
    10030    2    1    2    0    0  0.00000000000E+00  0.00000000000E+00  0.42689539920E+03  0.11811729497E+04  0.11013309472E+04 0.  0.
        3    1    3    3  502    0 -0.48642660624E+02 -0.76670406846E+02  0.79595023464E+03  0.80111250517E+03  0.10100000352E+00 0. -1.
       -3    1    3    3    0  502  0.48642660624E+02  0.76670406846E+02 -0.36905483544E+03  0.38006044451E+03  0.10100000352E+00 0.  1.
</event>
<event>
 5   0  0.1396936E-03  0.1100604E+04  0.7818609E-02  0.9204604E-01
        2   -1    0    0  501    0  0.00000000000E+00  0.00000000000E+00  0.31063825356E+03  0.31063825357E+03  0.25500000920E-02 0.  1.
       -2   -1    0    0    0  501  0.00000000000E+00  0.00000000000E+00 -0.97487041901E+03  0.97487041901E+03  0.25500000920E-02 0. -1.
    10030    2    1    2    0    0  0.00000000000E+00  0.00000000000E+00 -0.66423216545E+03  0.12855086726E+04  0.11006035515E+04 0.  0.
        2    1    3    3  502    0 -0.53623698867E+03 -0.88629837544E+02 -0.43277255355E+03  0.69476430480E+03  0.25500000920E-02 0. -1.
       -2    1    3    3    0  502  0.53623698867E+03  0.88629837544E+02 -0.23145961189E+03  0.59074436778E+03  0.25500000920E-02 0.  1.
</event>
<event>
 5   0  0.8009636E-04  0.1093956E+04  0.7818609E-02  0.9211102E-01
       -1   -1    0    0    0  501  0.00000000000E+00  0.00000000000E+00  0.47841742301E+03  0.47841742304E+03  0.50400001928E-02 0.  1.
        1   -1    0    0  501    0  0.00000000000E+00  0.00000000000E+00 -0.62536426419E+03  0.62536426421E+03  0.50400001928E-02 0. -1.
    10030    2    1    2    0    0  0.00000000000E+00  0.00000000000E+00 -0.14694684118E+03  0.11037816872E+04  0.10939564155E+04 0.  0.
        1    1    3    3  502    0 -0.14379810632E+03 -0.30285661433E+03  0.36259468263E+03  0.49383694488E+03  0.50400001928E-02 0.  1.
       -1    1    3    3    0  502  0.14379810632E+03  0.30285661433E+03 -0.50954152382E+03  0.60994474237E+03  0.50400001928E-02 0. -1.
</event>
<event>
 5   0  0.1396936E-03  0.1072568E+04  0.7818609E-02  0.9232349E-01
        2   -1    0    0  501    0  0.00000000000E+00  0.00000000000E+00  0.42452623729E+03  0.42452623730E+03  0.25500000920E-02 0.  1.
       -2   -1    0    0    0  501  0.00000000000E+00  0.00000000000E+00 -0.67746286764E+03  0.67746286765E+03  0.25500000920E-02 0. -1.
    10030    2    1    2    0    0  0.00000000000E+00  0.00000000000E+00 -0.25293663035E+03  0.11019891049E+04  0.10725684353E+04 0.  0.
        2    1    3    3  502    0 -0.28147485812E+03 -0.11891176837E+03  0.32633898004E+03  0.44706289749E+03  0.25500000920E-02 0.  1.
       -2    1    3    3    0  502  0.28147485812E+03  0.11891176837E+03 -0.57927561039E+03  0.65492620746E+03  0.25500000920E-02 0. -1.
</event>
<event>
 5   0  0.1396936E-03  0.1097954E+04  0.7818609E-02  0.9207188E-01
        2   -1    0    0  501    0  0.00000000000E+00  0.00000000000E+00  0.42511900374E+03  0.42511900374E+03  0.25500000920E-02 0.  1.
       -2   -1    0    0    0  501  0.00000000000E+00  0.00000000000E+00 -0.70892105300E+03  0.70892105301E+03  0.25500000920E-02 0. -1.
    10030    2    1    2    0    0  0.00000000000E+00  0.00000000000E+00 -0.28380204927E+03  0.11340400568E+04  0.10979541189E+04 0.  0.
        2    1    3    3  502    0 -0.47217311239E+03 -0.20006462062E+03 -0.34430731976E+03  0.61767372531E+03  0.25500000920E-02 0. -1.
       -2    1    3    3    0  502  0.47217311239E+03  0.20006462062E+03  0.60505270492E+02  0.51636633145E+03  0.25500000920E-02 0.  1.
</event>
<event>
 5   0  0.8150924E-04  0.1101045E+04  0.7818609E-02  0.9204174E-01
       -1   -1    0    0    0  501  0.00000000000E+00  0.00000000000E+00  0.54871108312E+03  0.54871108315E+03  0.50400001928E-02 0.  1.
        1   -1    0    0  501    0  0.00000000000E+00  0.00000000000E+00 -0.55233973645E+03  0.55233973648E+03  0.50400001928E-02 0. -1.
    10030    2    1    2    0    0  0.00000000000E+00  0.00000000000E+00 -0.36286533308E+01  0.11010508196E+04  0.11010448403E+04 0.  0.
        3    1    3    3  502    0 -0.21952972844E+03  0.44725288985E+03 -0.23600884288E+03  0.55129722769E+03  0.10100000352E+00 0. -1.
       -3    1    3    3    0  502  0.21952972844E+03 -0.44725288985E+03  0.23238018955E+03  0.54975359193E+03  0.10100000352E+00 0.  1.
</event>
<event>
 5   0  0.8009636E-04  0.1098596E+04  0.7818609E-02  0.9206561E-01
       -1   -1    0    0    0  501  0.00000000000E+00  0.00000000000E+00  0.18798696910E+03  0.18798696917E+03  0.50400001928E-02 0.  1.
        1   -1    0    0  501    0  0.00000000000E+00  0.00000000000E+00 -0.16050498627E+04  0.16050498627E+04  0.50400001928E-02 0. -1.
    10030    2    1    2    0    0  0.00000000000E+00  0.00000000000E+00 -0.14170628936E+04  0.17930368318E+04  0.10985963026E+04 0.  0.
        1    1    3    3  502    0  0.32483430956E+03  0.38721951047E+03 -0.10596154671E+04  0.11739851856E+04  0.50400001928E-02 0. -1.
       -1    1    3    3    0  502 -0.32483430956E+03 -0.38721951047E+03 -0.35744742647E+03  0.61905164621E+03  0.50400001928E-02 0.  1.
</event>
<event>
 5   0  0.8150924E-04  0.1101431E+04  0.7818609E-02  0.9203798E-01
       -1   -1    0    0    0  501  0.00000000000E+00  0.00000000000E+00  0.63572089608E+03  0.63572089610E+03  0.50400001928E-02 0. -1.
        1   -1    0    0  501    0  0.00000000000E+00  0.00000000000E+00 -0.47707642908E+03  0.47707642910E+03  0.50400001928E-02 0.  1.
    10030    2    1    2    0    0  0.00000000000E+00  0.00000000000E+00  0.15864446701E+03  0.11127973252E+04  0.11014308059E+04 0.  0.
        3    1    3    3  502    0 -0.27968592528E+03 -0.29347114401E+02 -0.39906388700E+03  0.48819818315E+03  0.10100000352E+00 0.  1.
       -3    1    3    3    0  502  0.27968592528E+03  0.29347114401E+02  0.55770835401E+03  0.62459914206E+03  0.10100000352E+00 0. -1.
</event>
<event>
 5   0  0.5409500E-04  0.1089233E+04  0.7818609E-02  0.9215751E-01
       -3   -1    0    0    0  501  0.00000000000E+00  0.00000000000E+00  0.59326797868E+03  0.59326798727E+03  0.10100000352E+00 0. -1.
        3   -1    0    0  501    0  0.00000000000E+00  0.00000000000E+00 -0.49995430968E+03  0.49995431988E+03  0.10100000352E+00 0.  1.
    10030    2    1    2    0    0  0.00000000000E+00  0.00000000000E+00  0.93313669001E+02  0.10932223072E+04  0.10892325610E+04 0.  0.
        2    1    3    3  502    0  0.12132588927E+03  0.52976115066E+03  0.11313577840E+02  0.54359437562E+03  0.25500000920E-02 0. -1.
       -2    1    3    3    0  502 -0.12132588927E+03 -0.52976115066E+03  0.82000091161E+02  0.54962793153E+03  0.25500000920E-02 0.  1.
</event>
<event>
 5   0  0.7946038E-04  0.1099726E+04  0.7818609E-02  0.9205459E-01
       -1   -1    0    0    0  501  0.00000000000E+00  0.00000000000E+00  0.15756921068E+04  0.15756921068E+04  0.50400001928E-02 0. -1.
        1   -1    0    0  501    0  0.00000000000E+00  0.00000000000E+00 -0.19188362122E+03  0.19188362129E+03  0.50400001928E-02 0.  1.
    10030    2    1    2    0    0  0.00000000000E+00  0.00000000000E+00  0.13838084856E+04  0.17675757281E+04  0.10997263431E+04 0.  0.
        4    1    3    3  502    0  0.29426128265E+03  0.18804615159E+03  0.13745695931E+04  0.14182363120E+04  0.12699999809E+01 0. -1.
       -4    1    3    3    0  502 -0.29426128265E+03 -0.18804615159E+03  0.92388924972E+01  0.34933941608E+03  0.12699999809E+01 0.  1.
</event>
<event>
 5   0  0.7946038E-04  0.1080885E+04  0.7818609E-02  0.9224025E-01
        1   -1    0    0  501    0  0.00000000000E+00  0.00000000000E+00  0.51460692511E+03  0.51460692514E+03  0.50400001928E-02 0.  1.
       -1   -1    0    0    0  501  0.00000000000E+00  0.00000000000E+00 -0.56757557299E+03  0.56757557301E+03  0.50400001928E-02 0. -1.
    10030    2    1    2    0    0  0.00000000000E+00  0.00000000000E+00 -0.52968647875E+02  0.10821824982E+04  0.10808854156E+04 0.  0.
        4    1    3    3  502    0 -0.52666435768E+03 -0.10424723741E+03 -0.88476922842E+02  0.54412554703E+03  0.12699999809E+01 0.  1.
       -4    1    3    3    0  502  0.52666435768E+03  0.10424723741E+03  0.35508274967E+02  0.53805695112E+03  0.12699999809E+01 0. -1.
</event>
<event>
 5   0  0.1425432E-03  0.1093894E+04  0.7818609E-02  0.9211163E-01
        2   -1    0    0  501    0  0.00000000000E+00  0.00000000000E+00  0.14471394049E+04  0.14471394049E+04  0.25500000920E-02 0. -1.
       -2   -1    0    0    0  501  0.00000000000E+00  0.00000000000E+00 -0.20671896492E+03  0.20671896494E+03  0.25500000920E-02 0.  1.
    10030    2    1    2    0    0  0.00000000000E+00  0.00000000000E+00  0.12404204400E+04  0.16538583698E+04  0.10938942543E+04 0.  0.
        1    1    3    3  502    0 -0.42768013395E+03  0.13956675698E+03  0.10905106273E+04  0.11796620723E+04  0.50400001928E-02 0. -1.
       -1    1    3    3    0  502  0.42768013395E+03 -0.13956675698E+03  0.14990981273E+03  0.47419629755E+03  0.50400001928E-02 0.  1.
</event>
<event>
 5   0  0.1429680E-03  0.1093779E+04  0.7818609E-02  0.9211277E-01
        2   -1    0    0  501    0  0.00000000000E+00  0.00000000000E+00  0.88932460671E+03  0.88932460672E+03  0.25500000920E-02 0.  1.
       -2   -1    0    0    0  501  0.00000000000E+00  0.00000000000E+00 -0.33630910467E+03  0.33630910468E+03  0.25500000920E-02 0. -1.
    10030    2    1    2    0    0  0.00000000000E+00  0.00000000000E+00  0.55301550204E+03  0.12256337114E+04  0.10937787020E+04 0.  0.
        3    1    3    3  502    0  0.15091812856E+03  0.80809622153E+02 -0.30551143077E+03  0.35020525566E+03  0.10100000352E+00 0. -1.
       -3    1    3    3    0  502 -0.15091812856E+03 -0.80809622153E+02  0.85852693281E+03  0.87542845574E+03  0.10100000352E+00 0.  1.
</event>
<event>
 5   0  0.8305271E-04  0.1099751E+04  0.7818609E-02  0.9205434E-01
       -1   -1    0    0    0  501  0.00000000000E+00  0.00000000000E+00  0.49907924505E+03  0.49907924507E+03  0.50400001928E-02 0. -1.
        1   -1    0    0  501    0  0.00000000000E+00  0.00000000000E+00 -0.60584225727E+03  0.60584225729E+03  0.50400001928E-02 0.  1.
    10030    2    1    2    0    0  0.00000000000E+00  0.00000000000E+00 -0.10676301222E+03  0.11049215024E+04  0.10997514199E+04 0.  0.
        5    1    3    3  502    0 -0.10399468692E+03  0.47443131802E+03 -0.31235525598E+03  0.57748408321E+03  0.46999998093E+01 0. -1.
       -5    1    3    3    0  502  0.10399468692E+03 -0.47443131802E+03  0.20559224376E+03  0.52743741915E+03  0.46999998093E+01 0.  1.
</event>
<event>
 5   0  0.1396936E-03  0.1094146E+04  0.7818609E-02  0.9210916E-01
       -2   -1    0    0    0  501  0.00000000000E+00  0.00000000000E+00  0.47443460984E+03  0.47443460985E+03  0.25500000920E-02 0.  1.
        2   -1    0    0  501    0  0.00000000000E+00  0.00000000000E+00 -0.63083313992E+03  0.63083313992E+03  0.25500000920E-02 0. -1.
    10030    2    1    2    0    0  0.00000000000E+00  0.00000000000E+00 -0.15639853008E+03  0.11052677498E+04  0.10941463789E+04 0.  0.
        2    1    3    3  502    0 -0.26712804508E+03  0.73346378237E+02 -0.55474853941E+03  0.62006695256E+03  0.25500000920E-02 0. -1.
       -2    1    3    3    0  502  0.26712804508E+03 -0.73346378237E+02  0.39835000934E+03  0.48520079721E+03  0.25500000920E-02 0.  1.
</event>
<event>
 5   0  0.1372794E-03  0.1097665E+04  0.7818609E-02  0.9207471E-01
        2   -1    0    0  501    0  0.00000000000E+00  0.00000000000E+00  0.12346896956E+04  0.12346896956E+04  0.25500000920E-02 0. -1.
       -2   -1    0    0    0  501  0.00000000000E+00  0.00000000000E+00 -0.24396183490E+03  0.24396183491E+03  0.25500000920E-02 0.  1.
    10030    2    1    2    0    0  0.00000000000E+00  0.00000000000E+00  0.99072786068E+03  0.14786515305E+04  0.10976650922E+04 0.  0.
        4    1    3    3  502    0 -0.28203440561E+02 -0.54764142366E+03  0.52575525810E+03  0.75968859890E+03  0.12699999809E+01 0.  1.
       -4    1    3    3    0  502  0.28203440561E+02  0.54764142366E+03  0.46497260258E+03  0.71896293160E+03  0.12699999809E+01 0. -1.
</event>
<event>
 5   0  0.7946038E-04  0.1091841E+04  0.7818609E-02  0.9213181E-01
       -1   -1    0    0    0  501  0.00000000000E+00  0.00000000000E+00  0.94407819457E+03  0.94407819458E+03  0.50400001928E-02 0. -1.
        1   -1    0    0  501    0  0.00000000000E+00  0.00000000000E+00 -0.31568273596E+03  0.31568273600E+03  0.50400001928E-02 0.  1.
    10030    2    1    2    0    0  0.00000000000E+00  0.00000000000E+00  0.62839545861E+03  0.12597609306E+04  0.10918409911E+04 0.  0.
        4    1    3    3  502    0  0.89038419953E+01 -0.53792555646E+03  0.20729630113E+03  0.57655576665E+03  0.12699999809E+01 0. -1.
       -4    1    3    3    0  502 -0.89038419953E+01  0.53792555646E+03  0.42109915748E+03  0.68320516393E+03  0.12699999809E+01 0.  1.
</event>
<event>
 5   0  0.1402775E-03  0.1099829E+04  0.7818609E-02  0.9205359E-01
        2   -1    0    0  501    0  0.00000000000E+00  0.00000000000E+00  0.12897338762E+04  0.12897338762E+04  0.25500000920E-02 0.  1.
       -2   -1    0    0    0  501  0.00000000000E+00  0.00000000000E+00 -0.23447145182E+03  0.23447145183E+03  0.25500000920E-02 0. -1.
    10030    2    1    2    0    0  0.00000000000E+00  0.00000000000E+00  0.10552624244E+04  0.15242053280E+04  0.10998286674E+04 0.  0.
        5    1    3    3  502    0  0.54803026836E+03  0.27955715207E+02  0.57692152048E+03  0.79622812551E+03  0.46999998093E+01 0.  1.
       -5    1    3    3    0  502 -0.54803026836E+03 -0.27955715207E+02  0.47834090389E+03  0.72797720252E+03  0.46999998093E+01 0. -1.
</event>
<event>
 5   0  0.1429680E-03  0.1104332E+04  0.7818609E-02  0.9200980E-01
       -2   -1    0    0    0  501  0.00000000000E+00  0.00000000000E+00  0.71816176891E+03  0.71816176892E+03  0.25500000920E-02 0.  1.
        2   -1    0    0  501    0  0.00000000000E+00  0.00000000000E+00 -0.42453823638E+03  0.42453823638E+03  0.25500000920E-02 0. -1.
    10030    2    1    2    0    0  0.00000000000E+00  0.00000000000E+00  0.29362353254E+03  0.11427000053E+04  0.11043317089E+04 0.  0.
        3    1    3    3  502    0  0.20203898681E+03  0.50382613066E+03  0.42171631640E+02  0.54446210046E+03  0.10100000352E+00 0. -1.
       -3    1    3    3    0  502 -0.20203898681E+03 -0.50382613066E+03  0.25145190090E+03  0.59823790484E+03  0.10100000352E+00 0.  1.
</event>
<event>
 5   0  0.7946038E-04  0.1100012E+04  0.7818609E-02  0.9205181E-01
       -1   -1    0    0    0  501  0.00000000000E+00  0.00000000000E+00  0.33584620866E+03  0.33584620869E+03  0.50400001928E-02 0.  1.
        1   -1    0    0  501    0  0.00000000000E+00  0.00000000000E+00 -0.90072896254E+03  0.90072896255E+03  0.50400001928E-02 0. -1.
    10030    2    1    2    0    0  0.00000000000E+00  0.00000000000E+00 -0.56488275388E+03  0.12365751712E+04  0.11000116493E+04 0.  0.
        4    1    3    3  502    0  0.42394592330E+03 -0.99089014201E+02 -0.66025526679E+03  0.79087761938E+03  0.12699999809E+01 0. -1.
       -4    1    3    3    0  502 -0.42394592330E+03  0.99089014201E+02  0.95372512902E+02  0.44569755186E+03  0.12699999809E+01 0.  1.
</event>
<event>
 5   0  0.5409500E-04  0.1114543E+04  0.7818609E-02  0.9191133E-01
        3   -1    0    0  501    0  0.00000000000E+00  0.00000000000E+00  0.53638119575E+03  0.53638120526E+03  0.10100000352E+00 0.  1.
       -3   -1    0    0    0  501  0.00000000000E+00  0.00000000000E+00 -0.57897494110E+03  0.57897494991E+03  0.10100000352E+00 0. -1.
    10030    2    1    2    0    0  0.00000000000E+00  0.00000000000E+00 -0.42593745357E+02  0.11153561552E+04  0.11145425634E+04 0.  0.
        5    1    3    3  502    0  0.54855306850E+03  0.36787626921E+01  0.76780736684E+02  0.55393264372E+03  0.46999998093E+01 0.  1.
       -5    1    3    3    0  502 -0.54855306850E+03 -0.36787626921E+01 -0.11937448204E+03  0.56142351145E+03  0.46999998093E+01 0. -1.
</event>
<event>
 5   0  0.8009636E-04  0.1119851E+04  0.7818609E-02  0.9186057E-01
        1   -1    0    0  501    0  0.00000000000E+00  0.00000000000E+00  0.67340731529E+03  0.67340731531E+03  0.50400001928E-02 0.  1.
       -1   -1    0    0    0  501  0.00000000000E+00  0.00000000000E+00 -0.46556772903E+03  0.46556772906E+03  0.50400001928E-02 0. -1.
    10030    2    1    2    0    0  0.00000000000E+00  0.00000000000E+00  0.20783958627E+03  0.11389750444E+04  0.11198512661E+04 0.  0.
        1    1    3    3  502    0  0.55624030720E+02 -0.37425284801E+03 -0.31587251458E+03  0.49288403558E+03  0.50400001928E-02 0. -1.
       -1    1    3    3    0  502 -0.55624030720E+02  0.37425284801E+03  0.52371210085E+03  0.64609100879E+03  0.50400001928E-02 0.  1.
</event>
<event>
 5   0  0.1372794E-03  0.1102393E+04  0.7818609E-02  0.9202862E-01
       -2   -1    0    0    0  501  0.00000000000E+00  0.00000000000E+00  0.24986804471E+03  0.24986804472E+03  0.25500000920E-02 0.  1.
        2   -1    0    0  501    0  0.00000000000E+00  0.00000000000E+00 -0.12159126885E+04  0.12159126885E+04  0.25500000920E-02 0. -1.
    10030    2    1    2    0    0  0.00000000000E+00  0.00000000000E+00 -0.96604464384E+03  0.14657807333E+04  0.11023932620E+04 0.  0.
        4    1    3    3  502    0 -0.55409221844E+02 -0.26018848177E+02  0.24533248144E+03  0.25285727531E+03  0.12699999809E+01 0.  1.
       -4    1    3    3    0  502  0.55409221844E+02  0.26018848177E+02 -0.12113771253E+04  0.12129234580E+04  0.12699999809E+01 0. -1.
</event>
<event>
 5   0  0.1429680E-03  0.1104121E+04  0.7818609E-02  0.9201185E-01
        2   -1    0    0  501    0  0.00000000000E+00  0.00000000000E+00  0.12941355563E+04  0.12941355563E+04  0.25500000920E-02 0.  1.
       -2   -1    0    0    0  501  0.00000000000E+00  0.00000000000E+00 -0.23550139758E+03  0.23550139759E+03  0.25500000920E-02 0. -1.
    10030    2    1    2    0    0  0.00000000000E+00  0.00000000000E+00  0.10586341587E+04  0.15296369539E+04  0.11041208850E+04 0.  0.
        3    1    3    3  502    0  0.41991190960E+03 -0.65206496158E+02  0.41092104540E+02  0.42692677384E+03  0.10100000352E+00 0. -1.
       -3    1    3    3    0  502 -0.41991190960E+03  0.65206496158E+02  0.10175420542E+04  0.11027101800E+04  0.10100000352E+00 0.  1.
</event>
<event>
 5   0  0.1396936E-03  0.1100257E+04  0.7818609E-02  0.9204942E-01
        2   -1    0    0  501    0  0.00000000000E+00  0.00000000000E+00  0.10438742841E+04  0.10438742841E+04  0.25500000920E-02 0.  1.
       -2   -1    0    0    0  501  0.00000000000E+00  0.00000000000E+00 -0.28992103257E+03  0.28992103259E+03  0.25500000920E-02 0. -1.
    10030    2    1    2    0    0  0.00000000000E+00  0.00000000000E+00  0.75395325148E+03  0.13337953166E+04  0.11002565343E+04 0.  0.
        2    1    3    3  502    0 -0.39298301333E+03 -0.34544487663E+03  0.58296534339E+03  0.78333671123E+03  0.25500000920E-02 0.  1.
       -2    1    3    3    0  502  0.39298301333E+03  0.34544487663E+03  0.17098790809E+03  0.55045860541E+03  0.25500000920E-02 0. -1.
</event>
<event>
 5   0  0.1396936E-03  0.1099560E+04  0.7818609E-02  0.9205620E-01
       -2   -1    0    0    0  501  0.00000000000E+00  0.00000000000E+00  0.42489849678E+03  0.42489849679E+03  0.25500000920E-02 0.  1.
        2   -1    0    0  501    0  0.00000000000E+00  0.00000000000E+00 -0.71136593205E+03  0.71136593206E+03  0.25500000920E-02 0. -1.
    10030    2    1    2    0    0  0.00000000000E+00  0.00000000000E+00 -0.28646743527E+03  0.11362644288E+04  0.10995604853E+04 0.  0.
        2    1    3    3  502    0  0.30410999852E+03  0.37418112842E+03  0.12971162268E+03  0.49931904944E+03  0.25500000920E-02 0.  1.
       -2    1    3    3    0  502 -0.30410999852E+03 -0.37418112842E+03 -0.41617905795E+03  0.63694537941E+03  0.25500000920E-02 0. -1.
</event>
<event>
 5   0  0.1372794E-03  0.1087596E+04  0.7818609E-02  0.9217367E-01
       -2   -1    0    0    0  501  0.00000000000E+00  0.00000000000E+00  0.30117359122E+03  0.30117359123E+03  0.25500000920E-02 0.  1.
        2   -1    0    0  501    0  0.00000000000E+00  0.00000000000E+00 -0.98187907891E+03  0.98187907891E+03  0.25500000920E-02 0. -1.
    10030    2    1    2    0    0  0.00000000000E+00  0.00000000000E+00 -0.68070548769E+03  0.12830526701E+04  0.10875956019E+04 0.  0.
        4    1    3    3  502    0 -0.35661433089E+03 -0.16709797218E+03  0.10203076038E+03  0.40682600982E+03  0.12699999809E+01 0.  1.
       -4    1    3    3    0  502  0.35661433089E+03  0.16709797218E+03 -0.78273624807E+03  0.87622666031E+03  0.12699999809E+01 0. -1.
</event>
<event>
 5   0  0.1402775E-03  0.1099919E+04  0.7818609E-02  0.9205271E-01
       -2   -1    0    0    0  501  0.00000000000E+00  0.00000000000E+00  0.80613798686E+03  0.80613798686E+03  0.25500000920E-02 0. -1.
        2   -1    0    0  501    0  0.00000000000E+00  0.00000000000E+00 -0.37519050936E+03  0.37519050937E+03  0.25500000920E-02 0.  1.
    10030    2    1    2    0    0  0.00000000000E+00  0.00000000000E+00  0.43094747749E+03  0.11813284962E+04  0.10999187641E+04 0.  0.
        5    1    3    3  502    0 -0.73267062706E+02 -0.35888493771E+03  0.65603798523E+03  0.75138165340E+03  0.46999998093E+01 0. -1.
       -5    1    3    3    0  502  0.73267062706E+02  0.35888493771E+03 -0.22509050774E+03  0.42994684284E+03  0.46999998093E+01 0.  1.
</event>
<event>
 5   0  0.1402775E-03  0.1098191E+04  0.7818609E-02  0.9206957E-01
        2   -1    0    0  501    0  0.00000000000E+00  0.00000000000E+00  0.11050909287E+04  0.11050909287E+04  0.25500000920E-02 0. -1.
       -2   -1    0    0    0  501  0.00000000000E+00  0.00000000000E+00 -0.27283335913E+03  0.27283335914E+03  0.25500000920E-02 0.  1.
    10030    2    1    2    0    0  0.00000000000E+00  0.00000000000E+00  0.83225756954E+03  0.13779242878E+04  0.10981906396E+04 0.  0.
        5    1    3    3  502    0  0.27927063955E+03 -0.49406229344E+02  0.10060491413E+04  0.10452703144E+04  0.46999998093E+01 0. -1.
       -5    1    3    3    0  502 -0.27927063955E+03  0.49406229344E+02 -0.17379157172E+03  0.33265397338E+03  0.46999998093E+01 0.  1.
</event>
<event>
 5   0  0.1429680E-03  0.1088383E+04  0.7818609E-02  0.9216589E-01
       -2   -1    0    0    0  501  0.00000000000E+00  0.00000000000E+00  0.15361421662E+03  0.15361421664E+03  0.25500000920E-02 0. -1.
        2   -1    0    0  501    0  0.00000000000E+00  0.00000000000E+00 -0.19278464096E+04  0.19278464096E+04  0.25500000920E-02 0.  1.
    10030    2    1    2    0    0  0.00000000000E+00  0.00000000000E+00 -0.17742321930E+04  0.20814606262E+04  0.10883834177E+04 0.  0.
        3    1    3    3  502    0 -0.17286596051E+03  0.39244978652E+03 -0.24639350339E+03  0.49457986611E+03  0.10100000352E+00 0. -1.
       -3    1    3    3    0  502  0.17286596051E+03 -0.39244978652E+03 -0.15278386896E+04  0.15868807601E+04  0.10100000352E+00 0.  1.
</event>
<event>
 5   0  0.8009636E-04  0.1087222E+04  0.7818609E-02  0.9217736E-01
       -1   -1    0    0    0  501  0.00000000000E+00  0.00000000000E+00  0.36886912075E+03  0.36886912079E+03  0.50400001928E-02 0.  1.
        1   -1    0    0  501    0  0.00000000000E+00  0.00000000000E+00 -0.80113246333E+03  0.80113246335E+03  0.50400001928E-02 0. -1.
    10030    2    1    2    0    0  0.00000000000E+00  0.00000000000E+00 -0.43226334258E+03  0.11700015841E+04  0.10872221988E+04 0.  0.
        1    1    3    3  502    0  0.10492045394E+03 -0.97477502892E+02  0.34820301618E+03  0.37650432365E+03  0.50400001928E-02 0.  1.
       -1    1    3    3    0  502 -0.10492045394E+03  0.97477502892E+02 -0.78046635876E+03  0.79349726049E+03  0.50400001928E-02 0. -1.
</event>
<event>
 5   0  0.8009636E-04  0.1100736E+04  0.7818609E-02  0.9204475E-01
        1   -1    0    0  501    0  0.00000000000E+00  0.00000000000E+00  0.13762606758E+04  0.13762606758E+04  0.50400001928E-02 0.  1.
       -1   -1    0    0    0  501  0.00000000000E+00  0.00000000000E+00 -0.22009261743E+03  0.22009261749E+03  0.50400001928E-02 0. -1.
    10030    2    1    2    0    0  0.00000000000E+00  0.00000000000E+00  0.11561680583E+04  0.15963532933E+04  0.11007357802E+04 0.  0.
        1    1    3    3  502    0  0.14085058993E+03  0.32159622682E+03  0.11927647882E+04  0.12433627234E+04  0.50400001928E-02 0.  1.
       -1    1    3    3    0  502 -0.14085058993E+03 -0.32159622682E+03 -0.36596729870E+02  0.35299056992E+03  0.50400001928E-02 0. -1.
</event>
<event>
 5   0  0.1396936E-03  0.1096991E+04  0.7818609E-02  0.9208130E-01
        2   -1    0    0  501    0  0.00000000000E+00  0.00000000000E+00  0.91656492866E+03  0.91656492867E+03  0.25500000920E-02 0. -1.
       -2   -1    0    0    0  501  0.00000000000E+00  0.00000000000E+00 -0.32823344411E+03  0.32823344412E+03  0.25500000920E-02 0.  1.
    10030    2    1    2    0    0  0.00000000000E+00  0.00000000000E+00  0.58833148456E+03  0.12447983728E+04  0.10969909084E+04 0.  0.
        2    1    3    3  502    0 -0.24840735586E+03  0.17786199874E+03 -0.22274014508E+03  0.37809294794E+03  0.25500000920E-02 0.  1.
       -2    1    3    3    0  502  0.24840735586E+03 -0.17786199874E+03  0.81107162964E+03  0.86670542485E+03  0.25500000920E-02 0. -1.
</event>
<event>
 5   0  0.1372794E-03  0.1097686E+04  0.7818609E-02  0.9207450E-01
        2   -1    0    0  501    0  0.00000000000E+00  0.00000000000E+00  0.75801118270E+03  0.75801118270E+03  0.25500000920E-02 0. -1.
       -2   -1    0    0    0  501  0.00000000000E+00  0.00000000000E+00 -0.39739350710E+03  0.39739350711E+03  0.25500000920E-02 0.  1.
    10030    2    1    2    0    0  0.00000000000E+00  0.00000000000E+00  0.36061767560E+03  0.11554046898E+04  0.10976861524E+04 0.  0.
        4    1    3    3  502    0  0.55833468726E+02  0.50110329211E+03  0.40851585945E+03  0.64892889126E+03  0.12699999809E+01 0. -1.
       -4    1    3    3    0  502 -0.55833468726E+02 -0.50110329211E+03 -0.47898183853E+02  0.50647579854E+03  0.12699999809E+01 0.  1.
</event>
<event>
 5   0  0.8305271E-04  0.1099034E+04  0.7818609E-02  0.9206134E-01
       -1   -1    0    0    0  501  0.00000000000E+00  0.00000000000E+00  0.16040825520E+04  0.16040825520E+04  0.50400001928E-02 0.  1.
        1   -1    0    0  501    0  0.00000000000E+00  0.00000000000E+00 -0.18825025030E+03  0.18825025037E+03  0.50400001928E-02 0. -1.
    10030    2    1    2    0    0  0.00000000000E+00  0.00000000000E+00  0.14158323017E+04  0.17923328024E+04  0.10990340158E+04 0.  0.
        5    1    3    3  502    0  0.46583982526E+03  0.19816497893E+03  0.10564352575E+04  0.11714749869E+04  0.46999998093E+01 0.  1.
       -5    1    3    3    0  502 -0.46583982526E+03 -0.19816497893E+03  0.35939704425E+03  0.62085781551E+03  0.46999998093E+01 0. -1.
</event>
<event>
 5   0  0.5409500E-04  0.1133208E+04  0.7818609E-02  0.9173416E-01
        3   -1    0    0  501    0  0.00000000000E+00  0.00000000000E+00  0.33720281169E+03  0.33720282681E+03  0.10100000352E+00 0.  1.
       -3   -1    0    0    0  501  0.00000000000E+00  0.00000000000E+00 -0.95206809464E+03  0.95206810000E+03  0.10100000352E+00 0. -1.
    10030    2    1    2    0    0  0.00000000000E+00  0.00000000000E+00 -0.61486528296E+03  0.12892709268E+04  0.11332079273E+04 0.  0.
        1    1    3    3  502    0  0.10499681440E+03 -0.28343950730E+03  0.23781533605E+03  0.38460163730E+03  0.50400001928E-02 0.  1.
       -1    1    3    3    0  502 -0.10499681440E+03  0.28343950730E+03 -0.85268061901E+03  0.90466928951E+03  0.50400001928E-02 0. -1.
</event>
<event>
 5   0  0.1425432E-03  0.1101126E+04  0.7818609E-02  0.9204096E-01
       -2   -1    0    0    0  501  0.00000000000E+00  0.00000000000E+00  0.36852840528E+03  0.36852840529E+03  0.25500000920E-02 0.  1.
        2   -1    0    0  501    0  0.00000000000E+00  0.00000000000E+00 -0.82251291608E+03  0.82251291608E+03  0.25500000920E-02 0. -1.
    10030    2    1    2    0    0  0.00000000000E+00  0.00000000000E+00 -0.45398451079E+03  0.11910413214E+04  0.11011255574E+04 0.  0.
        1    1    3    3  502    0 -0.27538117296E+03 -0.41542249309E+03 -0.47999097477E+03  0.69195518213E+03  0.50400001928E-02 0. -1.
       -1    1    3    3    0  502  0.27538117296E+03  0.41542249309E+03  0.26006463983E+02  0.49908613924E+03  0.50400001928E-02 0.  1.
</event>
<event>
 5   0  0.8305271E-04  0.1103760E+04  0.7818609E-02  0.9201535E-01
        1   -1    0    0  501    0  0.00000000000E+00  0.00000000000E+00  0.20376224673E+04  0.20376224673E+04  0.50400001928E-02 0.  1.
       -1   -1    0    0    0  501  0.00000000000E+00  0.00000000000E+00 -0.14947388097E+03  0.14947388105E+03  0.50400001928E-02 0. -1.
    10030    2    1    2    0    0  0.00000000000E+00  0.00000000000E+00  0.18881485864E+04  0.21870963484E+04  0.11037596446E+04 0.  0.
        5    1    3    3  502    0 -0.15844716902E+03 -0.50002197400E+03  0.60419258665E+03  0.80012389767E+03  0.46999998093E+01 0.  1.
       -5    1    3    3    0  502  0.15844716902E+03  0.50002197400E+03  0.12839559997E+04  0.13869724507E+04  0.46999998093E+01 0. -1.
</event>
<event>
 5   0  0.7946038E-04  0.1101724E+04  0.7818609E-02  0.9203513E-01
       -1   -1    0    0    0  501  0.00000000000E+00  0.00000000000E+00  0.47330231433E+03  0.47330231435E+03  0.50400001928E-02 0.  1.
        1   -1    0    0  501    0  0.00000000000E+00  0.00000000000E+00 -0.64113095190E+03  0.64113095192E+03  0.50400001928E-02 0. -1.
    10030    2    1    2    0    0  0.00000000000E+00  0.00000000000E+00 -0.16782863757E+03  0.11144332663E+04  0.11017236738E+04 0.  0.
        4    1    3    3  502    0 -0.44491589301E+03  0.32444099677E+03 -0.99422134089E+02  0.55955204037E+03  0.12699999809E+01 0. -1.
       -4    1    3    3    0  502  0.44491589301E+03 -0.32444099677E+03 -0.68406503483E+02  0.55488122590E+03  0.12699999809E+01 0.  1.
</event>
<event>
 5   0  0.8009636E-04  0.1091756E+04  0.7818609E-02  0.9213265E-01
        1   -1    0    0  501    0  0.00000000000E+00  0.00000000000E+00  0.93828349155E+03  0.93828349156E+03  0.50400001928E-02 0. -1.
       -1   -1    0    0    0  501  0.00000000000E+00  0.00000000000E+00 -0.31758279817E+03  0.31758279821E+03  0.50400001928E-02 0.  1.
    10030    2    1    2    0    0  0.00000000000E+00  0.00000000000E+00  0.62070069338E+03  0.12558662898E+04  0.10917558276E+04 0.  0.
        1    1    3    3  502    0 -0.48392512551E+03 -0.22532940895E+03  0.17906370509E+03  0.56304589524E+03  0.50400001928E-02 0. -1.
       -1    1    3    3    0  502  0.48392512551E+03  0.22532940895E+03  0.44163698829E+03  0.69282039454E+03  0.50400001928E-02 0.  1.
</event>
<event>
 5   0  0.8009636E-04  0.1122407E+04  0.7818609E-02  0.9183624E-01
       -1   -1    0    0    0  501  0.00000000000E+00  0.00000000000E+00  0.15473047955E+03  0.15473047963E+03  0.50400001928E-02 0.  1.
        1   -1    0    0  501    0  0.00000000000E+00  0.00000000000E+00 -0.20354708768E+04  0.20354708768E+04  0.50400001928E-02 0. -1.
    10030    2    1    2    0    0  0.00000000000E+00  0.00000000000E+00 -0.18807403973E+04  0.21902013564E+04  0.11224070295E+04 0.  0.
        1    1    3    3  502    0 -0.12441075447E+03  0.39126827872E+03 -0.16869483116E+04  0.17361922440E+04  0.50400001928E-02 0. -1.
       -1    1    3    3    0  502  0.12441075447E+03 -0.39126827872E+03 -0.19379208560E+03  0.45400911249E+03  0.50400001928E-02 0.  1.
</event>
<event>
 5   0  0.8009636E-04  0.1101070E+04  0.7818609E-02  0.9204150E-01
        1   -1    0    0  501    0  0.00000000000E+00  0.00000000000E+00  0.29000766971E+03  0.29000766975E+03  0.50400001928E-02 0.  1.
       -1   -1    0    0    0  501  0.00000000000E+00  0.00000000000E+00 -0.10451061060E+04  0.10451061060E+04  0.50400001928E-02 0. -1.
    10030    2    1    2    0    0  0.00000000000E+00  0.00000000000E+00 -0.75509843629E+03  0.13351137758E+04  0.11010700004E+04 0.  0.
        1    1    3    3  502    0 -0.23692728485E+03  0.29436091149E+03  0.10793833816E+03  0.39298036769E+03  0.50400001928E-02 0.  1.
       -1    1    3    3    0  502  0.23692728485E+03 -0.29436091149E+03 -0.86303677446E+03  0.94213340807E+03  0.50400001928E-02 0. -1.
</event>
<event>
 5   0  0.5409500E-04  0.1098247E+04  0.7818609E-02  0.9206902E-01
       -4   -1    0    0    0  501  0.00000000000E+00  0.00000000000E+00  0.18685349472E+03  0.18685781062E+03  0.12699999809E+01 0. -1.
        4   -1    0    0  501    0  0.00000000000E+00  0.00000000000E+00 -0.16137355980E+04  0.16137360978E+04  0.12699999809E+01 0.  1.
    10030    2    1    2    0    0  0.00000000000E+00  0.00000000000E+00 -0.14268821033E+04  0.18005939084E+04  0.10982467328E+04 0.  0.
        5    1    3    3  502    0  0.43380631010E+03 -0.39249713682E+02 -0.16527842467E+03  0.46590503578E+03  0.46999998093E+01 0. -1.
       -5    1    3    3    0  502 -0.43380631010E+03  0.39249713682E+02 -0.12616036786E+04  0.13346888726E+04  0.46999998093E+01 0.  1.
</event>
<event>
 5   0  0.8305271E-04  0.1098338E+04  0.7818609E-02  0.9206813E-01
       -1   -1    0    0    0  501  0.00000000000E+00  0.00000000000E+00  0.26012807837E+03  0.26012807842E+03  0.50400001928E-02 0. -1.
        1   -1    0    0  501    0  0.00000000000E+00  0.00000000000E+00 -0.11593781457E+04  0.11593781458E+04  0.50400001928E-02 0.  1.
    10030    2    1    2    0    0  0.00000000000E+00  0.00000000000E+00 -0.89925006737E+03  0.14195062242E+04  0.10983383981E+04 0.  0.
        5    1    3    3  502    0  0.52423623533E+02  0.34660004787E+03 -0.99594245334E+03  0.10558424550E+04  0.46999998093E+01 0.  1.
       -5    1    3    3    0  502 -0.52423623533E+02 -0.34660004787E+03  0.96692385969E+02  0.36366376915E+03  0.46999998093E+01 0. -1.
</event>
<event>
 5   0  0.1429680E-03  0.1120996E+04  0.7818609E-02  0.9184966E-01
        2   -1    0    0  501    0  0.00000000000E+00  0.00000000000E+00  0.14690390827E+04  0.14690390827E+04  0.25500000920E-02 0.  1.
       -2   -1    0    0    0  501  0.00000000000E+00  0.00000000000E+00 -0.21385265524E+03  0.21385265525E+03  0.25500000920E-02 0. -1.
    10030    2    1    2    0    0  0.00000000000E+00  0.00000000000E+00  0.12551864275E+04  0.16828917380E+04  0.11209958225E+04 0.  0.
        3    1    3    3  502    0  0.37268565319E+03 -0.41069618661E+03  0.50570577378E+03  0.75053600422E+03  0.10100000352E+00 0. -1.
       -3    1    3    3    0  502 -0.37268565319E+03  0.41069618661E+03  0.74948065369E+03  0.93235573374E+03  0.10100000352E+00 0.  1.
</event>
<event>
 5   0  0.8150924E-04  0.1101849E+04  0.7818609E-02  0.9203392E-01
        1   -1    0    0  501    0  0.00000000000E+00  0.00000000000E+00  0.11375847249E+04  0.11375847249E+04  0.50400001928E-02 0.  1.
       -1   -1    0    0    0  501  0.00000000000E+00  0.00000000000E+00 -0.26680891981E+03  0.26680891986E+03  0.50400001928E-02 0. -1.
    10030    2    1    2    0    0  0.00000000000E+00  0.00000000000E+00  0.87077580509E+03  0.14043936448E+04  0.11018489038E+04 0.  0.
        3    1    3    3  502    0 -0.51889972587E+02 -0.18772450721E+03  0.10922411066E+04  0.11094700109E+04  0.10100000352E+00 0.  1.
       -3    1    3    3    0  502  0.51889972587E+02  0.18772450721E+03 -0.22146530151E+03  0.29492363391E+03  0.10100000352E+00 0. -1.
</event>
<event>
 5   0  0.8341767E-04  0.1101647E+04  0.7818609E-02  0.9203589E-01
       -1   -1    0    0    0  501  0.00000000000E+00  0.00000000000E+00  0.26223320824E+03  0.26223320829E+03  0.50400001928E-02 0.  1.
        1   -1    0    0  501    0  0.00000000000E+00  0.00000000000E+00 -0.11570093482E+04  0.11570093482E+04  0.50400001928E-02 0. -1.
    10030    2    1    2    0    0  0.00000000000E+00  0.00000000000E+00 -0.89477613996E+03  0.14192425565E+04  0.11016465375E+04 0.  0.
        2    1    3    3  502    0  0.43821550532E+03 -0.26851974351E+03 -0.70268645844E+03  0.87057678618E+03  0.25500000920E-02 0. -1.
       -2    1    3    3    0  502 -0.43821550532E+03  0.26851974351E+03 -0.19208968152E+03  0.54866577032E+03  0.25500000920E-02 0.  1.
</event>
<event>
 5   0  0.1402775E-03  0.1027344E+04  0.7818609E-02  0.9279052E-01
       -2   -1    0    0    0  501  0.00000000000E+00  0.00000000000E+00  0.27002140985E+03  0.27002140986E+03  0.25500000920E-02 0.  1.
        2   -1    0    0  501    0  0.00000000000E+00  0.00000000000E+00 -0.97717818502E+03  0.97717818503E+03  0.25500000920E-02 0. -1.
    10030    2    1    2    0    0  0.00000000000E+00  0.00000000000E+00 -0.70715677518E+03  0.12471995949E+04  0.10273442095E+04 0.  0.
        5    1    3    3  502    0  0.29615956819E+03  0.35064195736E+03 -0.63352843728E+03  0.78233026461E+03  0.46999998093E+01 0. -1.
       -5    1    3    3    0  502 -0.29615956819E+03 -0.35064195736E+03 -0.73628337897E+02  0.46486933027E+03  0.46999998093E+01 0.  1.
</event>
<event>
 5   0  0.1429680E-03  0.1100413E+04  0.7818609E-02  0.9204789E-01
       -2   -1    0    0    0  501  0.00000000000E+00  0.00000000000E+00  0.21734773408E+03  0.21734773410E+03  0.25500000920E-02 0. -1.
        2   -1    0    0  501    0  0.00000000000E+00  0.00000000000E+00 -0.13928248215E+04  0.13928248215E+04  0.25500000920E-02 0.  1.
    10030    2    1    2    0    0  0.00000000000E+00  0.00000000000E+00 -0.11754770874E+04  0.16101725556E+04  0.11004132296E+04 0.  0.
        3    1    3    3  502    0  0.36100217992E+03 -0.26791361260E+03 -0.10519052077E+04  0.11439426795E+04  0.10100000352E+00 0.  1.
       -3    1    3    3    0  502 -0.36100217992E+03  0.26791361260E+03 -0.12357187969E+03  0.46622987610E+03  0.10100000352E+00 0. -1.
</event>
<event>
 5   0  0.8009636E-04  0.1094196E+04  0.7818609E-02  0.9210868E-01
        1   -1    0    0  501    0  0.00000000000E+00  0.00000000000E+00  0.83018712794E+03  0.83018712795E+03  0.50400001928E-02 0.  1.
       -1   -1    0    0    0  501  0.00000000000E+00  0.00000000000E+00 -0.36054042987E+03  0.36054042990E+03  0.50400001928E-02 0. -1.
    10030    2    1    2    0    0  0.00000000000E+00  0.00000000000E+00  0.46964669807E+03  0.11907275579E+04  0.10941956388E+04 0.  0.
        1    1    3    3  502    0 -0.30720572598E+03  0.17840443761E+03 -0.21795084679E+03  0.41678060544E+03  0.50400001928E-02 0. -1.
       -1    1    3    3    0  502  0.30720572598E+03 -0.17840443761E+03  0.68759754486E+03  0.77394695241E+03  0.50400001928E-02 0.  1.
</event>
<event>
 5   0  0.1372794E-03  0.1052844E+04  0.7818609E-02  0.9252413E-01
        2   -1    0    0  501    0  0.00000000000E+00  0.00000000000E+00  0.95875522514E+03  0.95875522514E+03  0.25500000920E-02 0.  1.
       -2   -1    0    0    0  501  0.00000000000E+00  0.00000000000E+00 -0.28904152612E+03  0.28904152613E+03  0.25500000920E-02 0. -1.
    10030    2    1    2    0    0  0.00000000000E+00  0.00000000000E+00  0.66971369902E+03  0.12477967513E+04  0.10528439076E+04 0.  0.
        4    1    3    3  502    0  0.38034100295E+03  0.29884662250E+03  0.58104641937E+03  0.75603249710E+03  0.12699999809E+01 0.  1.
       -4    1    3    3    0  502 -0.38034100295E+03 -0.29884662250E+03  0.88667279644E+02  0.49176425417E+03  0.12699999809E+01 0. -1.
</event>
<event>
 5   0  0.1425432E-03  0.1099737E+04  0.7818609E-02  0.9205448E-01
        2   -1    0    0  501    0  0.00000000000E+00  0.00000000000E+00  0.37949035087E+03  0.37949035087E+03  0.25500000920E-02 0. -1.
       -2   -1    0    0    0  501  0.00000000000E+00  0.00000000000E+00 -0.79674072901E+03  0.79674072901E+03  0.25500000920E-02 0.  1.
    10030    2    1    2    0    0  0.00000000000E+00  0.00000000000E+00 -0.41725037814E+03  0.11762310799E+04  0.10997370937E+04 0.  0.
        1    1    3    3  502    0  0.34668723701E+03  0.12502617108E+03  0.22784281300E+03  0.43328504615E+03  0.50400001928E-02 0. -1.
       -1    1    3    3    0  502 -0.34668723701E+03 -0.12502617108E+03 -0.64509319114E+03  0.74294603373E+03  0.50400001928E-02 0.  1.
</event>
<event>
 5   0  0.1429680E-03  0.1091051E+04  0.7818609E-02  0.9213959E-01
        2   -1    0    0  501    0  0.00000000000E+00  0.00000000000E+00  0.10942259353E+04  0.10942259353E+04  0.25500000920E-02 0.  1.
       -2   -1    0    0    0  501  0.00000000000E+00  0.00000000000E+00 -0.27197111605E+03  0.27197111607E+03  0.25500000920E-02 0. -1.
    10030    2    1    2    0    0  0.00000000000E+00  0.00000000000E+00  0.82225481928E+03  0.13661970514E+04  0.10910505925E+04 0.  0.
        3    1    3    3  502    0 -0.40453631502E+03  0.25212566190E+03  0.74332443255E+03  0.88303352246E+03  0.10100000352E+00 0.  1.
       -3    1    3    3    0  502  0.40453631502E+03 -0.25212566190E+03  0.78930386736E+02  0.48316352895E+03  0.10100000352E+00 0. -1.
</event>
<event>
 5   0  0.8305271E-04  0.1100480E+04  0.7818609E-02  0.9204725E-01
        1   -1    0    0  501    0  0.00000000000E+00  0.00000000000E+00  0.14019641783E+04  0.14019641783E+04  0.50400001928E-02 0. -1.
       -1   -1    0    0    0  501  0.00000000000E+00  0.00000000000E+00 -0.21595691088E+03  0.21595691094E+03  0.50400001928E-02 0.  1.
    10030    2    1    2    0    0  0.00000000000E+00  0.00000000000E+00  0.11860072674E+04  0.16179210893E+04  0.11004796285E+04 0.  0.
        5    1    3    3  502    0  0.27621747919E+02 -0.38468115829E+03  0.16058422356E+02  0.38603434747E+03  0.46999998093E+01 0.  1.
       -5    1    3    3    0  502 -0.27621747919E+02  0.38468115829E+03  0.11699488451E+04  0.12318867418E+04  0.46999998093E+01 0. -1.
</event>
<event>
 5   0  0.8341767E-04  0.1099974E+04  0.7818609E-02  0.9205217E-01
       -1   -1    0    0    0  501  0.00000000000E+00  0.00000000000E+00  0.78626512546E+03  0.78626512547E+03  0.50400001928E-02 0.  1.
        1   -1    0    0  501    0  0.00000000000E+00  0.00000000000E+00 -0.38471240410E+03  0.38471240414E+03  0.50400001928E-02 0. -1.
    10030    2    1    2    0    0  0.00000000000E+00  0.00000000000E+00  0.40155272135E+03  0.11709775296E+04  0.10999744483E+04 0.  0.
        2    1    3    3  502    0 -0.21509390758E+03  0.48180448962E+03  0.36598745666E+03  0.64214311001E+03  0.25500000920E-02 0.  1.
       -2    1    3    3    0  502  0.21509390758E+03 -0.48180448962E+03  0.35565264691E+02  0.52883441960E+03  0.25500000920E-02 0. -1.
</event>
<event>
 5   0  0.8009636E-04  0.1104205E+04  0.7818609E-02  0.9201103E-01
        1   -1    0    0  501    0  0.00000000000E+00  0.00000000000E+00  0.54311581480E+03  0.54311581483E+03  0.50400001928E-02 0.  1.
       -1   -1    0    0    0  501  0.00000000000E+00  0.00000000000E+00 -0.56123781127E+03  0.56123781129E+03  0.50400001928E-02 0. -1.
    10030    2    1    2    0    0  0.00000000000E+00  0.00000000000E+00 -0.18121996461E+02  0.11043536261E+04  0.11042049288E+04 0.  0.
        1    1    3    3  502    0  0.29432024176E+03 -0.16888998791E+03 -0.44462957522E+03  0.55932431728E+03  0.50400001928E-02 0. -1.
       -1    1    3    3    0  502 -0.29432024176E+03  0.16888998791E+03  0.42650757876E+03  0.54502930883E+03  0.50400001928E-02 0.  1.
</event>
<event>
 5   0  0.1396936E-03  0.1100995E+04  0.7818609E-02  0.9204222E-01
       -2   -1    0    0    0  501  0.00000000000E+00  0.00000000000E+00  0.45018279086E+03  0.45018279087E+03  0.25500000920E-02 0. -1.
        2   -1    0    0  501    0  0.00000000000E+00  0.00000000000E+00 -0.67316592797E+03  0.67316592797E+03  0.25500000920E-02 0.  1.
    10030    2    1    2    0    0  0.00000000000E+00  0.00000000000E+00 -0.22298313711E+03  0.11233487188E+04  0.11009953972E+04 0.  0.
        2    1    3    3  502    0 -0.31266582690E+03  0.11788772715E+03  0.33487229765E+03  0.47307176122E+03  0.25500000920E-02 0. -1.
       -2    1    3    3    0  502  0.31266582690E+03 -0.11788772715E+03 -0.55785543476E+03  0.65027695762E+03  0.25500000920E-02 0.  1.
</event>
<event>
 5   0  0.1372794E-03  0.1096521E+04  0.7818609E-02  0.9208589E-01
       -2   -1    0    0    0  501  0.00000000000E+00  0.00000000000E+00  0.26408507370E+03  0.26408507371E+03  0.25500000920E-02 0.  1.
        2   -1    0    0  501    0  0.00000000000E+00  0.00000000000E+00 -0.11382308690E+04  0.11382308690E+04  0.25500000920E-02 0. -1.
    10030    2    1    2    0    0  0.00000000000E+00  0.00000000000E+00 -0.87414579525E+03  0.14023159427E+04  0.10965213777E+04 0.  0.
        4    1    3    3  502    0 -0.50906272913E+03  0.17179360431E+03 -0.29738659564E+03  0.61408330448E+03  0.12699999809E+01 0.  1.
       -4    1    3    3    0  502  0.50906272913E+03 -0.17179360431E+03 -0.57675919962E+03  0.78823263819E+03  0.12699999809E+01 0. -1.
</event>
<event>
 5   0  0.8341767E-04  0.1098763E+04  0.7818609E-02  0.9206399E-01
       -1   -1    0    0    0  501  0.00000000000E+00  0.00000000000E+00  0.10118251932E+04  0.10118251932E+04  0.50400001928E-02 0. -1.
        1   -1    0    0  501    0  0.00000000000E+00  0.00000000000E+00 -0.29829249533E+03  0.29829249538E+03  0.50400001928E-02 0.  1.
    10030    2    1    2    0    0  0.00000000000E+00  0.00000000000E+00  0.71353269788E+03  0.13101176886E+04  0.10987626891E+04 0.  0.
        2    1    3    3  502    0 -0.15588849145E+03 -0.10640368682E+03 -0.25842171390E+03  0.32000741953E+03  0.25500000920E-02 0.  1.
       -2    1    3    3    0  502  0.15588849145E+03  0.10640368682E+03  0.97195441178E+03  0.99011026907E+03  0.25500000920E-02 0. -1.
</event>
<event>
 5   0  0.8305271E-04  0.1100604E+04  0.7818609E-02  0.9204604E-01
        1   -1    0    0  501    0  0.00000000000E+00  0.00000000000E+00  0.48936108799E+03  0.48936108801E+03  0.50400001928E-02 0. -1.
       -1   -1    0    0    0  501  0.00000000000E+00  0.00000000000E+00 -0.61883151362E+03  0.61883151364E+03  0.50400001928E-02 0.  1.
    10030    2    1    2    0    0  0.00000000000E+00  0.00000000000E+00 -0.12947042563E+03  0.11081926017E+04  0.11006035850E+04 0.  0.
        5    1    3    3  502    0  0.26210366109E+02 -0.45042087921E+03  0.25246721271E+03  0.51703746017E+03  0.46999998093E+01 0. -1.
       -5    1    3    3    0  502 -0.26210366109E+02  0.45042087921E+03 -0.38193763834E+03  0.59115514149E+03  0.46999998093E+01 0.  1.
</event>
<event>
 5   0  0.8341767E-04  0.1096240E+04  0.7818609E-02  0.9208864E-01
       -1   -1    0    0    0  501  0.00000000000E+00  0.00000000000E+00  0.25881872990E+03  0.25881872995E+03  0.50400001928E-02 0. -1.
        1   -1    0    0  501    0  0.00000000000E+00  0.00000000000E+00 -0.11607952956E+04  0.11607952956E+04  0.50400001928E-02 0.  1.
    10030    2    1    2    0    0  0.00000000000E+00  0.00000000000E+00 -0.90197656570E+03  0.14196140256E+04  0.10962400542E+04 0.  0.
        2    1    3    3  502    0 -0.13547317805E+03 -0.46412669170E+03 -0.11661884629E+03  0.49735955126E+03  0.25500000920E-02 0. -1.
       -2    1    3    3    0  502  0.13547317805E+03  0.46412669170E+03 -0.78535771941E+03  0.92225447430E+03  0.25500000920E-02 0.  1.
</event>
<event>
 5   0  0.5409500E-04  0.1098371E+04  0.7818609E-02  0.9206781E-01
        3   -1    0    0  501    0  0.00000000000E+00  0.00000000000E+00  0.37000637943E+03  0.37000639322E+03  0.10100000352E+00 0.  1.
       -3   -1    0    0    0  501  0.00000000000E+00  0.00000000000E+00 -0.81513407913E+03  0.81513408539E+03  0.10100000352E+00 0. -1.
    10030    2    1    2    0    0  0.00000000000E+00  0.00000000000E+00 -0.44512769970E+03  0.11851404786E+04  0.10983711964E+04 0.  0.
        1    1    3    3  502    0  0.14285022701E+03 -0.26525498988E+03  0.27288129530E+03  0.40648566809E+03  0.50400001928E-02 0.  1.
       -1    1    3    3    0  502 -0.14285022701E+03  0.26525498988E+03 -0.71800899500E+03  0.77865481052E+03  0.50400001928E-02 0. -1.
</event>
<event>
 5   0  0.1396936E-03  0.1097121E+04  0.7818609E-02  0.9208003E-01
        2   -1    0    0  501    0  0.00000000000E+00  0.00000000000E+00  0.44755094759E+03  0.44755094759E+03  0.25500000920E-02 0. -1.
       -2   -1    0    0    0  501  0.00000000000E+00  0.00000000000E+00 -0.67236694806E+03  0.67236694807E+03  0.25500000920E-02 0.  1.
    10030    2    1    2    0    0  0.00000000000E+00  0.00000000000E+00 -0.22481600048E+03  0.11199178957E+04  0.10971207130E+04 0.  0.
        2    1    3    3  502    0 -0.26362216390E+03  0.32543619204E+03 -0.47404787129E+03  0.63255572456E+03  0.25500000920E-02 0.  1.
       -2    1    3    3    0  502  0.26362216390E+03 -0.32543619204E+03  0.24923187081E+03  0.48736217110E+03  0.25500000920E-02 0. -1.
</event>
<event>
 5   0  0.1429680E-03  0.1101742E+04  0.7818609E-02  0.9203495E-01
        2   -1    0    0  501    0  0.00000000000E+00  0.00000000000E+00  0.31841124621E+03  0.31841124622E+03  0.25500000920E-02 0. -1.
       -2   -1    0    0    0  501  0.00000000000E+00  0.00000000000E+00 -0.95304127944E+03  0.95304127944E+03  0.25500000920E-02 0.  1.
    10030    2    1    2    0    0  0.00000000000E+00  0.00000000000E+00 -0.63463003323E+03  0.12714525257E+04  0.11017423682E+04 0.  0.
        3    1    3    3  502    0 -0.43163448693E+03  0.27278677623E+03 -0.55589152678E+03  0.75480882039E+03  0.10100000352E+00 0.  1.
       -3    1    3    3    0  502  0.43163448693E+03 -0.27278677623E+03 -0.78738506448E+02  0.51664370526E+03  0.10100000352E+00 0. -1.
</event>
<event>
 5   0  0.1396936E-03  0.1100436E+04  0.7818609E-02  0.9204767E-01
       -2   -1    0    0    0  501  0.00000000000E+00  0.00000000000E+00  0.49830267002E+03  0.49830267003E+03  0.25500000920E-02 0.  1.
        2   -1    0    0  501    0  0.00000000000E+00  0.00000000000E+00 -0.60754206668E+03  0.60754206669E+03  0.25500000920E-02 0. -1.
    10030    2    1    2    0    0  0.00000000000E+00  0.00000000000E+00 -0.10923939666E+03  0.11058447367E+04  0.11004359754E+04 0.  0.
        2    1    3    3  502    0  0.59303002229E+02  0.31926716358E+03 -0.50097790649E+03  0.59701526832E+03  0.25500000920E-02 0. -1.
       -2    1    3    3    0  502 -0.59303002229E+02 -0.31926716358E+03  0.39173850983E+03  0.50882946839E+03  0.25500000920E-02 0.  1.
</event>
<event>
 5   0  0.8150924E-04  0.1100402E+04  0.7818609E-02  0.9204800E-01
       -1   -1    0    0    0  501  0.00000000000E+00  0.00000000000E+00  0.16864943270E+03  0.16864943277E+03  0.50400001928E-02 0. -1.
        1   -1    0    0  501    0  0.00000000000E+00  0.00000000000E+00 -0.17949733919E+04  0.17949733919E+04  0.50400001928E-02 0.  1.
    10030    2    1    2    0    0  0.00000000000E+00  0.00000000000E+00 -0.16263239592E+04  0.19636228246E+04  0.11004021889E+04 0.  0.
        3    1    3    3  502    0  0.11261029287E+03  0.51694338849E+03 -0.10826666585E+04  0.12050222606E+04  0.10100000352E+00 0.  1.
       -3    1    3    3    0  502 -0.11261029287E+03 -0.51694338849E+03 -0.54365730064E+03  0.75860056400E+03  0.10100000352E+00 0. -1.
</event>
<event>
 5   0  0.8305271E-04  0.1101088E+04  0.7818609E-02  0.9204132E-01
       -1   -1    0    0    0  501  0.00000000000E+00  0.00000000000E+00  0.64569323227E+03  0.64569323229E+03  0.50400001928E-02 0. -1.
        1   -1    0    0  501    0  0.00000000000E+00  0.00000000000E+00 -0.46941580304E+03  0.46941580307E+03  0.50400001928E-02 0.  1.
    10030    2    1    2    0    0  0.00000000000E+00  0.00000000000E+00  0.17627742923E+03  0.11151090354E+04  0.11010878388E+04 0.  0.
        5    1    3    3  502    0 -0.52395232398E+03 -0.10937403589E+03  0.21857239818E+03  0.57817359052E+03  0.46999998093E+01 0.  1.
       -5    1    3    3    0  502  0.52395232398E+03  0.10937403589E+03 -0.42294968943E+02  0.53693544484E+03  0.46999998093E+01 0. -1.
</event>
<event>
 5   0  0.1402775E-03  0.1100436E+04  0.7818609E-02  0.9204767E-01
        2   -1    0    0  501    0  0.00000000000E+00  0.00000000000E+00  0.87056736756E+03  0.87056736756E+03  0.25500000920E-02 0. -1.
       -2   -1    0    0    0  501  0.00000000000E+00  0.00000000000E+00 -0.34775013198E+03  0.34775013199E+03  0.25500000920E-02 0.  1.
    10030    2    1    2    0    0  0.00000000000E+00  0.00000000000E+00  0.52281723558E+03  0.12183174996E+04  0.11004361262E+04 0.  0.
        5    1    3    3  502    0 -0.44104336796E+03 -0.30193496037E+03  0.11691385494E+03  0.54715163547E+03  0.46999998093E+01 0.  1.
       -5    1    3    3    0  502  0.44104336796E+03  0.30193496037E+03  0.40590338063E+03  0.67116586409E+03  0.46999998093E+01 0. -1.
</event>
<event>
 5   0  0.8305271E-04  0.1104686E+04  0.7818609E-02  0.9200636E-01
        1   -1    0    0  501    0  0.00000000000E+00  0.00000000000E+00  0.67558997029E+03  0.67558997031E+03  0.50400001928E-02 0. -1.
       -1   -1    0    0    0  501  0.00000000000E+00  0.00000000000E+00 -0.45158014177E+03  0.45158014180E+03  0.50400001928E-02 0.  1.
    10030    2    1    2    0    0  0.00000000000E+00  0.00000000000E+00  0.22400982852E+03  0.11271701121E+04  0.11046864072E+04 0.  0.
        5    1    3    3  502    0 -0.49323404183E+03 -0.22080753257E+03  0.22845548546E+03  0.58672803350E+03  0.46999998093E+01 0. -1.
       -5    1    3    3    0  502  0.49323404183E+03  0.22080753257E+03 -0.44456569427E+01  0.54044207860E+03  0.46999998093E+01 0.  1.
</event>
<event>
 5   0  0.8341767E-04  0.1101839E+04  0.7818609E-02  0.9203402E-01
       -1   -1    0    0    0  501  0.00000000000E+00  0.00000000000E+00  0.18361143944E+03  0.18361143951E+03  0.50400001928E-02 0. -1.
        1   -1    0    0  501    0  0.00000000000E+00  0.00000000000E+00 -0.16530126704E+04  0.16530126704E+04  0.50400001928E-02 0.  1.
    10030    2    1    2    0    0  0.00000000000E+00  0.00000000000E+00 -0.14694012310E+04  0.18366241099E+04  0.11018385288E+04 0.  0.
        2    1    3    3  502    0 -0.29876720385E+03  0.98645643864E+02 -0.14885236462E+04  0.15214123210E+04  0.25500000920E-02 0.  1.
       -2    1    3    3    0  502  0.29876720385E+03 -0.98645643864E+02  0.19122415185E+02  0.31521178899E+03  0.25500000920E-02 0. -1.
</event>
<event>
 5   0  0.1402775E-03  0.1099625E+04  0.7818609E-02  0.9205557E-01
        2   -1    0    0  501    0  0.00000000000E+00  0.00000000000E+00  0.87238166815E+03  0.87238166816E+03  0.25500000920E-02 0. -1.
       -2   -1    0    0    0  501  0.00000000000E+00  0.00000000000E+00 -0.34651582425E+03  0.34651582426E+03  0.25500000920E-02 0.  1.
    10030    2    1    2    0    0  0.00000000000E+00  0.00000000000E+00  0.52586584390E+03  0.12188974924E+04  0.10996254868E+04 0.  0.
        5    1    3    3  502    0 -0.58707596121E+02 -0.27634507525E+03  0.78574686609E+03  0.83500503593E+03  0.46999998093E+01 0. -1.
       -5    1    3    3    0  502  0.58707596121E+02  0.27634507525E+03 -0.25988102219E+03  0.38389245649E+03  0.46999998093E+01 0.  1.
</event>
<event>
 5   0  0.8009636E-04  0.1104079E+04  0.7818609E-02  0.9201225E-01
        1   -1    0    0  501    0  0.00000000000E+00  0.00000000000E+00  0.73639286495E+03  0.73639286497E+03  0.50400001928E-02 0. -1.
       -1   -1    0    0    0  501  0.00000000000E+00  0.00000000000E+00 -0.41383871686E+03  0.41383871689E+03  0.50400001928E-02 0.  1.
    10030    2    1    2    0    0  0.00000000000E+00  0.00000000000E+00  0.32255414809E+03  0.11502315819E+04  0.11040794869E+04 0.  0.
        1    1    3    3  502    0  0.41522343701E+03  0.10909688066E+03 -0.20026741779E+03  0.47372953324E+03  0.50400001928E-02 0.  1.
       -1    1    3    3    0  502 -0.41522343701E+03 -0.10909688066E+03  0.52282156588E+03  0.67650204862E+03  0.50400001928E-02 0. -1.
</event>
<event>
 5   0  0.1429680E-03  0.1099622E+04  0.7818609E-02  0.9205560E-01
       -2   -1    0    0    0  501  0.00000000000E+00  0.00000000000E+00  0.11342871693E+04  0.11342871693E+04  0.25500000920E-02 0. -1.
        2   -1    0    0  501    0  0.00000000000E+00  0.00000000000E+00 -0.26650407088E+03  0.26650407089E+03  0.25500000920E-02 0.  1.
    10030    2    1    2    0    0  0.00000000000E+00  0.00000000000E+00  0.86778309838E+03  0.14007912401E+04  0.10996220226E+04 0.  0.
        3    1    3    3  502    0 -0.45016382250E+03  0.26240956362E+03  0.65740612904E+03  0.83886177340E+03  0.10100000352E+00 0. -1.
       -3    1    3    3    0  502  0.45016382250E+03 -0.26240956362E+03  0.21037696934E+03  0.56192946675E+03  0.10100000352E+00 0.  1.
</event>
<event>
 5   0  0.1425432E-03  0.1098611E+04  0.7818609E-02  0.9206546E-01
        2   -1    0    0  501    0  0.00000000000E+00  0.00000000000E+00  0.62094508091E+03  0.62094508091E+03  0.25500000920E-02 0.  1.
       -2   -1    0    0    0  501  0.00000000000E+00  0.00000000000E+00 -0.48593151702E+03  0.48593151703E+03  0.25500000920E-02 0. -1.
    10030    2    1    2    0    0  0.00000000000E+00  0.00000000000E+00  0.13501356389E+03  0.11068765979E+04  0.10986114603E+04 0.  0.
        1    1    3    3  502    0 -0.40147747079E+03 -0.32716587506E+03  0.25195541559E+03  0.57593680280E+03  0.50400001928E-02 0.  1.
       -1    1    3    3    0  502  0.40147747079E+03  0.32716587506E+03 -0.11694185170E+03  0.53093979514E+03  0.50400001928E-02 0. -1.
</event>
<event>
 5   0  0.1429680E-03  0.1099020E+04  0.7818609E-02  0.9206148E-01
        2   -1    0    0  501    0  0.00000000000E+00  0.00000000000E+00  0.15198059980E+04  0.15198059980E+04  0.25500000920E-02 0. -1.
       -2   -1    0    0    0  501  0.00000000000E+00  0.00000000000E+00 -0.19868400362E+03  0.19868400364E+03  0.25500000920E-02 0.  1.
    10030    2    1    2    0    0  0.00000000000E+00  0.00000000000E+00  0.13211219943E+04  0.17184900016E+04  0.10990198186E+04 0.  0.
        3    1    3    3  502    0 -0.25063579171E+03 -0.48181031081E+03  0.52972060878E+03  0.75865895451E+03  0.10100000352E+00 0.  1.
       -3    1    3    3    0  502  0.25063579171E+03  0.48181031081E+03  0.79140138556E+03  0.95983104709E+03  0.10100000352E+00 0. -1.
</event>
<event>
 5   0  0.5409500E-04  0.1102027E+04  0.7818609E-02  0.9203219E-01
       -4   -1    0    0    0  501  0.00000000000E+00  0.00000000000E+00  0.13623951020E+04  0.13623956939E+04  0.12699999809E+01 0.  1.
        4   -1    0    0  501    0  0.00000000000E+00  0.00000000000E+00 -0.22285197285E+03  0.22285559159E+03  0.12699999809E+01 0. -1.
    10030    2    1    2    0    0  0.00000000000E+00  0.00000000000E+00  0.11395431291E+04  0.15852512855E+04  0.11020268123E+04 0.  0.
        5    1    3    3  502    0  0.42108134934E+03 -0.34997242401E+03  0.65848649513E+03  0.85639754472E+03  0.46999998093E+01 0. -1.
       -5    1    3    3    0  502 -0.42108134934E+03  0.34997242401E+03  0.48105663399E+03  0.72885374077E+03  0.46999998093E+01 0.  1.
</event>
<event>
 5   0  0.1372794E-03  0.1133557E+04  0.7818609E-02  0.9173088E-01
        2   -1    0    0  501    0  0.00000000000E+00  0.00000000000E+00  0.99328850428E+03  0.99328850428E+03  0.25500000920E-02 0. -1.
       -2   -1    0    0    0  501  0.00000000000E+00  0.00000000000E+00 -0.32340841094E+03  0.32340841095E+03  0.25500000920E-02 0.  1.
    10030    2    1    2    0    0  0.00000000000E+00  0.00000000000E+00  0.66988009334E+03  0.13166969152E+04  0.11335569801E+04 0.  0.
        4    1    3    3  502    0  0.11234722932E+03 -0.32968747617E+03  0.85430320629E+03  0.92257862161E+03  0.12699999809E+01 0. -1.
       -4    1    3    3    0  502 -0.11234722932E+03  0.32968747617E+03 -0.18442311295E+03  0.39411829362E+03  0.12699999809E+01 0.  1.
</event>
<event>
 5   0  0.8305271E-04  0.1091113E+04  0.7818609E-02  0.9213897E-01
        1   -1    0    0  501    0  0.00000000000E+00  0.00000000000E+00  0.51135727382E+03  0.51135727385E+03  0.50400001928E-02 0.  1.
       -1   -1    0    0    0  501  0.00000000000E+00  0.00000000000E+00 -0.58204295409E+03  0.58204295411E+03  0.50400001928E-02 0. -1.
    10030    2    1    2    0    0  0.00000000000E+00  0.00000000000E+00 -0.70685680266E+02  0.10934002280E+04  0.10911130066E+04 0.  0.
        5    1    3    3  502    0  0.77103241601E+02  0.37314343214E+02 -0.57524169031E+03  0.58160326886E+03  0.46999998093E+01 0. -1.
       -5    1    3    3    0  502 -0.77103241601E+02 -0.37314343214E+02  0.50455601005E+03  0.51179695910E+03  0.46999998093E+01 0.  1.
</event>
<event>
 5   0  0.5409500E-04  0.1118600E+04  0.7818609E-02  0.9187250E-01
       -4   -1    0    0    0  501  0.00000000000E+00  0.00000000000E+00  0.40463021066E+03  0.40463220371E+03  0.12699999809E+01 0.  1.
        4   -1    0    0  501    0  0.00000000000E+00  0.00000000000E+00 -0.77308839969E+03  0.77308944285E+03  0.12699999809E+01 0. -1.
    10030    2    1    2    0    0  0.00000000000E+00  0.00000000000E+00 -0.36845818904E+03  0.11777216466E+04  0.11186003932E+04 0.  0.
        1    1    3    3  502    0  0.46211503239E+03  0.23627176460E+03  0.35214493338E+02  0.52020641142E+03  0.50400001928E-02 0.  1.
       -1    1    3    3    0  502 -0.46211503239E+03 -0.23627176460E+03 -0.40367268238E+03  0.65751523514E+03  0.50400001928E-02 0. -1.
</event>
<event>
 5   0  0.5409500E-04  0.1095835E+04  0.7818609E-02  0.9209261E-01
        3   -1    0    0  501    0  0.00000000000E+00  0.00000000000E+00  0.33948463225E+03  0.33948464727E+03  0.10100000352E+00 0.  1.
       -3   -1    0    0    0  501  0.00000000000E+00  0.00000000000E+00 -0.88432152085E+03  0.88432152662E+03  0.10100000352E+00 0. -1.
    10030    2    1    2    0    0  0.00000000000E+00  0.00000000000E+00 -0.54483688861E+03  0.12238061739E+04  0.10958349858E+04 0.  0.
        5    1    3    3  502    0  0.35718486313E+03 -0.16865336441E+03 -0.69645145117E+03  0.80068202029E+03  0.46999998093E+01 0. -1.
       -5    1    3    3    0  502 -0.35718486313E+03  0.16865336441E+03  0.15161456257E+03  0.42312415360E+03  0.46999998093E+01 0.  1.
</event>
<event>
 5   0  0.5409500E-04  0.1114621E+04  0.7818609E-02  0.9191057E-01
        3   -1    0    0  501    0  0.00000000000E+00  0.00000000000E+00  0.31411073469E+03  0.31411075092E+03  0.10100000352E+00 0.  1.
       -3   -1    0    0    0  501  0.00000000000E+00  0.00000000000E+00 -0.98880794131E+03  0.98880794647E+03  0.10100000352E+00 0. -1.
    10030    2    1    2    0    0  0.00000000000E+00  0.00000000000E+00 -0.67469720662E+03  0.13029186974E+04  0.11146213758E+04 0.  0.
        4    1    3    3  502    0 -0.27159355355E+03  0.19942192711E+03  0.18155986730E+03  0.38275026016E+03  0.12699999809E+01 0.  1.
       -4    1    3    3    0  502  0.27159355355E+03 -0.19942192711E+03 -0.85625707392E+03  0.92016843723E+03  0.12699999809E+01 0. -1.
</event>
<event>
 5   0  0.8341767E-04  0.1106895E+04  0.7818609E-02  0.9198498E-01
        1   -1    0    0  501    0  0.00000000000E+00  0.00000000000E+00  0.10263274453E+04  0.10263274453E+04  0.50400001928E-02 0.  1.
       -1   -1    0    0    0  501  0.00000000000E+00  0.00000000000E+00 -0.29844654179E+03  0.29844654183E+03  0.50400001928E-02 0. -1.
    10030    2    1    2    0    0  0.00000000000E+00  0.00000000000E+00  0.72788090354E+03  0.13247739872E+04  0.11068945331E+04 0.  0.
        2    1    3    3  502    0  0.59608890730E+02 -0.29012087920E+02 -0.29367732924E+03  0.30106692747E+03  0.25500000920E-02 0. -1.
       -2    1    3    3    0  502 -0.59608890730E+02  0.29012087920E+02  0.10215582328E+04  0.10237070597E+04  0.25500000920E-02 0.  1.
</event>
<event>
 5   0  0.8150924E-04  0.1093499E+04  0.7818609E-02  0.9211552E-01
        1   -1    0    0  501    0  0.00000000000E+00  0.00000000000E+00  0.41289997292E+03  0.41289997295E+03  0.50400001928E-02 0. -1.
       -1   -1    0    0    0  501  0.00000000000E+00  0.00000000000E+00 -0.72398880119E+03  0.72398880121E+03  0.50400001928E-02 0.  1.
    10030    2    1    2    0    0  0.00000000000E+00  0.00000000000E+00 -0.31108882827E+03  0.11368887742E+04  0.10934988915E+04 0.  0.
        3    1    3    3  502    0 -0.13983760107E+03 -0.66202846393E+02 -0.70075472801E+03  0.71763122185E+03  0.10100000352E+00 0.  1.
       -3    1    3    3    0  502  0.13983760107E+03  0.66202846393E+02  0.38966589974E+03  0.41925755231E+03  0.10100000352E+00 0. -1.
</event>
<event>
 5   0  0.8305271E-04  0.1104657E+04  0.7818609E-02  0.9200664E-01
        1   -1    0    0  501    0  0.00000000000E+00  0.00000000000E+00  0.70940171962E+03  0.70940171963E+03  0.50400001928E-02 0.  1.
       -1   -1    0    0    0  501  0.00000000000E+00  0.00000000000E+00 -0.43003416880E+03  0.43003416883E+03  0.50400001928E-02 0. -1.
    10030    2    1    2    0    0  0.00000000000E+00  0.00000000000E+00  0.27936755081E+03  0.11394358885E+04  0.11046573747E+04 0.  0.
        5    1    3    3  502    0 -0.95855941047E+02 -0.22485480648E+03  0.65055127869E+03  0.69497273446E+03  0.46999998093E+01 0.  1.
       -5    1    3    3    0  502  0.95855941047E+02  0.22485480648E+03 -0.37118372788E+03  0.44446315401E+03  0.46999998093E+01 0. -1.
</event>
<event>
 5   0  0.1402775E-03  0.1097685E+04  0.7818609E-02  0.9207451E-01
        2   -1    0    0  501    0  0.00000000000E+00  0.00000000000E+00  0.92647386072E+03  0.92647386073E+03  0.25500000920E-02 0.  1.
       -2   -1    0    0    0  501  0.00000000000E+00  0.00000000000E+00 -0.32513422214E+03  0.32513422215E+03  0.25500000920E-02 0. -1.
    10030    2    1    2    0    0  0.00000000000E+00  0.00000000000E+00  0.60133963858E+03  0.12516080829E+04  0.10976854887E+04 0.  0.
        5    1    3    3  502    0  0.26615484608E+03  0.21380472737E+03  0.79064202836E+03  0.86121296468E+03  0.46999998093E+01 0.  1.
       -5    1    3    3    0  502 -0.26615484608E+03 -0.21380472737E+03 -0.18930238977E+03  0.39039511819E+03  0.46999998093E+01 0. -1.
</event>
<event>
 5   0  0.8009636E-04  0.1094331E+04  0.7818609E-02  0.9210735E-01
       -1   -1    0    0    0  501  0.00000000000E+00  0.00000000000E+00  0.37025108927E+03  0.37025108930E+03  0.50400001928E-02 0.  1.
        1   -1    0    0  501    0  0.00000000000E+00  0.00000000000E+00 -0.80861329775E+03  0.80861329777E+03  0.50400001928E-02 0. -1.
    10030    2    1    2    0    0  0.00000000000E+00  0.00000000000E+00 -0.43836220848E+03  0.11788643871E+04  0.10943307623E+04 0.  0.
        1    1    3    3  502    0  0.43826182799E+03  0.17917405292E+03 -0.51461629501E+03  0.69929014167E+03  0.50400001928E-02 0. -1.
       -1    1    3    3    0  502 -0.43826182799E+03 -0.17917405292E+03  0.76254086525E+02  0.47957424540E+03  0.50400001928E-02 0.  1.
</event>
<event>
 5   0  0.8305271E-04  0.1089510E+04  0.7818609E-02  0.9215477E-01
        1   -1    0    0  501    0  0.00000000000E+00  0.00000000000E+00  0.10533011700E+04  0.10533011700E+04  0.50400001928E-02 0. -1.
       -1   -1    0    0    0  501  0.00000000000E+00  0.00000000000E+00 -0.28174084753E+03  0.28174084758E+03  0.50400001928E-02 0.  1.
    10030    2    1    2    0    0  0.00000000000E+00  0.00000000000E+00  0.77156032244E+03  0.13350420176E+04  0.10895099162E+04 0.  0.
        5    1    3    3  502    0 -0.37258274249E+02 -0.54260025561E+03  0.42320198538E+03  0.68914818930E+03  0.46999998093E+01 0. -1.
       -5    1    3    3    0  502  0.37258274249E+02  0.54260025561E+03  0.34835833706E+03  0.64589382826E+03  0.46999998093E+01 0.  1.
</event>
<event>
 5   0  0.7946038E-04  0.1139722E+04  0.7818609E-02  0.9167318E-01
       -1   -1    0    0    0  501  0.00000000000E+00  0.00000000000E+00  0.15716857150E+03  0.15716857158E+03  0.50400001928E-02 0. -1.
        1   -1    0    0  501    0  0.00000000000E+00  0.00000000000E+00 -0.20661997437E+04  0.20661997437E+04  0.50400001928E-02 0.  1.
    10030    2    1    2    0    0  0.00000000000E+00  0.00000000000E+00 -0.19090311722E+04  0.22233683153E+04  0.11397221806E+04 0.  0.
        4    1    3    3  502    0 -0.24476650906E+03  0.43427246699E+03 -0.14931509039E+04  0.15741678609E+04  0.12699999809E+01 0.  1.
       -4    1    3    3    0  502  0.24476650906E+03 -0.43427246699E+03 -0.41588026832E+03  0.64920045442E+03  0.12699999809E+01 0. -1.
</event>
<event>
 5   0  0.8341767E-04  0.1100427E+04  0.7818609E-02  0.9204776E-01
       -1   -1    0    0    0  501  0.00000000000E+00  0.00000000000E+00  0.79168952941E+03  0.79168952943E+03  0.50400001928E-02 0.  1.
        1   -1    0    0  501    0  0.00000000000E+00  0.00000000000E+00 -0.38239089570E+03  0.38239089573E+03  0.50400001928E-02 0. -1.
    10030    2    1    2    0    0  0.00000000000E+00  0.00000000000E+00  0.40929863371E+03  0.11740804252E+04  0.11004269504E+04 0.  0.
        2    1    3    3  502    0  0.53014479569E+03 -0.12986722185E+03  0.13060803261E+03  0.56122852555E+03  0.25500000920E-02 0. -1.
       -2    1    3    3    0  502 -0.53014479569E+03  0.12986722185E+03  0.27869060110E+03  0.61285189961E+03  0.25500000920E-02 0.  1.
</event>
<event>
 5   0  0.1396936E-03  0.1098858E+04  0.7818609E-02  0.9206306E-01
       -2   -1    0    0    0  501  0.00000000000E+00  0.00000000000E+00  0.28253048583E+03  0.28253048584E+03  0.25500000920E-02 0.  1.
        2   -1    0    0  501    0  0.00000000000E+00  0.00000000000E+00 -0.10684588759E+04  0.10684588759E+04  0.25500000920E-02 0. -1.
    10030    2    1    2    0    0  0.00000000000E+00  0.00000000000E+00 -0.78592839004E+03  0.13509893617E+04  0.10988579622E+04 0.  0.
        2    1    3    3  502    0 -0.44389061662E+03  0.28536974038E+03 -0.58102336437E+03  0.78489675639E+03  0.25500000920E-02 0. -1.
       -2    1    3    3    0  502  0.44389061662E+03 -0.28536974038E+03 -0.20490502567E+03  0.56609260532E+03  0.25500000920E-02 0.  1.
</event>
<event>
 5   0  0.1429680E-03  0.1096833E+04  0.7818609E-02  0.9208284E-01
       -2   -1    0    0    0  501  0.00000000000E+00  0.00000000000E+00  0.25069831531E+03  0.25069831532E+03  0.25500000920E-02 0.  1.
        2   -1    0    0  501    0  0.00000000000E+00  0.00000000000E+00 -0.11996914063E+04  0.11996914063E+04  0.25500000920E-02 0. -1.
    10030    2    1    2    0    0  0.00000000000E+00  0.00000000000E+00 -0.94899309095E+03  0.14503897216E+04  0.10968329216E+04 0.  0.
        3    1    3    3  502    0  0.25641903172E+03 -0.50616412537E+02  0.16304283364E+03  0.30805148409E+03  0.10100000352E+00 0.  1.
       -3    1    3    3    0  502 -0.25641903172E+03  0.50616412537E+02 -0.11120359246E+04  0.11423382375E+04  0.10100000352E+00 0. -1.
</event>
<event>
 5   0  0.1372794E-03  0.1100776E+04  0.7818609E-02  0.9204436E-01
        2   -1    0    0  501    0  0.00000000000E+00  0.00000000000E+00  0.70592380983E+03  0.70592380984E+03  0.25500000920E-02 0. -1.
       -2   -1    0    0    0  501  0.00000000000E+00  0.00000000000E+00 -0.42912099354E+03  0.42912099355E+03  0.25500000920E-02 0.  1.
    10030    2    1    2    0    0  0.00000000000E+00  0.00000000000E+00  0.27680281629E+03  0.11350448034E+04  0.11007755932E+04 0.  0.
        4    1    3    3  502    0 -0.48803559218E+03  0.19526505573E+03  0.30663060552E+03  0.60854837307E+03  0.12699999809E+01 0. -1.
       -4    1    3    3    0  502  0.48803559218E+03 -0.19526505573E+03 -0.29827789230E+02  0.52649643032E+03  0.12699999809E+01 0.  1.
</event>
<event>
 5   0  0.8305271E-04  0.1110134E+04  0.7818609E-02  0.9195371E-01
       -1   -1    0    0    0  501  0.00000000000E+00  0.00000000000E+00  0.10041034969E+04  0.10041034969E+04  0.50400001928E-02 0.  1.
        1   -1    0    0  501    0  0.00000000000E+00  0.00000000000E+00 -0.30684003072E+03  0.30684003076E+03  0.50400001928E-02 0. -1.
    10030    2    1    2    0    0  0.00000000000E+00  0.00000000000E+00  0.69726346620E+03  0.13109435277E+04  0.11101335917E+04 0.  0.
        5    1    3    3  502    0  0.36446945592E+03  0.11694601467E+03  0.82328808281E+03  0.90793155686E+03  0.46999998093E+01 0.  1.
       -5    1    3    3    0  502 -0.36446945592E+03 -0.11694601467E+03 -0.12602461662E+03  0.40301197083E+03  0.46999998093E+01 0. -1.
</event>
<event>
 5   0  0.1425432E-03  0.1106111E+04  0.7818609E-02  0.9199256E-01
        2   -1    0    0  501    0  0.00000000000E+00  0.00000000000E+00  0.64902111343E+03  0.64902111344E+03  0.25500000920E-02 0.  1.
       -2   -1    0    0    0  501  0.00000000000E+00  0.00000000000E+00 -0.47127941592E+03  0.47127941593E+03  0.25500000920E-02 0. -1.
    10030    2    1    2    0    0  0.00000000000E+00  0.00000000000E+00  0.17774169751E+03  0.11203005294E+04  0.11061108286E+04 0.  0.
        1    1    3    3  502    0 -0.17014484819E+03 -0.39761240433E+03  0.43800355568E+03  0.61554204426E+03  0.50400001928E-02 0.  1.
       -1    1    3    3    0  502  0.17014484819E+03  0.39761240433E+03 -0.26026185817E+03  0.50475848510E+03  0.50400001928E-02 0. -1.
</event>
<event>
 5   0  0.1402775E-03  0.1095756E+04  0.7818609E-02  0.9209339E-01
        2   -1    0    0  501    0  0.00000000000E+00  0.00000000000E+00  0.21143245064E+04  0.21143245064E+04  0.25500000920E-02 0. -1.
       -2   -1    0    0    0  501  0.00000000000E+00  0.00000000000E+00 -0.14196972575E+03  0.14196972578E+03  0.25500000920E-02 0.  1.
    10030    2    1    2    0    0  0.00000000000E+00  0.00000000000E+00  0.19723547806E+04  0.22562942321E+04  0.10957555756E+04 0.  0.
        5    1    3    3  502    0  0.27808754275E+03  0.19114862476E+03  0.18748918511E+04  0.19050228402E+04  0.46999998093E+01 0. -1.
       -5    1    3    3    0  502 -0.27808754275E+03 -0.19114862476E+03  0.97462929463E+02  0.35127139194E+03  0.46999998093E+01 0.  1.
</event>
<event>
 5   0  0.7946038E-04  0.1076223E+04  0.7818609E-02  0.9228682E-01
       -1   -1    0    0    0  501  0.00000000000E+00  0.00000000000E+00  0.47281096718E+03  0.47281096721E+03  0.50400001928E-02 0.  1.
        1   -1    0    0  501    0  0.00000000000E+00  0.00000000000E+00 -0.61243023292E+03  0.61243023294E+03  0.50400001928E-02 0. -1.
    10030    2    1    2    0    0  0.00000000000E+00  0.00000000000E+00 -0.13961926573E+03  0.10852412001E+04  0.10762225249E+04 0.  0.
        4    1    3    3  502    0  0.38943043242E+03 -0.34954766438E+02 -0.44261605554E+03  0.59058317188E+03  0.12699999809E+01 0. -1.
       -4    1    3    3    0  502 -0.38943043242E+03  0.34954766438E+02  0.30299678981E+03  0.49465802826E+03  0.12699999809E+01 0.  1.
</event>
<event>
 5   0  0.8341767E-04  0.1105598E+04  0.7818609E-02  0.9199753E-01
        1   -1    0    0  501    0  0.00000000000E+00  0.00000000000E+00  0.67918801931E+03  0.67918801933E+03  0.50400001928E-02 0.  1.
       -1   -1    0    0    0  501  0.00000000000E+00  0.00000000000E+00 -0.44992949355E+03  0.44992949358E+03  0.50400001928E-02 0. -1.
    10030    2    1    2    0    0  0.00000000000E+00  0.00000000000E+00  0.22925852576E+03  0.11291175129E+04  0.11055979768E+04 0.  0.
        2    1    3    3  502    0  0.19959129741E+03  0.58007588141E+02 -0.40850304056E+03  0.45834081254E+03  0.25500000920E-02 0. -1.
       -2    1    3    3    0  502 -0.19959129741E+03 -0.58007588141E+02  0.63776156632E+03  0.67077670037E+03  0.25500000920E-02 0.  1.
</event>
<event>
 5   0  0.8341767E-04  0.1086965E+04  0.7818609E-02  0.9217991E-01
        1   -1    0    0  501    0  0.00000000000E+00  0.00000000000E+00  0.44148993095E+03  0.44148993097E+03  0.50400001928E-02 0.  1.
       -1   -1    0    0    0  501  0.00000000000E+00  0.00000000000E+00 -0.66903698438E+03  0.66903698439E+03  0.50400001928E-02 0. -1.
    10030    2    1    2    0    0  0.00000000000E+00  0.00000000000E+00 -0.22754705343E+03  0.11105269154E+04  0.10869647502E+04 0.  0.
        2    1    3    3  502    0 -0.44754779941E+03 -0.29982763739E+03 -0.40259287703E+02  0.54020038425E+03  0.25500000920E-02 0.  1.
       -2    1    3    3    0  502  0.44754779941E+03  0.29982763739E+03 -0.18728776573E+03  0.57032653111E+03  0.25500000920E-02 0. -1.
</event>
<event>
 5   0  0.8150924E-04  0.1092634E+04  0.7818609E-02  0.9212401E-01
        1   -1    0    0  501    0  0.00000000000E+00  0.00000000000E+00  0.69596126690E+03  0.69596126692E+03  0.50400001928E-02 0.  1.
       -1   -1    0    0    0  501  0.00000000000E+00  0.00000000000E+00 -0.42884898421E+03  0.42884898423E+03  0.50400001928E-02 0. -1.
    10030    2    1    2    0    0  0.00000000000E+00  0.00000000000E+00  0.26711228269E+03  0.11248102512E+04  0.10926340328E+04 0.  0.
        3    1    3    3  502    0  0.46737936440E+03 -0.21790568101E+03 -0.52132809284E+02  0.51830897743E+03  0.10100000352E+00 0. -1.
       -3    1    3    3    0  502 -0.46737936440E+03  0.21790568101E+03  0.31924509198E+03  0.60650127373E+03  0.10100000352E+00 0.  1.
</event>
<event>
 5   0  0.8341767E-04  0.1099526E+04  0.7818609E-02  0.9205654E-01
        1   -1    0    0  501    0  0.00000000000E+00  0.00000000000E+00  0.32210653277E+03  0.32210653281E+03  0.50400001928E-02 0.  1.
       -1   -1    0    0    0  501  0.00000000000E+00  0.00000000000E+00 -0.93832165170E+03  0.93832165171E+03  0.50400001928E-02 0. -1.
    10030    2    1    2    0    0  0.00000000000E+00  0.00000000000E+00 -0.61621511893E+03  0.12604281845E+04  0.10995263233E+04 0.  0.
        2    1    3    3  502    0  0.24617951939E+02 -0.48572434387E+03 -0.14266251646E+02  0.48655699330E+03  0.25500000920E-02 0.  1.
       -2    1    3    3    0  502 -0.24617951939E+02  0.48572434387E+03 -0.60194886728E+03  0.77387119123E+03  0.25500000920E-02 0. -1.
</event>
<event>
 5   0  0.1396936E-03  0.1099969E+04  0.7818609E-02  0.9205222E-01
       -2   -1    0    0    0  501  0.00000000000E+00  0.00000000000E+00  0.28591287477E+03  0.28591287478E+03  0.25500000920E-02 0.  1.
        2   -1    0    0  501    0  0.00000000000E+00  0.00000000000E+00 -0.10579543446E+04  0.10579543446E+04  0.25500000920E-02 0. -1.
    10030    2    1    2    0    0  0.00000000000E+00  0.00000000000E+00 -0.77204146984E+03  0.13438672194E+04  0.10999686687E+04 0.  0.
        2    1    3    3  502    0 -0.40665481591E+03  0.20528523979E+03 -0.95118691844E+01  0.45563213741E+03  0.25500000920E-02 0.  1.
       -2    1    3    3    0  502  0.40665481591E+03 -0.20528523979E+03 -0.76252960066E+03  0.88823508199E+03  0.25500000920E-02 0. -1.
</event>
<event>
 5   0  0.1396936E-03  0.1112656E+04  0.7818609E-02  0.9192943E-01
        2   -1    0    0  501    0  0.00000000000E+00  0.00000000000E+00  0.43914794017E+03  0.43914794018E+03  0.25500000920E-02 0. -1.
       -2   -1    0    0    0  501  0.00000000000E+00  0.00000000000E+00 -0.70477627093E+03  0.70477627094E+03  0.25500000920E-02 0.  1.
    10030    2    1    2    0    0  0.00000000000E+00  0.00000000000E+00 -0.26562833076E+03  0.11439242111E+04  0.11126563668E+04 0.  0.
        2    1    3    3  502    0  0.26308195966E+03 -0.47957126903E+03 -0.28471548703E+02  0.54773291727E+03  0.25500000920E-02 0.  1.
       -2    1    3    3    0  502 -0.26308195966E+03  0.47957126903E+03 -0.23715678205E+03  0.59619129384E+03  0.25500000920E-02 0. -1.
</event>
<event>
 5   0  0.1429680E-03  0.1096353E+04  0.7818609E-02  0.9208754E-01
        2   -1    0    0  501    0  0.00000000000E+00  0.00000000000E+00  0.39228625102E+03  0.39228625103E+03  0.25500000920E-02 0. -1.
       -2   -1    0    0    0  501  0.00000000000E+00  0.00000000000E+00 -0.76601595915E+03  0.76601595916E+03  0.25500000920E-02 0.  1.
    10030    2    1    2    0    0  0.00000000000E+00  0.00000000000E+00 -0.37372970813E+03  0.11583022102E+04  0.10963530980E+04 0.  0.
        3    1    3    3  502    0  0.54742658012E+03 -0.23571406479E+02 -0.16963226744E+03  0.57359095895E+03  0.10100000352E+00 0.  1.
       -3    1    3    3    0  502 -0.54742658012E+03  0.23571406479E+02 -0.20409744069E+03  0.58471125124E+03  0.10100000352E+00 0. -1.
</event>
<event>
 5   0  0.8009636E-04  0.1101509E+04  0.7818609E-02  0.9203723E-01
        1   -1    0    0  501    0  0.00000000000E+00  0.00000000000E+00  0.75506220617E+03  0.75506220618E+03  0.50400001928E-02 0. -1.
       -1   -1    0    0    0  501  0.00000000000E+00  0.00000000000E+00 -0.40172904402E+03  0.40172904405E+03  0.50400001928E-02 0.  1.
    10030    2    1    2    0    0  0.00000000000E+00  0.00000000000E+00  0.35333316215E+03  0.11567912502E+04  0.11015088166E+04 0.  0.
        1    1    3    3  502    0 -0.11168864433E+02 -0.14749581864E+03  0.73381147117E+03  0.74857132946E+03  0.50400001928E-02 0. -1.
       -1    1    3    3    0  502  0.11168864433E+02  0.14749581864E+03 -0.38047830903E+03  0.40821992077E+03  0.50400001928E-02 0.  1.
</event>
<event>
 5   0  0.8341767E-04  0.1105707E+04  0.7818609E-02  0.9199648E-01
        1   -1    0    0  501    0  0.00000000000E+00  0.00000000000E+00  0.83717970739E+03  0.83717970741E+03  0.50400001928E-02 0. -1.
       -1   -1    0    0    0  501  0.00000000000E+00  0.00000000000E+00 -0.36509105915E+03  0.36509105918E+03  0.50400001928E-02 0.  1.
    10030    2    1    2    0    0  0.00000000000E+00  0.00000000000E+00  0.47208864825E+03  0.12022707666E+04  0.11057066991E+04 0.  0.
        2    1    3    3  502    0 -0.33405210320E+03 -0.37354377515E+03  0.48993369398E+03  0.70082864104E+03  0.25500000920E-02 0.  1.
       -2    1    3    3    0  502  0.33405210320E+03  0.37354377515E+03 -0.17845045736E+02  0.50144212554E+03  0.25500000920E-02 0. -1.
</event>
<event>
 5   0  0.8341767E-04  0.1096524E+04  0.7818609E-02  0.9208587E-01
       -1   -1    0    0    0  501  0.00000000000E+00  0.00000000000E+00  0.39851152704E+03  0.39851152707E+03  0.50400001928E-02 0.  1.
        1   -1    0    0  501    0  0.00000000000E+00  0.00000000000E+00 -0.75428424329E+03  0.75428424330E+03  0.50400001928E-02 0. -1.
    10030    2    1    2    0    0  0.00000000000E+00  0.00000000000E+00 -0.35577271625E+03  0.11527957704E+04  0.10965235349E+04 0.  0.
        2    1    3    3  502    0 -0.56973726997E+02  0.56839454900E+02 -0.74804070575E+03  0.75235737961E+03  0.25500000920E-02 0. -1.
       -2    1    3    3    0  502  0.56973726997E+02 -0.56839454900E+02  0.39226798950E+03  0.40043839076E+03  0.25500000920E-02 0.  1.
</event>
<event>
 5   0  0.1429680E-03  0.1098249E+04  0.7818609E-02  0.9206901E-01
        2   -1    0    0  501    0  0.00000000000E+00  0.00000000000E+00  0.44336127599E+03  0.44336127600E+03  0.25500000920E-02 0. -1.
       -2   -1    0    0    0  501  0.00000000000E+00  0.00000000000E+00 -0.68011697153E+03  0.68011697154E+03  0.25500000920E-02 0.  1.
    10030    2    1    2    0    0  0.00000000000E+00  0.00000000000E+00 -0.23675569554E+03  0.11234782475E+04  0.10982486573E+04 0.  0.
        3    1    3    3  502    0  0.92731159036E+02  0.51059616576E+02  0.43282438202E+03  0.44558176373E+03  0.10100000352E+00 0. -1.
       -3    1    3    3    0  502 -0.92731159036E+02 -0.51059616576E+02 -0.66958007755E+03  0.67789648381E+03  0.10100000352E+00 0.  1.
</event>
<event>
 5   0  0.1396936E-03  0.1098834E+04  0.7818609E-02  0.9206329E-01
       -2   -1    0    0    0  501  0.00000000000E+00  0.00000000000E+00  0.57418843620E+03  0.57418843620E+03  0.25500000920E-02 0. -1.
        2   -1    0    0  501    0  0.00000000000E+00  0.00000000000E+00 -0.52571383771E+03  0.52571383771E+03  0.25500000920E-02 0.  1.
    10030    2    1    2    0    0  0.00000000000E+00  0.00000000000E+00  0.48474598489E+02  0.10999022739E+04  0.10988335750E+04 0.  0.
        2    1    3    3  502    0 -0.15366361139E+03  0.48004923875E+03  0.24307982446E+03  0.55959590613E+03  0.25500000920E-02 0. -1.
       -2    1    3    3    0  502  0.15366361139E+03 -0.48004923875E+03 -0.19460522598E+03  0.54030636779E+03  0.25500000920E-02 0.  1.
</event>
<event>
 5   0  0.1396936E-03  0.1101609E+04  0.7818609E-02  0.9203625E-01
        2   -1    0    0  501    0  0.00000000000E+00  0.00000000000E+00  0.12082884247E+04  0.12082884247E+04  0.25500000920E-02 0. -1.
       -2   -1    0    0    0  501  0.00000000000E+00  0.00000000000E+00 -0.25108708684E+03  0.25108708686E+03  0.25500000920E-02 0.  1.
    10030    2    1    2    0    0  0.00000000000E+00  0.00000000000E+00  0.95720133782E+03  0.14593755115E+04  0.11016090425E+04 0.  0.
        2    1    3    3  502    0  0.76065281380E+01  0.52922390615E+03  0.68059972772E+03  0.86217851486E+03  0.25500000920E-02 0. -1.
       -2    1    3    3    0  502 -0.76065281380E+01 -0.52922390615E+03  0.27660161010E+03  0.59719699667E+03  0.25500000920E-02 0.  1.
</event>
<event>
 5   0  0.7946038E-04  0.1160150E+04  0.7818609E-02  0.9148470E-01
        1   -1    0    0  501    0  0.00000000000E+00  0.00000000000E+00  0.51642542404E+03  0.51642542407E+03  0.50400001928E-02 0.  1.
       -1   -1    0    0    0  501  0.00000000000E+00  0.00000000000E+00 -0.65156952561E+03  0.65156952563E+03  0.50400001928E-02 0. -1.
    10030    2    1    2    0    0  0.00000000000E+00  0.00000000000E+00 -0.13514410157E+03  0.11679949497E+04  0.11601501085E+04 0.  0.
        4    1    3    3  502    0  0.47850576734E+02  0.36884139399E+02  0.51324785927E+03  0.51679308759E+03  0.12699999809E+01 0.  1.
       -4    1    3    3    0  502 -0.47850576734E+02 -0.36884139399E+02 -0.64839196084E+03  0.65120186211E+03  0.12699999809E+01 0. -1.
</event>
<event>
 5   0  0.5409500E-04  0.1110478E+04  0.7818609E-02  0.9195039E-01
       -3   -1    0    0    0  501  0.00000000000E+00  0.00000000000E+00  0.11375427662E+04  0.11375427707E+04  0.10100000352E+00 0. -1.
        3   -1    0    0  501    0  0.00000000000E+00  0.00000000000E+00 -0.27101416375E+03  0.27101418257E+03  0.10100000352E+00 0.  1.
    10030    2    1    2    0    0  0.00000000000E+00  0.00000000000E+00  0.86652860246E+03  0.14085569533E+04  0.11104777673E+04 0.  0.
        2    1    3    3  502    0 -0.19888759517E+03 -0.27428541639E+03  0.99122891759E+03  0.10475321151E+04  0.25500000920E-02 0. -1.
       -2    1    3    3    0  502  0.19888759517E+03  0.27428541639E+03 -0.12470031512E+03  0.36102483814E+03  0.25500000920E-02 0.  1.
</event>
<event>
 5   0  0.1425432E-03  0.1098177E+04  0.7818609E-02  0.9206970E-01
        2   -1    0    0  501    0  0.00000000000E+00  0.00000000000E+00  0.86796817683E+03  0.86796817683E+03  0.25500000920E-02 0. -1.
       -2   -1    0    0    0  501  0.00000000000E+00  0.00000000000E+00 -0.34736095564E+03  0.34736095565E+03  0.25500000920E-02 0.  1.
    10030    2    1    2    0    0  0.00000000000E+00  0.00000000000E+00  0.52060722119E+03  0.12153291325E+04  0.10981771358E+04 0.  0.
        1    1    3    3  502    0  0.27418169618E+03 -0.10333751745E+02  0.78666380934E+03  0.83314004699E+03  0.50400001928E-02 0. -1.
       -1    1    3    3    0  502 -0.27418169618E+03  0.10333751745E+02 -0.26605658815E+03  0.38218908549E+03  0.50400001928E-02 0.  1.
</event>
<event>
 5   0  0.1429680E-03  0.1106238E+04  0.7818609E-02  0.9199133E-01
        2   -1    0    0  501    0  0.00000000000E+00  0.00000000000E+00  0.67342115503E+03  0.67342115503E+03  0.25500000920E-02 0.  1.
       -2   -1    0    0    0  501  0.00000000000E+00  0.00000000000E+00 -0.45430842371E+03  0.45430842372E+03  0.25500000920E-02 0. -1.
    10030    2    1    2    0    0  0.00000000000E+00  0.00000000000E+00  0.21911273132E+03  0.11277295787E+04  0.11062384977E+04 0.  0.
        3    1    3    3  502    0  0.19395799550E+03 -0.20701425147E+03  0.59361393057E+03  0.65791497406E+03  0.10100000352E+00 0.  1.
       -3    1    3    3    0  502 -0.19395799550E+03  0.20701425147E+03 -0.37450119925E+03  0.46981460468E+03  0.10100000352E+00 0. -1.
</event>
<event>
 5   0  0.5409500E-04  0.1109103E+04  0.7818609E-02  0.9196365E-01
        4   -1    0    0  501    0  0.00000000000E+00  0.00000000000E+00  0.65513939720E+03  0.65514062816E+03  0.12699999809E+01 0.  1.
       -4   -1    0    0    0  501  0.00000000000E+00  0.00000000000E+00 -0.46940500953E+03  0.46940672755E+03  0.12699999809E+01 0. -1.
    10030    2    1    2    0    0  0.00000000000E+00  0.00000000000E+00  0.18573438767E+03  0.11245473557E+04  0.11091030126E+04 0.  0.
        3    1    3    3  502    0 -0.26494931066E+03  0.93861786779E+02 -0.39182631372E+03  0.48221991100E+03  0.10100000352E+00 0. -1.
       -3    1    3    3    0  502  0.26494931066E+03 -0.93861786779E+02  0.57756070139E+03  0.64232744471E+03  0.10100000352E+00 0.  1.
</event>
<event>
 5   0  0.1429680E-03  0.1107900E+04  0.7818609E-02  0.9197526E-01
        2   -1    0    0  501    0  0.00000000000E+00  0.00000000000E+00  0.20427816448E+04  0.20427816448E+04  0.25500000920E-02 0. -1.
       -2   -1    0    0    0  501  0.00000000000E+00  0.00000000000E+00 -0.15021701114E+03  0.15021701117E+03  0.25500000920E-02 0.  1.
    10030    2    1    2    0    0  0.00000000000E+00  0.00000000000E+00  0.18925646337E+04  0.21929986560E+04  0.11078999109E+04 0.  0.
        3    1    3    3  502    0 -0.26768241288E+02  0.53443359782E+03  0.12298629734E+04  0.13412303131E+04  0.10100000352E+00 0.  1.
       -3    1    3    3    0  502  0.26768241288E+02 -0.53443359782E+03  0.66270166027E+03  0.85176834289E+03  0.10100000352E+00 0. -1.
</event>
<event>
 5   0  0.1396936E-03  0.1160008E+04  0.7818609E-02  0.9148600E-01
        2   -1    0    0  501    0  0.00000000000E+00  0.00000000000E+00  0.88360825630E+03  0.88360825631E+03  0.25500000920E-02 0. -1.
       -2   -1    0    0    0  501  0.00000000000E+00  0.00000000000E+00 -0.38071675096E+03  0.38071675097E+03  0.25500000920E-02 0.  1.
    10030    2    1    2    0    0  0.00000000000E+00  0.00000000000E+00  0.50289150534E+03  0.12643250073E+04  0.11600076973E+04 0.  0.
        2    1    3    3  502    0  0.49501168020E+03 -0.26980740220E+03  0.10291183526E+03  0.57308240565E+03  0.25500000920E-02 0. -1.
       -2    1    3    3    0  502 -0.49501168020E+03  0.26980740220E+03  0.39997967008E+03  0.69124260163E+03  0.25500000920E-02 0.  1.
</event>
<event>
 5   0  0.1402775E-03  0.1083778E+04  0.7818609E-02  0.9221149E-01
        2   -1    0    0  501    0  0.00000000000E+00  0.00000000000E+00  0.21740881119E+04  0.21740881119E+04  0.25500000920E-02 0.  1.
       -2   -1    0    0    0  501  0.00000000000E+00  0.00000000000E+00 -0.13506527422E+03  0.13506527425E+03  0.25500000920E-02 0. -1.
    10030    2    1    2    0    0  0.00000000000E+00  0.00000000000E+00  0.20390228377E+04  0.23091533862E+04  0.10837782191E+04 0.  0.
        5    1    3    3  502    0 -0.42250215977E+03  0.33279904843E+03  0.11601737046E+04  0.12787839522E+04  0.46999998093E+01 0.  1.
       -5    1    3    3    0  502  0.42250215977E+03 -0.33279904843E+03  0.87884913314E+03  0.10303694340E+04  0.46999998093E+01 0. -1.
</event>
<event>
 5   0  0.8150924E-04  0.1098477E+04  0.7818609E-02  0.9206678E-01
        1   -1    0    0  501    0  0.00000000000E+00  0.00000000000E+00  0.13345611505E+04  0.13345611506E+04  0.50400001928E-02 0.  1.
       -1   -1    0    0    0  501  0.00000000000E+00  0.00000000000E+00 -0.22603891993E+03  0.22603891998E+03  0.50400001928E-02 0. -1.
    10030    2    1    2    0    0  0.00000000000E+00  0.00000000000E+00  0.11085222306E+04  0.15606000705E+04  0.10984766927E+04 0.  0.
        3    1    3    3  502    0 -0.75843530503E+02 -0.66348946121E+02 -0.21279344850E+03  0.23544741599E+03  0.10100000352E+00 0. -1.
       -3    1    3    3    0  502  0.75843530503E+02  0.66348946121E+02  0.13213156791E+04  0.13251526546E+04  0.10100000352E+00 0.  1.
</event>
<event>
 5   0  0.8305271E-04  0.1100654E+04  0.7818609E-02  0.9204555E-01
        1   -1    0    0  501    0  0.00000000000E+00  0.00000000000E+00  0.37722179916E+03  0.37722179919E+03  0.50400001928E-02 0.  1.
       -1   -1    0    0    0  501  0.00000000000E+00  0.00000000000E+00 -0.80286911356E+03  0.80286911358E+03  0.50400001928E-02 0. -1.
    10030    2    1    2    0    0  0.00000000000E+00  0.00000000000E+00 -0.42564731440E+03  0.11800909128E+04  0.11006538630E+04 0.  0.
        5    1    3    3  502    0  0.41866697264E+03 -0.31024712467E+03 -0.23129903223E+02  0.52162476433E+03  0.46999998093E+01 0.  1.
       -5    1    3    3    0  502 -0.41866697264E+03  0.31024712467E+03 -0.40251741118E+03  0.65846614844E+03  0.46999998093E+01 0. -1.
</event>
<event>
 5   0  0.1425432E-03  0.1097529E+04  0.7818609E-02  0.9207604E-01
       -2   -1    0    0    0  501  0.00000000000E+00  0.00000000000E+00  0.53271860564E+03  0.53271860565E+03  0.25500000920E-02 0. -1.
        2   -1    0    0  501    0  0.00000000000E+00  0.00000000000E+00 -0.56529341424E+03  0.56529341425E+03  0.25500000920E-02 0.  1.
    10030    2    1    2    0    0  0.00000000000E+00  0.00000000000E+00 -0.32574808603E+02  0.10980120199E+04  0.10975287138E+04 0.  0.
        1    1    3    3  502    0 -0.12372673227E+03  0.85517392048E+01  0.51851406609E+03  0.53314001283E+03  0.50400001928E-02 0. -1.
       -1    1    3    3    0  502  0.12372673227E+03 -0.85517392048E+01 -0.55108887470E+03  0.56487200706E+03  0.50400001928E-02 0.  1.
</event>
<event>
 5   0  0.8341767E-04  0.1099930E+04  0.7818609E-02  0.9205260E-01
       -1   -1    0    0    0  501  0.00000000000E+00  0.00000000000E+00  0.31793859016E+03  0.31793859020E+03  0.50400001928E-02 0. -1.
        1   -1    0    0  501    0  0.00000000000E+00  0.00000000000E+00 -0.95131986544E+03  0.95131986545E+03  0.50400001928E-02 0.  1.
    10030    2    1    2    0    0  0.00000000000E+00  0.00000000000E+00 -0.63338127527E+03  0.12692584557E+04  0.10999296284E+04 0.  0.
        2    1    3    3  502    0 -0.34559550930E+03  0.35313507926E+03 -0.38016691748E+02  0.49556625098E+03  0.25500000920E-02 0. -1.
       -2    1    3    3    0  502  0.34559550930E+03 -0.35313507926E+03 -0.59536458353E+03  0.77369220467E+03  0.25500000920E-02 0.  1.
</event>
<event>
 5   0  0.1396936E-03  0.1101998E+04  0.7818609E-02  0.9203247E-01
        2   -1    0    0  501    0  0.00000000000E+00  0.00000000000E+00  0.94379731651E+03  0.94379731651E+03  0.25500000920E-02 0. -1.
       -2   -1    0    0    0  501  0.00000000000E+00  0.00000000000E+00 -0.32167920315E+03  0.32167920316E+03  0.25500000920E-02 0.  1.
    10030    2    1    2    0    0  0.00000000000E+00  0.00000000000E+00  0.62211811336E+03  0.12654765197E+04  0.11019981283E+04 0.  0.
        2    1    3    3  502    0  0.46439986807E+03  0.10009846013E+03  0.63159613963E+03  0.79031678635E+03  0.25500000920E-02 0. -1.
       -2    1    3    3    0  502 -0.46439986807E+03 -0.10009846013E+03 -0.94780262733E+01  0.47515973332E+03  0.25500000920E-02 0.  1.
</event>
<event>
 5   0  0.8009636E-04  0.1097556E+04  0.7818609E-02  0.9207577E-01
       -1   -1    0    0    0  501  0.00000000000E+00  0.00000000000E+00  0.30493186136E+03  0.30493186140E+03  0.50400001928E-02 0. -1.
        1   -1    0    0  501    0  0.00000000000E+00  0.00000000000E+00 -0.98762225660E+03  0.98762225661E+03  0.50400001928E-02 0.  1.
    10030    2    1    2    0    0  0.00000000000E+00  0.00000000000E+00 -0.68269039524E+03  0.12925541180E+04  0.10975563640E+04 0.  0.
        1    1    3    3  502    0  0.15087947796E+03  0.33079336056E+03 -0.82543389548E+03  0.90195896808E+03  0.50400001928E-02 0.  1.
       -1    1    3    3    0  502 -0.15087947796E+03 -0.33079336056E+03  0.14274350024E+03  0.39059514993E+03  0.50400001928E-02 0. -1.
</event>
<event>
 5   0  0.1372794E-03  0.1092895E+04  0.7818609E-02  0.9212144E-01
        2   -1    0    0  501    0  0.00000000000E+00  0.00000000000E+00  0.97803474575E+03  0.97803474575E+03  0.25500000920E-02 0. -1.
       -2   -1    0    0    0  501  0.00000000000E+00  0.00000000000E+00 -0.30531121500E+03  0.30531121501E+03  0.25500000920E-02 0.  1.
    10030    2    1    2    0    0  0.00000000000E+00  0.00000000000E+00  0.67272353075E+03  0.12833459608E+04  0.10928951945E+04 0.  0.
        4    1    3    3  502    0  0.21604542962E+03  0.47825545167E+03  0.51521803141E+03  0.73542854004E+03  0.12699999809E+01 0.  1.
       -4    1    3    3    0  502 -0.21604542962E+03 -0.47825545167E+03  0.15750549934E+03  0.54791742072E+03  0.12699999809E+01 0. -1.
</event>
<event>
 5   0  0.7946038E-04  0.1101258E+04  0.7818609E-02  0.9203966E-01
        1   -1    0    0  501    0  0.00000000000E+00  0.00000000000E+00  0.23604645230E+03  0.23604645235E+03  0.50400001928E-02 0.  1.
       -1   -1    0    0    0  501  0.00000000000E+00  0.00000000000E+00 -0.12844610061E+04  0.12844610061E+04  0.50400001928E-02 0. -1.
    10030    2    1    2    0    0  0.00000000000E+00  0.00000000000E+00 -0.10484145538E+04  0.15205074585E+04  0.11012583051E+04 0.  0.
        4    1    3    3  502    0  0.30454198912E+02 -0.10368909586E+03  0.22125822415E+03  0.24624317551E+03  0.12699999809E+01 0.  1.
       -4    1    3    3    0  502 -0.30454198912E+02  0.10368909586E+03 -0.12696727780E+04  0.12742642830E+04  0.12699999809E+01 0. -1.
</event>
<event>
 5   0  0.1402775E-03  0.1103879E+04  0.7818609E-02  0.9201420E-01
        2   -1    0    0  501    0  0.00000000000E+00  0.00000000000E+00  0.68235275647E+03  0.68235275647E+03  0.25500000920E-02 0. -1.
       -2   -1    0    0    0  501  0.00000000000E+00  0.00000000000E+00 -0.44645103234E+03  0.44645103235E+03  0.25500000920E-02 0.  1.
    10030    2    1    2    0    0  0.00000000000E+00  0.00000000000E+00  0.23590172413E+03  0.11288037888E+04  0.11038787842E+04 0.  0.
        5    1    3    3  502    0 -0.51551767077E+03 -0.16934956637E+03  0.14790593253E+02  0.54284306770E+03  0.46999998093E+01 0.  1.
       -5    1    3    3    0  502  0.51551767077E+03  0.16934956637E+03  0.22111113087E+03  0.58596072112E+03  0.46999998093E+01 0. -1.
</event>
<event>
 5   0  0.8341767E-04  0.1052609E+04  0.7818609E-02  0.9252655E-01
       -1   -1    0    0    0  501  0.00000000000E+00  0.00000000000E+00  0.32777224411E+03  0.32777224415E+03  0.50400001928E-02 0. -1.
        1   -1    0    0  501    0  0.00000000000E+00  0.00000000000E+00 -0.84508785810E+03  0.84508785811E+03  0.50400001928E-02 0.  1.
    10030    2    1    2    0    0  0.00000000000E+00  0.00000000000E+00 -0.51731561399E+03  0.11728601023E+04  0.10526088423E+04 0.  0.
        2    1    3    3  502    0 -0.14198276976E+03  0.38292418959E+03 -0.62855617362E+03  0.74958182028E+03  0.25500000920E-02 0.  1.
       -2    1    3    3    0  502  0.14198276976E+03 -0.38292418959E+03  0.11124055963E+03  0.42327828198E+03  0.25500000920E-02 0. -1.
</event>
<event>
 5   0  0.8150924E-04  0.1102647E+04  0.7818609E-02  0.9202615E-01
       -1   -1    0    0    0  501  0.00000000000E+00  0.00000000000E+00  0.45689843281E+03  0.45689843284E+03  0.50400001928E-02 0.  1.
        1   -1    0    0  501    0  0.00000000000E+00  0.00000000000E+00 -0.66526328891E+03  0.66526328893E+03  0.50400001928E-02 0. -1.
    10030    2    1    2    0    0  0.00000000000E+00  0.00000000000E+00 -0.20836485610E+03  0.11221617218E+04  0.11026472766E+04 0.  0.
        3    1    3    3  502    0  0.19689542725E+03  0.52675552349E+01  0.41986987966E+03  0.46377395621E+03  0.10100000352E+00 0.  1.
       -3    1    3    3    0  502 -0.19689542725E+03 -0.52675552349E+01 -0.62823473576E+03  0.65838776555E+03  0.10100000352E+00 0. -1.
</event>
<event>
 5   0  0.1425432E-03  0.1085313E+04  0.7818609E-02  0.9219626E-01
        2   -1    0    0  501    0  0.00000000000E+00  0.00000000000E+00  0.11458309306E+04  0.11458309306E+04  0.25500000920E-02 0.  1.
       -2   -1    0    0    0  501  0.00000000000E+00  0.00000000000E+00 -0.25699801944E+03  0.25699801946E+03  0.25500000920E-02 0. -1.
    10030    2    1    2    0    0  0.00000000000E+00  0.00000000000E+00  0.88883291116E+03  0.14028289501E+04  0.10853133737E+04 0.  0.
        1    1    3    3  502    0 -0.39082046372E+03  0.17449087348E+03  0.13220314401E+02  0.42820844986E+03  0.50400001928E-02 0. -1.
       -1    1    3    3    0  502  0.39082046372E+03 -0.17449087348E+03  0.87561259676E+03  0.97462050020E+03  0.50400001928E-02 0.  1.
</event>
<event>
 5   0  0.8150924E-04  0.1109823E+04  0.7818609E-02  0.9195670E-01
       -1   -1    0    0    0  501  0.00000000000E+00  0.00000000000E+00  0.56091825044E+03  0.56091825046E+03  0.50400001928E-02 0. -1.
        1   -1    0    0  501    0  0.00000000000E+00  0.00000000000E+00 -0.54896950084E+03  0.54896950086E+03  0.50400001928E-02 0.  1.
    10030    2    1    2    0    0  0.00000000000E+00  0.00000000000E+00  0.11948749603E+02  0.11098877513E+04  0.11098234310E+04 0.  0.
        3    1    3    3  502    0 -0.54366972704E+03  0.16665411185E+01 -0.10515115587E+03  0.55374752843E+03  0.10100000352E+00 0. -1.
       -3    1    3    3    0  502  0.54366972704E+03 -0.16665411185E+01  0.11709990548E+03  0.55614022290E+03  0.10100000352E+00 0.  1.
</event>
<event>
 5   0  0.1425432E-03  0.1106630E+04  0.7818609E-02  0.9198754E-01
       -2   -1    0    0    0  501  0.00000000000E+00  0.00000000000E+00  0.81926555640E+03  0.81926555640E+03  0.25500000920E-02 0. -1.
        2   -1    0    0  501    0  0.00000000000E+00  0.00000000000E+00 -0.37369736131E+03  0.37369736131E+03  0.25500000920E-02 0.  1.
    10030    2    1    2    0    0  0.00000000000E+00  0.00000000000E+00  0.44556819509E+03  0.11929629177E+04  0.11066297965E+04 0.  0.
        1    1    3    3  502    0 -0.33564739092E+02 -0.30143248346E+03  0.72167218650E+03  0.78281471536E+03  0.50400001928E-02 0. -1.
       -1    1    3    3    0  502  0.33564739092E+02  0.30143248346E+03 -0.27610399141E+03  0.41014820235E+03  0.50400001928E-02 0.  1.
</event>
<event>
 5   0  0.8150924E-04  0.1101510E+04  0.7818609E-02  0.9203722E-01
        1   -1    0    0  501    0  0.00000000000E+00  0.00000000000E+00  0.60184565696E+03  0.60184565698E+03  0.50400001928E-02 0. -1.
       -1   -1    0    0    0  501  0.00000000000E+00  0.00000000000E+00 -0.50400119312E+03  0.50400119315E+03  0.50400001928E-02 0.  1.
    10030    2    1    2    0    0  0.00000000000E+00  0.00000000000E+00  0.97844463840E+02  0.11058468501E+04  0.11015097443E+04 0.  0.
        3    1    3    3  502    0 -0.37340063181E+02  0.16011223575E+03 -0.47879058558E+03  0.50623180797E+03  0.10100000352E+00 0.  1.
       -3    1    3    3    0  502  0.37340063181E+02 -0.16011223575E+03  0.57663504942E+03  0.59961504216E+03  0.10100000352E+00 0. -1.
</event>
<event>
 5   0  0.8305271E-04  0.1102040E+04  0.7818609E-02  0.9203205E-01
       -1   -1    0    0    0  501  0.00000000000E+00  0.00000000000E+00  0.40368005125E+03  0.40368005128E+03  0.50400001928E-02 0.  1.
        1   -1    0    0  501    0  0.00000000000E+00  0.00000000000E+00 -0.75213846281E+03  0.75213846282E+03  0.50400001928E-02 0. -1.
    10030    2    1    2    0    0  0.00000000000E+00  0.00000000000E+00 -0.34845841156E+03  0.11558185141E+04  0.11020404589E+04 0.  0.
        5    1    3    3  502    0 -0.17625180791E+03 -0.39019342627E+03  0.18951737165E+03  0.46824623208E+03  0.46999998093E+01 0.  1.
       -5    1    3    3    0  502  0.17625180791E+03  0.39019342627E+03 -0.53797578321E+03  0.68757228203E+03  0.46999998093E+01 0. -1.
</event>
<event>
 5   0  0.1372794E-03  0.1097256E+04  0.7818609E-02  0.9207870E-01
        2   -1    0    0  501    0  0.00000000000E+00  0.00000000000E+00  0.84856956717E+03  0.84856956718E+03  0.25500000920E-02 0.  1.
       -2   -1    0    0    0  501  0.00000000000E+00  0.00000000000E+00 -0.35470618208E+03  0.35470618209E+03  0.25500000920E-02 0. -1.
    10030    2    1    2    0    0  0.00000000000E+00  0.00000000000E+00  0.49386338510E+03  0.12032757493E+04  0.10972563445E+04 0.  0.
        4    1    3    3  502    0 -0.19869721561E+03  0.46500998997E+03  0.13589684014E+02  0.50586674795E+03  0.12699999809E+01 0. -1.
       -4    1    3    3    0  502  0.19869721561E+03 -0.46500998997E+03  0.48027370108E+03  0.69740900132E+03  0.12699999809E+01 0.  1.
</event>
<event>
 5   0  0.1396936E-03  0.1054733E+04  0.7818609E-02  0.9250471E-01
        2   -1    0    0  501    0  0.00000000000E+00  0.00000000000E+00  0.69495418924E+03  0.69495418925E+03  0.25500000920E-02 0. -1.
       -2   -1    0    0    0  501  0.00000000000E+00  0.00000000000E+00 -0.40019246233E+03  0.40019246234E+03  0.25500000920E-02 0.  1.
    10030    2    1    2    0    0  0.00000000000E+00  0.00000000000E+00  0.29476172691E+03  0.10951466516E+04  0.10547330055E+04 0.  0.
        2    1    3    3  502    0  0.20860512974E+03  0.44186918404E+03 -0.58590747746E+02  0.49213550135E+03  0.25500000920E-02 0. -1.
       -2    1    3    3    0  502 -0.20860512974E+03 -0.44186918404E+03  0.35335247466E+03  0.60301115024E+03  0.25500000920E-02 0.  1.
</event>
<event>
 5   0  0.7946038E-04  0.1082032E+04  0.7818609E-02  0.9222884E-01
       -1   -1    0    0    0  501  0.00000000000E+00  0.00000000000E+00  0.87164199487E+03  0.87164199489E+03  0.50400001928E-02 0.  1.
        1   -1    0    0  501    0  0.00000000000E+00  0.00000000000E+00 -0.33580117629E+03  0.33580117633E+03  0.50400001928E-02 0. -1.
    10030    2    1    2    0    0  0.00000000000E+00  0.00000000000E+00  0.53584081858E+03  0.12074431712E+04  0.10820321755E+04 0.  0.
        4    1    3    3  502    0 -0.41544705783E+03  0.24208951248E+03  0.54464011477E+03  0.72652464337E+03  0.12699999809E+01 0.  1.
       -4    1    3    3    0  502  0.41544705783E+03 -0.24208951248E+03 -0.87992961901E+01  0.48091852784E+03  0.12699999809E+01 0. -1.
</event>
<event>
 5   0  0.5409500E-04  0.1100898E+04  0.7818609E-02  0.9204317E-01
       -3   -1    0    0    0  501  0.00000000000E+00  0.00000000000E+00  0.33969145746E+03  0.33969147247E+03  0.10100000352E+00 0. -1.
        3   -1    0    0  501    0  0.00000000000E+00  0.00000000000E+00 -0.89196889317E+03  0.89196889889E+03  0.10100000352E+00 0.  1.
    10030    2    1    2    0    0  0.00000000000E+00  0.00000000000E+00 -0.55227743572E+03  0.12316603714E+04  0.11008982262E+04 0.  0.
        3    1    3    3  502    0 -0.29004287668E+03  0.43420344654E+03 -0.47100112132E+03  0.70320663377E+03  0.10100000352E+00 0.  1.
       -3    1    3    3    0  502  0.29004287668E+03 -0.43420344654E+03 -0.81276314400E+02  0.52845373759E+03  0.10100000352E+00 0. -1.
</event>
<event>
 5   0  0.1402775E-03  0.1103065E+04  0.7818609E-02  0.9202210E-01
       -2   -1    0    0    0  501  0.00000000000E+00  0.00000000000E+00  0.30285444897E+03  0.30285444898E+03  0.25500000920E-02 0.  1.
        2   -1    0    0  501    0  0.00000000000E+00  0.00000000000E+00 -0.10044032646E+04  0.10044032646E+04  0.25500000920E-02 0. -1.
    10030    2    1    2    0    0  0.00000000000E+00  0.00000000000E+00 -0.70154881567E+03  0.13072577136E+04  0.11030648163E+04 0.  0.
        5    1    3    3  502    0  0.52919762560E+03 -0.11513421235E+03 -0.47427611563E+03  0.71990689513E+03  0.46999998093E+01 0.  1.
       -5    1    3    3    0  502 -0.52919762560E+03  0.11513421235E+03 -0.22727270004E+03  0.58735081849E+03  0.46999998093E+01 0. -1.
</event>
<event>
 5   0  0.8009636E-04  0.1099828E+04  0.7818609E-02  0.9205360E-01
       -1   -1    0    0    0  501  0.00000000000E+00  0.00000000000E+00  0.32612245150E+03  0.32612245154E+03  0.50400001928E-02 0.  1.
        1   -1    0    0  501    0  0.00000000000E+00  0.00000000000E+00 -0.92727512212E+03  0.92727512213E+03  0.50400001928E-02 0. -1.
    10030    2    1    2    0    0  0.00000000000E+00  0.00000000000E+00 -0.60115267061E+03  0.12533975737E+04  0.10998276885E+04 0.  0.
        1    1    3    3  502    0  0.20125215418E+03 -0.18571266325E+03  0.24288972814E+03  0.36604240590E+03  0.50400001928E-02 0.  1.
       -1    1    3    3    0  502 -0.20125215418E+03  0.18571266325E+03 -0.84404239876E+03  0.88735516778E+03  0.50400001928E-02 0. -1.
</event>
<event>
 5   0  0.1372794E-03  0.1096136E+04  0.7818609E-02  0.9208966E-01
       -2   -1    0    0    0  501  0.00000000000E+00  0.00000000000E+00  0.16760552712E+03  0.16760552714E+03  0.25500000920E-02 0. -1.
        2   -1    0    0  501    0  0.00000000000E+00  0.00000000000E+00 -0.17921769439E+04  0.17921769439E+04  0.25500000920E-02 0.  1.
    10030    2    1    2    0    0  0.00000000000E+00  0.00000000000E+00 -0.16245714168E+04  0.19597824710E+04  0.10961364174E+04 0.  0.
        4    1    3    3  502    0  0.77600056651E+02  0.87510837613E+02  0.14502962007E+03  0.18631993745E+03  0.12699999809E+01 0. -1.
       -4    1    3    3    0  502 -0.77600056651E+02 -0.87510837613E+02 -0.17696010369E+04  0.17734625336E+04  0.12699999809E+01 0.  1.
</event>
<event>
 5   0  0.8341767E-04  0.1098800E+04  0.7818609E-02  0.9206362E-01
        1   -1    0    0  501    0  0.00000000000E+00  0.00000000000E+00  0.12063067466E+04  0.12063067466E+04  0.50400001928E-02 0. -1.
       -1   -1    0    0    0  501  0.00000000000E+00  0.00000000000E+00 -0.25021852030E+03  0.25021852035E+03  0.50400001928E-02 0.  1.
    10030    2    1    2    0    0  0.00000000000E+00  0.00000000000E+00  0.95608822632E+03  0.14565252670E+04  0.10987998712E+04 0.  0.
        2    1    3    3  502    0  0.28156798366E+03  0.24574174554E+03  0.10118528670E+04  0.10786638769E+04  0.25500000920E-02 0. -1.
       -2    1    3    3    0  502 -0.28156798366E+03 -0.24574174554E+03 -0.55764640701E+02  0.37786139004E+03  0.25500000920E-02 0.  1.
</event>
<event>
 5   0  0.8341767E-04  0.1093149E+04  0.7818609E-02  0.9211895E-01
       -1   -1    0    0    0  501  0.00000000000E+00  0.00000000000E+00  0.21239776904E+03  0.21239776910E+03  0.50400001928E-02 0. -1.
        1   -1    0    0  501    0  0.00000000000E+00  0.00000000000E+00 -0.14065300796E+04  0.14065300796E+04  0.50400001928E-02 0.  1.
    10030    2    1    2    0    0  0.00000000000E+00  0.00000000000E+00 -0.11941323106E+04  0.16189278487E+04  0.10931493055E+04 0.  0.
        2    1    3    3  502    0 -0.44452413731E+03  0.23008303853E+03 -0.27191202938E+03  0.56962800581E+03  0.25500000920E-02 0. -1.
       -2    1    3    3    0  502  0.44452413731E+03 -0.23008303853E+03 -0.92222028120E+03  0.10492998429E+04  0.25500000920E-02 0.  1.
</event>
<event>
 5   0  0.1396936E-03  0.1102373E+04  0.7818609E-02  0.9202882E-01
        2   -1    0    0  501    0  0.00000000000E+00  0.00000000000E+00  0.13958046696E+04  0.13958046696E+04  0.25500000920E-02 0. -1.
       -2   -1    0    0    0  501  0.00000000000E+00  0.00000000000E+00 -0.21765699069E+03  0.21765699070E+03  0.25500000920E-02 0.  1.
    10030    2    1    2    0    0  0.00000000000E+00  0.00000000000E+00  0.11781476789E+04  0.16134616603E+04  0.11023731564E+04 0.  0.
        2    1    3    3  502    0 -0.51189485116E+03 -0.42308171431E+02  0.29642070827E+03  0.59303588114E+03  0.25500000920E-02 0.  1.
       -2    1    3    3    0  502  0.51189485116E+03  0.42308171431E+02  0.88172697061E+03  0.10204257791E+04  0.25500000920E-02 0. -1.
</event>
<event>
 5   0  0.8305271E-04  0.1102413E+04  0.7818609E-02  0.9202843E-01
        1   -1    0    0  501    0  0.00000000000E+00  0.00000000000E+00  0.66957778608E+03  0.66957778610E+03  0.50400001928E-02 0.  1.
       -1   -1    0    0    0  501  0.00000000000E+00  0.00000000000E+00 -0.45376149433E+03  0.45376149436E+03  0.50400001928E-02 0. -1.
    10030    2    1    2    0    0  0.00000000000E+00  0.00000000000E+00  0.21581629175E+03  0.11233392805E+04  0.11024130203E+04 0.  0.
        5    1    3    3  502    0  0.24804799513E+03 -0.36278085440E+03 -0.23107581835E+03  0.49654393565E+03  0.46999998093E+01 0. -1.
       -5    1    3    3    0  502 -0.24804799513E+03  0.36278085440E+03  0.44689211011E+03  0.62679534481E+03  0.46999998093E+01 0.  1.
</event>
<event>
 5   0  0.7946038E-04  0.1069980E+04  0.7818609E-02  0.9234956E-01
        1   -1    0    0  501    0  0.00000000000E+00  0.00000000000E+00  0.10339458499E+04  0.10339458499E+04  0.50400001928E-02 0. -1.
       -1   -1    0    0    0  501  0.00000000000E+00  0.00000000000E+00 -0.27681730299E+03  0.27681730304E+03  0.50400001928E-02 0.  1.
    10030    2    1    2    0    0  0.00000000000E+00  0.00000000000E+00  0.75712854691E+03  0.13107631530E+04  0.10699796291E+04 0.  0.
        4    1    3    3  502    0  0.35708636364E+03 -0.39821236395E+03  0.36466506617E+03  0.64735305768E+03  0.12699999809E+01 0. -1.
       -4    1    3    3    0  502 -0.35708636364E+03  0.39821236395E+03  0.39246348074E+03  0.66341009528E+03  0.12699999809E+01 0.  1.
</event>
<event>
 5   0  0.8305271E-04  0.1105742E+04  0.7818609E-02  0.9199613E-01
       -1   -1    0    0    0  501  0.00000000000E+00  0.00000000000E+00  0.40311648294E+03  0.40311648297E+03  0.50400001928E-02 0. -1.
        1   -1    0    0  501    0  0.00000000000E+00  0.00000000000E+00 -0.75825798385E+03  0.75825798387E+03  0.50400001928E-02 0.  1.
    10030    2    1    2    0    0  0.00000000000E+00  0.00000000000E+00 -0.35514150091E+03  0.11613744668E+04  0.11057419078E+04 0.  0.
        5    1    3    3  502    0  0.50795567237E+03 -0.20625614190E+03 -0.10268383917E+03  0.55778725514E+03  0.46999998093E+01 0. -1.
       -5    1    3    3    0  502 -0.50795567237E+03  0.20625614190E+03 -0.25245766174E+03  0.60358721171E+03  0.46999998093E+01 0.  1.
</event>
<event>
 5   0  0.1396936E-03  0.1101326E+04  0.7818609E-02  0.9203900E-01
       -2   -1    0    0    0  501  0.00000000000E+00  0.00000000000E+00  0.85814221728E+03  0.85814221728E+03  0.25500000920E-02 0.  1.
        2   -1    0    0  501    0  0.00000000000E+00  0.00000000000E+00 -0.35335626759E+03  0.35335626760E+03  0.25500000920E-02 0. -1.
    10030    2    1    2    0    0  0.00000000000E+00  0.00000000000E+00  0.50478594969E+03  0.12114984849E+04  0.11013263476E+04 0.  0.
        2    1    3    3  502    0 -0.18602615071E+03 -0.45168391932E+03  0.53199655782E+03  0.72224956162E+03  0.25500000920E-02 0.  1.
       -2    1    3    3    0  502  0.18602615071E+03  0.45168391932E+03 -0.27210608128E+02  0.48924892327E+03  0.25500000920E-02 0. -1.
</event>
<event>
 5   0  0.1396936E-03  0.1104015E+04  0.7818609E-02  0.9201287E-01
        2   -1    0    0  501    0  0.00000000000E+00  0.00000000000E+00  0.67091835481E+03  0.67091835482E+03  0.25500000920E-02 0. -1.
       -2   -1    0    0    0  501  0.00000000000E+00  0.00000000000E+00 -0.45417222566E+03  0.45417222567E+03  0.25500000920E-02 0.  1.
    10030    2    1    2    0    0  0.00000000000E+00  0.00000000000E+00  0.21674612915E+03  0.11250905805E+04  0.11040153667E+04 0.  0.
        2    1    3    3  502    0  0.17232797100E+03  0.22923361345E+03  0.58904156313E+03  0.65514497801E+03  0.25500000920E-02 0. -1.
       -2    1    3    3    0  502 -0.17232797100E+03 -0.22923361345E+03 -0.37229543398E+03  0.46994560248E+03  0.25500000920E-02 0.  1.
</event>
<event>
 5   0  0.8009636E-04  0.1078129E+04  0.7818609E-02  0.9226775E-01
       -1   -1    0    0    0  501  0.00000000000E+00  0.00000000000E+00  0.33420681210E+03  0.33420681214E+03  0.50400001928E-02 0. -1.
        1   -1    0    0  501    0  0.00000000000E+00  0.00000000000E+00 -0.86949382305E+03  0.86949382307E+03  0.50400001928E-02 0.  1.
    10030    2    1    2    0    0  0.00000000000E+00  0.00000000000E+00 -0.53528701095E+03  0.12037006352E+04  0.10781294148E+04 0.  0.
        1    1    3    3  502    0  0.19724482444E+03 -0.26635477976E+03 -0.74229535470E+03  0.81292852275E+03  0.50400001928E-02 0.  1.
       -1    1    3    3    0  502 -0.19724482444E+03  0.26635477976E+03  0.20700834375E+03  0.39077211246E+03  0.50400001928E-02 0. -1.
</event>
<event>
 5   0  0.1429680E-03  0.1103805E+04  0.7818609E-02  0.9201491E-01
        2   -1    0    0  501    0  0.00000000000E+00  0.00000000000E+00  0.64999524768E+03  0.64999524769E+03  0.25500000920E-02 0. -1.
       -2   -1    0    0    0  501  0.00000000000E+00  0.00000000000E+00 -0.46861348319E+03  0.46861348320E+03  0.25500000920E-02 0.  1.
    10030    2    1    2    0    0  0.00000000000E+00  0.00000000000E+00  0.18138176449E+03  0.11186087309E+04  0.11038053036E+04 0.  0.
        3    1    3    3  502    0  0.29104721439E+03 -0.29874012644E+02  0.56493659359E+03  0.63620303569E+03  0.10100000352E+00 0. -1.
       -3    1    3    3    0  502 -0.29104721439E+03  0.29874012644E+02 -0.38355482910E+03  0.48240569520E+03  0.10100000352E+00 0.  1.
</event>
<event>
 5   0  0.1429680E-03  0.1029318E+04  0.7818609E-02  0.9276962E-01
        2   -1    0    0  501    0  0.00000000000E+00  0.00000000000E+00  0.11133577392E+04  0.11133577392E+04  0.25500000920E-02 0.  1.
       -2   -1    0    0    0  501  0.00000000000E+00  0.00000000000E+00 -0.23790524705E+03  0.23790524706E+03  0.25500000920E-02 0. -1.
    10030    2    1    2    0    0  0.00000000000E+00  0.00000000000E+00  0.87545249212E+03  0.13512629862E+04  0.10293175370E+04 0.  0.
        3    1    3    3  502    0  0.82056672299E+02 -0.28765029199E+03 -0.11207078917E+03  0.31943052443E+03  0.10100000352E+00 0. -1.
       -3    1    3    3    0  502 -0.82056672299E+02  0.28765029199E+03  0.98752328128E+03  0.10318324618E+04  0.10100000352E+00 0.  1.
</event>
<event>
 5   0  0.1372794E-03  0.1100116E+04  0.7818609E-02  0.9205079E-01
       -2   -1    0    0    0  501  0.00000000000E+00  0.00000000000E+00  0.20491796852E+03  0.20491796853E+03  0.25500000920E-02 0. -1.
        2   -1    0    0  501    0  0.00000000000E+00  0.00000000000E+00 -0.14765119464E+04  0.14765119464E+04  0.25500000920E-02 0.  1.
    10030    2    1    2    0    0  0.00000000000E+00  0.00000000000E+00 -0.12715939779E+04  0.16814299149E+04  0.11001160458E+04 0.  0.
        4    1    3    3  502    0  0.35440344178E+03  0.99947272345E+02 -0.11256295260E+02  0.36840137605E+03  0.12699999809E+01 0. -1.
       -4    1    3    3    0  502 -0.35440344178E+03 -0.99947272345E+02 -0.12603376826E+04  0.13130285389E+04  0.12699999809E+01 0.  1.
</event>
<event>
 5   0  0.7946038E-04  0.1095251E+04  0.7818609E-02  0.9209833E-01
       -1   -1    0    0    0  501  0.00000000000E+00  0.00000000000E+00  0.40117043375E+03  0.40117043378E+03  0.50400001928E-02 0. -1.
        1   -1    0    0  501    0  0.00000000000E+00  0.00000000000E+00 -0.74754722679E+03  0.74754722681E+03  0.50400001928E-02 0.  1.
    10030    2    1    2    0    0  0.00000000000E+00  0.00000000000E+00 -0.34637679304E+03  0.11487176606E+04  0.10952512867E+04 0.  0.
        4    1    3    3  502    0 -0.10226444869E+03 -0.22801536696E+03  0.33788044142E+03  0.42025448317E+03  0.12699999809E+01 0. -1.
       -4    1    3    3    0  502  0.10226444869E+03  0.22801536696E+03 -0.68425723446E+03  0.72846317741E+03  0.12699999809E+01 0.  1.
</event>
<event>
 5   0  0.7946038E-04  0.1090104E+04  0.7818609E-02  0.9214891E-01
       -1   -1    0    0    0  501  0.00000000000E+00  0.00000000000E+00  0.58820320190E+03  0.58820320192E+03  0.50400001928E-02 0. -1.
        1   -1    0    0  501    0  0.00000000000E+00  0.00000000000E+00 -0.50506656617E+03  0.50506656620E+03  0.50400001928E-02 0.  1.
    10030    2    1    2    0    0  0.00000000000E+00  0.00000000000E+00  0.83136635724E+02  0.10932697681E+04  0.10901041628E+04 0.  0.
        4    1    3    3  502    0 -0.32013954949E+03  0.43002783707E+03  0.14017416203E+03  0.55413326953E+03  0.12699999809E+01 0. -1.
       -4    1    3    3    0  502  0.32013954949E+03 -0.43002783707E+03 -0.57037526308E+02  0.53913649858E+03  0.12699999809E+01 0.  1.
</event>
<event>
 5   0  0.1402775E-03  0.1101690E+04  0.7818609E-02  0.9203546E-01
        2   -1    0    0  501    0  0.00000000000E+00  0.00000000000E+00  0.36659700518E+03  0.36659700519E+03  0.25500000920E-02 0.  1.
       -2   -1    0    0    0  501  0.00000000000E+00  0.00000000000E+00 -0.82769381629E+03  0.82769381630E+03  0.25500000920E-02 0. -1.
    10030    2    1    2    0    0  0.00000000000E+00  0.00000000000E+00 -0.46109681111E+03  0.11942908215E+04  0.11016897463E+04 0.  0.
        5    1    3    3  502    0  0.19143528209E+03  0.41691979404E+03  0.99934034549E+02  0.46955136370E+03  0.46999998093E+01 0.  1.
       -5    1    3    3    0  502 -0.19143528209E+03 -0.41691979404E+03 -0.56103084566E+03  0.72473945779E+03  0.46999998093E+01 0. -1.
</event>
<event>
 5   0  0.7946038E-04  0.1102977E+04  0.7818609E-02  0.9202295E-01
       -1   -1    0    0    0  501  0.00000000000E+00  0.00000000000E+00  0.66328424213E+03  0.66328424215E+03  0.50400001928E-02 0. -1.
        1   -1    0    0  501    0  0.00000000000E+00  0.00000000000E+00 -0.45853567593E+03  0.45853567596E+03  0.50400001928E-02 0.  1.
    10030    2    1    2    0    0  0.00000000000E+00  0.00000000000E+00  0.20474856620E+03  0.11218199181E+04  0.11029768598E+04 0.  0.
        4    1    3    3  502    0  0.54199403953E+01 -0.20578921176E+02  0.66286499698E+03  0.66320772377E+03  0.12699999809E+01 0. -1.
       -4    1    3    3    0  502 -0.54199403953E+01  0.20578921176E+02 -0.45811643077E+03  0.45861219434E+03  0.12699999809E+01 0.  1.
</event>
<event>
 5   0  0.1429680E-03  0.1098430E+04  0.7818609E-02  0.9206724E-01
       -2   -1    0    0    0  501  0.00000000000E+00  0.00000000000E+00  0.31556250670E+03  0.31556250671E+03  0.25500000920E-02 0.  1.
        2   -1    0    0  501    0  0.00000000000E+00  0.00000000000E+00 -0.95587036892E+03  0.95587036892E+03  0.25500000920E-02 0. -1.
    10030    2    1    2    0    0  0.00000000000E+00  0.00000000000E+00 -0.64030786222E+03  0.12714328756E+04  0.10984295147E+04 0.  0.
        3    1    3    3  502    0  0.28087906879E+03  0.56153610816E+02  0.22225655430E+03  0.36255243127E+03  0.10100000352E+00 0.  1.
       -3    1    3    3    0  502 -0.28087906879E+03 -0.56153610816E+02 -0.86256441652E+03  0.90888044436E+03  0.10100000352E+00 0. -1.
</event>
<event>
 5   0  0.1429680E-03  0.1104730E+04  0.7818609E-02  0.9200594E-01
        2   -1    0    0  501    0  0.00000000000E+00  0.00000000000E+00  0.68411331346E+03  0.68411331346E+03  0.25500000920E-02 0. -1.
       -2   -1    0    0    0  501  0.00000000000E+00  0.00000000000E+00 -0.44598890019E+03  0.44598890020E+03  0.25500000920E-02 0.  1.
    10030    2    1    2    0    0  0.00000000000E+00  0.00000000000E+00  0.23812441326E+03  0.11301022137E+04  0.11047297304E+04 0.  0.
        3    1    3    3  502    0 -0.30474610935E+03 -0.12137644416E+03 -0.33555951601E+03  0.46925753201E+03  0.10100000352E+00 0.  1.
       -3    1    3    3    0  502  0.30474610935E+03  0.12137644416E+03  0.57368392928E+03  0.66084468165E+03  0.10100000352E+00 0. -1.
</event>
<event>
 5   0  0.7946038E-04  0.1106078E+04  0.7818609E-02  0.9199288E-01
       -1   -1    0    0    0  501  0.00000000000E+00  0.00000000000E+00  0.25976659288E+03  0.25976659293E+03  0.50400001928E-02 0.  1.
        1   -1    0    0  501    0  0.00000000000E+00  0.00000000000E+00 -0.11774109464E+04  0.11774109464E+04  0.50400001928E-02 0. -1.
    10030    2    1    2    0    0  0.00000000000E+00  0.00000000000E+00 -0.91764435352E+03  0.14371775393E+04  0.11060778092E+04 0.  0.
        4    1    3    3  502    0  0.43965719298E+03 -0.18222342588E+03 -0.82482874850E+03  0.95228561972E+03  0.12699999809E+01 0. -1.
       -4    1    3    3    0  502 -0.43965719298E+03  0.18222342588E+03 -0.92815605017E+02  0.48489191962E+03  0.12699999809E+01 0.  1.
</event>
<event>
 5   0  0.8150924E-04  0.1098494E+04  0.7818609E-02  0.9206661E-01
        1   -1    0    0  501    0  0.00000000000E+00  0.00000000000E+00  0.44967273239E+03  0.44967273241E+03  0.50400001928E-02 0.  1.
       -1   -1    0    0    0  501  0.00000000000E+00  0.00000000000E+00 -0.67087048409E+03  0.67087048411E+03  0.50400001928E-02 0. -1.
    10030    2    1    2    0    0  0.00000000000E+00  0.00000000000E+00 -0.22119775170E+03  0.11205432165E+04  0.10984938119E+04 0.  0.
        3    1    3    3  502    0  0.17002982996E+03  0.19705936693E+03  0.38277210364E+03  0.46287906703E+03  0.10100000352E+00 0.  1.
       -3    1    3    3    0  502 -0.17002982996E+03 -0.19705936693E+03 -0.60396985534E+03  0.65766414950E+03  0.10100000352E+00 0. -1.
</event>
<event>
 5   0  0.7946038E-04  0.1099568E+04  0.7818609E-02  0.9205613E-01
        1   -1    0    0  501    0  0.00000000000E+00  0.00000000000E+00  0.47244162266E+03  0.47244162268E+03  0.50400001928E-02 0. -1.
       -1   -1    0    0    0  501  0.00000000000E+00  0.00000000000E+00 -0.63978804210E+03  0.63978804212E+03  0.50400001928E-02 0.  1.
    10030    2    1    2    0    0  0.00000000000E+00  0.00000000000E+00 -0.16734641944E+03  0.11122296648E+04  0.10995680985E+04 0.  0.
        4    1    3    3  502    0 -0.53781672800E+02 -0.58124504581E+02  0.46664113573E+03  0.47331436574E+03  0.12699999809E+01 0. -1.
       -4    1    3    3    0  502  0.53781672800E+02  0.58124504581E+02 -0.63398755517E+03  0.63891529906E+03  0.12699999809E+01 0.  1.
</event>
<event>
 5   0  0.1402775E-03  0.1102369E+04  0.7818609E-02  0.9202886E-01
        2   -1    0    0  501    0  0.00000000000E+00  0.00000000000E+00  0.56683249222E+03  0.56683249222E+03  0.25500000920E-02 0.  1.
       -2   -1    0    0    0  501  0.00000000000E+00  0.00000000000E+00 -0.53596849002E+03  0.53596849002E+03  0.25500000920E-02 0. -1.
    10030    2    1    2    0    0  0.00000000000E+00  0.00000000000E+00  0.30864002202E+02  0.11028009822E+04  0.11023690035E+04 0.  0.
        5    1    3    3  502    0 -0.34138526781E+02  0.88846374484E+02 -0.52766483718E+03  0.53620088369E+03  0.46999998093E+01 0. -1.
       -5    1    3    3    0  502  0.34138526781E+02 -0.88846374484E+02  0.55852883938E+03  0.56660009856E+03  0.46999998093E+01 0.  1.
</event>
<event>
 5   0  0.7946038E-04  0.1036511E+04  0.7818609E-02  0.9269382E-01
       -1   -1    0    0    0  501  0.00000000000E+00  0.00000000000E+00  0.24152155268E+03  0.24152155273E+03  0.50400001928E-02 0. -1.
        1   -1    0    0  501    0  0.00000000000E+00  0.00000000000E+00 -0.11120700292E+04  0.11120700292E+04  0.50400001928E-02 0.  1.
    10030    2    1    2    0    0  0.00000000000E+00  0.00000000000E+00 -0.87054847647E+03  0.13535915819E+04  0.10365112256E+04 0.  0.
        4    1    3    3  502    0  0.51458712633E+03 -0.42656238093E+02 -0.37734413017E+03  0.63953863894E+03  0.12699999809E+01 0. -1.
       -4    1    3    3    0  502 -0.51458712633E+03  0.42656238093E+02 -0.49320434631E+03  0.71405294296E+03  0.12699999809E+01 0.  1.
</event>
<event>
 5   0  0.5409500E-04  0.1114826E+04  0.7818609E-02  0.9190861E-01
       -3   -1    0    0    0  501  0.00000000000E+00  0.00000000000E+00  0.42290589951E+03  0.42290591157E+03  0.10100000352E+00 0. -1.
        3   -1    0    0  501    0  0.00000000000E+00  0.00000000000E+00 -0.73470071665E+03  0.73470072359E+03  0.10100000352E+00 0.  1.
    10030    2    1    2    0    0  0.00000000000E+00  0.00000000000E+00 -0.31179481714E+03  0.11576066352E+04  0.11148260464E+04 0.  0.
        1    1    3    3  502    0  0.30918350249E+03  0.22778207788E+03  0.26362398302E+03  0.46580759726E+03  0.50400001928E-02 0. -1.
       -1    1    3    3    0  502 -0.30918350249E+03 -0.22778207788E+03 -0.57541880016E+03  0.69179903789E+03  0.50400001928E-02 0.  1.
</event>
<event>
 5   0  0.8341767E-04  0.1098927E+04  0.7818609E-02  0.9206238E-01
        1   -1    0    0  501    0  0.00000000000E+00  0.00000000000E+00  0.69811788887E+03  0.69811788889E+03  0.50400001928E-02 0.  1.
       -1   -1    0    0    0  501  0.00000000000E+00  0.00000000000E+00 -0.43246300593E+03  0.43246300596E+03  0.50400001928E-02 0. -1.
    10030    2    1    2    0    0  0.00000000000E+00  0.00000000000E+00  0.26565488294E+03  0.11305808949E+04  0.10989270417E+04 0.  0.
        2    1    3    3  502    0  0.52167807543E+02 -0.49751819125E+03  0.36667249220E+03  0.62023749267E+03  0.25500000920E-02 0.  1.
       -2    1    3    3    0  502 -0.52167807543E+02  0.49751819125E+03 -0.10101760925E+03  0.51034340219E+03  0.25500000920E-02 0. -1.
</event>
<event>
 5   0  0.8305271E-04  0.1101542E+04  0.7818609E-02  0.9203690E-01
       -1   -1    0    0    0  501  0.00000000000E+00  0.00000000000E+00  0.28089838652E+03  0.28089838657E+03  0.50400001928E-02 0.  1.
        1   -1    0    0  501    0  0.00000000000E+00  0.00000000000E+00 -0.10799231289E+04  0.10799231289E+04  0.50400001928E-02 0. -1.
    10030    2    1    2    0    0  0.00000000000E+00  0.00000000000E+00 -0.79902474236E+03  0.13608215155E+04  0.11015419457E+04 0.  0.
        5    1    3    3  502    0  0.52607133279E+03 -0.12050550212E+03 -0.53514520757E+03  0.76004941050E+03  0.46999998093E+01 0. -1.
       -5    1    3    3    0  502 -0.52607133279E+03  0.12050550212E+03 -0.26387953479E+03  0.60077210496E+03  0.46999998093E+01 0.  1.
</event>
<event>
 5   0  0.1396936E-03  0.1101635E+04  0.7818609E-02  0.9203600E-01
        2   -1    0    0  501    0  0.00000000000E+00  0.00000000000E+00  0.39612023554E+03  0.39612023555E+03  0.25500000920E-02 0.  1.
       -2   -1    0    0    0  501  0.00000000000E+00  0.00000000000E+00 -0.76592840044E+03  0.76592840045E+03  0.25500000920E-02 0. -1.
    10030    2    1    2    0    0  0.00000000000E+00  0.00000000000E+00 -0.36980816490E+03  0.11620486360E+04  0.11016346734E+04 0.  0.
        2    1    3    3  502    0  0.14985086237E+03 -0.10327854895E+03 -0.73329727605E+03  0.75554393300E+03  0.25500000920E-02 0. -1.
       -2    1    3    3    0  502 -0.14985086237E+03  0.10327854895E+03  0.36348911115E+03  0.40650470299E+03  0.25500000920E-02 0.  1.
</event>
<event>
 5   0  0.1372794E-03  0.1100729E+04  0.7818609E-02  0.9204482E-01
        2   -1    0    0  501    0  0.00000000000E+00  0.00000000000E+00  0.37202686991E+03  0.37202686992E+03  0.25500000920E-02 0.  1.
       -2   -1    0    0    0  501  0.00000000000E+00  0.00000000000E+00 -0.81419145033E+03  0.81419145033E+03  0.25500000920E-02 0. -1.
    10030    2    1    2    0    0  0.00000000000E+00  0.00000000000E+00 -0.44216458042E+03  0.11862183202E+04  0.11007290253E+04 0.  0.
        4    1    3    3  502    0 -0.80425010362E+02  0.29368983732E+02 -0.80696877052E+03  0.81149918607E+03  0.12699999809E+01 0. -1.
       -4    1    3    3    0  502  0.80425010362E+02 -0.29368983732E+02  0.36480419010E+03  0.37471913417E+03  0.12699999809E+01 0.  1.
</event>
<event>
 5   0  0.1429680E-03  0.1101970E+04  0.7818609E-02  0.9203274E-01
        2   -1    0    0  501    0  0.00000000000E+00  0.00000000000E+00  0.17802170400E+04  0.17802170400E+04  0.25500000920E-02 0. -1.
       -2   -1    0    0    0  501  0.00000000000E+00  0.00000000000E+00 -0.17053214073E+03  0.17053214075E+03  0.25500000920E-02 0.  1.
    10030    2    1    2    0    0  0.00000000000E+00  0.00000000000E+00  0.16096848993E+04  0.19507491808E+04  0.11019695510E+04 0.  0.
        3    1    3    3  502    0 -0.12065181320E+03  0.33664617503E+03  0.15468590949E+04  0.15876588351E+04  0.10100000352E+00 0.  1.
       -3    1    3    3    0  502  0.12065181320E+03 -0.33664617503E+03  0.62825804422E+02  0.36309034564E+03  0.10100000352E+00 0. -1.
</event>
<event>
 5   0  0.7946038E-04  0.1097360E+04  0.7818609E-02  0.9207769E-01
        1   -1    0    0  501    0  0.00000000000E+00  0.00000000000E+00  0.48726985097E+03  0.48726985099E+03  0.50400001928E-02 0.  1.
       -1   -1    0    0    0  501  0.00000000000E+00  0.00000000000E+00 -0.61782981835E+03  0.61782981837E+03  0.50400001928E-02 0. -1.
    10030    2    1    2    0    0  0.00000000000E+00  0.00000000000E+00 -0.13055996738E+03  0.11050996694E+04  0.10973601843E+04 0.  0.
        4    1    3    3  502    0  0.29099839832E+03 -0.36387993242E+03 -0.35708135004E+03  0.58702417028E+03  0.12699999809E+01 0. -1.
       -4    1    3    3    0  502 -0.29099839832E+03  0.36387993242E+03  0.22652138266E+03  0.51807549908E+03  0.12699999809E+01 0.  1.
</event>
<event>
 5   0  0.8150924E-04  0.1100326E+04  0.7818609E-02  0.9204874E-01
       -1   -1    0    0    0  501  0.00000000000E+00  0.00000000000E+00  0.44486932967E+03  0.44486932970E+03  0.50400001928E-02 0. -1.
        1   -1    0    0  501    0  0.00000000000E+00  0.00000000000E+00 -0.68037765430E+03  0.68037765432E+03  0.50400001928E-02 0.  1.
    10030    2    1    2    0    0  0.00000000000E+00  0.00000000000E+00 -0.23550832463E+03  0.11252469840E+04  0.11003256809E+04 0.  0.
        3    1    3    3  502    0 -0.34914088769E+03 -0.38035643097E+03  0.76572743863E+02  0.52195188413E+03  0.10100000352E+00 0.  1.
       -3    1    3    3    0  502  0.34914088769E+03  0.38035643097E+03 -0.31208106849E+03  0.60329509989E+03  0.10100000352E+00 0. -1.
</event>
<event>
 5   0  0.8305271E-04  0.1102204E+04  0.7818609E-02  0.9203047E-01
       -1   -1    0    0    0  501  0.00000000000E+00  0.00000000000E+00  0.44662516784E+03  0.44662516787E+03  0.50400001928E-02 0. -1.
        1   -1    0    0  501    0  0.00000000000E+00  0.00000000000E+00 -0.68001797531E+03  0.68001797533E+03  0.50400001928E-02 0.  1.
    10030    2    1    2    0    0  0.00000000000E+00  0.00000000000E+00 -0.23339280747E+03  0.11266431432E+04  0.11022035064E+04 0.  0.
        5    1    3    3  502    0  0.50376842851E+03  0.73839547961E+02 -0.33221784604E+03  0.60796849888E+03  0.46999998093E+01 0.  1.
       -5    1    3    3    0  502 -0.50376842851E+03 -0.73839547961E+02  0.98825038568E+02  0.51867464432E+03  0.46999998093E+01 0. -1.
</event>
<event>
 5   0  0.8305271E-04  0.1099725E+04  0.7818609E-02  0.9205460E-01
       -1   -1    0    0    0  501  0.00000000000E+00  0.00000000000E+00  0.39034434162E+03  0.39034434165E+03  0.50400001928E-02 0. -1.
        1   -1    0    0  501    0  0.00000000000E+00  0.00000000000E+00 -0.77456985600E+03  0.77456985602E+03  0.50400001928E-02 0.  1.
    10030    2    1    2    0    0  0.00000000000E+00  0.00000000000E+00 -0.38422551438E+03  0.11649141977E+04  0.10997253485E+04 0.  0.
        5    1    3    3  502    0  0.27731044933E+03 -0.87990598057E+02  0.30210961235E+03  0.41944694364E+03  0.46999998093E+01 0. -1.
       -5    1    3    3    0  502 -0.27731044933E+03  0.87990598057E+02 -0.68633512673E+03  0.74546725403E+03  0.46999998093E+01 0.  1.
</event>
<event>
 5   0  0.1396936E-03  0.1099436E+04  0.7818609E-02  0.9205742E-01
       -2   -1    0    0    0  501  0.00000000000E+00  0.00000000000E+00  0.32162640210E+03  0.32162640211E+03  0.25500000920E-02 0. -1.
        2   -1    0    0  501    0  0.00000000000E+00  0.00000000000E+00 -0.93956829643E+03  0.93956829644E+03  0.25500000920E-02 0.  1.
    10030    2    1    2    0    0  0.00000000000E+00  0.00000000000E+00 -0.61794189434E+03  0.12611946985E+04  0.10994361659E+04 0.  0.
        2    1    3    3  502    0  0.28134630383E+03  0.14248217647E+03 -0.82547579556E+03  0.88366690691E+03  0.25500000920E-02 0.  1.
       -2    1    3    3    0  502 -0.28134630383E+03 -0.14248217647E+03  0.20753390123E+03  0.37752779164E+03  0.25500000920E-02 0. -1.
</event>
<event>
 5   0  0.1396936E-03  0.1098331E+04  0.7818609E-02  0.9206820E-01
        2   -1    0    0  501    0  0.00000000000E+00  0.00000000000E+00  0.10063012837E+04  0.10063012838E+04  0.25500000920E-02 0. -1.
       -2   -1    0    0    0  501  0.00000000000E+00  0.00000000000E+00 -0.29969407437E+03  0.29969407439E+03  0.25500000920E-02 0.  1.
    10030    2    1    2    0    0  0.00000000000E+00  0.00000000000E+00  0.70660720937E+03  0.13059953581E+04  0.10983306092E+04 0.  0.
        2    1    3    3  502    0  0.42981824462E+02 -0.38317026613E+03  0.81828384976E+03  0.90457467844E+03  0.25500000920E-02 0. -1.
       -2    1    3    3    0  502 -0.42981824462E+02  0.38317026613E+03 -0.11167664039E+03  0.40142067970E+03  0.25500000920E-02 0.  1.
</event>
<event>
 5   0  0.8150924E-04  0.1104378E+04  0.7818609E-02  0.9200935E-01
       -1   -1    0    0    0  501  0.00000000000E+00  0.00000000000E+00  0.10810871863E+03  0.10810871875E+03  0.50400001928E-02 0. -1.
        1   -1    0    0  501    0  0.00000000000E+00  0.00000000000E+00 -0.28204274734E+04  0.28204274734E+04  0.50400001928E-02 0.  1.
    10030    2    1    2    0    0  0.00000000000E+00  0.00000000000E+00 -0.27123187548E+04  0.29285361922E+04  0.11043781967E+04 0.  0.
        3    1    3    3  502    0  0.36167211557E+02 -0.63231915917E+02 -0.28076303314E+04  0.28085751601E+04  0.10100000352E+00 0.  1.
       -3    1    3    3    0  502 -0.36167211557E+02  0.63231915917E+02  0.95311576558E+02  0.11996103205E+03  0.10100000352E+00 0. -1.
</event>
<event>
 5   0  0.8009636E-04  0.1105828E+04  0.7818609E-02  0.9199530E-01
        1   -1    0    0  501    0  0.00000000000E+00  0.00000000000E+00  0.68208141816E+03  0.68208141818E+03  0.50400001928E-02 0.  1.
       -1   -1    0    0    0  501  0.00000000000E+00  0.00000000000E+00 -0.44820771113E+03  0.44820771116E+03  0.50400001928E-02 0. -1.
    10030    2    1    2    0    0  0.00000000000E+00  0.00000000000E+00  0.23387370703E+03  0.11302891293E+04  0.11058284700E+04 0.  0.
        1    1    3    3  502    0  0.16356704851E+01  0.41947653483E+03 -0.25124043451E+03  0.48896318332E+03  0.50400001928E-02 0. -1.
       -1    1    3    3    0  502 -0.16356704851E+01 -0.41947653483E+03  0.48511414153E+03  0.64132594602E+03  0.50400001928E-02 0.  1.
</event>
<event>
 5   0  0.1425432E-03  0.1123999E+04  0.7818609E-02  0.9182112E-01
        2   -1    0    0  501    0  0.00000000000E+00  0.00000000000E+00  0.82481720865E+03  0.82481720866E+03  0.25500000920E-02 0.  1.
       -2   -1    0    0    0  501  0.00000000000E+00  0.00000000000E+00 -0.38292530781E+03  0.38292530782E+03  0.25500000920E-02 0. -1.
    10030    2    1    2    0    0  0.00000000000E+00  0.00000000000E+00  0.44189190085E+03  0.12077425165E+04  0.11239989031E+04 0.  0.
        1    1    3    3  502    0  0.31942851612E+03  0.22836626035E+03 -0.21107679130E+03  0.44580167971E+03  0.50400001928E-02 0. -1.
       -1    1    3    3    0  502 -0.31942851612E+03 -0.22836626035E+03  0.65296869215E+03  0.76194083677E+03  0.50400001928E-02 0.  1.
</event>
<event>
 5   0  0.1402775E-03  0.1098413E+04  0.7818609E-02  0.9206740E-01
        2   -1    0    0  501    0  0.00000000000E+00  0.00000000000E+00  0.21132011066E+04  0.21132011066E+04  0.25500000920E-02 0.  1.
       -2   -1    0    0    0  501  0.00000000000E+00  0.00000000000E+00 -0.14273501157E+03  0.14273501160E+03  0.25500000920E-02 0. -1.
    10030    2    1    2    0    0  0.00000000000E+00  0.00000000000E+00  0.19704660950E+04  0.22559361182E+04  0.10984130087E+04 0.  0.
        5    1    3    3  502    0 -0.42787921495E+03  0.65645578398E+02  0.16793363160E+04  0.17342383103E+04  0.46999998093E+01 0.  1.
       -5    1    3    3    0  502  0.42787921495E+03 -0.65645578398E+02  0.29112977898E+03  0.52169780789E+03  0.46999998093E+01 0. -1.
</event>
<event>
 5   0  0.8341767E-04  0.1105873E+04  0.7818609E-02  0.9199486E-01
        1   -1    0    0  501    0  0.00000000000E+00  0.00000000000E+00  0.78546988455E+03  0.78546988457E+03  0.50400001928E-02 0. -1.
       -1   -1    0    0    0  501  0.00000000000E+00  0.00000000000E+00 -0.38924326767E+03  0.38924326770E+03  0.50400001928E-02 0.  1.
    10030    2    1    2    0    0  0.00000000000E+00  0.00000000000E+00  0.39622661688E+03  0.11747131523E+04  0.11058731655E+04 0.  0.
        2    1    3    3  502    0  0.16710441443E+03 -0.43199960430E+03 -0.12266372380E+03  0.47915961076E+03  0.25500000920E-02 0.  1.
       -2    1    3    3    0  502 -0.16710441443E+03  0.43199960430E+03  0.51889034068E+03  0.69555354151E+03  0.25500000920E-02 0. -1.
</event>
<event>
 5   0  0.8341767E-04  0.1096788E+04  0.7818609E-02  0.9208328E-01
        1   -1    0    0  501    0  0.00000000000E+00  0.00000000000E+00  0.67374482431E+03  0.67374482433E+03  0.50400001928E-02 0. -1.
       -1   -1    0    0    0  501  0.00000000000E+00  0.00000000000E+00 -0.44636474979E+03  0.44636474982E+03  0.50400001928E-02 0.  1.
    10030    2    1    2    0    0  0.00000000000E+00  0.00000000000E+00  0.22738007452E+03  0.11201095741E+04  0.10967879284E+04 0.  0.
        2    1    3    3  502    0 -0.16030551462E+03 -0.38607808839E+03  0.47617645445E+03  0.63363882783E+03  0.25500000920E-02 0. -1.
       -2    1    3    3    0  502  0.16030551462E+03  0.38607808839E+03 -0.24879637993E+03  0.48647074632E+03  0.25500000920E-02 0.  1.
</event>
<event>
 5   0  0.8150924E-04  0.1094741E+04  0.7818609E-02  0.9210333E-01
       -1   -1    0    0    0  501  0.00000000000E+00  0.00000000000E+00  0.35014769733E+03  0.35014769737E+03  0.50400001928E-02 0. -1.
        1   -1    0    0  501    0  0.00000000000E+00  0.00000000000E+00 -0.85568018441E+03  0.85568018442E+03  0.50400001928E-02 0.  1.
    10030    2    1    2    0    0  0.00000000000E+00  0.00000000000E+00 -0.50553248708E+03  0.12058278818E+04  0.10947409671E+04 0.  0.
        3    1    3    3  502    0  0.19228024150E+03 -0.95724424648E+02 -0.80732228382E+03  0.83540656982E+03  0.10100000352E+00 0.  1.
       -3    1    3    3    0  502 -0.19228024150E+03  0.95724424648E+02  0.30178979675E+03  0.37042131197E+03  0.10100000352E+00 0. -1.
</event>
<event>
 5   0  0.1429680E-03  0.1101753E+04  0.7818609E-02  0.9203485E-01
        2   -1    0    0  501    0  0.00000000000E+00  0.00000000000E+00  0.93743737487E+03  0.93743737488E+03  0.25500000920E-02 0.  1.
       -2   -1    0    0    0  501  0.00000000000E+00  0.00000000000E+00 -0.32371767857E+03  0.32371767858E+03  0.25500000920E-02 0. -1.
    10030    2    1    2    0    0  0.00000000000E+00  0.00000000000E+00  0.61371969630E+03  0.12611550535E+04  0.11017532406E+04 0.  0.
        3    1    3    3  502    0 -0.13487931980E+03 -0.50846052551E+03  0.11967575506E+03  0.53948756563E+03  0.10100000352E+00 0. -1.
       -3    1    3    3    0  502  0.13487931980E+03  0.50846052551E+03  0.49404394124E+03  0.72166748783E+03  0.10100000352E+00 0.  1.
</event>
<event>
 5   0  0.8305271E-04  0.1099427E+04  0.7818609E-02  0.9205750E-01
        1   -1    0    0  501    0  0.00000000000E+00  0.00000000000E+00  0.11244805906E+04  0.11244805906E+04  0.50400001928E-02 0. -1.
       -1   -1    0    0    0  501  0.00000000000E+00  0.00000000000E+00 -0.26873301207E+03  0.26873301212E+03  0.50400001928E-02 0.  1.
    10030    2    1    2    0    0  0.00000000000E+00  0.00000000000E+00  0.85574757852E+03  0.13932136027E+04  0.10994272257E+04 0.  0.
        5    1    3    3  502    0 -0.49538409164E+03  0.22503456224E+03  0.52698458110E+03  0.75748319530E+03  0.46999998093E+01 0.  1.
       -5    1    3    3    0  502  0.49538409164E+03 -0.22503456224E+03  0.32876299743E+03  0.63573040742E+03  0.46999998093E+01 0. -1.
</event>
<event>
 5   0  0.8341767E-04  0.1099460E+04  0.7818609E-02  0.9205718E-01
        1   -1    0    0  501    0  0.00000000000E+00  0.00000000000E+00  0.21666578763E+04  0.21666578764E+04  0.50400001928E-02 0. -1.
       -1   -1    0    0    0  501  0.00000000000E+00  0.00000000000E+00 -0.13947899273E+03  0.13947899282E+03  0.50400001928E-02 0.  1.
    10030    2    1    2    0    0  0.00000000000E+00  0.00000000000E+00  0.20271788836E+04  0.23061368692E+04  0.10994603372E+04 0.  0.
        2    1    3    3  502    0 -0.24279561247E+03 -0.31045461425E+03  0.20974086026E+03  0.44645605093E+03  0.25500000920E-02 0.  1.
       -2    1    3    3    0  502  0.24279561247E+03  0.31045461425E+03  0.18174380234E+04  0.18596808182E+04  0.25500000920E-02 0. -1.
</event>
<event>
 5   0  0.1429680E-03  0.1103256E+04  0.7818609E-02  0.9202024E-01
        2   -1    0    0  501    0  0.00000000000E+00  0.00000000000E+00  0.94712451659E+03  0.94712451660E+03  0.25500000920E-02 0.  1.
       -2   -1    0    0    0  501  0.00000000000E+00  0.00000000000E+00 -0.32128164001E+03  0.32128164002E+03  0.25500000920E-02 0. -1.
    10030    2    1    2    0    0  0.00000000000E+00  0.00000000000E+00  0.62584287658E+03  0.12684061566E+04  0.11032564851E+04 0.  0.
        3    1    3    3  502    0  0.41394758776E+02 -0.45558631860E+03 -0.41477415763E+02  0.45933953234E+03  0.10100000352E+00 0. -1.
       -3    1    3    3    0  502 -0.41394758776E+02  0.45558631860E+03  0.66732029234E+03  0.80906662428E+03  0.10100000352E+00 0.  1.
</event>
<event>
 5   0  0.1402775E-03  0.1102017E+04  0.7818609E-02  0.9203228E-01
        2   -1    0    0  501    0  0.00000000000E+00  0.00000000000E+00  0.17344245741E+04  0.17344245741E+04  0.25500000920E-02 0. -1.
       -2   -1    0    0    0  501  0.00000000000E+00  0.00000000000E+00 -0.17504975063E+03  0.17504975065E+03  0.25500000920E-02 0.  1.
    10030    2    1    2    0    0  0.00000000000E+00  0.00000000000E+00  0.15593748234E+04  0.19094743247E+04  0.11020174031E+04 0.  0.
        5    1    3    3  502    0 -0.51156726551E+03 -0.19566084297E+02  0.42668840072E+03  0.66646003639E+03  0.46999998093E+01 0.  1.
       -5    1    3    3    0  502  0.51156726551E+03  0.19566084297E+02  0.11326864227E+04  0.12430142883E+04  0.46999998093E+01 0. -1.
</event>
<event>
 5   0  0.1402775E-03  0.1099057E+04  0.7818609E-02  0.9206112E-01
       -2   -1    0    0    0  501  0.00000000000E+00  0.00000000000E+00  0.80504476424E+03  0.80504476425E+03  0.25500000920E-02 0. -1.
        2   -1    0    0  501    0  0.00000000000E+00  0.00000000000E+00 -0.37511133415E+03  0.37511133416E+03  0.25500000920E-02 0.  1.
    10030    2    1    2    0    0  0.00000000000E+00  0.00000000000E+00  0.42993343009E+03  0.11801560984E+04  0.10990567148E+04 0.  0.
        5    1    3    3  502    0  0.19967093522E+03 -0.20385072107E+03  0.71923171829E+03  0.77378288521E+03  0.46999998093E+01 0. -1.
       -5    1    3    3    0  502 -0.19967093522E+03  0.20385072107E+03 -0.28929828819E+03  0.40637321320E+03  0.46999998093E+01 0.  1.
</event>
<event>
 5   0  0.1402775E-03  0.1098341E+04  0.7818609E-02  0.9206811E-01
       -2   -1    0    0    0  501  0.00000000000E+00  0.00000000000E+00  0.31868003226E+03  0.31868003227E+03  0.25500000920E-02 0.  1.
        2   -1    0    0  501    0  0.00000000000E+00  0.00000000000E+00 -0.94636652251E+03  0.94636652252E+03  0.25500000920E-02 0. -1.
    10030    2    1    2    0    0  0.00000000000E+00  0.00000000000E+00 -0.62768649025E+03  0.12650465548E+04  0.10983407740E+04 0.  0.
        5    1    3    3  502    0  0.83097010938E+02  0.12253299475E+03 -0.92292298687E+03  0.93473438886E+03  0.46999998093E+01 0. -1.
       -5    1    3    3    0  502 -0.83097010938E+02 -0.12253299475E+03  0.29523649662E+03  0.33031216593E+03  0.46999998093E+01 0.  1.
</event>
<event>
 5   0  0.1396936E-03  0.1041489E+04  0.7818609E-02  0.9264176E-01
        2   -1    0    0  501    0  0.00000000000E+00  0.00000000000E+00  0.40000908085E+03  0.40000908086E+03  0.25500000920E-02 0.  1.
       -2   -1    0    0    0  501  0.00000000000E+00  0.00000000000E+00 -0.67792142573E+03  0.67792142574E+03  0.25500000920E-02 0. -1.
    10030    2    1    2    0    0  0.00000000000E+00  0.00000000000E+00 -0.27791234488E+03  0.10779305066E+04  0.10414887928E+04 0.  0.
        2    1    3    3  502    0  0.17196623636E+03  0.23715345318E+03  0.30664348827E+03  0.42408062407E+03  0.25500000920E-02 0.  1.
       -2    1    3    3    0  502 -0.17196623636E+03 -0.23715345318E+03 -0.58455583315E+03  0.65384988253E+03  0.25500000920E-02 0. -1.
</event>
<event>
 5   0  0.1372794E-03  0.1097338E+04  0.7818609E-02  0.9207790E-01
        2   -1    0    0  501    0  0.00000000000E+00  0.00000000000E+00  0.26776952578E+04  0.26776952578E+04  0.25500000920E-02 0.  1.
       -2   -1    0    0    0  501  0.00000000000E+00  0.00000000000E+00 -0.11242419288E+03  0.11242419291E+03  0.25500000920E-02 0. -1.
    10030    2    1    2    0    0  0.00000000000E+00  0.00000000000E+00  0.25652710649E+04  0.27901194507E+04  0.10973381032E+04 0.  0.
        4    1    3    3  502    0 -0.25484897739E+03  0.95581480174E+02  0.71341364632E+02  0.28138056763E+03  0.12699999809E+01 0. -1.
       -4    1    3    3    0  502  0.25484897739E+03 -0.95581480174E+02  0.24939297003E+04  0.25087388831E+04  0.12699999809E+01 0.  1.
</event>
<event>
 5   0  0.1429680E-03  0.1109682E+04  0.7818609E-02  0.9195806E-01
        2   -1    0    0  501    0  0.00000000000E+00  0.00000000000E+00  0.67916875293E+03  0.67916875294E+03  0.25500000920E-02 0.  1.
       -2   -1    0    0    0  501  0.00000000000E+00  0.00000000000E+00 -0.45327260550E+03  0.45327260551E+03  0.25500000920E-02 0. -1.
    10030    2    1    2    0    0  0.00000000000E+00  0.00000000000E+00  0.22589614743E+03  0.11324413584E+04  0.11096820990E+04 0.  0.
        3    1    3    3  502    0  0.16768571981E+03 -0.45945453493E+03 -0.15440133902E+03  0.51289058676E+03  0.10100000352E+00 0. -1.
       -3    1    3    3    0  502 -0.16768571981E+03  0.45945453493E+03  0.38029748645E+03  0.61955077168E+03  0.10100000352E+00 0.  1.
</event>
<event>
 5   0  0.1402775E-03  0.1099837E+04  0.7818609E-02  0.9205351E-01
        2   -1    0    0  501    0  0.00000000000E+00  0.00000000000E+00  0.63812385807E+03  0.63812385808E+03  0.25500000920E-02 0. -1.
       -2   -1    0    0    0  501  0.00000000000E+00  0.00000000000E+00 -0.47390552181E+03  0.47390552181E+03  0.25500000920E-02 0.  1.
    10030    2    1    2    0    0  0.00000000000E+00  0.00000000000E+00  0.16421833627E+03  0.11120293799E+04  0.10998371151E+04 0.  0.
        5    1    3    3  502    0 -0.39229585959E+03  0.33351697816E+03 -0.11305577948E+03  0.52719381203E+03  0.46999998093E+01 0.  1.
       -5    1    3    3    0  502  0.39229585959E+03 -0.33351697816E+03  0.27727411575E+03  0.58483556786E+03  0.46999998093E+01 0. -1.
</event>
<event>
 5   0  0.1372794E-03  0.1097270E+04  0.7818609E-02  0.9207856E-01
        2   -1    0    0  501    0  0.00000000000E+00  0.00000000000E+00  0.66214536157E+03  0.66214536157E+03  0.25500000920E-02 0.  1.
       -2   -1    0    0    0  501  0.00000000000E+00  0.00000000000E+00 -0.45458382500E+03  0.45458382501E+03  0.25500000920E-02 0. -1.
    10030    2    1    2    0    0  0.00000000000E+00  0.00000000000E+00  0.20756153657E+03  0.11167291866E+04  0.10972703790E+04 0.  0.
        4    1    3    3  502    0 -0.42974991173E+03 -0.10755676457E+03 -0.22560279813E+03  0.49714352019E+03  0.12699999809E+01 0. -1.
       -4    1    3    3    0  502  0.42974991173E+03  0.10755676457E+03  0.43316433470E+03  0.61958566639E+03  0.12699999809E+01 0.  1.
</event>
<event>
 5   0  0.5409500E-04  0.1087543E+04  0.7818609E-02  0.9217419E-01
        3   -1    0    0  501    0  0.00000000000E+00  0.00000000000E+00  0.72624697886E+03  0.72624698588E+03  0.10100000352E+00 0. -1.
       -3   -1    0    0    0  501  0.00000000000E+00  0.00000000000E+00 -0.40714455851E+03  0.40714457104E+03  0.10100000352E+00 0.  1.
    10030    2    1    2    0    0  0.00000000000E+00  0.00000000000E+00  0.31910242035E+03  0.11333915569E+04  0.10875431332E+04 0.  0.
        4    1    3    3  502    0 -0.22993540631E+03  0.49275089724E+03  0.16318622770E+03  0.56771920490E+03  0.12699999809E+01 0.  1.
       -4    1    3    3    0  502  0.22993540631E+03 -0.49275089724E+03  0.15591619265E+03  0.56567235201E+03  0.12699999809E+01 0. -1.
</event>
<event>
 5   0  0.1425432E-03  0.1089498E+04  0.7818609E-02  0.9215488E-01
        2   -1    0    0  501    0  0.00000000000E+00  0.00000000000E+00  0.15258587922E+04  0.15258587922E+04  0.25500000920E-02 0.  1.
       -2   -1    0    0    0  501  0.00000000000E+00  0.00000000000E+00 -0.19448177355E+03  0.19448177357E+03  0.25500000920E-02 0. -1.
    10030    2    1    2    0    0  0.00000000000E+00  0.00000000000E+00  0.13313770187E+04  0.17203405658E+04  0.10894984610E+04 0.  0.
        1    1    3    3  502    0 -0.14628122201E+03  0.69316981013E+02  0.14870049610E+04  0.14957896891E+04  0.50400001928E-02 0.  1.
       -1    1    3    3    0  502  0.14628122201E+03 -0.69316981013E+02 -0.15562794236E+03  0.22455087673E+03  0.50400001928E-02 0. -1.
</event>
<event>
 5   0  0.8341767E-04  0.1120738E+04  0.7818609E-02  0.9185212E-01
       -1   -1    0    0    0  501  0.00000000000E+00  0.00000000000E+00  0.66064388561E+03  0.66064388563E+03  0.50400001928E-02 0.  1.
        1   -1    0    0  501    0  0.00000000000E+00  0.00000000000E+00 -0.47531390353E+03  0.47531390356E+03  0.50400001928E-02 0. -1.
    10030    2    1    2    0    0  0.00000000000E+00  0.00000000000E+00  0.18532998208E+03  0.11359577892E+04  0.11207376573E+04 0.  0.
        2    1    3    3  502    0  0.70096994909E+02 -0.78992640083E+02 -0.46513569426E+03  0.47697446468E+03  0.25500000920E-02 0. -1.
       -2    1    3    3    0  502 -0.70096994909E+02  0.78992640083E+02  0.65046567633E+03  0.65898332451E+03  0.25500000920E-02 0.  1.
</event>
<event>
 5   0  0.1429680E-03  0.1097237E+04  0.7818609E-02  0.9207889E-01
        2   -1    0    0  501    0  0.00000000000E+00  0.00000000000E+00  0.26847295438E+03  0.26847295439E+03  0.25500000920E-02 0. -1.
       -2   -1    0    0    0  501  0.00000000000E+00  0.00000000000E+00 -0.11210895016E+04  0.11210895016E+04  0.25500000920E-02 0.  1.
    10030    2    1    2    0    0  0.00000000000E+00  0.00000000000E+00 -0.85261654719E+03  0.13895624560E+04  0.10972369127E+04 0.  0.
        3    1    3    3  502    0 -0.37732489612E+03  0.11996790655E+02  0.77822540356E+02  0.38545344493E+03  0.10100000352E+00 0. -1.
       -3    1    3    3    0  502  0.37732489612E+03 -0.11996790655E+02 -0.93043908755E+03  0.10041090110E+04  0.10100000352E+00 0.  1.
</event>
<event>
 5   0  0.7946038E-04  0.1097248E+04  0.7818609E-02  0.9207878E-01
       -1   -1    0    0    0  501  0.00000000000E+00  0.00000000000E+00  0.49731774009E+03  0.49731774012E+03  0.50400001928E-02 0. -1.
        1   -1    0    0  501    0  0.00000000000E+00  0.00000000000E+00 -0.60522369363E+03  0.60522369365E+03  0.50400001928E-02 0.  1.
    10030    2    1    2    0    0  0.00000000000E+00  0.00000000000E+00 -0.10790595354E+03  0.11025414338E+04  0.10972483394E+04 0.  0.
        4    1    3    3  502    0  0.13853714409E+03  0.35961609752E+03 -0.44631144087E+03  0.58967091927E+03  0.12699999809E+01 0.  1.
       -4    1    3    3    0  502 -0.13853714409E+03 -0.35961609752E+03  0.33840548733E+03  0.51287051450E+03  0.12699999809E+01 0. -1.
</event>
<event>
 5   0  0.8009636E-04  0.1097248E+04  0.7818609E-02  0.9207878E-01
        1   -1    0    0  501    0  0.00000000000E+00  0.00000000000E+00  0.16722127092E+04  0.16722127092E+04  0.50400001928E-02 0.  1.
       -1   -1    0    0    0  501  0.00000000000E+00  0.00000000000E+00 -0.17999417375E+03  0.17999417382E+03  0.50400001928E-02 0. -1.
    10030    2    1    2    0    0  0.00000000000E+00  0.00000000000E+00  0.14922185355E+04  0.18522068831E+04  0.10972484587E+04 0.  0.
        1    1    3    3  502    0 -0.13340151792E+03  0.11045367702E+03 -0.13263641091E+03  0.21814765017E+03  0.50400001928E-02 0. -1.
       -1    1    3    3    0  502  0.13340151792E+03 -0.11045367702E+03  0.16248549464E+04  0.16340592329E+04  0.50400001928E-02 0.  1.
</event>
<event>
 5   0  0.8305271E-04  0.1111397E+04  0.7818609E-02  0.9194154E-01
       -1   -1    0    0    0  501  0.00000000000E+00  0.00000000000E+00  0.74864440543E+03  0.74864440545E+03  0.50400001928E-02 0. -1.
        1   -1    0    0  501    0  0.00000000000E+00  0.00000000000E+00 -0.41247993494E+03  0.41247993497E+03  0.50400001928E-02 0.  1.
    10030    2    1    2    0    0  0.00000000000E+00  0.00000000000E+00  0.33616447050E+03  0.11611243404E+04  0.11113969510E+04 0.  0.
        5    1    3    3  502    0  0.52212209843E+03 -0.16421389360E+03  0.67868454169E+02  0.55154864299E+03  0.46999998093E+01 0.  1.
       -5    1    3    3    0  502 -0.52212209843E+03  0.16421389360E+03  0.26829601633E+03  0.60957569743E+03  0.46999998093E+01 0. -1.
</event>
<event>
 5   0  0.1372794E-03  0.1107570E+04  0.7818609E-02  0.9197845E-01
        2   -1    0    0  501    0  0.00000000000E+00  0.00000000000E+00  0.50370037073E+03  0.50370037074E+03  0.25500000920E-02 0.  1.
       -2   -1    0    0    0  501  0.00000000000E+00  0.00000000000E+00 -0.60884951345E+03  0.60884951345E+03  0.25500000920E-02 0. -1.
    10030    2    1    2    0    0  0.00000000000E+00  0.00000000000E+00 -0.10514914271E+03  0.11125498842E+04  0.11075698184E+04 0.  0.
        4    1    3    3  502    0 -0.52367868085E+02  0.54379417086E+03  0.38506273549E+02  0.54766672336E+03  0.12699999809E+01 0.  1.
       -4    1    3    3    0  502  0.52367868085E+02 -0.54379417086E+03 -0.14365541626E+03  0.56488316083E+03  0.12699999809E+01 0. -1.
</event>
<event>
 5   0  0.8341767E-04  0.1099182E+04  0.7818609E-02  0.9205990E-01
        1   -1    0    0  501    0  0.00000000000E+00  0.00000000000E+00  0.29966630482E+03  0.29966630486E+03  0.50400001928E-02 0.  1.
       -1   -1    0    0    0  501  0.00000000000E+00  0.00000000000E+00 -0.10079552534E+04  0.10079552534E+04  0.50400001928E-02 0. -1.
    10030    2    1    2    0    0  0.00000000000E+00  0.00000000000E+00 -0.70828894855E+03  0.13076215582E+04  0.10991819253E+04 0.  0.
        2    1    3    3  502    0 -0.21335067000E+03 -0.24059601155E+03  0.17607004428E+03  0.36661370632E+03  0.25500000920E-02 0.  1.
       -2    1    3    3    0  502  0.21335067000E+03  0.24059601155E+03 -0.88435899283E+03  0.94100785192E+03  0.25500000920E-02 0. -1.
</event>
<event>
 5   0  0.1396936E-03  0.1106440E+04  0.7818609E-02  0.9198937E-01
       -2   -1    0    0    0  501  0.00000000000E+00  0.00000000000E+00  0.42463662249E+03  0.42463662250E+03  0.25500000920E-02 0.  1.
        2   -1    0    0  501    0  0.00000000000E+00  0.00000000000E+00 -0.72073971843E+03  0.72073971844E+03  0.25500000920E-02 0. -1.
    10030    2    1    2    0    0  0.00000000000E+00  0.00000000000E+00 -0.29610309594E+03  0.11453763409E+04  0.11064402012E+04 0.  0.
        2    1    3    3  502    0  0.48826694138E+03  0.19173427597E+03  0.33876633112E+02  0.52565603288E+03  0.25500000920E-02 0.  1.
       -2    1    3    3    0  502 -0.48826694138E+03 -0.19173427597E+03 -0.32997972905E+03  0.61972030806E+03  0.25500000920E-02 0. -1.
</event>
<event>
 5   0  0.1425432E-03  0.1098964E+04  0.7818609E-02  0.9206202E-01
        2   -1    0    0  501    0  0.00000000000E+00  0.00000000000E+00  0.18353056420E+04  0.18353056420E+04  0.25500000920E-02 0. -1.
       -2   -1    0    0    0  501  0.00000000000E+00  0.00000000000E+00 -0.16451238098E+03  0.16451238100E+03  0.25500000920E-02 0.  1.
    10030    2    1    2    0    0  0.00000000000E+00  0.00000000000E+00  0.16707932610E+04  0.19998180230E+04  0.10989640595E+04 0.  0.
        1    1    3    3  502    0 -0.17645954431E+03 -0.23817903288E+03  0.16773306825E+04  0.17033218841E+04  0.50400001928E-02 0. -1.
       -1    1    3    3    0  502  0.17645954431E+03  0.23817903288E+03 -0.65374214404E+01  0.29649613891E+03  0.50400001928E-02 0.  1.
</event>
<event>
 5   0  0.1402775E-03  0.1088140E+04  0.7818609E-02  0.9216829E-01
       -2   -1    0    0    0  501  0.00000000000E+00  0.00000000000E+00  0.16061423190E+03  0.16061423192E+03  0.25500000920E-02 0. -1.
        2   -1    0    0  501    0  0.00000000000E+00  0.00000000000E+00 -0.18430000552E+04  0.18430000552E+04  0.25500000920E-02 0.  1.
    10030    2    1    2    0    0  0.00000000000E+00  0.00000000000E+00 -0.16823858233E+04  0.20036142872E+04  0.10881397673E+04 0.  0.
        5    1    3    3  502    0  0.49604910227E+03 -0.22164262171E+03 -0.78911950691E+03  0.95808238153E+03  0.46999998093E+01 0.  1.
       -5    1    3    3    0  502 -0.49604910227E+03  0.22164262171E+03 -0.89326631643E+03  0.10455319056E+04  0.46999998093E+01 0. -1.
</event>
<event>
 5   0  0.8341767E-04  0.1112597E+04  0.7818609E-02  0.9193000E-01
        1   -1    0    0  501    0  0.00000000000E+00  0.00000000000E+00  0.78609117408E+03  0.78609117410E+03  0.50400001928E-02 0. -1.
       -1   -1    0    0    0  501  0.00000000000E+00  0.00000000000E+00 -0.39367944814E+03  0.39367944817E+03  0.50400001928E-02 0.  1.
    10030    2    1    2    0    0  0.00000000000E+00  0.00000000000E+00  0.39241172594E+03  0.11797706223E+04  0.11125968535E+04 0.  0.
        2    1    3    3  502    0 -0.11088511018E+03 -0.38763955909E+03  0.60263279550E+03  0.72506980467E+03  0.25500000920E-02 0. -1.
       -2    1    3    3    0  502  0.11088511018E+03  0.38763955909E+03 -0.21022106956E+03  0.45470081760E+03  0.25500000920E-02 0.  1.
</event>
<event>
 5   0  0.7946038E-04  0.1102015E+04  0.7818609E-02  0.9203230E-01
       -1   -1    0    0    0  501  0.00000000000E+00  0.00000000000E+00  0.18837802507E+03  0.18837802514E+03  0.50400001928E-02 0.  1.
        1   -1    0    0  501    0  0.00000000000E+00  0.00000000000E+00 -0.16117020632E+04  0.16117020632E+04  0.50400001928E-02 0. -1.
    10030    2    1    2    0    0  0.00000000000E+00  0.00000000000E+00 -0.14233240382E+04  0.18000800884E+04  0.11020149758E+04 0.  0.
        4    1    3    3  502    0  0.23545000419E+03 -0.33650837091E+03 -0.11164509364E+03  0.42560642382E+03  0.12699999809E+01 0. -1.
       -4    1    3    3    0  502 -0.23545000419E+03  0.33650837091E+03 -0.13116789445E+04  0.13744736646E+04  0.12699999809E+01 0.  1.
</event>
<event>
 5   0  0.1372794E-03  0.1115472E+04  0.7818609E-02  0.9190241E-01
       -2   -1    0    0    0  501  0.00000000000E+00  0.00000000000E+00  0.12326586947E+03  0.12326586950E+03  0.25500000920E-02 0.  1.
        2   -1    0    0  501    0  0.00000000000E+00  0.00000000000E+00 -0.25235670136E+04  0.25235670136E+04  0.25500000920E-02 0. -1.
    10030    2    1    2    0    0  0.00000000000E+00  0.00000000000E+00 -0.24003011441E+04  0.26468328831E+04  0.11154724239E+04 0.  0.
        4    1    3    3  502    0 -0.38283905243E+03 -0.38341731578E+03 -0.88631228286E+03  0.10388097293E+04  0.12699999809E+01 0. -1.
       -4    1    3    3    0  502  0.38283905243E+03  0.38341731578E+03 -0.15139888613E+04  0.16080231538E+04  0.12699999809E+01 0.  1.
</event>
<event>
 5   0  0.1429680E-03  0.1100220E+04  0.7818609E-02  0.9204977E-01
        2   -1    0    0  501    0  0.00000000000E+00  0.00000000000E+00  0.11717265283E+04  0.11717265283E+04  0.25500000920E-02 0. -1.
       -2   -1    0    0    0  501  0.00000000000E+00  0.00000000000E+00 -0.25826943348E+03  0.25826943349E+03  0.25500000920E-02 0.  1.
    10030    2    1    2    0    0  0.00000000000E+00  0.00000000000E+00  0.91345709481E+03  0.14299959618E+04  0.11002202446E+04 0.  0.
        3    1    3    3  502    0  0.27417878514E+03  0.12445437638E+03  0.10551130397E+04  0.10972358155E+04  0.10100000352E+00 0. -1.
       -3    1    3    3    0  502 -0.27417878514E+03 -0.12445437638E+03 -0.14165594491E+03  0.33276014628E+03  0.10100000352E+00 0.  1.
</event>
<event>
 5   0  0.8009636E-04  0.1098631E+04  0.7818609E-02  0.9206527E-01
       -1   -1    0    0    0  501  0.00000000000E+00  0.00000000000E+00  0.41279940704E+03  0.41279940707E+03  0.50400001928E-02 0. -1.
        1   -1    0    0  501    0  0.00000000000E+00  0.00000000000E+00 -0.73097833802E+03  0.73097833804E+03  0.50400001928E-02 0.  1.
    10030    2    1    2    0    0  0.00000000000E+00  0.00000000000E+00 -0.31817893098E+03  0.11437777451E+04  0.10986308288E+04 0.  0.
        1    1    3    3  502    0  0.50806883328E+03 -0.88705902882E+02 -0.35592158993E+03  0.62664412130E+03  0.50400001928E-02 0.  1.
       -1    1    3    3    0  502 -0.50806883328E+03  0.88705902882E+02  0.37742658947E+02  0.51713362382E+03  0.50400001928E-02 0. -1.
</event>
<event>
 5   0  0.8009636E-04  0.1086365E+04  0.7818609E-02  0.9218585E-01
       -1   -1    0    0    0  501  0.00000000000E+00  0.00000000000E+00  0.78746161113E+03  0.78746161115E+03  0.50400001928E-02 0.  1.
        1   -1    0    0  501    0  0.00000000000E+00  0.00000000000E+00 -0.37468117677E+03  0.37468117680E+03  0.50400001928E-02 0. -1.
    10030    2    1    2    0    0  0.00000000000E+00  0.00000000000E+00  0.41278043436E+03  0.11621427879E+04  0.10863646591E+04 0.  0.
        1    1    3    3  502    0  0.92978619662E+02 -0.52868474656E+03  0.29521495468E+03  0.61262097128E+03  0.50400001928E-02 0. -1.
       -1    1    3    3    0  502 -0.92978619662E+02  0.52868474656E+03  0.11756547968E+03  0.54952181667E+03  0.50400001928E-02 0.  1.
</event>
<event>
 5   0  0.8341767E-04  0.1088481E+04  0.7818609E-02  0.9216493E-01
       -1   -1    0    0    0  501  0.00000000000E+00  0.00000000000E+00  0.33054446489E+03  0.33054446493E+03  0.50400001928E-02 0. -1.
        1   -1    0    0  501    0  0.00000000000E+00  0.00000000000E+00 -0.89608966411E+03  0.89608966413E+03  0.50400001928E-02 0.  1.
    10030    2    1    2    0    0  0.00000000000E+00  0.00000000000E+00 -0.56554519922E+03  0.12266341291E+04  0.10884805530E+04 0.  0.
        2    1    3    3  502    0 -0.42668942395E+03 -0.20044817116E+03  0.23688693099E+02  0.47202170291E+03  0.25500000920E-02 0. -1.
       -2    1    3    3    0  502  0.42668942395E+03  0.20044817116E+03 -0.58923389232E+03  0.75461242615E+03  0.25500000920E-02 0.  1.
</event>
<event>
 5   0  0.8341767E-04  0.1101620E+04  0.7818609E-02  0.9203615E-01
        1   -1    0    0  501    0  0.00000000000E+00  0.00000000000E+00  0.11793224379E+04  0.11793224379E+04  0.50400001928E-02 0.  1.
       -1   -1    0    0    0  501  0.00000000000E+00  0.00000000000E+00 -0.25725909482E+03  0.25725909487E+03  0.50400001928E-02 0. -1.
    10030    2    1    2    0    0  0.00000000000E+00  0.00000000000E+00  0.92206334312E+03  0.14365815328E+04  0.11016195767E+04 0.  0.
        2    1    3    3  502    0  0.51338451193E+03 -0.91611373853E+02  0.22982188681E+03  0.56988981441E+03  0.25500000920E-02 0. -1.
       -2    1    3    3    0  502 -0.51338451193E+03  0.91611373853E+02  0.69224145631E+03  0.86669171841E+03  0.25500000920E-02 0.  1.
</event>
<event>
 5   0  0.1402775E-03  0.1099178E+04  0.7818609E-02  0.9205994E-01
       -2   -1    0    0    0  501  0.00000000000E+00  0.00000000000E+00  0.73696085792E+03  0.73696085792E+03  0.25500000920E-02 0. -1.
        2   -1    0    0  501    0  0.00000000000E+00  0.00000000000E+00 -0.40985595814E+03  0.40985595815E+03  0.25500000920E-02 0.  1.
    10030    2    1    2    0    0  0.00000000000E+00  0.00000000000E+00  0.32710489978E+03  0.11468168161E+04  0.10991775080E+04 0.  0.
        5    1    3    3  502    0 -0.86546150114E+02  0.53215280285E+03  0.52404240635E+02  0.54170576526E+03  0.46999998093E+01 0.  1.
       -5    1    3    3    0  502  0.86546150114E+02 -0.53215280285E+03  0.27470065914E+03  0.60511105081E+03  0.46999998093E+01 0. -1.
</event>
<event>
 5   0  0.8305271E-04  0.1101947E+04  0.7818609E-02  0.9203296E-01
        1   -1    0    0  501    0  0.00000000000E+00  0.00000000000E+00  0.18514171645E+04  0.18514171645E+04  0.50400001928E-02 0. -1.
       -1   -1    0    0    0  501  0.00000000000E+00  0.00000000000E+00 -0.16396734194E+03  0.16396734201E+03  0.50400001928E-02 0.  1.
    10030    2    1    2    0    0  0.00000000000E+00  0.00000000000E+00  0.16874498226E+04  0.20153845065E+04  0.11019472789E+04 0.  0.
        5    1    3    3  502    0  0.96532088938E+02  0.27566073602E+03  0.16981359253E+04  0.17230771882E+04  0.46999998093E+01 0. -1.
       -5    1    3    3    0  502 -0.96532088938E+02 -0.27566073602E+03 -0.10686102735E+02  0.29230731836E+03  0.46999998093E+01 0.  1.
</event>
<event>
 5   0  0.8150924E-04  0.1104192E+04  0.7818609E-02  0.9201116E-01
        1   -1    0    0  501    0  0.00000000000E+00  0.00000000000E+00  0.85212718033E+03  0.85212718035E+03  0.50400001928E-02 0.  1.
       -1   -1    0    0    0  501  0.00000000000E+00  0.00000000000E+00 -0.35770462168E+03  0.35770462172E+03  0.50400001928E-02 0. -1.
    10030    2    1    2    0    0  0.00000000000E+00  0.00000000000E+00  0.49442255865E+03  0.12098318021E+04  0.11041917056E+04 0.  0.
        3    1    3    3  502    0 -0.41871881357E+03 -0.15727177219E+03  0.60182657141E+03  0.74983670717E+03  0.10100000352E+00 0.  1.
       -3    1    3    3    0  502  0.41871881357E+03  0.15727177219E+03 -0.10740401277E+03  0.45999509489E+03  0.10100000352E+00 0. -1.
</event>
<event>
 5   0  0.8305271E-04  0.1100629E+04  0.7818609E-02  0.9204579E-01
        1   -1    0    0  501    0  0.00000000000E+00  0.00000000000E+00  0.13430320523E+04  0.13430320523E+04  0.50400001928E-02 0. -1.
       -1   -1    0    0    0  501  0.00000000000E+00  0.00000000000E+00 -0.22549439553E+03  0.22549439558E+03  0.50400001928E-02 0.  1.
    10030    2    1    2    0    0  0.00000000000E+00  0.00000000000E+00  0.11175376568E+04  0.15685264479E+04  0.11006292761E+04 0.  0.
        5    1    3    3  502    0 -0.26196103183E+03 -0.19192133902E+03 -0.74353684083E+02  0.33317854508E+03  0.46999998093E+01 0.  1.
       -5    1    3    3    0  502  0.26196103183E+03  0.19192133902E+03  0.11918913409E+04  0.12353479028E+04  0.46999998093E+01 0. -1.
</event>
<event>
 5   0  0.7946038E-04  0.1099123E+04  0.7818609E-02  0.9206047E-01
        1   -1    0    0  501    0  0.00000000000E+00  0.00000000000E+00  0.41369766264E+03  0.41369766267E+03  0.50400001928E-02 0.  1.
       -1   -1    0    0    0  501  0.00000000000E+00  0.00000000000E+00 -0.73004430451E+03  0.73004430453E+03  0.50400001928E-02 0. -1.
    10030    2    1    2    0    0  0.00000000000E+00  0.00000000000E+00 -0.31634664187E+03  0.11437419672E+04  0.10991225999E+04 0.  0.
        4    1    3    3  502    0 -0.39173940609E+03  0.27611117567E+03 -0.43801198741E+03  0.64927132821E+03  0.12699999809E+01 0. -1.
       -4    1    3    3    0  502  0.39173940609E+03 -0.27611117567E+03  0.12166534554E+03  0.49447063899E+03  0.12699999809E+01 0.  1.
</event>
<event>
 5   0  0.1396936E-03  0.1094103E+04  0.7818609E-02  0.9210959E-01
       -2   -1    0    0    0  501  0.00000000000E+00  0.00000000000E+00  0.48361690237E+03  0.48361690237E+03  0.25500000920E-02 0.  1.
        2   -1    0    0  501    0  0.00000000000E+00  0.00000000000E+00 -0.61880628905E+03  0.61880628906E+03  0.25500000920E-02 0. -1.
    10030    2    1    2    0    0  0.00000000000E+00  0.00000000000E+00 -0.13518938669E+03  0.11024231914E+04  0.10941027021E+04 0.  0.
        2    1    3    3  502    0 -0.42785894763E+03 -0.34045297991E+03 -0.50327565547E+02  0.54909413988E+03  0.25500000920E-02 0.  1.
       -2    1    3    3    0  502  0.42785894763E+03  0.34045297991E+03 -0.84861821138E+02  0.55332905155E+03  0.25500000920E-02 0. -1.
</event>
<event>
 5   0  0.1425432E-03  0.1094793E+04  0.7818609E-02  0.9210282E-01
        2   -1    0    0  501    0  0.00000000000E+00  0.00000000000E+00  0.68608784444E+03  0.68608784445E+03  0.25500000920E-02 0. -1.
       -2   -1    0    0    0  501  0.00000000000E+00  0.00000000000E+00 -0.43674127693E+03  0.43674127694E+03  0.25500000920E-02 0.  1.
    10030    2    1    2    0    0  0.00000000000E+00  0.00000000000E+00  0.24934656751E+03  0.11228291214E+04  0.10947929143E+04 0.  0.
        1    1    3    3  502    0  0.34229535795E+03  0.98430659758E+02 -0.30164965211E+03  0.46674106258E+03  0.50400001928E-02 0.  1.
       -1    1    3    3    0  502 -0.34229535795E+03 -0.98430659758E+02  0.55099621962E+03  0.65608805881E+03  0.50400001928E-02 0. -1.
</event>
<event>
 5   0  0.8305271E-04  0.1093407E+04  0.7818609E-02  0.9211642E-01
        1   -1    0    0  501    0  0.00000000000E+00  0.00000000000E+00  0.10124795571E+04  0.10124795571E+04  0.50400001928E-02 0.  1.
       -1   -1    0    0    0  501  0.00000000000E+00  0.00000000000E+00 -0.29520059852E+03  0.29520059856E+03  0.50400001928E-02 0. -1.
    10030    2    1    2    0    0  0.00000000000E+00  0.00000000000E+00  0.71727895857E+03  0.13076801557E+04  0.10934067336E+04 0.  0.
        5    1    3    3  502    0  0.39506687656E+03 -0.31360802043E+02 -0.91720361680E+02  0.40681205931E+03  0.46999998093E+01 0. -1.
       -5    1    3    3    0  502 -0.39506687656E+03  0.31360802043E+02  0.80899932025E+03  0.90086809635E+03  0.46999998093E+01 0.  1.
</event>
<event>
 5   0  0.8341767E-04  0.1095002E+04  0.7818609E-02  0.9210077E-01
        1   -1    0    0  501    0  0.00000000000E+00  0.00000000000E+00  0.14675369129E+04  0.14675369129E+04  0.50400001928E-02 0. -1.
       -1   -1    0    0    0  501  0.00000000000E+00  0.00000000000E+00 -0.20425866211E+03  0.20425866217E+03  0.50400001928E-02 0.  1.
    10030    2    1    2    0    0  0.00000000000E+00  0.00000000000E+00  0.12632782508E+04  0.16717955751E+04  0.10950016009E+04 0.  0.
        2    1    3    3  502    0  0.17777481851E+03 -0.48587888243E+03  0.90507243856E+03  0.10425153685E+04  0.25500000920E-02 0. -1.
       -2    1    3    3    0  502 -0.17777481851E+03  0.48587888243E+03  0.35820581224E+03  0.62928020660E+03  0.25500000920E-02 0.  1.
</event>
<event>
 5   0  0.8150924E-04  0.1097499E+04  0.7818609E-02  0.9207633E-01
        1   -1    0    0  501    0  0.00000000000E+00  0.00000000000E+00  0.19808254619E+04  0.19808254619E+04  0.50400001928E-02 0.  1.
       -1   -1    0    0    0  501  0.00000000000E+00  0.00000000000E+00 -0.15202049246E+03  0.15202049254E+03  0.50400001928E-02 0. -1.
    10030    2    1    2    0    0  0.00000000000E+00  0.00000000000E+00  0.18288049694E+04  0.21328459544E+04  0.10974990885E+04 0.  0.
        3    1    3    3  502    0 -0.39998691540E+03  0.22087179278E+03  0.15049826749E+04  0.15728149107E+04  0.10100000352E+00 0.  1.
       -3    1    3    3    0  502  0.39998691540E+03 -0.22087179278E+03  0.32382229455E+03  0.56003104377E+03  0.10100000352E+00 0. -1.
</event>
<event>
 5   0  0.1396936E-03  0.1088298E+04  0.7818609E-02  0.9216673E-01
       -2   -1    0    0    0  501  0.00000000000E+00  0.00000000000E+00  0.39151262542E+03  0.39151262543E+03  0.25500000920E-02 0.  1.
        2   -1    0    0  501    0  0.00000000000E+00  0.00000000000E+00 -0.75629251398E+03  0.75629251398E+03  0.25500000920E-02 0. -1.
    10030    2    1    2    0    0  0.00000000000E+00  0.00000000000E+00 -0.36477988856E+03  0.11478051394E+04  0.10882978779E+04 0.  0.
        2    1    3    3  502    0  0.51405533067E+03 -0.12292861633E+03 -0.31882214716E+03  0.61726160519E+03  0.25500000920E-02 0. -1.
       -2    1    3    3    0  502 -0.51405533067E+03  0.12292861633E+03 -0.45957741395E+02  0.53054353422E+03  0.25500000920E-02 0.  1.
</event>
<event>
 5   0  0.1425432E-03  0.1103754E+04  0.7818609E-02  0.9201541E-01
        2   -1    0    0  501    0  0.00000000000E+00  0.00000000000E+00  0.14296695084E+04  0.14296695084E+04  0.25500000920E-02 0. -1.
       -2   -1    0    0    0  501  0.00000000000E+00  0.00000000000E+00 -0.21303405332E+03  0.21303405333E+03  0.25500000920E-02 0.  1.
    10030    2    1    2    0    0  0.00000000000E+00  0.00000000000E+00  0.12166354550E+04  0.16427035617E+04  0.11037541217E+04 0.  0.
        1    1    3    3  502    0 -0.19369199815E+03  0.11601135681E+03 -0.14115450470E+03  0.26627019975E+03  0.50400001928E-02 0.  1.
       -1    1    3    3    0  502  0.19369199815E+03 -0.11601135681E+03  0.13577899597E+04  0.13764333619E+04  0.50400001928E-02 0. -1.
</event>
<event>
 5   0  0.8009636E-04  0.1103563E+04  0.7818609E-02  0.9201726E-01
       -1   -1    0    0    0  501  0.00000000000E+00  0.00000000000E+00  0.47048162913E+03  0.47048162916E+03  0.50400001928E-02 0.  1.
        1   -1    0    0  501    0  0.00000000000E+00  0.00000000000E+00 -0.64713024535E+03  0.64713024536E+03  0.50400001928E-02 0. -1.
    10030    2    1    2    0    0  0.00000000000E+00  0.00000000000E+00 -0.17664861621E+03  0.11176118745E+04  0.11035631239E+04 0.  0.
        1    1    3    3  502    0  0.38725659916E+03 -0.67871591206E+02  0.30375888303E+03  0.49683365983E+03  0.50400001928E-02 0.  1.
       -1    1    3    3    0  502 -0.38725659916E+03  0.67871591206E+02 -0.48040749925E+03  0.62077821470E+03  0.50400001928E-02 0. -1.
</event>
<event>
 5   0  0.1396936E-03  0.1104215E+04  0.7818609E-02  0.9201093E-01
        2   -1    0    0  501    0  0.00000000000E+00  0.00000000000E+00  0.12807594672E+04  0.12807594672E+04  0.25500000920E-02 0.  1.
       -2   -1    0    0    0  501  0.00000000000E+00  0.00000000000E+00 -0.23800147825E+03  0.23800147826E+03  0.25500000920E-02 0. -1.
    10030    2    1    2    0    0  0.00000000000E+00  0.00000000000E+00  0.10427579889E+04  0.15187609455E+04  0.11042149184E+04 0.  0.
        2    1    3    3  502    0  0.13419717179E+03  0.53079981707E+03  0.42348878817E+03  0.69217055732E+03  0.25500000920E-02 0.  1.
       -2    1    3    3    0  502 -0.13419717179E+03 -0.53079981707E+03  0.61926920078E+03  0.82659038813E+03  0.25500000920E-02 0. -1.
</event>
<event>
 5   0  0.7946038E-04  0.1099760E+04  0.7818609E-02  0.9205425E-01
       -1   -1    0    0    0  501  0.00000000000E+00  0.00000000000E+00  0.22774796495E+03  0.22774796500E+03  0.50400001928E-02 0.  1.
        1   -1    0    0  501    0  0.00000000000E+00  0.00000000000E+00 -0.13276441031E+04  0.13276441031E+04  0.50400001928E-02 0. -1.
    10030    2    1    2    0    0  0.00000000000E+00  0.00000000000E+00 -0.10998961381E+04  0.15553920681E+04  0.10997604152E+04 0.  0.
        4    1    3    3  502    0 -0.46615490325E+03 -0.24376295067E+03 -0.77643879757E+03  0.93785904549E+03  0.12699999809E+01 0. -1.
       -4    1    3    3    0  502  0.46615490325E+03  0.24376295067E+03 -0.32345734058E+03  0.61753302261E+03  0.12699999809E+01 0.  1.
</event>
<event>
 5   0  0.5409500E-04  0.1098879E+04  0.7818609E-02  0.9206285E-01
        3   -1    0    0  501    0  0.00000000000E+00  0.00000000000E+00  0.18328617897E+04  0.18328617924E+04  0.10100000352E+00 0.  1.
       -3   -1    0    0    0  501  0.00000000000E+00  0.00000000000E+00 -0.16470614684E+03  0.16470617780E+03  0.10100000352E+00 0. -1.
    10030    2    1    2    0    0  0.00000000000E+00  0.00000000000E+00  0.16681556428E+04  0.19975679703E+04  0.10988787681E+04 0.  0.
        3    1    3    3  502    0  0.33945420000E+03 -0.37527346398E+03  0.12232122913E+04  0.13237475766E+04  0.10100000352E+00 0.  1.
       -3    1    3    3    0  502 -0.33945420000E+03  0.37527346398E+03  0.44494335148E+03  0.67382039365E+03  0.10100000352E+00 0. -1.
</event>
<event>
 5   0  0.8150924E-04  0.1108100E+04  0.7818609E-02  0.9197333E-01
       -1   -1    0    0    0  501  0.00000000000E+00  0.00000000000E+00  0.15668909373E+03  0.15668909381E+03  0.50400001928E-02 0.  1.
        1   -1    0    0  501    0  0.00000000000E+00  0.00000000000E+00 -0.19591111235E+04  0.19591111235E+04  0.50400001928E-02 0. -1.
    10030    2    1    2    0    0  0.00000000000E+00  0.00000000000E+00 -0.18024220297E+04  0.21158002173E+04  0.11080998990E+04 0.  0.
        3    1    3    3  502    0 -0.43291701986E+03  0.14011707034E+02 -0.15608726974E+04  0.16198571115E+04  0.10100000352E+00 0. -1.
       -3    1    3    3    0  502  0.43291701986E+03 -0.14011707034E+02 -0.24154933235E+03  0.49594310579E+03  0.10100000352E+00 0.  1.
</event>
<event>
 5   0  0.1402775E-03  0.1103680E+04  0.7818609E-02  0.9201613E-01
       -2   -1    0    0    0  501  0.00000000000E+00  0.00000000000E+00  0.24355342758E+03  0.24355342759E+03  0.25500000920E-02 0.  1.
        2   -1    0    0  501    0  0.00000000000E+00  0.00000000000E+00 -0.12503504111E+04  0.12503504111E+04  0.25500000920E-02 0. -1.
    10030    2    1    2    0    0  0.00000000000E+00  0.00000000000E+00 -0.10067969836E+04  0.14939038387E+04  0.11036795338E+04 0.  0.
        5    1    3    3  502    0  0.50332956830E+03 -0.22608235830E+03 -0.51307921551E+03  0.75347611670E+03  0.46999998093E+01 0. -1.
       -5    1    3    3    0  502 -0.50332956830E+03  0.22608235830E+03 -0.49371776804E+03  0.74042772202E+03  0.46999998093E+01 0.  1.
</event>
<event>
 5   0  0.1396936E-03  0.1103015E+04  0.7818609E-02  0.9202258E-01
       -2   -1    0    0    0  501  0.00000000000E+00  0.00000000000E+00  0.25707959684E+03  0.25707959685E+03  0.25500000920E-02 0.  1.
        2   -1    0    0  501    0  0.00000000000E+00  0.00000000000E+00 -0.11831382695E+04  0.11831382695E+04  0.25500000920E-02 0. -1.
    10030    2    1    2    0    0  0.00000000000E+00  0.00000000000E+00 -0.92605867266E+03  0.14402178664E+04  0.11030153387E+04 0.  0.
        2    1    3    3  502    0 -0.32757851105E+03  0.31050228015E+03 -0.87684120239E+03  0.98618955637E+03  0.25500000920E-02 0. -1.
       -2    1    3    3    0  502  0.32757851105E+03 -0.31050228015E+03 -0.49217470276E+02  0.45402830998E+03  0.25500000920E-02 0.  1.
</event>
<event>
 5   0  0.5409500E-04  0.1098185E+04  0.7818609E-02  0.9206963E-01
        3   -1    0    0  501    0  0.00000000000E+00  0.00000000000E+00  0.38464318571E+03  0.38464319897E+03  0.10100000352E+00 0.  1.
       -3   -1    0    0    0  501  0.00000000000E+00  0.00000000000E+00 -0.78384952818E+03  0.78384953469E+03  0.10100000352E+00 0. -1.
    10030    2    1    2    0    0  0.00000000000E+00  0.00000000000E+00 -0.39920634246E+03  0.11684927337E+04  0.10981846679E+04 0.  0.
        2    1    3    3  502    0  0.11161358477E+03 -0.20318710222E+03 -0.72922522512E+03  0.76518757162E+03  0.25500000920E-02 0. -1.
       -2    1    3    3    0  502 -0.11161358477E+03  0.20318710222E+03  0.33001888265E+03  0.40330516204E+03  0.25500000920E-02 0.  1.
</event>
<event>
 5   0  0.8305271E-04  0.1100345E+04  0.7818609E-02  0.9204856E-01
       -1   -1    0    0    0  501  0.00000000000E+00  0.00000000000E+00  0.31340914743E+03  0.31340914747E+03  0.50400001928E-02 0.  1.
        1   -1    0    0  501    0  0.00000000000E+00  0.00000000000E+00 -0.96579708518E+03  0.96579708520E+03  0.50400001928E-02 0. -1.
    10030    2    1    2    0    0  0.00000000000E+00  0.00000000000E+00 -0.65238793776E+03  0.12792062327E+04  0.11003447480E+04 0.  0.
        5    1    3    3  502    0  0.77524305886E+02  0.26423057982E+03 -0.87988993094E+03  0.92198492281E+03  0.46999998093E+01 0. -1.
       -5    1    3    3    0  502 -0.77524305886E+02 -0.26423057982E+03  0.22750199319E+03  0.35722130985E+03  0.46999998093E+01 0.  1.
</event>
<event>
 5   0  0.8341767E-04  0.1139275E+04  0.7818609E-02  0.9167736E-01
        1   -1    0    0  501    0  0.00000000000E+00  0.00000000000E+00  0.54758918519E+03  0.54758918522E+03  0.50400001928E-02 0.  1.
       -1   -1    0    0    0  501  0.00000000000E+00  0.00000000000E+00 -0.59257323357E+03  0.59257323359E+03  0.50400001928E-02 0. -1.
    10030    2    1    2    0    0  0.00000000000E+00  0.00000000000E+00 -0.44984048372E+02  0.11401624188E+04  0.11392746713E+04 0.  0.
        2    1    3    3  502    0 -0.15694698014E+03  0.53030355674E+03  0.11411517277E+03  0.56469149943E+03  0.25500000920E-02 0. -1.
       -2    1    3    3    0  502  0.15694698014E+03 -0.53030355674E+03 -0.15909922115E+03  0.57547091937E+03  0.25500000920E-02 0.  1.
</event>
<event>
 5   0  0.8009636E-04  0.1102011E+04  0.7818609E-02  0.9203234E-01
       -1   -1    0    0    0  501  0.00000000000E+00  0.00000000000E+00  0.35720606391E+03  0.35720606395E+03  0.50400001928E-02 0. -1.
        1   -1    0    0  501    0  0.00000000000E+00  0.00000000000E+00 -0.84994905832E+03  0.84994905834E+03  0.50400001928E-02 0.  1.
    10030    2    1    2    0    0  0.00000000000E+00  0.00000000000E+00 -0.49274299441E+03  0.12071551223E+04  0.11020108124E+04 0.  0.
        1    1    3    3  502    0 -0.34015704565E+03  0.92020972833E+02 -0.71038168580E+03  0.79297970636E+03  0.50400001928E-02 0.  1.
       -1    1    3    3    0  502  0.34015704565E+03 -0.92020972833E+02  0.21763869139E+03  0.41417541593E+03  0.50400001928E-02 0. -1.
</event>
<event>
 5   0  0.1396936E-03  0.1063865E+04  0.7818609E-02  0.9241145E-01
       -2   -1    0    0    0  501  0.00000000000E+00  0.00000000000E+00  0.13889832772E+04  0.13889832772E+04  0.25500000920E-02 0.  1.
        2   -1    0    0  501    0  0.00000000000E+00  0.00000000000E+00 -0.20371165471E+03  0.20371165472E+03  0.25500000920E-02 0. -1.
    10030    2    1    2    0    0  0.00000000000E+00  0.00000000000E+00  0.11852716225E+04  0.15926949320E+04  0.10638648068E+04 0.  0.
        2    1    3    3  502    0 -0.86614354049E+02 -0.25636925480E+03 -0.92964635966E+02  0.28612875543E+03  0.25500000920E-02 0. -1.
       -2    1    3    3    0  502  0.86614354049E+02  0.25636925480E+03  0.12782362585E+04  0.13065661765E+04  0.25500000920E-02 0.  1.
</event>
<event>
 5   0  0.8009636E-04  0.1101418E+04  0.7818609E-02  0.9203811E-01
       -1   -1    0    0    0  501  0.00000000000E+00  0.00000000000E+00  0.48871189963E+03  0.48871189966E+03  0.50400001928E-02 0. -1.
        1   -1    0    0  501    0  0.00000000000E+00  0.00000000000E+00 -0.62057094797E+03  0.62057094799E+03  0.50400001928E-02 0.  1.
    10030    2    1    2    0    0  0.00000000000E+00  0.00000000000E+00 -0.13185904834E+03  0.11092828476E+04  0.11014180076E+04 0.  0.
        1    1    3    3  502    0  0.44981259588E+02  0.89177112942E+01  0.48678571102E+03  0.48894086326E+03  0.50400001928E-02 0. -1.
       -1    1    3    3    0  502 -0.44981259588E+02 -0.89177112942E+01 -0.61864475935E+03  0.62034198438E+03  0.50400001928E-02 0.  1.
</event>
<event>
 5   0  0.1402775E-03  0.1103509E+04  0.7818609E-02  0.9201779E-01
        2   -1    0    0  501    0  0.00000000000E+00  0.00000000000E+00  0.44151084546E+03  0.44151084547E+03  0.25500000920E-02 0.  1.
       -2   -1    0    0    0  501  0.00000000000E+00  0.00000000000E+00 -0.68952499059E+03  0.68952499060E+03  0.25500000920E-02 0. -1.
    10030    2    1    2    0    0  0.00000000000E+00  0.00000000000E+00 -0.24801414513E+03  0.11310358361E+04  0.11035085166E+04 0.  0.
        5    1    3    3  502    0 -0.27273942480E+03  0.45470317563E+03  0.32339584896E+02  0.53123413908E+03  0.46999998093E+01 0.  1.
       -5    1    3    3    0  502  0.27273942480E+03 -0.45470317563E+03 -0.28035373003E+03  0.59980169699E+03  0.46999998093E+01 0. -1.
</event>
<event>
 5   0  0.8150924E-04  0.1098368E+04  0.7818609E-02  0.9206784E-01
        1   -1    0    0  501    0  0.00000000000E+00  0.00000000000E+00  0.63592938655E+03  0.63592938657E+03  0.50400001928E-02 0.  1.
       -1   -1    0    0    0  501  0.00000000000E+00  0.00000000000E+00 -0.47427125390E+03  0.47427125392E+03  0.50400001928E-02 0. -1.
    10030    2    1    2    0    0  0.00000000000E+00  0.00000000000E+00  0.16165813265E+03  0.11102006405E+04  0.10983679303E+04 0.  0.
        3    1    3    3  502    0 -0.36561677819E+03  0.73342967666E+02 -0.32668697525E+03  0.49576124233E+03  0.10100000352E+00 0. -1.
       -3    1    3    3    0  502  0.36561677819E+03 -0.73342967666E+02  0.48834510790E+03  0.61443939816E+03  0.10100000352E+00 0.  1.
</event>
<event>
 5   0  0.5409500E-04  0.1099263E+04  0.7818609E-02  0.9205910E-01
       -3   -1    0    0    0  501  0.00000000000E+00  0.00000000000E+00  0.15154725413E+03  0.15154728778E+03  0.10100000352E+00 0. -1.
        3   -1    0    0  501    0  0.00000000000E+00  0.00000000000E+00 -0.19934038719E+04  0.19934038745E+04  0.10100000352E+00 0.  1.
    10030    2    1    2    0    0  0.00000000000E+00  0.00000000000E+00 -0.18418566178E+04  0.21449511623E+04  0.10992632478E+04 0.  0.
        2    1    3    3  502    0 -0.92663867721E+02  0.39867502209E+03 -0.16367160718E+04  0.16871182132E+04  0.25500000920E-02 0.  1.
       -2    1    3    3    0  502  0.92663867721E+02 -0.39867502209E+03 -0.20514054597E+03  0.45783294904E+03  0.25500000920E-02 0. -1.
</event>
<event>
 5   0  0.8305271E-04  0.1097012E+04  0.7818609E-02  0.9208109E-01
        1   -1    0    0  501    0  0.00000000000E+00  0.00000000000E+00  0.12949603103E+04  0.12949603103E+04  0.50400001928E-02 0. -1.
       -1   -1    0    0    0  501  0.00000000000E+00  0.00000000000E+00 -0.23233035606E+03  0.23233035611E+03  0.50400001928E-02 0.  1.
    10030    2    1    2    0    0  0.00000000000E+00  0.00000000000E+00  0.10626299542E+04  0.15272906664E+04  0.10970115588E+04 0.  0.
        5    1    3    3  502    0  0.17905137113E+03  0.43953170732E+03  0.14854333939E+03  0.49732758713E+03  0.46999998093E+01 0.  1.
       -5    1    3    3    0  502 -0.17905137113E+03 -0.43953170732E+03  0.91408661481E+03  0.10299630792E+04  0.46999998093E+01 0. -1.
</event>
<event>
 5   0  0.1396936E-03  0.1091212E+04  0.7818609E-02  0.9213800E-01
       -2   -1    0    0    0  501  0.00000000000E+00  0.00000000000E+00  0.98973438885E+03  0.98973438885E+03  0.25500000920E-02 0. -1.
        2   -1    0    0  501    0  0.00000000000E+00  0.00000000000E+00 -0.30077326947E+03  0.30077326948E+03  0.25500000920E-02 0.  1.
    10030    2    1    2    0    0  0.00000000000E+00  0.00000000000E+00  0.68896111938E+03  0.12905076583E+04  0.10912115250E+04 0.  0.
        2    1    3    3  502    0  0.42647636765E+03  0.25739016431E+03  0.60774389747E+03  0.78580177766E+03  0.25500000920E-02 0. -1.
       -2    1    3    3    0  502 -0.42647636765E+03 -0.25739016431E+03  0.81217221904E+02  0.50470588068E+03  0.25500000920E-02 0.  1.
</event>
<event>
 5   0  0.5409500E-04  0.1099674E+04  0.7818609E-02  0.9205510E-01
       -3   -1    0    0    0  501  0.00000000000E+00  0.00000000000E+00  0.55484304784E+03  0.55484305703E+03  0.10100000352E+00 0.  1.
        3   -1    0    0  501    0  0.00000000000E+00  0.00000000000E+00 -0.54487623826E+03  0.54487624762E+03  0.10100000352E+00 0. -1.
    10030    2    1    2    0    0  0.00000000000E+00  0.00000000000E+00  0.99668095810E+01  0.10997193047E+04  0.10996741389E+04 0.  0.
        2    1    3    3  502    0  0.40150163137E+03 -0.80083001583E+01 -0.37060240027E+03  0.54645569990E+03  0.25500000920E-02 0. -1.
       -2    1    3    3    0  502 -0.40150163137E+03  0.80083001583E+01  0.38056920985E+03  0.55326360476E+03  0.25500000920E-02 0.  1.
</event>
<event>
 5   0  0.8009636E-04  0.1100239E+04  0.7818609E-02  0.9204959E-01
       -1   -1    0    0    0  501  0.00000000000E+00  0.00000000000E+00  0.48326713922E+03  0.48326713925E+03  0.50400001928E-02 0. -1.
        1   -1    0    0  501    0  0.00000000000E+00  0.00000000000E+00 -0.62622021790E+03  0.62622021793E+03  0.50400001928E-02 0.  1.
    10030    2    1    2    0    0  0.00000000000E+00  0.00000000000E+00 -0.14295307868E+03  0.11094873572E+04  0.11002393435E+04 0.  0.
        1    1    3    3  502    0  0.12573828112E+03 -0.53529848655E+03 -0.88261816762E+02  0.55690639551E+03  0.50400001928E-02 0.  1.
       -1    1    3    3    0  502 -0.12573828112E+03  0.53529848655E+03 -0.54691261921E+02  0.55258096166E+03  0.50400001928E-02 0. -1.
</event>
<event>
 5   0  0.1396936E-03  0.1104539E+04  0.7818609E-02  0.9200779E-01
        2   -1    0    0  501    0  0.00000000000E+00  0.00000000000E+00  0.15988511579E+04  0.15988511579E+04  0.25500000920E-02 0.  1.
       -2   -1    0    0    0  501  0.00000000000E+00  0.00000000000E+00 -0.19076293154E+03  0.19076293156E+03  0.25500000920E-02 0. -1.
    10030    2    1    2    0    0  0.00000000000E+00  0.00000000000E+00  0.14080882264E+04  0.17896140895E+04  0.11045388794E+04 0.  0.
        2    1    3    3  502    0  0.38438465287E+03  0.14516837771E+03  0.10614370165E+03  0.42437236557E+03  0.25500000920E-02 0. -1.
       -2    1    3    3    0  502 -0.38438465287E+03 -0.14516837771E+03  0.13019445247E+04  0.13652417239E+04  0.25500000920E-02 0.  1.
</event>
<event>
 5   0  0.5409500E-04  0.1109025E+04  0.7818609E-02  0.9196440E-01
       -4   -1    0    0    0  501  0.00000000000E+00  0.00000000000E+00  0.72537056762E+03  0.72537167940E+03  0.12699999809E+01 0. -1.
        4   -1    0    0  501    0  0.00000000000E+00  0.00000000000E+00 -0.42389686885E+03  0.42389877131E+03  0.12699999809E+01 0.  1.
    10030    2    1    2    0    0  0.00000000000E+00  0.00000000000E+00  0.30147369877E+03  0.11492704507E+04  0.11090248770E+04 0.  0.
        5    1    3    3  502    0  0.13494928986E+03 -0.50535404653E+03 -0.39973950362E+02  0.52460845388E+03  0.46999998093E+01 0.  1.
       -5    1    3    3    0  502 -0.13494928986E+03  0.50535404653E+03  0.34144764914E+03  0.62466199683E+03  0.46999998093E+01 0. -1.
</event>
<event>
 5   0  0.8341767E-04  0.1074774E+04  0.7818609E-02  0.9230134E-01
        1   -1    0    0  501    0  0.00000000000E+00  0.00000000000E+00  0.43059911211E+03  0.43059911214E+03  0.50400001928E-02 0.  1.
       -1   -1    0    0    0  501  0.00000000000E+00  0.00000000000E+00 -0.67065822693E+03  0.67065822695E+03  0.50400001928E-02 0. -1.
    10030    2    1    2    0    0  0.00000000000E+00  0.00000000000E+00 -0.24005911482E+03  0.11012573391E+04  0.10747740917E+04 0.  0.
        2    1    3    3  502    0 -0.39385220825E+03  0.19498517658E+03  0.19685798040E+03  0.48155149827E+03  0.25500000920E-02 0.  1.
       -2    1    3    3    0  502  0.39385220825E+03 -0.19498517658E+03 -0.43691709522E+03  0.61970584081E+03  0.25500000920E-02 0. -1.
</event>
<event>
 5   0  0.7946038E-04  0.1097288E+04  0.7818609E-02  0.9207839E-01
        1   -1    0    0  501    0  0.00000000000E+00  0.00000000000E+00  0.89719211075E+03  0.89719211076E+03  0.50400001928E-02 0.  1.
       -1   -1    0    0    0  501  0.00000000000E+00  0.00000000000E+00 -0.33550273282E+03  0.33550273286E+03  0.50400001928E-02 0. -1.
    10030    2    1    2    0    0  0.00000000000E+00  0.00000000000E+00  0.56168937792E+03  0.12326948436E+04  0.10972883031E+04 0.  0.
        4    1    3    3  502    0 -0.33992598167E+03 -0.94903715119E+02  0.75274321342E+03  0.83137256775E+03  0.12699999809E+01 0.  1.
       -4    1    3    3    0  502  0.33992598167E+03  0.94903715119E+02 -0.19105383549E+03  0.40132227588E+03  0.12699999809E+01 0. -1.
</event>
<event>
 5   0  0.7946038E-04  0.1097765E+04  0.7818609E-02  0.9207373E-01
        1   -1    0    0  501    0  0.00000000000E+00  0.00000000000E+00  0.12959899534E+04  0.12959899535E+04  0.50400001928E-02 0.  1.
       -1   -1    0    0    0  501  0.00000000000E+00  0.00000000000E+00 -0.23246481984E+03  0.23246481990E+03  0.50400001928E-02 0. -1.
    10030    2    1    2    0    0  0.00000000000E+00  0.00000000000E+00  0.10635251336E+04  0.15284547734E+04  0.10977651317E+04 0.  0.
        4    1    3    3  502    0 -0.10994903054E+03  0.27536692869E+02 -0.21599084971E+03  0.24392769181E+03  0.12699999809E+01 0. -1.
       -4    1    3    3    0  502  0.10994903054E+03 -0.27536692869E+02  0.12795159833E+04  0.12845270815E+04  0.12699999809E+01 0.  1.
</event>
<event>
 5   0  0.8305271E-04  0.1100116E+04  0.7818609E-02  0.9205079E-01
       -1   -1    0    0    0  501  0.00000000000E+00  0.00000000000E+00  0.73131620957E+03  0.73131620958E+03  0.50400001928E-02 0. -1.
        1   -1    0    0  501    0  0.00000000000E+00  0.00000000000E+00 -0.41372522632E+03  0.41372522635E+03  0.50400001928E-02 0.  1.
    10030    2    1    2    0    0  0.00000000000E+00  0.00000000000E+00  0.31759098325E+03  0.11450414359E+04  0.11001162927E+04 0.  0.
        5    1    3    3  502    0 -0.16335914746E+03 -0.53791607846E+02  0.70258872913E+03  0.72334829814E+03  0.46999998093E+01 0. -1.
       -5    1    3    3    0  502  0.16335914746E+03  0.53791607846E+02 -0.38499774588E+03  0.42169313779E+03  0.46999998093E+01 0.  1.
</event>
<event>
 5   0  0.8150924E-04  0.1083641E+04  0.7818609E-02  0.9221285E-01
        1   -1    0    0  501    0  0.00000000000E+00  0.00000000000E+00  0.12511398970E+04  0.12511398970E+04  0.50400001928E-02 0. -1.
       -1   -1    0    0    0  501  0.00000000000E+00  0.00000000000E+00 -0.23464152929E+03  0.23464152934E+03  0.50400001928E-02 0.  1.
    10030    2    1    2    0    0  0.00000000000E+00  0.00000000000E+00  0.10164983677E+04  0.14857814263E+04  0.10836408609E+04 0.  0.
        3    1    3    3  502    0  0.49173494229E+03  0.77082604818E+02  0.80175579311E+03  0.94369345839E+03  0.10100000352E+00 0. -1.
       -3    1    3    3    0  502 -0.49173494229E+03 -0.77082604818E+02  0.21474257457E+03  0.54208796793E+03  0.10100000352E+00 0.  1.
</event>
<event>
 5   0  0.1402775E-03  0.1100960E+04  0.7818609E-02  0.9204257E-01
       -2   -1    0    0    0  501  0.00000000000E+00  0.00000000000E+00  0.32768955769E+03  0.32768955770E+03  0.25500000920E-02 0.  1.
        2   -1    0    0  501    0  0.00000000000E+00  0.00000000000E+00 -0.92474172770E+03  0.92474172770E+03  0.25500000920E-02 0. -1.
    10030    2    1    2    0    0  0.00000000000E+00  0.00000000000E+00 -0.59705217001E+03  0.12524312854E+04  0.11009599588E+04 0.  0.
        5    1    3    3  502    0 -0.22717643964E+02 -0.48160595073E+03 -0.60067272114E+03  0.77025332913E+03  0.46999998093E+01 0. -1.
       -5    1    3    3    0  502  0.22717643964E+02  0.48160595073E+03  0.36205511270E+01  0.48217795627E+03  0.46999998093E+01 0.  1.
</event>
<event>
 5   0  0.8305271E-04  0.1097846E+04  0.7818609E-02  0.9207294E-01
       -1   -1    0    0    0  501  0.00000000000E+00  0.00000000000E+00  0.75296601511E+03  0.75296601512E+03  0.50400001928E-02 0. -1.
        1   -1    0    0  501    0  0.00000000000E+00  0.00000000000E+00 -0.40017276432E+03  0.40017276435E+03  0.50400001928E-02 0.  1.
    10030    2    1    2    0    0  0.00000000000E+00  0.00000000000E+00  0.35279325079E+03  0.11531387795E+04  0.10978460579E+04 0.  0.
        5    1    3    3  502    0  0.50479006741E+03  0.18738625109E+03  0.28838630651E+03  0.61083170435E+03  0.46999998093E+01 0. -1.
       -5    1    3    3    0  502 -0.50479006741E+03 -0.18738625109E+03  0.64406944278E+02  0.54230707512E+03  0.46999998093E+01 0.  1.
</event>
<event>
 5   0  0.1425432E-03  0.1097678E+04  0.7818609E-02  0.9207458E-01
       -2   -1    0    0    0  501  0.00000000000E+00  0.00000000000E+00  0.61304592362E+03  0.61304592363E+03  0.25500000920E-02 0.  1.
        2   -1    0    0  501    0  0.00000000000E+00  0.00000000000E+00 -0.49135696293E+03  0.49135696294E+03  0.25500000920E-02 0. -1.
    10030    2    1    2    0    0  0.00000000000E+00  0.00000000000E+00  0.12168896069E+03  0.11044028866E+04  0.10976782464E+04 0.  0.
        1    1    3    3  502    0  0.50615027085E+03 -0.18268338607E+03 -0.47812807203E+02  0.54022900772E+03  0.50400001928E-02 0. -1.
       -1    1    3    3    0  502 -0.50615027085E+03  0.18268338607E+03  0.16950176789E+03  0.56417387884E+03  0.50400001928E-02 0.  1.
</event>
<event>
 5   0  0.8150924E-04  0.1102089E+04  0.7818609E-02  0.9203158E-01
       -1   -1    0    0    0  501  0.00000000000E+00  0.00000000000E+00  0.47685946714E+03  0.47685946716E+03  0.50400001928E-02 0.  1.
        1   -1    0    0  501    0  0.00000000000E+00  0.00000000000E+00 -0.63677054318E+03  0.63677054320E+03  0.50400001928E-02 0. -1.
    10030    2    1    2    0    0  0.00000000000E+00  0.00000000000E+00 -0.15991107604E+03  0.11136300104E+04  0.11020890380E+04 0.  0.
        3    1    3    3  502    0  0.46252512337E+03 -0.17940752525E+03  0.16241769036E+03  0.52201155755E+03  0.10100000352E+00 0.  1.
       -3    1    3    3    0  502 -0.46252512337E+03  0.17940752525E+03 -0.32232876640E+03  0.59161845282E+03  0.10100000352E+00 0. -1.
</event>
<event>
 5   0  0.8341767E-04  0.1097920E+04  0.7818609E-02  0.9207222E-01
        1   -1    0    0  501    0  0.00000000000E+00  0.00000000000E+00  0.37612854781E+03  0.37612854784E+03  0.50400001928E-02 0. -1.
       -1   -1    0    0    0  501  0.00000000000E+00  0.00000000000E+00 -0.80120716107E+03  0.80120716109E+03  0.50400001928E-02 0.  1.
    10030    2    1    2    0    0  0.00000000000E+00  0.00000000000E+00 -0.42507861326E+03  0.11773357089E+04  0.10979196437E+04 0.  0.
        2    1    3    3  502    0 -0.70150064417E+02 -0.13801491106E+03  0.35223299750E+03  0.38475606785E+03  0.25500000920E-02 0. -1.
       -2    1    3    3    0  502  0.70150064417E+02  0.13801491106E+03 -0.77731161076E+03  0.79257964108E+03  0.25500000920E-02 0.  1.
</event>
<event>
 5   0  0.5409500E-04  0.1105365E+04  0.7818609E-02  0.9199978E-01
       -3   -1    0    0    0  501  0.00000000000E+00  0.00000000000E+00  0.37089916102E+03  0.37089917477E+03  0.10100000352E+00 0. -1.
        3   -1    0    0  501    0  0.00000000000E+00  0.00000000000E+00 -0.82356107313E+03  0.82356107933E+03  0.10100000352E+00 0.  1.
    10030    2    1    2    0    0  0.00000000000E+00  0.00000000000E+00 -0.45266191211E+03  0.11944602541E+04  0.11053653206E+04 0.  0.
        3    1    3    3  502    0  0.33629509417E+03  0.52392837332E+02  0.24421978896E+03  0.41890657108E+03  0.10100000352E+00 0. -1.
       -3    1    3    3    0  502 -0.33629509417E+03 -0.52392837332E+02 -0.69688170107E+03  0.77555368303E+03  0.10100000352E+00 0.  1.
</event>
<event>
 5   0  0.1425432E-03  0.1098871E+04  0.7818609E-02  0.9206293E-01
        2   -1    0    0  501    0  0.00000000000E+00  0.00000000000E+00  0.58660803788E+03  0.58660803788E+03  0.25500000920E-02 0. -1.
       -2   -1    0    0    0  501  0.00000000000E+00  0.00000000000E+00 -0.51461844402E+03  0.51461844403E+03  0.25500000920E-02 0.  1.
    10030    2    1    2    0    0  0.00000000000E+00  0.00000000000E+00  0.71989593856E+02  0.11012264819E+04  0.10988709036E+04 0.  0.
        1    1    3    3  502    0 -0.99491673783E+02 -0.18950078639E+03 -0.47112372297E+03  0.51746178948E+03  0.50400001928E-02 0.  1.
       -1    1    3    3    0  502  0.99491673783E+02  0.18950078639E+03  0.54311331683E+03  0.58376469244E+03  0.50400001928E-02 0. -1.
</event>
<event>
 5   0  0.1429680E-03  0.1103103E+04  0.7818609E-02  0.9202173E-01
        2   -1    0    0  501    0  0.00000000000E+00  0.00000000000E+00  0.71316814897E+03  0.71316814897E+03  0.25500000920E-02 0.  1.
       -2   -1    0    0    0  501  0.00000000000E+00  0.00000000000E+00 -0.42655982911E+03  0.42655982912E+03  0.25500000920E-02 0. -1.
    10030    2    1    2    0    0  0.00000000000E+00  0.00000000000E+00  0.28660831985E+03  0.11397279781E+04  0.11031026856E+04 0.  0.
        3    1    3    3  502    0 -0.22594729393E+03  0.30034538635E+03 -0.27376835827E+03  0.46498242433E+03  0.10100000352E+00 0. -1.
       -3    1    3    3    0  502  0.22594729393E+03 -0.30034538635E+03  0.56037667813E+03  0.67474555377E+03  0.10100000352E+00 0.  1.
</event>
<event>
 5   0  0.1425432E-03  0.1076395E+04  0.7818609E-02  0.9228510E-01
        2   -1    0    0  501    0  0.00000000000E+00  0.00000000000E+00  0.14790292788E+04  0.14790292788E+04  0.25500000920E-02 0.  1.
       -2   -1    0    0    0  501  0.00000000000E+00  0.00000000000E+00 -0.19584219295E+03  0.19584219296E+03  0.25500000920E-02 0. -1.
    10030    2    1    2    0    0  0.00000000000E+00  0.00000000000E+00  0.12831870859E+04  0.16748714718E+04  0.10763946068E+04 0.  0.
        1    1    3    3  502    0 -0.19253013549E+03  0.83974426157E+02  0.14126181706E+04  0.14281490305E+04  0.50400001928E-02 0. -1.
       -1    1    3    3    0  502  0.19253013549E+03 -0.83974426157E+02 -0.12943108473E+03  0.24672244130E+03  0.50400001928E-02 0.  1.
</event>
<event>
 5   0  0.1429680E-03  0.1100397E+04  0.7818609E-02  0.9204805E-01
       -2   -1    0    0    0  501  0.00000000000E+00  0.00000000000E+00  0.35357073220E+03  0.35357073221E+03  0.25500000920E-02 0.  1.
        2   -1    0    0  501    0  0.00000000000E+00  0.00000000000E+00 -0.85617545171E+03  0.85617545172E+03  0.25500000920E-02 0. -1.
    10030    2    1    2    0    0  0.00000000000E+00  0.00000000000E+00 -0.50260471951E+03  0.12097461839E+04  0.11003973489E+04 0.  0.
        3    1    3    3  502    0  0.41036956582E+03 -0.50008431511E+01 -0.65417444860E+03  0.77225151886E+03  0.10100000352E+00 0. -1.
       -3    1    3    3    0  502 -0.41036956582E+03  0.50008431511E+01  0.15156972908E+03  0.43749466506E+03  0.10100000352E+00 0.  1.
</event>
<event>
 5   0  0.1396936E-03  0.1102346E+04  0.7818609E-02  0.9202908E-01
       -2   -1    0    0    0  501  0.00000000000E+00  0.00000000000E+00  0.42763690694E+03  0.42763690694E+03  0.25500000920E-02 0. -1.
        2   -1    0    0  501    0  0.00000000000E+00  0.00000000000E+00 -0.71039680319E+03  0.71039680320E+03  0.25500000920E-02 0.  1.
    10030    2    1    2    0    0  0.00000000000E+00  0.00000000000E+00 -0.28275989625E+03  0.11380337101E+04  0.11023463913E+04 0.  0.
        2    1    3    3  502    0  0.47483880261E+03 -0.12776215822E+03 -0.39843242808E+03  0.63288502691E+03  0.25500000920E-02 0. -1.
       -2    1    3    3    0  502 -0.47483880261E+03  0.12776215822E+03  0.11567253183E+03  0.50514868323E+03  0.25500000920E-02 0.  1.
</event>
<event>
 5   0  0.1425432E-03  0.1101572E+04  0.7818609E-02  0.9203661E-01
       -2   -1    0    0    0  501  0.00000000000E+00  0.00000000000E+00  0.27403845583E+03  0.27403845584E+03  0.25500000920E-02 0. -1.
        2   -1    0    0  501    0  0.00000000000E+00  0.00000000000E+00 -0.11070171025E+04  0.11070171025E+04  0.25500000920E-02 0.  1.
    10030    2    1    2    0    0  0.00000000000E+00  0.00000000000E+00 -0.83297864663E+03  0.13810555583E+04  0.11015720718E+04 0.  0.
        1    1    3    3  502    0  0.36915109880E+03  0.38981718673E+03 -0.26225056234E+03  0.59749923037E+03  0.50400001928E-02 0. -1.
       -1    1    3    3    0  502 -0.36915109880E+03 -0.38981718673E+03 -0.57072808429E+03  0.78355632793E+03  0.50400001928E-02 0.  1.
</event>
<event>
 5   0  0.8305271E-04  0.1099386E+04  0.7818609E-02  0.9205790E-01
        1   -1    0    0  501    0  0.00000000000E+00  0.00000000000E+00  0.75349572980E+03  0.75349572981E+03  0.50400001928E-02 0.  1.
       -1   -1    0    0    0  501  0.00000000000E+00  0.00000000000E+00 -0.40101422678E+03  0.40101422681E+03  0.50400001928E-02 0. -1.
    10030    2    1    2    0    0  0.00000000000E+00  0.00000000000E+00  0.35248150302E+03  0.11545099566E+04  0.10993862060E+04 0.  0.
        5    1    3    3  502    0  0.10428189114E+03  0.25481670799E+02 -0.38987788279E+03  0.40441424536E+03  0.46999998093E+01 0. -1.
       -5    1    3    3    0  502 -0.10428189114E+03 -0.25481670799E+02  0.74235938580E+03  0.75009571126E+03  0.46999998093E+01 0.  1.
</event>
<event>
 5   0  0.8305271E-04  0.1105107E+04  0.7818609E-02  0.9200228E-01
        1   -1    0    0  501    0  0.00000000000E+00  0.00000000000E+00  0.92248536093E+03  0.92248536094E+03  0.50400001928E-02 0.  1.
       -1   -1    0    0    0  501  0.00000000000E+00  0.00000000000E+00 -0.33097044787E+03  0.33097044791E+03  0.50400001928E-02 0. -1.
    10030    2    1    2    0    0  0.00000000000E+00  0.00000000000E+00  0.59151491306E+03  0.12534558088E+04  0.11051070411E+04 0.  0.
        5    1    3    3  502    0 -0.20449344972E+03  0.14830695294E+02  0.87771813440E+03  0.90135938113E+03  0.46999998093E+01 0.  1.
       -5    1    3    3    0  502  0.20449344972E+03 -0.14830695294E+02 -0.28620322134E+03  0.35209642771E+03  0.46999998093E+01 0. -1.
</event>
<event>
 5   0  0.1396936E-03  0.1101235E+04  0.7818609E-02  0.9203989E-01
        2   -1    0    0  501    0  0.00000000000E+00  0.00000000000E+00  0.37495237827E+03  0.37495237827E+03  0.25500000920E-02 0.  1.
       -2   -1    0    0    0  501  0.00000000000E+00  0.00000000000E+00 -0.80858109304E+03  0.80858109304E+03  0.25500000920E-02 0. -1.
    10030    2    1    2    0    0  0.00000000000E+00  0.00000000000E+00 -0.43362871477E+03  0.11835334713E+04  0.11012345869E+04 0.  0.
        2    1    3    3  502    0 -0.26756111626E+03 -0.65038323992E+02 -0.72927224279E+03  0.77952353308E+03  0.25500000920E-02 0. -1.
       -2    1    3    3    0  502  0.26756111626E+03  0.65038323992E+02  0.29564352802E+03  0.40400993823E+03  0.25500000920E-02 0.  1.
</event>
<event>
 5   0  0.8150924E-04  0.1033709E+04  0.7818609E-02  0.9272327E-01
        1   -1    0    0  501    0  0.00000000000E+00  0.00000000000E+00  0.10500459013E+04  0.10500459013E+04  0.50400001928E-02 0. -1.
       -1   -1    0    0    0  501  0.00000000000E+00  0.00000000000E+00 -0.25440651346E+03  0.25440651351E+03  0.50400001928E-02 0.  1.
    10030    2    1    2    0    0  0.00000000000E+00  0.00000000000E+00  0.79563938780E+03  0.13044524148E+04  0.10337088889E+04 0.  0.
        3    1    3    3  502    0  0.73041621011E+02  0.32459232452E+02  0.10421996223E+04  0.10452601317E+04  0.10100000352E+00 0. -1.
       -3    1    3    3    0  502 -0.73041621011E+02 -0.32459232452E+02 -0.24656023446E+03  0.25919228304E+03  0.10100000352E+00 0.  1.
</event>
<event>
 5   0  0.8305271E-04  0.1096637E+04  0.7818609E-02  0.9208476E-01
        1   -1    0    0  501    0  0.00000000000E+00  0.00000000000E+00  0.10251095418E+04  0.10251095418E+04  0.50400001928E-02 0.  1.
       -1   -1    0    0    0  501  0.00000000000E+00  0.00000000000E+00 -0.29328892669E+03  0.29328892673E+03  0.50400001928E-02 0. -1.
    10030    2    1    2    0    0  0.00000000000E+00  0.00000000000E+00  0.73182061510E+03  0.13183984685E+04  0.10966371821E+04 0.  0.
        5    1    3    3  502    0 -0.18494487230E+03  0.24771596915E+03  0.91032241976E+03  0.96139315844E+03  0.46999998093E+01 0.  1.
       -5    1    3    3    0  502  0.18494487230E+03 -0.24771596915E+03 -0.17850180467E+03  0.35700531009E+03  0.46999998093E+01 0. -1.
</event>
<event>
 5   0  0.5409500E-04  0.1100385E+04  0.7818609E-02  0.9204817E-01
       -4   -1    0    0    0  501  0.00000000000E+00  0.00000000000E+00  0.34006918487E+03  0.34007155629E+03  0.12699999809E+01 0. -1.
        4   -1    0    0  501    0  0.00000000000E+00  0.00000000000E+00 -0.89014114290E+03  0.89014204888E+03  0.12699999809E+01 0.  1.
    10030    2    1    2    0    0  0.00000000000E+00  0.00000000000E+00 -0.55007195802E+03  0.12302136052E+04  0.11003846397E+04 0.  0.
        2    1    3    3  502    0  0.28032991887E+03  0.31331998586E+03  0.12174212514E+03  0.43769329672E+03  0.25500000920E-02 0. -1.
       -2    1    3    3    0  502 -0.28032991887E+03 -0.31331998586E+03 -0.67181408317E+03  0.79252030845E+03  0.25500000920E-02 0.  1.
</event>
<event>
 5   0  0.1429680E-03  0.1100574E+04  0.7818609E-02  0.9204633E-01
        2   -1    0    0  501    0  0.00000000000E+00  0.00000000000E+00  0.86340551256E+03  0.86340551257E+03  0.25500000920E-02 0.  1.
       -2   -1    0    0    0  501  0.00000000000E+00  0.00000000000E+00 -0.35072248382E+03  0.35072248383E+03  0.25500000920E-02 0. -1.
    10030    2    1    2    0    0  0.00000000000E+00  0.00000000000E+00  0.51268302874E+03  0.12141279964E+04  0.11005738974E+04 0.  0.
        3    1    3    3  502    0  0.22262698645E+03 -0.10594767011E+03  0.79906435554E+03  0.83623653256E+03  0.10100000352E+00 0.  1.
       -3    1    3    3    0  502 -0.22262698645E+03  0.10594767011E+03 -0.28638132680E+03  0.37789146383E+03  0.10100000352E+00 0. -1.
</event>
<event>
 5   0  0.8305271E-04  0.1101703E+04  0.7818609E-02  0.9203534E-01
       -1   -1    0    0    0  501  0.00000000000E+00  0.00000000000E+00  0.80180450590E+03  0.80180450591E+03  0.50400001928E-02 0.  1.
        1   -1    0    0  501    0  0.00000000000E+00  0.00000000000E+00 -0.37844304088E+03  0.37844304091E+03  0.50400001928E-02 0. -1.
    10030    2    1    2    0    0  0.00000000000E+00  0.00000000000E+00  0.42336146502E+03  0.11802475468E+04  0.11017029281E+04 0.  0.
        5    1    3    3  502    0  0.82721214181E+02 -0.46094055226E+02  0.79299736356E+03  0.79864533418E+03  0.46999998093E+01 0.  1.
       -5    1    3    3    0  502 -0.82721214181E+02  0.46094055226E+02 -0.36963589854E+03  0.38160221264E+03  0.46999998093E+01 0. -1.
</event>
<event>
 5   0  0.1396936E-03  0.1099694E+04  0.7818609E-02  0.9205490E-01
       -2   -1    0    0    0  501  0.00000000000E+00  0.00000000000E+00  0.45831167229E+03  0.45831167230E+03  0.25500000920E-02 0.  1.
        2   -1    0    0  501    0  0.00000000000E+00  0.00000000000E+00 -0.65966440361E+03  0.65966440362E+03  0.25500000920E-02 0. -1.
    10030    2    1    2    0    0  0.00000000000E+00  0.00000000000E+00 -0.20135273132E+03  0.11179760759E+04  0.10996943138E+04 0.  0.
        2    1    3    3  502    0  0.13887287876E+03  0.45405961758E+03 -0.38255110302E+03  0.60975499933E+03  0.25500000920E-02 0. -1.
       -2    1    3    3    0  502 -0.13887287876E+03 -0.45405961758E+03  0.18119837169E+03  0.50822107659E+03  0.25500000920E-02 0.  1.
</event>
<event>
 5   0  0.8009636E-04  0.1100632E+04  0.7818609E-02  0.9204576E-01
        1   -1    0    0  501    0  0.00000000000E+00  0.00000000000E+00  0.54796152853E+03  0.54796152855E+03  0.50400001928E-02 0. -1.
       -1   -1    0    0    0  501  0.00000000000E+00  0.00000000000E+00 -0.55268054058E+03  0.55268054061E+03  0.50400001928E-02 0.  1.
    10030    2    1    2    0    0  0.00000000000E+00  0.00000000000E+00 -0.47190120583E+01  0.11006420692E+04  0.11006319527E+04 0.  0.
        1    1    3    3  502    0 -0.41441857434E+03  0.23633443752E+03 -0.27668109838E+03  0.55149719069E+03  0.50400001928E-02 0.  1.
       -1    1    3    3    0  502  0.41441857434E+03 -0.23633443752E+03  0.27196208632E+03  0.54914487846E+03  0.50400001928E-02 0. -1.
</event>
<event>
 5   0  0.5409500E-04  0.1096995E+04  0.7818609E-02  0.9208126E-01
        3   -1    0    0  501    0  0.00000000000E+00  0.00000000000E+00  0.15619378401E+04  0.15619378434E+04  0.10100000352E+00 0.  1.
       -3   -1    0    0    0  501  0.00000000000E+00  0.00000000000E+00 -0.19261289319E+03  0.19261291967E+03  0.10100000352E+00 0. -1.
    10030    2    1    2    0    0  0.00000000000E+00  0.00000000000E+00  0.13693249469E+04  0.17545507630E+04  0.10969947902E+04 0.  0.
        1    1    3    3  502    0  0.28147399352E+03 -0.17405567227E+03  0.13842609095E+04  0.14232713205E+04  0.50400001928E-02 0.  1.
       -1    1    3    3    0  502 -0.28147399352E+03  0.17405567227E+03 -0.14935962569E+02  0.33127944258E+03  0.50400001928E-02 0. -1.
</event>
<event>
 5   0  0.1429680E-03  0.1101942E+04  0.7818609E-02  0.9203301E-01
       -2   -1    0    0    0  501  0.00000000000E+00  0.00000000000E+00  0.43631224705E+03  0.43631224706E+03  0.25500000920E-02 0.  1.
        2   -1    0    0  501    0  0.00000000000E+00  0.00000000000E+00 -0.69576065417E+03  0.69576065418E+03  0.25500000920E-02 0. -1.
    10030    2    1    2    0    0  0.00000000000E+00  0.00000000000E+00 -0.25944840712E+03  0.11320729012E+04  0.11019417307E+04 0.  0.
        3    1    3    3  502    0 -0.68870113402E+02  0.41177745472E+03 -0.49908979892E+03  0.65068763806E+03  0.10100000352E+00 0. -1.
       -3    1    3    3    0  502  0.68870113402E+02 -0.41177745472E+03  0.23964139180E+03  0.48138526317E+03  0.10100000352E+00 0.  1.
</event>
<event>
 5   0  0.8341767E-04  0.1093567E+04  0.7818609E-02  0.9211484E-01
       -1   -1    0    0    0  501  0.00000000000E+00  0.00000000000E+00  0.36535365470E+03  0.36535365474E+03  0.50400001928E-02 0. -1.
        1   -1    0    0  501    0  0.00000000000E+00  0.00000000000E+00 -0.81830957359E+03  0.81830957361E+03  0.50400001928E-02 0.  1.
    10030    2    1    2    0    0  0.00000000000E+00  0.00000000000E+00 -0.45295591889E+03  0.11836632283E+04  0.10935673613E+04 0.  0.
        2    1    3    3  502    0  0.68625715681E+02  0.54118877373E+03 -0.26665210648E+03  0.60720517419E+03  0.25500000920E-02 0. -1.
       -2    1    3    3    0  502 -0.68625715681E+02 -0.54118877373E+03 -0.18630381241E+03  0.57645805415E+03  0.25500000920E-02 0.  1.
</event>
<event>
 5   0  0.8150924E-04  0.1097521E+04  0.7818609E-02  0.9207612E-01
        1   -1    0    0  501    0  0.00000000000E+00  0.00000000000E+00  0.51633466882E+03  0.51633466884E+03  0.50400001928E-02 0.  1.
       -1   -1    0    0    0  501  0.00000000000E+00  0.00000000000E+00 -0.58322230365E+03  0.58322230367E+03  0.50400001928E-02 0. -1.
    10030    2    1    2    0    0  0.00000000000E+00  0.00000000000E+00 -0.66887634828E+02  0.10995569725E+04  0.10975206513E+04 0.  0.
        3    1    3    3  502    0  0.97617492317E+01 -0.53536076323E+03 -0.15379766102E+03  0.55709978396E+03  0.10100000352E+00 0.  1.
       -3    1    3    3    0  502 -0.97617492317E+01  0.53536076323E+03  0.86910026191E+02  0.54245718855E+03  0.10100000352E+00 0. -1.
</event>
<event>
 5   0  0.8305271E-04  0.1099850E+04  0.7818609E-02  0.9205338E-01
        1   -1    0    0  501    0  0.00000000000E+00  0.00000000000E+00  0.73766240237E+03  0.73766240239E+03  0.50400001928E-02 0.  1.
       -1   -1    0    0    0  501  0.00000000000E+00  0.00000000000E+00 -0.40996759436E+03  0.40996759439E+03  0.50400001928E-02 0. -1.
    10030    2    1    2    0    0  0.00000000000E+00  0.00000000000E+00  0.32769480802E+03  0.11476299968E+04  0.10998503181E+04 0.  0.
        5    1    3    3  502    0  0.81878679639E+02 -0.89711162075E+02 -0.39577552226E+03  0.41402000532E+03  0.46999998093E+01 0. -1.
       -5    1    3    3    0  502 -0.81878679639E+02  0.89711162075E+02  0.72347033028E+03  0.73360999146E+03  0.46999998093E+01 0.  1.
</event>
<event>
 5   0  0.8341767E-04  0.1100824E+04  0.7818609E-02  0.9204389E-01
        1   -1    0    0  501    0  0.00000000000E+00  0.00000000000E+00  0.39782003470E+03  0.39782003474E+03  0.50400001928E-02 0. -1.
       -1   -1    0    0    0  501  0.00000000000E+00  0.00000000000E+00 -0.76153439188E+03  0.76153439190E+03  0.50400001928E-02 0.  1.
    10030    2    1    2    0    0  0.00000000000E+00  0.00000000000E+00 -0.36371435718E+03  0.11593544266E+04  0.11008244878E+04 0.  0.
        2    1    3    3  502    0 -0.27002362225E+03  0.13215797052E+03 -0.66743002462E+03  0.73201183291E+03  0.25500000920E-02 0.  1.
       -2    1    3    3    0  502  0.27002362225E+03 -0.13215797052E+03  0.30371566745E+03  0.42734259372E+03  0.25500000920E-02 0. -1.
</event>
<event>
 5   0  0.1372794E-03  0.1097460E+04  0.7818609E-02  0.9207671E-01
       -2   -1    0    0    0  501  0.00000000000E+00  0.00000000000E+00  0.47871274301E+03  0.47871274302E+03  0.25500000920E-02 0.  1.
        2   -1    0    0  501    0  0.00000000000E+00  0.00000000000E+00 -0.62898823571E+03  0.62898823571E+03  0.25500000920E-02 0. -1.
    10030    2    1    2    0    0  0.00000000000E+00  0.00000000000E+00 -0.15027549270E+03  0.11077009787E+04  0.10974601289E+04 0.  0.
        4    1    3    3  502    0  0.42178199618E+03  0.34882284470E+03 -0.11456168678E+03  0.55919891117E+03  0.12699999809E+01 0.  1.
       -4    1    3    3    0  502 -0.42178199618E+03 -0.34882284470E+03 -0.35713805917E+02  0.54850206756E+03  0.12699999809E+01 0. -1.
</event>
<event>
 5   0  0.7946038E-04  0.1129108E+04  0.7818609E-02  0.9177277E-01
        1   -1    0    0  501    0  0.00000000000E+00  0.00000000000E+00  0.10442912112E+04  0.10442912112E+04  0.50400001928E-02 0. -1.
       -1   -1    0    0    0  501  0.00000000000E+00  0.00000000000E+00 -0.30520345319E+03  0.30520345323E+03  0.50400001928E-02 0.  1.
    10030    2    1    2    0    0  0.00000000000E+00  0.00000000000E+00  0.73908775799E+03  0.13494946644E+04  0.11291081150E+04 0.  0.
        4    1    3    3  502    0  0.32633196741E+03 -0.18371004660E+03 -0.13538204411E+03  0.39821080466E+03  0.12699999809E+01 0.  1.
       -4    1    3    3    0  502 -0.32633196741E+03  0.18371004660E+03  0.87446980210E+03  0.95128385977E+03  0.12699999809E+01 0. -1.
</event>
<event>
 5   0  0.8150924E-04  0.1094450E+04  0.7818609E-02  0.9210618E-01
        1   -1    0    0  501    0  0.00000000000E+00  0.00000000000E+00  0.55447475577E+03  0.55447475580E+03  0.50400001928E-02 0. -1.
       -1   -1    0    0    0  501  0.00000000000E+00  0.00000000000E+00 -0.54007033123E+03  0.54007033126E+03  0.50400001928E-02 0.  1.
    10030    2    1    2    0    0  0.00000000000E+00  0.00000000000E+00  0.14404424542E+02  0.10945450871E+04  0.10944503004E+04 0.  0.
        3    1    3    3  502    0  0.41788053316E+03 -0.22128050447E+03 -0.26825975383E+03  0.54364741090E+03  0.10100000352E+00 0.  1.
       -3    1    3    3    0  502 -0.41788053316E+03  0.22128050447E+03  0.28266417837E+03  0.55089767615E+03  0.10100000352E+00 0. -1.
</event>
<event>
 5   0  0.5409500E-04  0.1095788E+04  0.7818609E-02  0.9209307E-01
        4   -1    0    0  501    0  0.00000000000E+00  0.00000000000E+00  0.16668197169E+03  0.16668680988E+03  0.12699999809E+01 0. -1.
       -4   -1    0    0    0  501  0.00000000000E+00  0.00000000000E+00 -0.18009310315E+04  0.18009314793E+04  0.12699999809E+01 0.  1.
    10030    2    1    2    0    0  0.00000000000E+00  0.00000000000E+00 -0.16342490598E+04  0.19676182892E+04  0.10957881832E+04 0.  0.
        1    1    3    3  502    0 -0.25982229396E+03 -0.37732990030E+03 -0.27753436824E+03  0.53564055455E+03  0.50400001928E-02 0. -1.
       -1    1    3    3    0  502  0.25982229396E+03  0.37732990030E+03 -0.13567146916E+04  0.14319777346E+04  0.50400001928E-02 0.  1.
</event>
<event>
 5   0  0.1425432E-03  0.1116236E+04  0.7818609E-02  0.9189510E-01
        2   -1    0    0  501    0  0.00000000000E+00  0.00000000000E+00  0.21947323293E+04  0.21947323293E+04  0.25500000920E-02 0.  1.
       -2   -1    0    0    0  501  0.00000000000E+00  0.00000000000E+00 -0.14192869076E+03  0.14192869079E+03  0.25500000920E-02 0. -1.
    10030    2    1    2    0    0  0.00000000000E+00  0.00000000000E+00  0.20528036385E+04  0.23366610201E+04  0.11162356133E+04 0.  0.
        1    1    3    3  502    0  0.31570926145E+03  0.21910091714E+03  0.18736693523E+04  0.19126720554E+04  0.50400001928E-02 0.  1.
       -1    1    3    3    0  502 -0.31570926145E+03 -0.21910091714E+03  0.17913428622E+03  0.42398896469E+03  0.50400001928E-02 0. -1.
</event>
<event>
 5   0  0.1429680E-03  0.1100572E+04  0.7818609E-02  0.9204634E-01
        2   -1    0    0  501    0  0.00000000000E+00  0.00000000000E+00  0.10848289985E+04  0.10848289985E+04  0.25500000920E-02 0. -1.
       -2   -1    0    0    0  501  0.00000000000E+00  0.00000000000E+00 -0.27913598987E+03  0.27913598988E+03  0.25500000920E-02 0.  1.
    10030    2    1    2    0    0  0.00000000000E+00  0.00000000000E+00  0.80569300865E+03  0.13639649884E+04  0.11005722445E+04 0.  0.
        3    1    3    3  502    0  0.90002070383E+01 -0.43825150765E+03 -0.94393938205E+01  0.43844554969E+03  0.10100000352E+00 0.  1.
       -3    1    3    3    0  502 -0.90002070383E+01  0.43825150765E+03  0.81513240247E+03  0.92551943871E+03  0.10100000352E+00 0. -1.
</event>
<event>
 5   0  0.1429680E-03  0.1109569E+04  0.7818609E-02  0.9195915E-01
       -2   -1    0    0    0  501  0.00000000000E+00  0.00000000000E+00  0.85330550414E+03  0.85330550414E+03  0.25500000920E-02 0. -1.
        2   -1    0    0  501    0  0.00000000000E+00  0.00000000000E+00 -0.36069829203E+03  0.36069829204E+03  0.25500000920E-02 0.  1.
    10030    2    1    2    0    0  0.00000000000E+00  0.00000000000E+00  0.49260721211E+03  0.12140037962E+04  0.11095689937E+04 0.  0.
        3    1    3    3  502    0  0.31752696735E+03 -0.10250888454E+03 -0.23864597907E+03  0.41022354873E+03  0.10100000352E+00 0.  1.
       -3    1    3    3    0  502 -0.31752696735E+03  0.10250888454E+03  0.73125319118E+03  0.80378024746E+03  0.10100000352E+00 0. -1.
</event>
<event>
 5   0  0.7946038E-04  0.1076269E+04  0.7818609E-02  0.9228635E-01
        1   -1    0    0  501    0  0.00000000000E+00  0.00000000000E+00  0.53847554472E+03  0.53847554474E+03  0.50400001928E-02 0. -1.
       -1   -1    0    0    0  501  0.00000000000E+00  0.00000000000E+00 -0.53779371030E+03  0.53779371033E+03  0.50400001928E-02 0.  1.
    10030    2    1    2    0    0  0.00000000000E+00  0.00000000000E+00  0.68183441669E+00  0.10762692551E+04  0.10762690391E+04 0.  0.
        4    1    3    3  502    0  0.39524134053E+03 -0.18843467652E+02 -0.36437322850E+03  0.53790357508E+03  0.12699999809E+01 0.  1.
       -4    1    3    3    0  502 -0.39524134053E+03  0.18843467652E+02  0.36505506291E+03  0.53836567999E+03  0.12699999809E+01 0. -1.
</event>
<event>
 5   0  0.1425432E-03  0.1098328E+04  0.7818609E-02  0.9206823E-01
        2   -1    0    0  501    0  0.00000000000E+00  0.00000000000E+00  0.62341195185E+03  0.62341195185E+03  0.25500000920E-02 0. -1.
       -2   -1    0    0    0  501  0.00000000000E+00  0.00000000000E+00 -0.48375858045E+03  0.48375858046E+03  0.25500000920E-02 0.  1.
    10030    2    1    2    0    0  0.00000000000E+00  0.00000000000E+00  0.13965337140E+03  0.11071705323E+04  0.10983276030E+04 0.  0.
        1    1    3    3  502    0  0.25273677406E+03  0.30993773013E+03  0.44921251861E+03  0.60143924084E+03  0.50400001928E-02 0. -1.
       -1    1    3    3    0  502 -0.25273677406E+03 -0.30993773013E+03 -0.30955914721E+03  0.50573129147E+03  0.50400001928E-02 0.  1.
</event>
<event>
 5   0  0.8341767E-04  0.1096820E+04  0.7818609E-02  0.9208296E-01
        1   -1    0    0  501    0  0.00000000000E+00  0.00000000000E+00  0.68814664288E+03  0.68814664290E+03  0.50400001928E-02 0.  1.
       -1   -1    0    0    0  501  0.00000000000E+00  0.00000000000E+00 -0.43704893622E+03  0.43704893625E+03  0.50400001928E-02 0. -1.
    10030    2    1    2    0    0  0.00000000000E+00  0.00000000000E+00  0.25109770666E+03  0.11251955792E+04  0.10968204197E+04 0.  0.
        2    1    3    3  502    0  0.22853392977E+03 -0.69027108493E+02  0.63204346860E+03  0.67562670534E+03  0.25500000920E-02 0.  1.
       -2    1    3    3    0  502 -0.22853392977E+03  0.69027108493E+02 -0.38094576194E+03  0.44956887382E+03  0.25500000920E-02 0. -1.
</event>
<event>
 5   0  0.8009636E-04  0.1079123E+04  0.7818609E-02  0.9225782E-01
       -1   -1    0    0    0  501  0.00000000000E+00  0.00000000000E+00  0.33020846145E+03  0.33020846149E+03  0.50400001928E-02 0.  1.
        1   -1    0    0  501    0  0.00000000000E+00  0.00000000000E+00 -0.88164559227E+03  0.88164559228E+03  0.50400001928E-02 0. -1.
    10030    2    1    2    0    0  0.00000000000E+00  0.00000000000E+00 -0.55143713081E+03  0.12118540538E+04  0.10791234120E+04 0.  0.
        1    1    3    3  502    0 -0.50976817568E+03  0.12726476807E+03 -0.13787342735E+03  0.54320253692E+03  0.50400001928E-02 0.  1.
       -1    1    3    3    0  502  0.50976817568E+03 -0.12726476807E+03 -0.41356370347E+03  0.66865151685E+03  0.50400001928E-02 0. -1.
</event>
<event>
 5   0  0.8305271E-04  0.1099867E+04  0.7818609E-02  0.9205322E-01
       -1   -1    0    0    0  501  0.00000000000E+00  0.00000000000E+00  0.87379285328E+03  0.87379285330E+03  0.50400001928E-02 0. -1.
        1   -1    0    0  501    0  0.00000000000E+00  0.00000000000E+00 -0.34610808967E+03  0.34610808970E+03  0.50400001928E-02 0.  1.
    10030    2    1    2    0    0  0.00000000000E+00  0.00000000000E+00  0.52768476362E+03  0.12199009430E+04  0.10998668560E+04 0.  0.
        5    1    3    3  502    0 -0.48719619184E+03  0.24817766975E+03  0.32901197572E+03  0.63814046673E+03  0.46999998093E+01 0. -1.
       -5    1    3    3    0  502  0.48719619184E+03 -0.24817766975E+03  0.19867278790E+03  0.58176047628E+03  0.46999998093E+01 0.  1.
</event>
<event>
 5   0  0.1396936E-03  0.1100139E+04  0.7818609E-02  0.9205057E-01
        2   -1    0    0  501    0  0.00000000000E+00  0.00000000000E+00  0.76529245873E+03  0.76529245873E+03  0.25500000920E-02 0. -1.
       -2   -1    0    0    0  501  0.00000000000E+00  0.00000000000E+00 -0.39537328597E+03  0.39537328598E+03  0.25500000920E-02 0.  1.
    10030    2    1    2    0    0  0.00000000000E+00  0.00000000000E+00  0.36991917275E+03  0.11606657447E+04  0.11001385261E+04 0.  0.
        2    1    3    3  502    0  0.30082306719E+03  0.43668312205E+03  0.30661554347E+02  0.53115609547E+03  0.25500000920E-02 0.  1.
       -2    1    3    3    0  502 -0.30082306719E+03 -0.43668312205E+03  0.33925761840E+03  0.62950964924E+03  0.25500000920E-02 0. -1.
</event>
<event>
 5   0  0.1425432E-03  0.1098673E+04  0.7818609E-02  0.9206487E-01
        2   -1    0    0  501    0  0.00000000000E+00  0.00000000000E+00  0.11385694099E+04  0.11385694099E+04  0.25500000920E-02 0.  1.
       -2   -1    0    0    0  501  0.00000000000E+00  0.00000000000E+00 -0.26504349934E+03  0.26504349935E+03  0.25500000920E-02 0. -1.
    10030    2    1    2    0    0  0.00000000000E+00  0.00000000000E+00  0.87352591059E+03  0.14036129093E+04  0.10986726913E+04 0.  0.
        1    1    3    3  502    0  0.51988449647E+03  0.12498781595E+03  0.27582887835E+03  0.60165057464E+03  0.50400001928E-02 0. -1.
       -1    1    3    3    0  502 -0.51988449647E+03 -0.12498781595E+03  0.59769703224E+03  0.80196233464E+03  0.50400001928E-02 0.  1.
</event>
<event>
 5   0  0.1402775E-03  0.1135155E+04  0.7818609E-02  0.9171589E-01
       -2   -1    0    0    0  501  0.00000000000E+00  0.00000000000E+00  0.30543700817E+03  0.30543700818E+03  0.25500000920E-02 0. -1.
        2   -1    0    0  501    0  0.00000000000E+00  0.00000000000E+00 -0.10546991083E+04  0.10546991083E+04  0.25500000920E-02 0.  1.
    10030    2    1    2    0    0  0.00000000000E+00  0.00000000000E+00 -0.74926210013E+03  0.13601361165E+04  0.11351548620E+04 0.  0.
        5    1    3    3  502    0  0.22998913744E+03  0.35914339215E+03  0.74081240534E+02  0.43288462627E+03  0.46999998093E+01 0. -1.
       -5    1    3    3    0  502 -0.22998913744E+03 -0.35914339215E+03 -0.82334334067E+03  0.92725149020E+03  0.46999998093E+01 0.  1.
</event>
<event>
 5   0  0.5409500E-04  0.1102035E+04  0.7818609E-02  0.9203210E-01
       -3   -1    0    0    0  501  0.00000000000E+00  0.00000000000E+00  0.62100752681E+03  0.62100753503E+03  0.10100000352E+00 0.  1.
        3   -1    0    0  501    0  0.00000000000E+00  0.00000000000E+00 -0.48891601555E+03  0.48891602598E+03  0.10100000352E+00 0. -1.
    10030    2    1    2    0    0  0.00000000000E+00  0.00000000000E+00  0.13209151126E+03  0.11099235610E+04  0.11020354549E+04 0.  0.
        4    1    3    3  502    0  0.29050735658E+03 -0.39910688992E+03  0.31262070391E+03  0.58430655586E+03  0.12699999809E+01 0.  1.
       -4    1    3    3    0  502 -0.29050735658E+03  0.39910688992E+03 -0.18052919265E+03  0.52561700515E+03  0.12699999809E+01 0. -1.
</event>
<event>
 5   0  0.5409500E-04  0.1105236E+04  0.7818609E-02  0.9200103E-01
       -4   -1    0    0    0  501  0.00000000000E+00  0.00000000000E+00  0.59848684762E+03  0.59848819510E+03  0.12699999809E+01 0.  1.
        4   -1    0    0  501    0  0.00000000000E+00  0.00000000000E+00 -0.51026207239E+03  0.51026365285E+03  0.12699999809E+01 0. -1.
    10030    2    1    2    0    0  0.00000000000E+00  0.00000000000E+00  0.88224775227E+02  0.11087518480E+04  0.11052361962E+04 0.  0.
        4    1    3    3  502    0 -0.21287057171E+03 -0.39143347624E+03 -0.28380825898E+03  0.52828286683E+03  0.12699999809E+01 0. -1.
       -4    1    3    3    0  502  0.21287057171E+03  0.39143347624E+03  0.37203303420E+03  0.58046898113E+03  0.12699999809E+01 0.  1.
</event>
<event>
 5   0  0.1372794E-03  0.1099203E+04  0.7818609E-02  0.9205969E-01
        2   -1    0    0  501    0  0.00000000000E+00  0.00000000000E+00  0.61783960815E+03  0.61783960816E+03  0.25500000920E-02 0.  1.
       -2   -1    0    0    0  501  0.00000000000E+00  0.00000000000E+00 -0.48889974365E+03  0.48889974366E+03  0.25500000920E-02 0. -1.
    10030    2    1    2    0    0  0.00000000000E+00  0.00000000000E+00  0.12893986450E+03  0.11067393518E+04  0.10992026675E+04 0.  0.
        4    1    3    3  502    0  0.43909914065E+03 -0.31970946494E+03 -0.19996962442E+02  0.54352892168E+03  0.12699999809E+01 0.  1.
       -4    1    3    3    0  502 -0.43909914065E+03  0.31970946494E+03  0.14893682694E+03  0.56321043014E+03  0.12699999809E+01 0. -1.
</event>
<event>
 5   0  0.1425432E-03  0.1095634E+04  0.7818609E-02  0.9209458E-01
        2   -1    0    0  501    0  0.00000000000E+00  0.00000000000E+00  0.15289115267E+04  0.15289115267E+04  0.25500000920E-02 0.  1.
       -2   -1    0    0    0  501  0.00000000000E+00  0.00000000000E+00 -0.19628553359E+03  0.19628553361E+03  0.25500000920E-02 0. -1.
    10030    2    1    2    0    0  0.00000000000E+00  0.00000000000E+00  0.13326259931E+04  0.17251970603E+04  0.10956335425E+04 0.  0.
        1    1    3    3  502    0 -0.14451880085E+03 -0.13274205260E+03  0.14716725867E+04  0.14846973897E+04  0.50400001928E-02 0.  1.
       -1    1    3    3    0  502  0.14451880085E+03  0.13274205260E+03 -0.13904659366E+03  0.24049967061E+03  0.50400001928E-02 0. -1.
</event>
<event>
 5   0  0.7946038E-04  0.1101761E+04  0.7818609E-02  0.9203478E-01
        1   -1    0    0  501    0  0.00000000000E+00  0.00000000000E+00  0.13272460215E+04  0.13272460215E+04  0.50400001928E-02 0.  1.
       -1   -1    0    0    0  501  0.00000000000E+00  0.00000000000E+00 -0.22864567732E+03  0.22864567737E+03  0.50400001928E-02 0. -1.
    10030    2    1    2    0    0  0.00000000000E+00  0.00000000000E+00  0.10986003441E+04  0.15558916988E+04  0.11017605286E+04 0.  0.
        4    1    3    3  502    0 -0.30796381682E+03 -0.43510697696E+03  0.35307398621E+03  0.63939240417E+03  0.12699999809E+01 0. -1.
       -4    1    3    3    0  502  0.30796381682E+03  0.43510697696E+03  0.74552635793E+03  0.91649929468E+03  0.12699999809E+01 0.  1.
</event>
<event>
 5   0  0.8305271E-04  0.1099057E+04  0.7818609E-02  0.9206112E-01
        1   -1    0    0  501    0  0.00000000000E+00  0.00000000000E+00  0.59889119116E+03  0.59889119118E+03  0.50400001928E-02 0. -1.
       -1   -1    0    0    0  501  0.00000000000E+00  0.00000000000E+00 -0.50423407816E+03  0.50423407819E+03  0.50400001928E-02 0.  1.
    10030    2    1    2    0    0  0.00000000000E+00  0.00000000000E+00  0.94657112996E+02  0.11031252694E+04  0.10990565913E+04 0.  0.
        5    1    3    3  502    0 -0.44211826006E+02 -0.11872236562E+03  0.58401314683E+03  0.59761453406E+03  0.46999998093E+01 0. -1.
       -5    1    3    3    0  502  0.44211826006E+02  0.11872236562E+03 -0.48935603383E+03  0.50551073530E+03  0.46999998093E+01 0.  1.
</event>
<event>
 5   0  0.1402775E-03  0.1100949E+04  0.7818609E-02  0.9204268E-01
        2   -1    0    0  501    0  0.00000000000E+00  0.00000000000E+00  0.83763662844E+03  0.83763662844E+03  0.25500000920E-02 0.  1.
       -2   -1    0    0    0  501  0.00000000000E+00  0.00000000000E+00 -0.36175830378E+03  0.36175830378E+03  0.25500000920E-02 0. -1.
    10030    2    1    2    0    0  0.00000000000E+00  0.00000000000E+00  0.47587832466E+03  0.11993949322E+04  0.11009486925E+04 0.  0.
        5    1    3    3  502    0 -0.10231463690E+03 -0.35284614552E+03  0.68450976537E+03  0.77688119827E+03  0.46999998093E+01 0.  1.
       -5    1    3    3    0  502  0.10231463690E+03  0.35284614552E+03 -0.20863144071E+03  0.42251373396E+03  0.46999998093E+01 0. -1.
</event>
<event>
 5   0  0.1402775E-03  0.1099432E+04  0.7818609E-02  0.9205746E-01
       -2   -1    0    0    0  501  0.00000000000E+00  0.00000000000E+00  0.25799922328E+03  0.25799922329E+03  0.25500000920E-02 0.  1.
        2   -1    0    0  501    0  0.00000000000E+00  0.00000000000E+00 -0.11712732851E+04  0.11712732851E+04  0.25500000920E-02 0. -1.
    10030    2    1    2    0    0  0.00000000000E+00  0.00000000000E+00 -0.91327406187E+03  0.14292725084E+04  0.10994318493E+04 0.  0.
        5    1    3    3  502    0  0.19818325602E+03 -0.17483071779E+02  0.20952554910E+03  0.28897284732E+03  0.46999998093E+01 0.  1.
       -5    1    3    3    0  502 -0.19818325602E+03  0.17483071779E+02 -0.11227996110E+04  0.11402996611E+04  0.46999998093E+01 0. -1.
</event>
<event>
 5   0  0.1402775E-03  0.1101564E+04  0.7818609E-02  0.9203669E-01
        2   -1    0    0  501    0  0.00000000000E+00  0.00000000000E+00  0.84290884242E+03  0.84290884243E+03  0.25500000920E-02 0.  1.
       -2   -1    0    0    0  501  0.00000000000E+00  0.00000000000E+00 -0.35989767479E+03  0.35989767480E+03  0.25500000920E-02 0. -1.
    10030    2    1    2    0    0  0.00000000000E+00  0.00000000000E+00  0.48301116763E+03  0.12028065172E+04  0.11015642196E+04 0.  0.
        5    1    3    3  502    0 -0.14216599418E+03  0.19956279160E+03 -0.29708544683E+03  0.38512118925E+03  0.46999998093E+01 0. -1.
       -5    1    3    3    0  502  0.14216599418E+03 -0.19956279160E+03  0.78009661446E+03  0.81768532797E+03  0.46999998093E+01 0.  1.
</event>
<event>
 5   0  0.1372794E-03  0.1097592E+04  0.7818609E-02  0.9207542E-01
        2   -1    0    0  501    0  0.00000000000E+00  0.00000000000E+00  0.81106251880E+03  0.81106251880E+03  0.25500000920E-02 0.  1.
       -2   -1    0    0    0  501  0.00000000000E+00  0.00000000000E+00 -0.37133671056E+03  0.37133671057E+03  0.25500000920E-02 0. -1.
    10030    2    1    2    0    0  0.00000000000E+00  0.00000000000E+00  0.43972580824E+03  0.11823992294E+04  0.10975924340E+04 0.  0.
        4    1    3    3  502    0 -0.27651002996E+03  0.29610973872E+02  0.72953741923E+03  0.78074391794E+03  0.12699999809E+01 0.  1.
       -4    1    3    3    0  502  0.27651002996E+03 -0.29610973872E+02 -0.28981161099E+03  0.40165531144E+03  0.12699999809E+01 0. -1.
</event>
<event>
 5   0  0.1372794E-03  0.1099911E+04  0.7818609E-02  0.9205279E-01
        2   -1    0    0  501    0  0.00000000000E+00  0.00000000000E+00  0.80940552897E+03  0.80940552898E+03  0.25500000920E-02 0.  1.
       -2   -1    0    0    0  501  0.00000000000E+00  0.00000000000E+00 -0.37367042232E+03  0.37367042233E+03  0.25500000920E-02 0. -1.
    10030    2    1    2    0    0  0.00000000000E+00  0.00000000000E+00  0.43573510665E+03  0.11830759513E+04  0.10999107343E+04 0.  0.
        4    1    3    3  502    0  0.49517047055E+02 -0.46681791475E+03 -0.90287716497E+02  0.47804224513E+03  0.12699999809E+01 0. -1.
       -4    1    3    3    0  502 -0.49517047055E+02  0.46681791475E+03  0.52602282315E+03  0.70503370618E+03  0.12699999809E+01 0.  1.
</event>
<event>
 5   0  0.8305271E-04  0.1098091E+04  0.7818609E-02  0.9207055E-01
        1   -1    0    0  501    0  0.00000000000E+00  0.00000000000E+00  0.10430904412E+04  0.10430904412E+04  0.50400001928E-02 0.  1.
       -1   -1    0    0    0  501  0.00000000000E+00  0.00000000000E+00 -0.28899771051E+03  0.28899771055E+03  0.50400001928E-02 0. -1.
    10030    2    1    2    0    0  0.00000000000E+00  0.00000000000E+00  0.75409273069E+03  0.13320881518E+04  0.10980906145E+04 0.  0.
        5    1    3    3  502    0 -0.27765238893E+03  0.10148160171E+03 -0.18418449259E+03  0.34833228658E+03  0.46999998093E+01 0. -1.
       -5    1    3    3    0  502  0.27765238893E+03 -0.10148160171E+03  0.93827722328E+03  0.98375586518E+03  0.46999998093E+01 0.  1.
</event>
<event>
 5   0  0.1429680E-03  0.1105714E+04  0.7818609E-02  0.9199641E-01
        2   -1    0    0  501    0  0.00000000000E+00  0.00000000000E+00  0.47217695564E+03  0.47217695565E+03  0.25500000920E-02 0.  1.
       -2   -1    0    0    0  501  0.00000000000E+00  0.00000000000E+00 -0.64732234320E+03  0.64732234321E+03  0.25500000920E-02 0. -1.
    10030    2    1    2    0    0  0.00000000000E+00  0.00000000000E+00 -0.17514538757E+03  0.11194992989E+04  0.11057136941E+04 0.  0.
        3    1    3    3  502    0 -0.22194437288E+01 -0.18148635095E+03 -0.61629842238E+03  0.64246865849E+03  0.10100000352E+00 0. -1.
       -3    1    3    3    0  502  0.22194437288E+01  0.18148635095E+03  0.44115303482E+03  0.47703064036E+03  0.10100000352E+00 0.  1.
</event>
<event>
 5   0  0.1396936E-03  0.1100283E+04  0.7818609E-02  0.9204916E-01
        2   -1    0    0  501    0  0.00000000000E+00  0.00000000000E+00  0.50790208614E+03  0.50790208614E+03  0.25500000920E-02 0.  1.
       -2   -1    0    0    0  501  0.00000000000E+00  0.00000000000E+00 -0.59589329431E+03  0.59589329432E+03  0.25500000920E-02 0. -1.
    10030    2    1    2    0    0  0.00000000000E+00  0.00000000000E+00 -0.87991208175E+02  0.11037953805E+04  0.11002825952E+04 0.  0.
        2    1    3    3  502    0  0.18656208647E+03 -0.13832574450E+03 -0.54430218081E+03  0.59178060777E+03  0.25500000920E-02 0. -1.
       -2    1    3    3    0  502 -0.18656208647E+03  0.13832574450E+03  0.45631097263E+03  0.51201477269E+03  0.25500000920E-02 0.  1.
</event>
<event>
 5   0  0.8009636E-04  0.1025877E+04  0.7818609E-02  0.9280610E-01
        1   -1    0    0  501    0  0.00000000000E+00  0.00000000000E+00  0.10773455177E+04  0.10773455178E+04  0.50400001928E-02 0. -1.
       -1   -1    0    0    0  501  0.00000000000E+00  0.00000000000E+00 -0.24421695640E+03  0.24421695646E+03  0.50400001928E-02 0.  1.
    10030    2    1    2    0    0  0.00000000000E+00  0.00000000000E+00  0.83312856134E+03  0.13215624742E+04  0.10258772702E+04 0.  0.
        1    1    3    3  502    0 -0.81344471346E+02  0.17489750098E+02 -0.23546580993E+03  0.24973378235E+03  0.50400001928E-02 0.  1.
       -1    1    3    3    0  502  0.81344471346E+02 -0.17489750098E+02  0.10685943713E+04  0.10718286919E+04  0.50400001928E-02 0. -1.
</event>
<event>
 5   0  0.1402775E-03  0.1101890E+04  0.7818609E-02  0.9203351E-01
       -2   -1    0    0    0  501  0.00000000000E+00  0.00000000000E+00  0.28246460399E+03  0.28246460400E+03  0.25500000920E-02 0. -1.
        2   -1    0    0  501    0  0.00000000000E+00  0.00000000000E+00 -0.10746148467E+04  0.10746148467E+04  0.25500000920E-02 0.  1.
    10030    2    1    2    0    0  0.00000000000E+00  0.00000000000E+00 -0.79215024275E+03  0.13570794507E+04  0.11018904794E+04 0.  0.
        5    1    3    3  502    0  0.13524103937E+02  0.31301776170E+03 -0.95418545337E+03  0.10043181717E+04  0.46999998093E+01 0.  1.
       -5    1    3    3    0  502 -0.13524103937E+02 -0.31301776170E+03  0.16203521062E+03  0.35276127906E+03  0.46999998093E+01 0. -1.
</event>
<event>
 5   0  0.1396936E-03  0.1098657E+04  0.7818609E-02  0.9206502E-01
       -2   -1    0    0    0  501  0.00000000000E+00  0.00000000000E+00  0.47663564484E+03  0.47663564485E+03  0.25500000920E-02 0. -1.
        2   -1    0    0  501    0  0.00000000000E+00  0.00000000000E+00 -0.63310760086E+03  0.63310760087E+03  0.25500000920E-02 0.  1.
    10030    2    1    2    0    0  0.00000000000E+00  0.00000000000E+00 -0.15647195602E+03  0.11097432457E+04  0.10986567245E+04 0.  0.
        2    1    3    3  502    0  0.20974262314E+03  0.49399110516E+03  0.40175250112E+02  0.53817583620E+03  0.25500000920E-02 0. -1.
       -2    1    3    3    0  502 -0.20974262314E+03 -0.49399110516E+03 -0.19664720613E+03  0.57156740952E+03  0.25500000920E-02 0.  1.
</event>
<event>
 5   0  0.8009636E-04  0.1094539E+04  0.7818609E-02  0.9210531E-01
       -1   -1    0    0    0  501  0.00000000000E+00  0.00000000000E+00  0.53360688976E+03  0.53360688978E+03  0.50400001928E-02 0.  1.
        1   -1    0    0  501    0  0.00000000000E+00  0.00000000000E+00 -0.56128233332E+03  0.56128233334E+03  0.50400001928E-02 0. -1.
    10030    2    1    2    0    0  0.00000000000E+00  0.00000000000E+00 -0.27675443564E+02  0.10948892231E+04  0.10945393920E+04 0.  0.
        1    1    3    3  502    0  0.18440991674E+03  0.27849073217E+03  0.41982132737E+03  0.53648304003E+03  0.50400001928E-02 0.  1.
       -1    1    3    3    0  502 -0.18440991674E+03 -0.27849073217E+03 -0.44749677093E+03  0.55840618310E+03  0.50400001928E-02 0. -1.
</event>
<event>
 5   0  0.1402775E-03  0.1099893E+04  0.7818609E-02  0.9205296E-01
       -2   -1    0    0    0  501  0.00000000000E+00  0.00000000000E+00  0.16773919887E+03  0.16773919889E+03  0.25500000920E-02 0.  1.
        2   -1    0    0  501    0  0.00000000000E+00  0.00000000000E+00 -0.18030455755E+04  0.18030455755E+04  0.25500000920E-02 0. -1.
    10030    2    1    2    0    0  0.00000000000E+00  0.00000000000E+00 -0.16353063766E+04  0.19707847743E+04  0.10998934864E+04 0.  0.
        5    1    3    3  502    0 -0.31820612844E+03 -0.58947059594E+01 -0.16212281445E+04  0.16521781606E+04  0.46999998093E+01 0. -1.
       -5    1    3    3    0  502  0.31820612844E+03  0.58947059594E+01 -0.14078232098E+02  0.31860661379E+03  0.46999998093E+01 0.  1.
</event>
<event>
 5   0  0.1402775E-03  0.1118874E+04  0.7818609E-02  0.9186989E-01
       -2   -1    0    0    0  501  0.00000000000E+00  0.00000000000E+00  0.36783632091E+03  0.36783632092E+03  0.25500000920E-02 0.  1.
        2   -1    0    0  501    0  0.00000000000E+00  0.00000000000E+00 -0.85083948228E+03  0.85083948228E+03  0.25500000920E-02 0. -1.
    10030    2    1    2    0    0  0.00000000000E+00  0.00000000000E+00 -0.48300316136E+03  0.12186758032E+04  0.11188738353E+04 0.  0.
        5    1    3    3  502    0 -0.28845154317E+03 -0.45836348386E+03 -0.39416899039E+03  0.66984525009E+03  0.46999998093E+01 0. -1.
       -5    1    3    3    0  502  0.28845154317E+03  0.45836348386E+03 -0.88834170974E+02  0.54883055311E+03  0.46999998093E+01 0.  1.
</event>
<event>
 5   0  0.1429680E-03  0.1105883E+04  0.7818609E-02  0.9199477E-01
        2   -1    0    0  501    0  0.00000000000E+00  0.00000000000E+00  0.32147234470E+03  0.32147234471E+03  0.25500000920E-02 0.  1.
       -2   -1    0    0    0  501  0.00000000000E+00  0.00000000000E+00 -0.95107508513E+03  0.95107508513E+03  0.25500000920E-02 0. -1.
    10030    2    1    2    0    0  0.00000000000E+00  0.00000000000E+00 -0.62960274043E+03  0.12725474298E+04  0.11058830636E+04 0.  0.
        3    1    3    3  502    0 -0.29431325740E+03 -0.40260270933E+01  0.22383256944E+03  0.36978038309E+03  0.10100000352E+00 0.  1.
       -3    1    3    3    0  502  0.29431325740E+03  0.40260270933E+01 -0.85343530987E+03  0.90276704675E+03  0.10100000352E+00 0. -1.
</event>
<event>
 5   0  0.5409500E-04  0.1097863E+04  0.7818609E-02  0.9207278E-01
       -4   -1    0    0    0  501  0.00000000000E+00  0.00000000000E+00  0.38854339881E+03  0.38854547438E+03  0.12699999809E+01 0.  1.
        4   -1    0    0  501    0  0.00000000000E+00  0.00000000000E+00 -0.77552148883E+03  0.77552252871E+03  0.12699999809E+01 0. -1.
    10030    2    1    2    0    0  0.00000000000E+00  0.00000000000E+00 -0.38697809002E+03  0.11640680031E+04  0.10978625933E+04 0.  0.
        5    1    3    3  502    0  0.39161431520E+03 -0.15177128652E+03 -0.56822388398E+03  0.70660934582E+03  0.46999998093E+01 0. -1.
       -5    1    3    3    0  502 -0.39161431520E+03  0.15177128652E+03  0.18124579396E+03  0.45745865727E+03  0.46999998093E+01 0.  1.
</event>
<event>
 5   0  0.8305271E-04  0.1103821E+04  0.7818609E-02  0.9201476E-01
       -1   -1    0    0    0  501  0.00000000000E+00  0.00000000000E+00  0.10570290975E+03  0.10570290987E+03  0.50400001928E-02 0. -1.
        1   -1    0    0  501    0  0.00000000000E+00  0.00000000000E+00 -0.28817080519E+04  0.28817080519E+04  0.50400001928E-02 0.  1.
    10030    2    1    2    0    0  0.00000000000E+00  0.00000000000E+00 -0.27760051421E+04  0.29874109618E+04  0.11038205041E+04 0.  0.
        5    1    3    3  502    0  0.21831569797E+03  0.34054336822E+02 -0.27567206657E+04  0.27655654685E+04  0.46999998093E+01 0.  1.
       -5    1    3    3    0  502 -0.21831569797E+03 -0.34054336822E+02 -0.19284476389E+02  0.22184549322E+03  0.46999998093E+01 0. -1.
</event>
<event>
 5   0  0.1396936E-03  0.1098839E+04  0.7818609E-02  0.9206324E-01
       -2   -1    0    0    0  501  0.00000000000E+00  0.00000000000E+00  0.51333751140E+03  0.51333751141E+03  0.25500000920E-02 0.  1.
        2   -1    0    0  501    0  0.00000000000E+00  0.00000000000E+00 -0.58803735926E+03  0.58803735927E+03  0.25500000920E-02 0. -1.
    10030    2    1    2    0    0  0.00000000000E+00  0.00000000000E+00 -0.74699847858E+02  0.11013748707E+04  0.10988387227E+04 0.  0.
        2    1    3    3  502    0 -0.49843222522E+03  0.21781051129E+03  0.40194863548E+02  0.54542802369E+03  0.25500000920E-02 0. -1.
       -2    1    3    3    0  502  0.49843222522E+03 -0.21781051129E+03 -0.11489471141E+03  0.55594684699E+03  0.25500000920E-02 0.  1.
</event>
<event>
 5   0  0.1425432E-03  0.1091042E+04  0.7818609E-02  0.9213967E-01
       -2   -1    0    0    0  501  0.00000000000E+00  0.00000000000E+00  0.59428291723E+03  0.59428291724E+03  0.25500000920E-02 0. -1.
        2   -1    0    0  501    0  0.00000000000E+00  0.00000000000E+00 -0.50075995048E+03  0.50075995049E+03  0.25500000920E-02 0.  1.
    10030    2    1    2    0    0  0.00000000000E+00  0.00000000000E+00  0.93522966751E+02  0.10950428677E+04  0.10910418584E+04 0.  0.
        1    1    3    3  502    0  0.43576191405E+03 -0.65517809674E+02  0.36951820269E+03  0.57508671630E+03  0.50400001928E-02 0. -1.
       -1    1    3    3    0  502 -0.43576191405E+03  0.65517809674E+02 -0.27599523594E+03  0.51995615142E+03  0.50400001928E-02 0.  1.
</event>
<event>
 5   0  0.8341767E-04  0.1103409E+04  0.7818609E-02  0.9201876E-01
       -1   -1    0    0    0  501  0.00000000000E+00  0.00000000000E+00  0.17640763291E+03  0.17640763298E+03  0.50400001928E-02 0.  1.
        1   -1    0    0  501    0  0.00000000000E+00  0.00000000000E+00 -0.17254221972E+04  0.17254221972E+04  0.50400001928E-02 0. -1.
    10030    2    1    2    0    0  0.00000000000E+00  0.00000000000E+00 -0.15490145643E+04  0.19018298302E+04  0.11034086200E+04 0.  0.
        2    1    3    3  502    0 -0.20193398390E+03  0.14532158230E+03  0.74233342740E+02  0.25962720450E+03  0.25500000920E-02 0.  1.
       -2    1    3    3    0  502  0.20193398390E+03 -0.14532158230E+03 -0.16232479070E+04  0.16422026257E+04  0.25500000920E-02 0. -1.
</event>
<event>
 5   0  0.8150924E-04  0.1098285E+04  0.7818609E-02  0.9206865E-01
       -1   -1    0    0    0  501  0.00000000000E+00  0.00000000000E+00  0.29012652074E+03  0.29012652078E+03  0.50400001928E-02 0.  1.
        1   -1    0    0  501    0  0.00000000000E+00  0.00000000000E+00 -0.10394005102E+04  0.10394005102E+04  0.50400001928E-02 0. -1.
    10030    2    1    2    0    0  0.00000000000E+00  0.00000000000E+00 -0.74927398949E+03  0.13295270310E+04  0.10982853067E+04 0.  0.
        3    1    3    3  502    0  0.44456305935E+03  0.31600041449E+03 -0.29745501821E+03  0.62126650783E+03  0.10100000352E+00 0. -1.
       -3    1    3    3    0  502 -0.44456305935E+03 -0.31600041449E+03 -0.45181897127E+03  0.70826052319E+03  0.10100000352E+00 0.  1.
</event>
<event>
 5   0  0.1396936E-03  0.1106460E+04  0.7818609E-02  0.9198919E-01
       -2   -1    0    0    0  501  0.00000000000E+00  0.00000000000E+00  0.24635429223E+03  0.24635429225E+03  0.25500000920E-02 0. -1.
        2   -1    0    0  501    0  0.00000000000E+00  0.00000000000E+00 -0.12423701585E+04  0.12423701585E+04  0.25500000920E-02 0.  1.
    10030    2    1    2    0    0  0.00000000000E+00  0.00000000000E+00 -0.99601586627E+03  0.14887244508E+04  0.11064596172E+04 0.  0.
        2    1    3    3  502    0 -0.36551232071E+03 -0.23344303372E+03 -0.96013503677E+03  0.10535436372E+04  0.25500000920E-02 0.  1.
       -2    1    3    3    0  502  0.36551232071E+03  0.23344303372E+03 -0.35880829500E+02  0.43518081358E+03  0.25500000920E-02 0. -1.
</event>
<event>
 5   0  0.8009636E-04  0.1107008E+04  0.7818609E-02  0.9198388E-01
        1   -1    0    0  501    0  0.00000000000E+00  0.00000000000E+00  0.38600249490E+03  0.38600249493E+03  0.50400001928E-02 0. -1.
       -1   -1    0    0    0  501  0.00000000000E+00  0.00000000000E+00 -0.79369149915E+03  0.79369149916E+03  0.50400001928E-02 0.  1.
    10030    2    1    2    0    0  0.00000000000E+00  0.00000000000E+00 -0.40768900425E+03  0.11796939941E+04  0.11070083990E+04 0.  0.
        1    1    3    3  502    0 -0.52108780191E+03  0.93819728959E+02 -0.37578349920E+03  0.64926718471E+03  0.50400001928E-02 0.  1.
       -1    1    3    3    0  502  0.52108780191E+03 -0.93819728959E+02 -0.31905505048E+02  0.53042680939E+03  0.50400001928E-02 0. -1.
</event>
<event>
 5   0  0.8009636E-04  0.1098041E+04  0.7818609E-02  0.9207104E-01
       -1   -1    0    0    0  501  0.00000000000E+00  0.00000000000E+00  0.21209573397E+03  0.21209573403E+03  0.50400001928E-02 0. -1.
        1   -1    0    0  501    0  0.00000000000E+00  0.00000000000E+00 -0.14211660876E+04  0.14211660876E+04  0.50400001928E-02 0.  1.
    10030    2    1    2    0    0  0.00000000000E+00  0.00000000000E+00 -0.12090703536E+04  0.16332618216E+04  0.10980405539E+04 0.  0.
        1    1    3    3  502    0  0.14067266213E+03  0.17150632092E+00  0.18483426320E+03  0.23227684380E+03  0.50400001928E-02 0. -1.
       -1    1    3    3    0  502 -0.14067266213E+03 -0.17150632092E+00 -0.13939046168E+04  0.14009849778E+04  0.50400001928E-02 0.  1.
</event>
<event>
 5   0  0.8341767E-04  0.1090601E+04  0.7818609E-02  0.9214401E-01
       -1   -1    0    0    0  501  0.00000000000E+00  0.00000000000E+00  0.17221650182E+03  0.17221650189E+03  0.50400001928E-02 0. -1.
        1   -1    0    0  501    0  0.00000000000E+00  0.00000000000E+00 -0.17266214731E+04  0.17266214731E+04  0.50400001928E-02 0.  1.
    10030    2    1    2    0    0  0.00000000000E+00  0.00000000000E+00 -0.15544049712E+04  0.18988379750E+04  0.10906011372E+04 0.  0.
        2    1    3    3  502    0  0.41381189250E+03 -0.28724370514E+03 -0.11407678864E+04  0.12470367273E+04  0.25500000920E-02 0.  1.
       -2    1    3    3    0  502 -0.41381189250E+03  0.28724370514E+03 -0.41363708483E+03  0.65180124767E+03  0.25500000920E-02 0. -1.
</event>
<event>
 5   0  0.1372794E-03  0.1099420E+04  0.7818609E-02  0.9205757E-01
        2   -1    0    0  501    0  0.00000000000E+00  0.00000000000E+00  0.13944133223E+04  0.13944133223E+04  0.25500000920E-02 0. -1.
       -2   -1    0    0    0  501  0.00000000000E+00  0.00000000000E+00 -0.21670859259E+03  0.21670859260E+03  0.25500000920E-02 0.  1.
    10030    2    1    2    0    0  0.00000000000E+00  0.00000000000E+00  0.11777047297E+04  0.16111219149E+04  0.10994204811E+04 0.  0.
        4    1    3    3  502    0  0.36976569625E+03  0.16006405292E+03  0.40867273368E+02  0.40499249141E+03  0.12699999809E+01 0.  1.
       -4    1    3    3    0  502 -0.36976569625E+03 -0.16006405292E+03  0.11368374563E+04  0.12061294235E+04  0.12699999809E+01 0. -1.
</event>
<event>
 5   0  0.5409500E-04  0.1096546E+04  0.7818609E-02  0.9208564E-01
       -4   -1    0    0    0  501  0.00000000000E+00  0.00000000000E+00  0.14219582668E+04  0.14219588340E+04  0.12699999809E+01 0.  1.
        4   -1    0    0  501    0  0.00000000000E+00  0.00000000000E+00 -0.21139856342E+03  0.21140237822E+03  0.12699999809E+01 0. -1.
    10030    2    1    2    0    0  0.00000000000E+00  0.00000000000E+00  0.12105597034E+04  0.16333612122E+04  0.10965464213E+04 0.  0.
        2    1    3    3  502    0 -0.49514617239E+03  0.78550062557E+02  0.93589183707E+03  0.10617124729E+04  0.25500000920E-02 0. -1.
       -2    1    3    3    0  502  0.49514617239E+03 -0.78550062557E+02  0.27466786633E+03  0.57164873931E+03  0.25500000920E-02 0.  1.
</event>
<event>
 5   0  0.1372794E-03  0.1099417E+04  0.7818609E-02  0.9205761E-01
       -2   -1    0    0    0  501  0.00000000000E+00  0.00000000000E+00  0.46437847169E+03  0.46437847170E+03  0.25500000920E-02 0. -1.
        2   -1    0    0  501    0  0.00000000000E+00  0.00000000000E+00 -0.65071761859E+03  0.65071761860E+03  0.25500000920E-02 0.  1.
    10030    2    1    2    0    0  0.00000000000E+00  0.00000000000E+00 -0.18633914690E+03  0.11150960903E+04  0.10994166694E+04 0.  0.
        4    1    3    3  502    0 -0.11012448450E+03 -0.27187925630E+03  0.37836052499E+03  0.47875257896E+03  0.12699999809E+01 0. -1.
       -4    1    3    3    0  502  0.11012448450E+03  0.27187925630E+03 -0.56469967189E+03  0.63634351134E+03  0.12699999809E+01 0.  1.
</event>
<event>
 5   0  0.1425432E-03  0.1084993E+04  0.7818609E-02  0.9219943E-01
        2   -1    0    0  501    0  0.00000000000E+00  0.00000000000E+00  0.47374262546E+03  0.47374262547E+03  0.25500000920E-02 0. -1.
       -2   -1    0    0    0  501  0.00000000000E+00  0.00000000000E+00 -0.62122911813E+03  0.62122911813E+03  0.25500000920E-02 0.  1.
    10030    2    1    2    0    0  0.00000000000E+00  0.00000000000E+00 -0.14748649267E+03  0.10949717436E+04  0.10849934810E+04 0.  0.
        1    1    3    3  502    0  0.32130243990E+03 -0.38656552011E+03 -0.27966524397E+03  0.57522239867E+03  0.50400001928E-02 0.  1.
       -1    1    3    3    0  502 -0.32130243990E+03  0.38656552011E+03  0.13217875130E+03  0.51974934492E+03  0.50400001928E-02 0. -1.
</event>
<event>
 5   0  0.1402775E-03  0.1090357E+04  0.7818609E-02  0.9214642E-01
        2   -1    0    0  501    0  0.00000000000E+00  0.00000000000E+00  0.99951022158E+03  0.99951022158E+03  0.25500000920E-02 0.  1.
       -2   -1    0    0    0  501  0.00000000000E+00  0.00000000000E+00 -0.29736507426E+03  0.29736507427E+03  0.25500000920E-02 0. -1.
    10030    2    1    2    0    0  0.00000000000E+00  0.00000000000E+00  0.70214514732E+03  0.12968752959E+04  0.10903566963E+04 0.  0.
        5    1    3    3  502    0  0.47028196363E+03  0.11406099157E+02  0.23387570047E+02  0.47102472637E+03  0.46999998093E+01 0. -1.
       -5    1    3    3    0  502 -0.47028196363E+03 -0.11406099157E+02  0.67875757727E+03  0.82585056949E+03  0.46999998093E+01 0.  1.
</event>
<event>
 5   0  0.1429680E-03  0.1137824E+04  0.7818609E-02  0.9169090E-01
        2   -1    0    0  501    0  0.00000000000E+00  0.00000000000E+00  0.47288182747E+03  0.47288182748E+03  0.25500000920E-02 0. -1.
       -2   -1    0    0    0  501  0.00000000000E+00  0.00000000000E+00 -0.68444387232E+03  0.68444387233E+03  0.25500000920E-02 0.  1.
    10030    2    1    2    0    0  0.00000000000E+00  0.00000000000E+00 -0.21156204485E+03  0.11573256998E+04  0.11378243611E+04 0.  0.
        3    1    3    3  502    0 -0.35262103388E+03 -0.40102951737E+03 -0.30534463443E+03  0.61514357943E+03  0.10100000352E+00 0. -1.
       -3    1    3    3    0  502  0.35262103388E+03  0.40102951737E+03  0.93782589580E+02  0.54218212037E+03  0.10100000352E+00 0.  1.
</event>
<event>
 5   0  0.1372794E-03  0.1100075E+04  0.7818609E-02  0.9205118E-01
       -2   -1    0    0    0  501  0.00000000000E+00  0.00000000000E+00  0.45534703678E+03  0.45534703678E+03  0.25500000920E-02 0. -1.
        2   -1    0    0  501    0  0.00000000000E+00  0.00000000000E+00 -0.66441965722E+03  0.66441965722E+03  0.25500000920E-02 0.  1.
    10030    2    1    2    0    0  0.00000000000E+00  0.00000000000E+00 -0.20907262044E+03  0.11197666940E+04  0.11000754921E+04 0.  0.
        4    1    3    3  502    0 -0.11812982208E+03  0.27458763243E+03 -0.57452271985E+03  0.64763492129E+03  0.12699999809E+01 0.  1.
       -4    1    3    3    0  502  0.11812982208E+03 -0.27458763243E+03  0.36545009941E+03  0.47213177272E+03  0.12699999809E+01 0. -1.
</event>
<event>
 5   0  0.8150924E-04  0.1094053E+04  0.7818609E-02  0.9211008E-01
       -1   -1    0    0    0  501  0.00000000000E+00  0.00000000000E+00  0.17361615392E+03  0.17361615399E+03  0.50400001928E-02 0.  1.
        1   -1    0    0  501    0  0.00000000000E+00  0.00000000000E+00 -0.17235595974E+04  0.17235595974E+04  0.50400001928E-02 0. -1.
    10030    2    1    2    0    0  0.00000000000E+00  0.00000000000E+00 -0.15499434435E+04  0.18971757514E+04  0.10940526284E+04 0.  0.
        3    1    3    3  502    0 -0.27887657873E+03 -0.38808598201E+03 -0.31338394048E+03  0.57148261561E+03  0.10100000352E+00 0.  1.
       -3    1    3    3    0  502  0.27887657873E+03  0.38808598201E+03 -0.12365595030E+04  0.13256931358E+04  0.10100000352E+00 0. -1.
</event>
<event>
 5   0  0.8341767E-04  0.1098614E+04  0.7818609E-02  0.9206543E-01
       -1   -1    0    0    0  501  0.00000000000E+00  0.00000000000E+00  0.29456606486E+03  0.29456606491E+03  0.50400001928E-02 0.  1.
        1   -1    0    0  501    0  0.00000000000E+00  0.00000000000E+00 -0.10243486622E+04  0.10243486622E+04  0.50400001928E-02 0. -1.
    10030    2    1    2    0    0  0.00000000000E+00  0.00000000000E+00 -0.72978259730E+03  0.13189147271E+04  0.10986143172E+04 0.  0.
        2    1    3    3  502    0  0.93176661694E+02  0.15004161820E+03 -0.98933084295E+03  0.10049725839E+04  0.25500000920E-02 0. -1.
       -2    1    3    3    0  502 -0.93176661694E+02 -0.15004161820E+03  0.25954824564E+03  0.31394214324E+03  0.25500000920E-02 0.  1.
</event>
<event>
 5   0  0.8150924E-04  0.1101264E+04  0.7818609E-02  0.9203961E-01
        1   -1    0    0  501    0  0.00000000000E+00  0.00000000000E+00  0.13345635847E+04  0.13345635847E+04  0.50400001928E-02 0. -1.
       -1   -1    0    0    0  501  0.00000000000E+00  0.00000000000E+00 -0.22718714358E+03  0.22718714364E+03  0.50400001928E-02 0.  1.
    10030    2    1    2    0    0  0.00000000000E+00  0.00000000000E+00  0.11073764411E+04  0.15617507283E+04  0.11012641623E+04 0.  0.
        3    1    3    3  502    0  0.28911847068E+03  0.17929581541E+03 -0.60319156761E+02  0.34550671540E+03  0.10100000352E+00 0.  1.
       -3    1    3    3    0  502 -0.28911847068E+03 -0.17929581541E+03  0.11676955978E+04  0.12162440129E+04  0.10100000352E+00 0. -1.
</event>
<event>
 5   0  0.1372794E-03  0.1099057E+04  0.7818609E-02  0.9206112E-01
        2   -1    0    0  501    0  0.00000000000E+00  0.00000000000E+00  0.65301543214E+03  0.65301543215E+03  0.25500000920E-02 0.  1.
       -2   -1    0    0    0  501  0.00000000000E+00  0.00000000000E+00 -0.46244157467E+03  0.46244157468E+03  0.25500000920E-02 0. -1.
    10030    2    1    2    0    0  0.00000000000E+00  0.00000000000E+00  0.19057385747E+03  0.11154570068E+04  0.10990568406E+04 0.  0.
        4    1    3    3  502    0 -0.77366303346E+02  0.51744744443E+03 -0.75275752335E+02  0.52858817091E+03  0.12699999809E+01 0.  1.
       -4    1    3    3    0  502  0.77366303346E+02 -0.51744744443E+03  0.26584960981E+03  0.58686883592E+03  0.12699999809E+01 0. -1.
</event>
<event>
 5   0  0.8009636E-04  0.1099461E+04  0.7818609E-02  0.9205717E-01
       -1   -1    0    0    0  501  0.00000000000E+00  0.00000000000E+00  0.39444490940E+03  0.39444490944E+03  0.50400001928E-02 0. -1.
        1   -1    0    0  501    0  0.00000000000E+00  0.00000000000E+00 -0.76614972010E+03  0.76614972012E+03  0.50400001928E-02 0.  1.
    10030    2    1    2    0    0  0.00000000000E+00  0.00000000000E+00 -0.37170481070E+03  0.11605946296E+04  0.10994614263E+04 0.  0.
        1    1    3    3  502    0 -0.11624116771E+03 -0.32493965944E+03 -0.63755431335E+03  0.72496433970E+03  0.50400001928E-02 0.  1.
       -1    1    3    3    0  502  0.11624116771E+03  0.32493965944E+03  0.26584950265E+03  0.43563028985E+03  0.50400001928E-02 0. -1.
</event>
<event>
 5   0  0.8305271E-04  0.1092741E+04  0.7818609E-02  0.9212296E-01
        1   -1    0    0  501    0  0.00000000000E+00  0.00000000000E+00  0.87072131883E+03  0.87072131884E+03  0.50400001928E-02 0.  1.
       -1   -1    0    0    0  501  0.00000000000E+00  0.00000000000E+00 -0.34284298205E+03  0.34284298209E+03  0.50400001928E-02 0. -1.
    10030    2    1    2    0    0  0.00000000000E+00  0.00000000000E+00  0.52787833677E+03  0.12135643009E+04  0.10927409455E+04 0.  0.
        5    1    3    3  502    0 -0.56243350812E+02  0.20096603500E+03  0.82469181362E+03  0.85069932361E+03  0.46999998093E+01 0.  1.
       -5    1    3    3    0  502  0.56243350812E+02 -0.20096603500E+03 -0.29681347685E+03  0.36286497733E+03  0.46999998093E+01 0. -1.
</event>
<event>
 5   0  0.8009636E-04  0.1100021E+04  0.7818609E-02  0.9205171E-01
       -1   -1    0    0    0  501  0.00000000000E+00  0.00000000000E+00  0.51533135783E+03  0.51533135786E+03  0.50400001928E-02 0.  1.
        1   -1    0    0  501    0  0.00000000000E+00  0.00000000000E+00 -0.58702326744E+03  0.58702326747E+03  0.50400001928E-02 0. -1.
    10030    2    1    2    0    0  0.00000000000E+00  0.00000000000E+00 -0.71691909611E+02  0.11023546253E+04  0.11000209044E+04 0.  0.
        1    1    3    3  502    0 -0.42887428729E+03 -0.27512676635E+03  0.17167694962E+03  0.53768100851E+03  0.50400001928E-02 0.  1.
       -1    1    3    3    0  502  0.42887428729E+03  0.27512676635E+03 -0.24336885923E+03  0.56467361681E+03  0.50400001928E-02 0. -1.
</event>
<event>
 5   0  0.8341767E-04  0.1146903E+04  0.7818609E-02  0.9160645E-01
        1   -1    0    0  501    0  0.00000000000E+00  0.00000000000E+00  0.47114770817E+03  0.47114770819E+03  0.50400001928E-02 0. -1.
       -1   -1    0    0    0  501  0.00000000000E+00  0.00000000000E+00 -0.69796926190E+03  0.69796926191E+03  0.50400001928E-02 0.  1.
    10030    2    1    2    0    0  0.00000000000E+00  0.00000000000E+00 -0.22682155373E+03  0.11691169701E+04  0.11469029918E+04 0.  0.
        2    1    3    3  502    0 -0.47821147822E+03  0.11229719457E+03 -0.41502978676E+03  0.64307589110E+03  0.25500000920E-02 0.  1.
       -2    1    3    3    0  502  0.47821147822E+03 -0.11229719457E+03  0.18820823303E+03  0.52604107900E+03  0.25500000920E-02 0. -1.
</event>
<event>
 5   0  0.1402775E-03  0.1131749E+04  0.7818609E-02  0.9174788E-01
        2   -1    0    0  501    0  0.00000000000E+00  0.00000000000E+00  0.67345987556E+03  0.67345987556E+03  0.25500000920E-02 0. -1.
       -2   -1    0    0    0  501  0.00000000000E+00  0.00000000000E+00 -0.47547559157E+03  0.47547559158E+03  0.25500000920E-02 0.  1.
    10030    2    1    2    0    0  0.00000000000E+00  0.00000000000E+00  0.19798428399E+03  0.11489354671E+04  0.11317486165E+04 0.  0.
        5    1    3    3  502    0  0.33331537242E+03  0.63143542228E+00  0.56320213247E+03  0.65446028773E+03  0.46999998093E+01 0. -1.
       -5    1    3    3    0  502 -0.33331537242E+03 -0.63143542228E+00 -0.36521784849E+03  0.49447517941E+03  0.46999998093E+01 0.  1.
</event>
<event>
 5   0  0.1372794E-03  0.1096330E+04  0.7818609E-02  0.9208777E-01
        2   -1    0    0  501    0  0.00000000000E+00  0.00000000000E+00  0.18261655284E+04  0.18261655284E+04  0.25500000920E-02 0. -1.
       -2   -1    0    0    0  501  0.00000000000E+00  0.00000000000E+00 -0.16454405361E+03  0.16454405363E+03  0.25500000920E-02 0.  1.
    10030    2    1    2    0    0  0.00000000000E+00  0.00000000000E+00  0.16616214747E+04  0.19907095820E+04  0.10963296559E+04 0.  0.
        4    1    3    3  502    0  0.22228896908E+03 -0.24675349480E+03  0.16226791878E+04  0.16563179141E+04  0.12699999809E+01 0. -1.
       -4    1    3    3    0  502 -0.22228896908E+03  0.24675349480E+03  0.38942286936E+02  0.33439166793E+03  0.12699999809E+01 0.  1.
</event>
<event>
 5   0  0.8150924E-04  0.1099287E+04  0.7818609E-02  0.9205887E-01
       -1   -1    0    0    0  501  0.00000000000E+00  0.00000000000E+00  0.47266141252E+03  0.47266141255E+03  0.50400001928E-02 0. -1.
        1   -1    0    0  501    0  0.00000000000E+00  0.00000000000E+00 -0.63916373641E+03  0.63916373643E+03  0.50400001928E-02 0.  1.
    10030    2    1    2    0    0  0.00000000000E+00  0.00000000000E+00 -0.16650232389E+03  0.11118251490E+04  0.10992871045E+04 0.  0.
        3    1    3    3  502    0  0.72121070823E+02  0.51336802495E+03  0.10147881719E+03  0.52824817883E+03  0.10100000352E+00 0. -1.
       -3    1    3    3    0  502 -0.72121070823E+02 -0.51336802495E+03 -0.26798114108E+03  0.58357697014E+03  0.10100000352E+00 0.  1.
</event>
<event>
 5   0  0.8341767E-04  0.1101868E+04  0.7818609E-02  0.9203373E-01
        1   -1    0    0  501    0  0.00000000000E+00  0.00000000000E+00  0.11731045515E+04  0.11731045515E+04  0.50400001928E-02 0. -1.
       -1   -1    0    0    0  501  0.00000000000E+00  0.00000000000E+00 -0.25873936697E+03  0.25873936702E+03  0.50400001928E-02 0.  1.
    10030    2    1    2    0    0  0.00000000000E+00  0.00000000000E+00  0.91436518450E+03  0.14318439185E+04  0.11018681030E+04 0.  0.
        2    1    3    3  502    0  0.39865488553E+03 -0.38026546887E+03  0.45603161959E+03  0.71518695642E+03  0.25500000920E-02 0. -1.
       -2    1    3    3    0  502 -0.39865488553E+03  0.38026546887E+03  0.45833356491E+03  0.71665696208E+03  0.25500000920E-02 0.  1.
</event>
<event>
 5   0  0.1372794E-03  0.1098190E+04  0.7818609E-02  0.9206958E-01
       -2   -1    0    0    0  501  0.00000000000E+00  0.00000000000E+00  0.38325651886E+03  0.38325651887E+03  0.25500000920E-02 0. -1.
        2   -1    0    0  501    0  0.00000000000E+00  0.00000000000E+00 -0.78669288883E+03  0.78669288884E+03  0.25500000920E-02 0.  1.
    10030    2    1    2    0    0  0.00000000000E+00  0.00000000000E+00 -0.40343636998E+03  0.11699494077E+04  0.10981897432E+04 0.  0.
        4    1    3    3  502    0  0.23642468382E+03  0.22056715261E+03  0.27107965181E+03  0.42193872832E+03  0.12699999809E+01 0. -1.
       -4    1    3    3    0  502 -0.23642468382E+03 -0.22056715261E+03 -0.67451602178E+03  0.74801067939E+03  0.12699999809E+01 0.  1.
</event>
<event>
 5   0  0.8009636E-04  0.1102749E+04  0.7818609E-02  0.9202517E-01
        1   -1    0    0  501    0  0.00000000000E+00  0.00000000000E+00  0.39884705943E+03  0.39884705946E+03  0.50400001928E-02 0. -1.
       -1   -1    0    0    0  501  0.00000000000E+00  0.00000000000E+00 -0.76223182001E+03  0.76223182002E+03  0.50400001928E-02 0.  1.
    10030    2    1    2    0    0  0.00000000000E+00  0.00000000000E+00 -0.36338476058E+03  0.11610788795E+04  0.11027491465E+04 0.  0.
        1    1    3    3  502    0 -0.24284358279E+03 -0.45823384788E+03 -0.37884719791E+03  0.64224330626E+03  0.50400001928E-02 0.  1.
       -1    1    3    3    0  502  0.24284358279E+03  0.45823384788E+03  0.15462437339E+02  0.51883557322E+03  0.50400001928E-02 0. -1.
</event>
<event>
 5   0  0.1425432E-03  0.1103680E+04  0.7818609E-02  0.9201612E-01
        2   -1    0    0  501    0  0.00000000000E+00  0.00000000000E+00  0.12845418039E+04  0.12845418039E+04  0.25500000920E-02 0. -1.
       -2   -1    0    0    0  501  0.00000000000E+00  0.00000000000E+00 -0.23707092742E+03  0.23707092743E+03  0.25500000920E-02 0.  1.
    10030    2    1    2    0    0  0.00000000000E+00  0.00000000000E+00  0.10474708764E+04  0.15216127313E+04  0.11036802377E+04 0.  0.
        1    1    3    3  502    0 -0.21907861253E+03  0.27928969922E+03 -0.58791038506E+02  0.35979794440E+03  0.50400001928E-02 0.  1.
       -1    1    3    3    0  502  0.21907861253E+03 -0.27928969922E+03  0.11062619149E+04  0.11618147869E+04  0.50400001928E-02 0. -1.
</event>
<event>
 5   0  0.8009636E-04  0.1098439E+04  0.7818609E-02  0.9206714E-01
       -1   -1    0    0    0  501  0.00000000000E+00  0.00000000000E+00  0.53599108208E+03  0.53599108210E+03  0.50400001928E-02 0. -1.
        1   -1    0    0  501    0  0.00000000000E+00  0.00000000000E+00 -0.56277479413E+03  0.56277479415E+03  0.50400001928E-02 0.  1.
    10030    2    1    2    0    0  0.00000000000E+00  0.00000000000E+00 -0.26783712051E+02  0.10987658763E+04  0.10984393855E+04 0.  0.
        1    1    3    3  502    0 -0.34062751122E+03 -0.26670995457E+03 -0.35184278957E+03  0.55763307817E+03  0.50400001928E-02 0.  1.
       -1    1    3    3    0  502  0.34062751122E+03  0.26670995457E+03  0.32505907751E+03  0.54113279809E+03  0.50400001928E-02 0. -1.
</event>
<event>
 5   0  0.8009636E-04  0.1040655E+04  0.7818609E-02  0.9265046E-01
        1   -1    0    0  501    0  0.00000000000E+00  0.00000000000E+00  0.11582870632E+04  0.11582870632E+04  0.50400001928E-02 0.  1.
       -1   -1    0    0    0  501  0.00000000000E+00  0.00000000000E+00 -0.23374225475E+03  0.23374225481E+03  0.50400001928E-02 0. -1.
    10030    2    1    2    0    0  0.00000000000E+00  0.00000000000E+00  0.92454480842E+03  0.13920293180E+04  0.10406548512E+04 0.  0.
        1    1    3    3  502    0  0.15397532105E+03  0.43128932348E+03  0.79270584860E+03  0.91547880504E+03  0.50400001928E-02 0.  1.
       -1    1    3    3    0  502 -0.15397532105E+03 -0.43128932348E+03  0.13183895982E+03  0.47655051295E+03  0.50400001928E-02 0. -1.
</event>
<event>
 5   0  0.1429680E-03  0.1099262E+04  0.7818609E-02  0.9205911E-01
       -2   -1    0    0    0  501  0.00000000000E+00  0.00000000000E+00  0.78320742135E+03  0.78320742135E+03  0.25500000920E-02 0. -1.
        2   -1    0    0  501    0  0.00000000000E+00  0.00000000000E+00 -0.38571442834E+03  0.38571442835E+03  0.25500000920E-02 0.  1.
    10030    2    1    2    0    0  0.00000000000E+00  0.00000000000E+00  0.39749299300E+03  0.11689218497E+04  0.10992623032E+04 0.  0.
        3    1    3    3  502    0 -0.21611258499E+03 -0.50392461763E+03  0.15825846607E+03  0.57069293138E+03  0.10100000352E+00 0.  1.
       -3    1    3    3    0  502  0.21611258499E+03  0.50392461763E+03  0.23923452693E+03  0.59822891833E+03  0.10100000352E+00 0. -1.
</event>
<event>
 5   0  0.8305271E-04  0.1098128E+04  0.7818609E-02  0.9207019E-01
       -1   -1    0    0    0  501  0.00000000000E+00  0.00000000000E+00  0.19119639248E+03  0.19119639255E+03  0.50400001928E-02 0.  1.
        1   -1    0    0  501    0  0.00000000000E+00  0.00000000000E+00 -0.15767616647E+04  0.15767616647E+04  0.50400001928E-02 0. -1.
    10030    2    1    2    0    0  0.00000000000E+00  0.00000000000E+00 -0.13855652722E+04  0.17679580572E+04  0.10981277561E+04 0.  0.
        5    1    3    3  502    0  0.31221949963E+03  0.13263773350E+03  0.22628531324E+01  0.33926537518E+03  0.46999998093E+01 0.  1.
       -5    1    3    3    0  502 -0.31221949963E+03 -0.13263773350E+03 -0.13878281253E+04  0.14286926821E+04  0.46999998093E+01 0. -1.
</event>
<event>
 5   0  0.1429680E-03  0.1100656E+04  0.7818609E-02  0.9204552E-01
       -2   -1    0    0    0  501  0.00000000000E+00  0.00000000000E+00  0.17573186885E+03  0.17573186887E+03  0.25500000920E-02 0. -1.
        2   -1    0    0  501    0  0.00000000000E+00  0.00000000000E+00 -0.17234276949E+04  0.17234276949E+04  0.25500000920E-02 0.  1.
    10030    2    1    2    0    0  0.00000000000E+00  0.00000000000E+00 -0.15476958261E+04  0.18991595638E+04  0.11006564763E+04 0.  0.
        3    1    3    3  502    0 -0.18644597419E+03  0.51770371801E+03 -0.75823079952E+03  0.93685281474E+03  0.10100000352E+00 0.  1.
       -3    1    3    3    0  502  0.18644597419E+03 -0.51770371801E+03 -0.78946502657E+03  0.96230674908E+03  0.10100000352E+00 0. -1.
</event>
<event>
 5   0  0.1372794E-03  0.1101190E+04  0.7818609E-02  0.9204033E-01
       -2   -1    0    0    0  501  0.00000000000E+00  0.00000000000E+00  0.51234879992E+03  0.51234879993E+03  0.25500000920E-02 0. -1.
        2   -1    0    0  501    0  0.00000000000E+00  0.00000000000E+00 -0.59169640946E+03  0.59169640947E+03  0.25500000920E-02 0.  1.
    10030    2    1    2    0    0  0.00000000000E+00  0.00000000000E+00 -0.79347609542E+02  0.11040452094E+04  0.11011901658E+04 0.  0.
        4    1    3    3  502    0 -0.17530514781E+03 -0.11355125239E+03 -0.55043308627E+03  0.58873081890E+03  0.12699999809E+01 0.  1.
       -4    1    3    3    0  502  0.17530514781E+03  0.11355125239E+03  0.47108547672E+03  0.51531439049E+03  0.12699999809E+01 0. -1.
</event>
<event>
 5   0  0.1429680E-03  0.1097078E+04  0.7818609E-02  0.9208045E-01
        2   -1    0    0  501    0  0.00000000000E+00  0.00000000000E+00  0.87770291350E+03  0.87770291351E+03  0.25500000920E-02 0. -1.
       -2   -1    0    0    0  501  0.00000000000E+00  0.00000000000E+00 -0.34282085027E+03  0.34282085028E+03  0.25500000920E-02 0.  1.
    10030    2    1    2    0    0  0.00000000000E+00  0.00000000000E+00  0.53488206323E+03  0.12205237638E+04  0.10970776802E+04 0.  0.
        3    1    3    3  502    0  0.20621199885E+03  0.23326401500E+02 -0.29746126922E+03  0.36269922300E+03  0.10100000352E+00 0.  1.
       -3    1    3    3    0  502 -0.20621199885E+03 -0.23326401500E+02  0.83234333246E+03  0.85782454078E+03  0.10100000352E+00 0. -1.
</event>
<event>
 5   0  0.1425432E-03  0.1102120E+04  0.7818609E-02  0.9203128E-01
       -2   -1    0    0    0  501  0.00000000000E+00  0.00000000000E+00  0.39988754179E+03  0.39988754180E+03  0.25500000920E-02 0. -1.
        2   -1    0    0  501    0  0.00000000000E+00  0.00000000000E+00 -0.75938185453E+03  0.75938185454E+03  0.25500000920E-02 0.  1.
    10030    2    1    2    0    0  0.00000000000E+00  0.00000000000E+00 -0.35949431274E+03  0.11592693963E+04  0.11021203983E+04 0.  0.
        1    1    3    3  502    0  0.63929090276E+02 -0.36391906394E+03  0.25028393362E+03  0.44628024955E+03  0.50400001928E-02 0. -1.
       -1    1    3    3    0  502 -0.63929090276E+02  0.36391906394E+03 -0.60977824636E+03  0.71298914679E+03  0.50400001928E-02 0.  1.
</event>
<event>
 5   0  0.8341767E-04  0.1090182E+04  0.7818609E-02  0.9214814E-01
       -1   -1    0    0    0  501  0.00000000000E+00  0.00000000000E+00  0.23460396463E+03  0.23460396469E+03  0.50400001928E-02 0.  1.
        1   -1    0    0  501    0  0.00000000000E+00  0.00000000000E+00 -0.12664931198E+04  0.12664931198E+04  0.50400001928E-02 0. -1.
    10030    2    1    2    0    0  0.00000000000E+00  0.00000000000E+00 -0.10318891551E+04  0.15010970845E+04  0.10901821997E+04 0.  0.
        2    1    3    3  502    0  0.72700702033E+02  0.31485457859E+03 -0.11203895371E+04  0.11660581086E+04  0.25500000920E-02 0. -1.
       -2    1    3    3    0  502 -0.72700702033E+02 -0.31485457859E+03  0.88500381978E+02  0.33503897587E+03  0.25500000920E-02 0.  1.
</event>
<event>
 5   0  0.7946038E-04  0.1096149E+04  0.7818609E-02  0.9208954E-01
        1   -1    0    0  501    0  0.00000000000E+00  0.00000000000E+00  0.36797567168E+03  0.36797567171E+03  0.50400001928E-02 0.  1.
       -1   -1    0    0    0  501  0.00000000000E+00  0.00000000000E+00 -0.81631869254E+03  0.81631869256E+03  0.50400001928E-02 0. -1.
    10030    2    1    2    0    0  0.00000000000E+00  0.00000000000E+00 -0.44834302087E+03  0.11842943643E+04  0.10961485652E+04 0.  0.
        4    1    3    3  502    0  0.10221489712E+03  0.43317233032E+03  0.12138818186E+03  0.46132727705E+03  0.12699999809E+01 0. -1.
       -4    1    3    3    0  502 -0.10221489712E+03 -0.43317233032E+03 -0.56973120272E+03  0.72296708722E+03  0.12699999809E+01 0.  1.
</event>
<event>
 5   0  0.1402775E-03  0.1101856E+04  0.7818609E-02  0.9203385E-01
        2   -1    0    0  501    0  0.00000000000E+00  0.00000000000E+00  0.16564525285E+04  0.16564525285E+04  0.25500000920E-02 0. -1.
       -2   -1    0    0    0  501  0.00000000000E+00  0.00000000000E+00 -0.18323600762E+03  0.18323600764E+03  0.25500000920E-02 0.  1.
    10030    2    1    2    0    0  0.00000000000E+00  0.00000000000E+00  0.14732165209E+04  0.18396885361E+04  0.11018561579E+04 0.  0.
        5    1    3    3  502    0  0.15627801330E+03  0.30548548704E+03  0.14562066630E+04  0.14960962989E+04  0.46999998093E+01 0. -1.
       -5    1    3    3    0  502 -0.15627801330E+03 -0.30548548704E+03  0.17009857890E+02  0.34359223725E+03  0.46999998093E+01 0.  1.
</event>
<event>
 5   0  0.8009636E-04  0.1101024E+04  0.7818609E-02  0.9204194E-01
        1   -1    0    0  501    0  0.00000000000E+00  0.00000000000E+00  0.13819733955E+04  0.13819733955E+04  0.50400001928E-02 0. -1.
       -1   -1    0    0    0  501  0.00000000000E+00  0.00000000000E+00 -0.21929776844E+03  0.21929776850E+03  0.50400001928E-02 0.  1.
    10030    2    1    2    0    0  0.00000000000E+00  0.00000000000E+00  0.11626756271E+04  0.16012711640E+04  0.11010243989E+04 0.  0.
        1    1    3    3  502    0  0.20813402593E+02  0.43202311177E+03  0.10766416470E+04  0.11602734173E+04  0.50400001928E-02 0. -1.
       -1    1    3    3    0  502 -0.20813402593E+02 -0.43202311177E+03  0.86033980027E+02  0.44099774668E+03  0.50400001928E-02 0.  1.
</event>
<event>
 5   0  0.7946038E-04  0.1101516E+04  0.7818609E-02  0.9203716E-01
        1   -1    0    0  501    0  0.00000000000E+00  0.00000000000E+00  0.71052320962E+03  0.71052320964E+03  0.50400001928E-02 0. -1.
       -1   -1    0    0    0  501  0.00000000000E+00  0.00000000000E+00 -0.42691657208E+03  0.42691657211E+03  0.50400001928E-02 0.  1.
    10030    2    1    2    0    0  0.00000000000E+00  0.00000000000E+00  0.28360663754E+03  0.11374397817E+04  0.11015155615E+04 0.  0.
        4    1    3    3  502    0 -0.22995695151E+03  0.46672578426E+03 -0.44695254569E+02  0.52221876251E+03  0.12699999809E+01 0.  1.
       -4    1    3    3    0  502  0.22995695151E+03 -0.46672578426E+03  0.32830189211E+03  0.61522101923E+03  0.12699999809E+01 0. -1.
</event>
<event>
 5   0  0.8305271E-04  0.1114950E+04  0.7818609E-02  0.9190742E-01
       -1   -1    0    0    0  501  0.00000000000E+00  0.00000000000E+00  0.35840134708E+03  0.35840134711E+03  0.50400001928E-02 0. -1.
        1   -1    0    0  501    0  0.00000000000E+00  0.00000000000E+00 -0.86712319606E+03  0.86712319608E+03  0.50400001928E-02 0.  1.
    10030    2    1    2    0    0  0.00000000000E+00  0.00000000000E+00 -0.50872184898E+03  0.12255245432E+04  0.11149495443E+04 0.  0.
        5    1    3    3  502    0 -0.26291128504E+03  0.32002722277E+02 -0.79352779193E+03  0.83657334681E+03  0.46999998093E+01 0.  1.
       -5    1    3    3    0  502  0.26291128504E+03 -0.32002722277E+02  0.28480594294E+03  0.38895119638E+03  0.46999998093E+01 0. -1.
</event>
<event>
 5   0  0.1372794E-03  0.1099737E+04  0.7818609E-02  0.9205448E-01
        2   -1    0    0  501    0  0.00000000000E+00  0.00000000000E+00  0.13719545535E+04  0.13719545535E+04  0.25500000920E-02 0. -1.
       -2   -1    0    0    0  501  0.00000000000E+00  0.00000000000E+00 -0.22038300694E+03  0.22038300696E+03  0.25500000920E-02 0.  1.
    10030    2    1    2    0    0  0.00000000000E+00  0.00000000000E+00  0.11515715466E+04  0.15923375605E+04  0.10997371866E+04 0.  0.
        4    1    3    3  502    0  0.24002824632E+03  0.43406010258E+03  0.91944206332E+03  0.10446995034E+04  0.12699999809E+01 0. -1.
       -4    1    3    3    0  502 -0.24002824632E+03 -0.43406010258E+03  0.23212948327E+03  0.54763805710E+03  0.12699999809E+01 0.  1.
</event>
<event>
 5   0  0.8009636E-04  0.1098328E+04  0.7818609E-02  0.9206823E-01
        1   -1    0    0  501    0  0.00000000000E+00  0.00000000000E+00  0.85956252014E+03  0.85956252015E+03  0.50400001928E-02 0. -1.
       -1   -1    0    0    0  501  0.00000000000E+00  0.00000000000E+00 -0.35085425768E+03  0.35085425771E+03  0.50400001928E-02 0.  1.
    10030    2    1    2    0    0  0.00000000000E+00  0.00000000000E+00  0.50870826246E+03  0.12104167779E+04  0.10983281294E+04 0.  0.
        1    1    3    3  502    0 -0.34989059113E+03 -0.23744704887E+03  0.64050828071E+03  0.76749943613E+03  0.50400001928E-02 0. -1.
       -1    1    3    3    0  502  0.34989059113E+03  0.23744704887E+03 -0.13180001825E+03  0.44291734174E+03  0.50400001928E-02 0.  1.
</event>
<event>
 5   0  0.1396936E-03  0.1099170E+04  0.7818609E-02  0.9206001E-01
       -2   -1    0    0    0  501  0.00000000000E+00  0.00000000000E+00  0.65307040526E+03  0.65307040527E+03  0.25500000920E-02 0.  1.
        2   -1    0    0  501    0  0.00000000000E+00  0.00000000000E+00 -0.46249827502E+03  0.46249827503E+03  0.25500000920E-02 0. -1.
    10030    2    1    2    0    0  0.00000000000E+00  0.00000000000E+00  0.19057213024E+03  0.11155686803E+04  0.10991704798E+04 0.  0.
        2    1    3    3  502    0  0.41936077675E+03 -0.23370563081E+03  0.36678801673E+03  0.60416490479E+03  0.25500000920E-02 0.  1.
       -2    1    3    3    0  502 -0.41936077675E+03  0.23370563081E+03 -0.17621588649E+03  0.51140377551E+03  0.25500000920E-02 0. -1.
</event>
<event>
 5   0  0.1402775E-03  0.1102525E+04  0.7818609E-02  0.9202735E-01
        2   -1    0    0  501    0  0.00000000000E+00  0.00000000000E+00  0.50806320664E+03  0.50806320665E+03  0.25500000920E-02 0.  1.
       -2   -1    0    0    0  501  0.00000000000E+00  0.00000000000E+00 -0.59813445981E+03  0.59813445981E+03  0.25500000920E-02 0. -1.
    10030    2    1    2    0    0  0.00000000000E+00  0.00000000000E+00 -0.90071253166E+02  0.11061976665E+04  0.11025245787E+04 0.  0.
        5    1    3    3  502    0  0.83805286908E+02  0.30687839003E+03 -0.49672468029E+03  0.58987725027E+03  0.46999998093E+01 0. -1.
       -5    1    3    3    0  502 -0.83805286908E+02 -0.30687839003E+03  0.40665342713E+03  0.51632041619E+03  0.46999998093E+01 0.  1.
</event>
<event>
 5   0  0.8150924E-04  0.1104234E+04  0.7818609E-02  0.9201075E-01
        1   -1    0    0  501    0  0.00000000000E+00  0.00000000000E+00  0.39468452541E+03  0.39468452544E+03  0.50400001928E-02 0. -1.
       -1   -1    0    0    0  501  0.00000000000E+00  0.00000000000E+00 -0.77234597781E+03  0.77234597783E+03  0.50400001928E-02 0.  1.
    10030    2    1    2    0    0  0.00000000000E+00  0.00000000000E+00 -0.37766145241E+03  0.11670305033E+04  0.11042336813E+04 0.  0.
        3    1    3    3  502    0 -0.42607931848E+03 -0.32611464176E+03 -0.51280718503E+02  0.53900284554E+03  0.10100000352E+00 0. -1.
       -3    1    3    3    0  502  0.42607931848E+03  0.32611464176E+03 -0.32638073390E+03  0.62802765773E+03  0.10100000352E+00 0.  1.
</event>
<event>
 5   0  0.5409500E-04  0.1097158E+04  0.7818609E-02  0.9207966E-01
        3   -1    0    0  501    0  0.00000000000E+00  0.00000000000E+00  0.56841993955E+03  0.56841994852E+03  0.10100000352E+00 0.  1.
       -3   -1    0    0    0  501  0.00000000000E+00  0.00000000000E+00 -0.52943079496E+03  0.52943080460E+03  0.10100000352E+00 0. -1.
    10030    2    1    2    0    0  0.00000000000E+00  0.00000000000E+00  0.38989144583E+02  0.10978507531E+04  0.10971582031E+04 0.  0.
        3    1    3    3  502    0  0.23473895634E+03  0.44912246129E+03  0.22968824807E+03  0.55639020872E+03  0.10100000352E+00 0.  1.
       -3    1    3    3    0  502 -0.23473895634E+03 -0.44912246129E+03 -0.19069910349E+03  0.54146054439E+03  0.10100000352E+00 0. -1.
</event>
<event>
 5   0  0.8305271E-04  0.1100003E+04  0.7818609E-02  0.9205189E-01
        1   -1    0    0  501    0  0.00000000000E+00  0.00000000000E+00  0.66958626525E+03  0.66958626526E+03  0.50400001928E-02 0. -1.
       -1   -1    0    0    0  501  0.00000000000E+00  0.00000000000E+00 -0.45177388604E+03  0.45177388607E+03  0.50400001928E-02 0.  1.
    10030    2    1    2    0    0  0.00000000000E+00  0.00000000000E+00  0.21781237921E+03  0.11213601513E+04  0.11000028893E+04 0.  0.
        5    1    3    3  502    0  0.49395987097E+02  0.13128355700E+03  0.65102464507E+03  0.66598086637E+03  0.46999998093E+01 0. -1.
       -5    1    3    3    0  502 -0.49395987097E+02 -0.13128355700E+03 -0.43321226586E+03  0.45537928496E+03  0.46999998093E+01 0.  1.
</event>
<event>
 5   0  0.1396936E-03  0.1100954E+04  0.7818609E-02  0.9204263E-01
        2   -1    0    0  501    0  0.00000000000E+00  0.00000000000E+00  0.11499463508E+04  0.11499463508E+04  0.25500000920E-02 0.  1.
       -2   -1    0    0    0  501  0.00000000000E+00  0.00000000000E+00 -0.26351212017E+03  0.26351212018E+03  0.25500000920E-02 0. -1.
    10030    2    1    2    0    0  0.00000000000E+00  0.00000000000E+00  0.88643423059E+03  0.14134584709E+04  0.11009537701E+04 0.  0.
        2    1    3    3  502    0  0.26476460140E+03 -0.29832108544E+03  0.93028352472E+03  0.10121873347E+04  0.25500000920E-02 0.  1.
       -2    1    3    3    0  502 -0.26476460140E+03  0.29832108544E+03 -0.43849294131E+02  0.40127113623E+03  0.25500000920E-02 0. -1.
</event>
<event>
 5   0  0.7946038E-04  0.1100462E+04  0.7818609E-02  0.9204741E-01
       -1   -1    0    0    0  501  0.00000000000E+00  0.00000000000E+00  0.14519585009E+04  0.14519585009E+04  0.50400001928E-02 0.  1.
        1   -1    0    0  501    0  0.00000000000E+00  0.00000000000E+00 -0.20851443929E+03  0.20851443935E+03  0.50400001928E-02 0. -1.
    10030    2    1    2    0    0  0.00000000000E+00  0.00000000000E+00  0.12434440616E+04  0.16604729403E+04  0.11004622897E+04 0.  0.
        4    1    3    3  502    0  0.32466639599E+03  0.72986208356E+02  0.12829131025E+04  0.13253689663E+04  0.12699999809E+01 0.  1.
       -4    1    3    3    0  502 -0.32466639599E+03 -0.72986208356E+02 -0.39469040885E+02  0.33510397399E+03  0.12699999809E+01 0. -1.
</event>
<event>
 5   0  0.1429680E-03  0.1102960E+04  0.7818609E-02  0.9202312E-01
        2   -1    0    0  501    0  0.00000000000E+00  0.00000000000E+00  0.10045851639E+04  0.10045851639E+04  0.25500000920E-02 0. -1.
       -2   -1    0    0    0  501  0.00000000000E+00  0.00000000000E+00 -0.30274185642E+03  0.30274185643E+03  0.25500000920E-02 0.  1.
    10030    2    1    2    0    0  0.00000000000E+00  0.00000000000E+00  0.70184330752E+03  0.13073270204E+04  0.11029596139E+04 0.  0.
        3    1    3    3  502    0 -0.84758741640E+02 -0.44105049560E+02  0.99469964628E+03  0.99927808752E+03  0.10100000352E+00 0. -1.
       -3    1    3    3    0  502  0.84758741640E+02  0.44105049560E+02 -0.29285633876E+03  0.30804893286E+03  0.10100000352E+00 0.  1.
</event>
<event>
 5   0  0.1402775E-03  0.1096741E+04  0.7818609E-02  0.9208375E-01
        2   -1    0    0  501    0  0.00000000000E+00  0.00000000000E+00  0.15987941282E+04  0.15987941282E+04  0.25500000920E-02 0.  1.
       -2   -1    0    0    0  501  0.00000000000E+00  0.00000000000E+00 -0.18808546333E+03  0.18808546335E+03  0.25500000920E-02 0. -1.
    10030    2    1    2    0    0  0.00000000000E+00  0.00000000000E+00  0.14107086648E+04  0.17868795915E+04  0.10967405060E+04 0.  0.
        5    1    3    3  502    0  0.23012816453E+02 -0.49120242443E+03  0.11006932112E+04  0.12055525898E+04  0.46999998093E+01 0.  1.
       -5    1    3    3    0  502 -0.23012816453E+02  0.49120242443E+03  0.31001545363E+03  0.58132700176E+03  0.46999998093E+01 0. -1.
</event>
<event>
 5   0  0.1425432E-03  0.1095935E+04  0.7818609E-02  0.9209163E-01
        2   -1    0    0  501    0  0.00000000000E+00  0.00000000000E+00  0.35208869794E+03  0.35208869795E+03  0.25500000920E-02 0.  1.
       -2   -1    0    0    0  501  0.00000000000E+00  0.00000000000E+00 -0.85281983703E+03  0.85281983703E+03  0.25500000920E-02 0. -1.
    10030    2    1    2    0    0  0.00000000000E+00  0.00000000000E+00 -0.50073113909E+03  0.12049085350E+04  0.10959347170E+04 0.  0.
        1    1    3    3  502    0 -0.48432584103E+03  0.17880411554E+03 -0.45227215635E+03  0.68636181089E+03  0.50400001928E-02 0.  1.
       -1    1    3    3    0  502  0.48432584103E+03 -0.17880411554E+03 -0.48458982745E+02  0.51854672408E+03  0.50400001928E-02 0. -1.
</event>
<event>
 5   0  0.7946038E-04  0.1099840E+04  0.7818609E-02  0.9205348E-01
        1   -1    0    0  501    0  0.00000000000E+00  0.00000000000E+00  0.24673328088E+03  0.24673328093E+03  0.50400001928E-02 0.  1.
       -1   -1    0    0    0  501  0.00000000000E+00  0.00000000000E+00 -0.12256639410E+04  0.12256639410E+04  0.50400001928E-02 0. -1.
    10030    2    1    2    0    0  0.00000000000E+00  0.00000000000E+00 -0.97893066012E+03  0.14723972219E+04  0.10998401438E+04 0.  0.
        4    1    3    3  502    0  0.15541427918E+03  0.47904767079E+03 -0.78511180559E+03  0.93276064948E+03  0.12699999809E+01 0.  1.
       -4    1    3    3    0  502 -0.15541427918E+03 -0.47904767079E+03 -0.19381885453E+03  0.53963657245E+03  0.12699999809E+01 0. -1.
</event>
<event>
 5   0  0.1425432E-03  0.1093752E+04  0.7818609E-02  0.9211304E-01
       -2   -1    0    0    0  501  0.00000000000E+00  0.00000000000E+00  0.37102173650E+03  0.37102173651E+03  0.25500000920E-02 0.  1.
        2   -1    0    0  501    0  0.00000000000E+00  0.00000000000E+00 -0.80607969650E+03  0.80607969651E+03  0.25500000920E-02 0. -1.
    10030    2    1    2    0    0  0.00000000000E+00  0.00000000000E+00 -0.43505796000E+03  0.11771014330E+04  0.10937515052E+04 0.  0.
        1    1    3    3  502    0  0.48729480555E+03 -0.15231736612E+03 -0.42846603853E+03  0.66651328099E+03  0.50400001928E-02 0.  1.
       -1    1    3    3    0  502 -0.48729480555E+03  0.15231736612E+03 -0.65919214711E+01  0.51058815203E+03  0.50400001928E-02 0. -1.
</event>
<event>
 5   0  0.7946038E-04  0.1097363E+04  0.7818609E-02  0.9207766E-01
       -1   -1    0    0    0  501  0.00000000000E+00  0.00000000000E+00  0.63993159112E+03  0.63993159114E+03  0.50400001928E-02 0. -1.
        1   -1    0    0  501    0  0.00000000000E+00  0.00000000000E+00 -0.47044276706E+03  0.47044276709E+03  0.50400001928E-02 0.  1.
    10030    2    1    2    0    0  0.00000000000E+00  0.00000000000E+00  0.16948882406E+03  0.11103743582E+04  0.10973626356E+04 0.  0.
        4    1    3    3  502    0  0.25283653853E+03  0.48374152393E+03  0.14124011402E+03  0.56381074830E+03  0.12699999809E+01 0. -1.
       -4    1    3    3    0  502 -0.25283653853E+03 -0.48374152393E+03  0.28248710043E+02  0.54656360993E+03  0.12699999809E+01 0.  1.
</event>
<event>
 5   0  0.1372794E-03  0.1101935E+04  0.7818609E-02  0.9203308E-01
       -2   -1    0    0    0  501  0.00000000000E+00  0.00000000000E+00  0.99783215512E+03  0.99783215512E+03  0.25500000920E-02 0. -1.
        2   -1    0    0  501    0  0.00000000000E+00  0.00000000000E+00 -0.30422456118E+03  0.30422456119E+03  0.25500000920E-02 0.  1.
    10030    2    1    2    0    0  0.00000000000E+00  0.00000000000E+00  0.69360759394E+03  0.13020567163E+04  0.11019347522E+04 0.  0.
        4    1    3    3  502    0 -0.15734308220E+03  0.52539120315E+03  0.28460717513E+03  0.61789612306E+03  0.12699999809E+01 0.  1.
       -4    1    3    3    0  502  0.15734308220E+03 -0.52539120315E+03  0.40900041882E+03  0.68416059325E+03  0.12699999809E+01 0. -1.
</event>
<event>
 5   0  0.8009636E-04  0.1101654E+04  0.7818609E-02  0.9203581E-01
       -1   -1    0    0    0  501  0.00000000000E+00  0.00000000000E+00  0.21028149010E+03  0.21028149016E+03  0.50400001928E-02 0.  1.
        1   -1    0    0  501    0  0.00000000000E+00  0.00000000000E+00 -0.14428769346E+04  0.14428769346E+04  0.50400001928E-02 0. -1.
    10030    2    1    2    0    0  0.00000000000E+00  0.00000000000E+00 -0.12325954445E+04  0.16531584247E+04  0.11016538692E+04 0.  0.
        1    1    3    3  502    0  0.22912034816E+03  0.48835084604E+03 -0.44901023719E+03  0.70184961059E+03  0.50400001928E-02 0.  1.
       -1    1    3    3    0  502 -0.22912034816E+03 -0.48835084604E+03 -0.78358520729E+03  0.95130881415E+03  0.50400001928E-02 0. -1.
</event>
<event>
 5   0  0.1402775E-03  0.1100358E+04  0.7818609E-02  0.9204843E-01
        2   -1    0    0  501    0  0.00000000000E+00  0.00000000000E+00  0.59544004037E+03  0.59544004038E+03  0.25500000920E-02 0.  1.
       -2   -1    0    0    0  501  0.00000000000E+00  0.00000000000E+00 -0.50835874491E+03  0.50835874491E+03  0.25500000920E-02 0. -1.
    10030    2    1    2    0    0  0.00000000000E+00  0.00000000000E+00  0.87081295468E+02  0.11037987853E+04  0.11003583991E+04 0.  0.
        5    1    3    3  502    0 -0.34680039631E+03  0.70556183876E+02 -0.37899644000E+03  0.51856444295E+03  0.46999998093E+01 0. -1.
       -5    1    3    3    0  502  0.34680039631E+03 -0.70556183876E+02  0.46607773546E+03  0.58523434234E+03  0.46999998093E+01 0.  1.
</event>
<event>
 5   0  0.1402775E-03  0.1101292E+04  0.7818609E-02  0.9203934E-01
       -2   -1    0    0    0  501  0.00000000000E+00  0.00000000000E+00  0.78073336949E+03  0.78073336950E+03  0.25500000920E-02 0. -1.
        2   -1    0    0  501    0  0.00000000000E+00  0.00000000000E+00 -0.38836684759E+03  0.38836684760E+03  0.25500000920E-02 0.  1.
    10030    2    1    2    0    0  0.00000000000E+00  0.00000000000E+00  0.39236652190E+03  0.11691002171E+04  0.11012918914E+04 0.  0.
        5    1    3    3  502    0  0.30464741303E+03  0.45847162041E+03  0.18183850392E+03  0.57973580577E+03  0.46999998093E+01 0.  1.
       -5    1    3    3    0  502 -0.30464741303E+03 -0.45847162041E+03  0.21052801799E+03  0.58936441133E+03  0.46999998093E+01 0. -1.
</event>
<event>
 5   0  0.1396936E-03  0.1095458E+04  0.7818609E-02  0.9209630E-01
        2   -1    0    0  501    0  0.00000000000E+00  0.00000000000E+00  0.29516444405E+03  0.29516444406E+03  0.25500000920E-02 0. -1.
       -2   -1    0    0    0  501  0.00000000000E+00  0.00000000000E+00 -0.10164071368E+04  0.10164071368E+04  0.25500000920E-02 0.  1.
    10030    2    1    2    0    0  0.00000000000E+00  0.00000000000E+00 -0.72124269274E+03  0.13115715809E+04  0.10954583469E+04 0.  0.
        2    1    3    3  502    0  0.38020153989E+03 -0.18137597400E+03 -0.77976686022E+03  0.88627693820E+03  0.25500000920E-02 0.  1.
       -2    1    3    3    0  502 -0.38020153989E+03  0.18137597400E+03  0.58524167481E+02  0.42529464265E+03  0.25500000920E-02 0. -1.
</event>
<event>
 5   0  0.1396936E-03  0.1175848E+04  0.7818609E-02  0.9134264E-01
       -2   -1    0    0    0  501  0.00000000000E+00  0.00000000000E+00  0.20437923543E+03  0.20437923545E+03  0.25500000920E-02 0. -1.
        2   -1    0    0  501    0  0.00000000000E+00  0.00000000000E+00 -0.16912401296E+04  0.16912401296E+04  0.25500000920E-02 0.  1.
    10030    2    1    2    0    0  0.00000000000E+00  0.00000000000E+00 -0.14868608941E+04  0.18956193650E+04  0.11758475490E+04 0.  0.
        2    1    3    3  502    0  0.48073393602E+02 -0.55773663140E+03 -0.10330453375E+04  0.11749739871E+04  0.25500000920E-02 0.  1.
       -2    1    3    3    0  502 -0.48073393602E+02  0.55773663140E+03 -0.45381555665E+03  0.72064537786E+03  0.25500000920E-02 0. -1.
</event>
<event>
 5   0  0.1425432E-03  0.1101833E+04  0.7818609E-02  0.9203407E-01
        2   -1    0    0  501    0  0.00000000000E+00  0.00000000000E+00  0.11501124706E+04  0.11501124706E+04  0.25500000920E-02 0.  1.
       -2   -1    0    0    0  501  0.00000000000E+00  0.00000000000E+00 -0.26389504129E+03  0.26389504130E+03  0.25500000920E-02 0. -1.
    10030    2    1    2    0    0  0.00000000000E+00  0.00000000000E+00  0.88621742927E+03  0.14140075119E+04  0.11018329781E+04 0.  0.
        1    1    3    3  502    0  0.18513256146E+03  0.10133814763E+03  0.10961744508E+04  0.11163072660E+04  0.50400001928E-02 0.  1.
       -1    1    3    3    0  502 -0.18513256146E+03 -0.10133814763E+03 -0.20995702153E+03  0.29770024588E+03  0.50400001928E-02 0. -1.
</event>
<event>
 5   0  0.8150924E-04  0.1103166E+04  0.7818609E-02  0.9202112E-01
        1   -1    0    0  501    0  0.00000000000E+00  0.00000000000E+00  0.11412620908E+04  0.11412620908E+04  0.50400001928E-02 0.  1.
       -1   -1    0    0    0  501  0.00000000000E+00  0.00000000000E+00 -0.26658541132E+03  0.26658541137E+03  0.50400001928E-02 0. -1.
    10030    2    1    2    0    0  0.00000000000E+00  0.00000000000E+00  0.87467667944E+03  0.14078475021E+04  0.11031660327E+04 0.  0.
        3    1    3    3  502    0 -0.22484500606E+03  0.50214758677E+03  0.38731667614E+03  0.67284596564E+03  0.10100000352E+00 0. -1.
       -3    1    3    3    0  502  0.22484500606E+03 -0.50214758677E+03  0.48736000330E+03  0.73500153651E+03  0.10100000352E+00 0.  1.
</event>
<event>
 5   0  0.8150924E-04  0.1097383E+04  0.7818609E-02  0.9207746E-01
       -1   -1    0    0    0  501  0.00000000000E+00  0.00000000000E+00  0.31118023911E+03  0.31118023915E+03  0.50400001928E-02 0.  1.
        1   -1    0    0  501    0  0.00000000000E+00  0.00000000000E+00 -0.96748627825E+03  0.96748627827E+03  0.50400001928E-02 0. -1.
    10030    2    1    2    0    0  0.00000000000E+00  0.00000000000E+00 -0.65630603915E+03  0.12786665174E+04  0.10973834543E+04 0.  0.
        3    1    3    3  502    0 -0.32936217905E+03  0.29445677992E+03  0.50989498505E+02  0.44472933272E+03  0.10100000352E+00 0.  1.
       -3    1    3    3    0  502  0.32936217905E+03 -0.29445677992E+03 -0.70729553765E+03  0.83393718469E+03  0.10100000352E+00 0. -1.
</event>
<event>
 5   0  0.5409500E-04  0.1104250E+04  0.7818609E-02  0.9201059E-01
       -3   -1    0    0    0  501  0.00000000000E+00  0.00000000000E+00  0.18256742114E+03  0.18256744908E+03  0.10100000352E+00 0. -1.
        3   -1    0    0  501    0  0.00000000000E+00  0.00000000000E+00 -0.16697509605E+04  0.16697509636E+04  0.10100000352E+00 0.  1.
    10030    2    1    2    0    0  0.00000000000E+00  0.00000000000E+00 -0.14871835394E+04  0.18523184127E+04  0.11042502534E+04 0.  0.
        1    1    3    3  502    0  0.37073846934E+02  0.32604907263E+03  0.12382923672E+01  0.32815240557E+03  0.50400001928E-02 0. -1.
       -1    1    3    3    0  502 -0.37073846934E+02 -0.32604907263E+03 -0.14884218318E+04  0.15241660071E+04  0.50400001928E-02 0.  1.
</event>
<event>
 5   0  0.1429680E-03  0.1101545E+04  0.7818609E-02  0.9203687E-01
        2   -1    0    0  501    0  0.00000000000E+00  0.00000000000E+00  0.94559540065E+03  0.94559540065E+03  0.25500000920E-02 0.  1.
       -2   -1    0    0    0  501  0.00000000000E+00  0.00000000000E+00 -0.32080372928E+03  0.32080372929E+03  0.25500000920E-02 0. -1.
    10030    2    1    2    0    0  0.00000000000E+00  0.00000000000E+00  0.62479167137E+03  0.12663991299E+04  0.11015453344E+04 0.  0.
        3    1    3    3  502    0 -0.36132916257E+03 -0.58306775999E+02 -0.16077151998E+03  0.39975734601E+03  0.10100000352E+00 0. -1.
       -3    1    3    3    0  502  0.36132916257E+03  0.58306775999E+02  0.78556319134E+03  0.86664178393E+03  0.10100000352E+00 0.  1.
</event>
<event>
 5   0  0.8009636E-04  0.1102006E+04  0.7818609E-02  0.9203239E-01
        1   -1    0    0  501    0  0.00000000000E+00  0.00000000000E+00  0.10761784230E+04  0.10761784230E+04  0.50400001928E-02 0.  1.
       -1   -1    0    0    0  501  0.00000000000E+00  0.00000000000E+00 -0.28211328637E+03  0.28211328642E+03  0.50400001928E-02 0. -1.
    10030    2    1    2    0    0  0.00000000000E+00  0.00000000000E+00  0.79406513662E+03  0.13582917094E+04  0.11020058651E+04 0.  0.
        1    1    3    3  502    0 -0.44538631897E+03 -0.10919184388E+03  0.20520567568E+02  0.45903477604E+03  0.50400001928E-02 0. -1.
       -1    1    3    3    0  502  0.44538631897E+03  0.10919184388E+03  0.77354456905E+03  0.89925693338E+03  0.50400001928E-02 0.  1.
</event>
<event>
 5   0  0.1396936E-03  0.1100313E+04  0.7818609E-02  0.9204887E-01
        2   -1    0    0  501    0  0.00000000000E+00  0.00000000000E+00  0.42779648959E+03  0.42779648960E+03  0.25500000920E-02 0.  1.
       -2   -1    0    0    0  501  0.00000000000E+00  0.00000000000E+00 -0.70751479121E+03  0.70751479121E+03  0.25500000920E-02 0. -1.
    10030    2    1    2    0    0  0.00000000000E+00  0.00000000000E+00 -0.27971830162E+03  0.11353112808E+04  0.11003133081E+04 0.  0.
        2    1    3    3  502    0  0.36974888422E+03  0.20883858095E+03 -0.50076249641E+03  0.65657510468E+03  0.25500000920E-02 0. -1.
       -2    1    3    3    0  502 -0.36974888422E+03 -0.20883858095E+03  0.22104419479E+03  0.47873617612E+03  0.25500000920E-02 0.  1.
</event>
<event>
 5   0  0.7946038E-04  0.1099038E+04  0.7818609E-02  0.9206130E-01
       -1   -1    0    0    0  501  0.00000000000E+00  0.00000000000E+00  0.56052822786E+03  0.56052822788E+03  0.50400001928E-02 0.  1.
        1   -1    0    0  501    0  0.00000000000E+00  0.00000000000E+00 -0.53872591364E+03  0.53872591366E+03  0.50400001928E-02 0. -1.
    10030    2    1    2    0    0  0.00000000000E+00  0.00000000000E+00  0.21802314223E+02  0.10992541415E+04  0.10990379096E+04 0.  0.
        4    1    3    3  502    0  0.47945964959E+03  0.25741675030E+03  0.87234780248E+02  0.55114105155E+03  0.12699999809E+01 0. -1.
       -4    1    3    3    0  502 -0.47945964959E+03 -0.25741675030E+03 -0.65432466026E+02  0.54811308999E+03  0.12699999809E+01 0.  1.
</event>
<event>
 5   0  0.8009636E-04  0.1099199E+04  0.7818609E-02  0.9205973E-01
       -1   -1    0    0    0  501  0.00000000000E+00  0.00000000000E+00  0.69739169185E+03  0.69739169187E+03  0.50400001928E-02 0.  1.
        1   -1    0    0  501    0  0.00000000000E+00  0.00000000000E+00 -0.43312779603E+03  0.43312779606E+03  0.50400001928E-02 0. -1.
    10030    2    1    2    0    0  0.00000000000E+00  0.00000000000E+00  0.26426389582E+03  0.11305194879E+04  0.10991992112E+04 0.  0.
        1    1    3    3  502    0 -0.24970696431E+02  0.28380939157E+03 -0.35124743112E+03  0.45226769099E+03  0.50400001928E-02 0. -1.
       -1    1    3    3    0  502  0.24970696431E+02 -0.28380939157E+03  0.61551132694E+03  0.67825179693E+03  0.50400001928E-02 0.  1.
</event>
<event>
 5   0  0.8341767E-04  0.1099671E+04  0.7818609E-02  0.9205513E-01
        1   -1    0    0  501    0  0.00000000000E+00  0.00000000000E+00  0.36624462482E+03  0.36624462486E+03  0.50400001928E-02 0.  1.
       -1   -1    0    0    0  501  0.00000000000E+00  0.00000000000E+00 -0.82545664691E+03  0.82545664692E+03  0.50400001928E-02 0. -1.
    10030    2    1    2    0    0  0.00000000000E+00  0.00000000000E+00 -0.45921202208E+03  0.11917012718E+04  0.10996709689E+04 0.  0.
        2    1    3    3  502    0  0.14462164499E+03 -0.38276342496E+02 -0.80297738428E+03  0.81679445289E+03  0.25500000920E-02 0. -1.
       -2    1    3    3    0  502 -0.14462164499E+03  0.38276342496E+02  0.34376536220E+03  0.37490681889E+03  0.25500000920E-02 0.  1.
</event>
<event>
 5   0  0.8150924E-04  0.1102749E+04  0.7818609E-02  0.9202516E-01
        1   -1    0    0  501    0  0.00000000000E+00  0.00000000000E+00  0.48773529336E+03  0.48773529338E+03  0.50400001928E-02 0. -1.
       -1   -1    0    0    0  501  0.00000000000E+00  0.00000000000E+00 -0.62331781756E+03  0.62331781758E+03  0.50400001928E-02 0.  1.
    10030    2    1    2    0    0  0.00000000000E+00  0.00000000000E+00 -0.13558252420E+03  0.11110531110E+04  0.11027494704E+04 0.  0.
        3    1    3    3  502    0 -0.47655211466E+03  0.79398792201E+02 -0.33551379415E+03  0.58819690789E+03  0.10100000352E+00 0.  1.
       -3    1    3    3    0  502  0.47655211466E+03 -0.79398792201E+02  0.19993126995E+03  0.52285620307E+03  0.10100000352E+00 0. -1.
</event>
<event>
 5   0  0.1372794E-03  0.1100457E+04  0.7818609E-02  0.9204746E-01
       -2   -1    0    0    0  501  0.00000000000E+00  0.00000000000E+00  0.88448115226E+03  0.88448115226E+03  0.25500000920E-02 0.  1.
        2   -1    0    0  501    0  0.00000000000E+00  0.00000000000E+00 -0.34229296268E+03  0.34229296269E+03  0.25500000920E-02 0. -1.
    10030    2    1    2    0    0  0.00000000000E+00  0.00000000000E+00  0.54218818958E+03  0.12267741150E+04  0.11004574941E+04 0.  0.
        4    1    3    3  502    0 -0.10147735714E+03  0.53698355716E+03  0.34248448182E+03  0.64493893343E+03  0.12699999809E+01 0. -1.
       -4    1    3    3    0  502  0.10147735714E+03 -0.53698355716E+03  0.19970370775E+03  0.58183518152E+03  0.12699999809E+01 0.  1.
</event>
<event>
 5   0  0.1372794E-03  0.1037763E+04  0.7818609E-02  0.9268070E-01
        2   -1    0    0  501    0  0.00000000000E+00  0.00000000000E+00  0.10106364644E+04  0.10106364644E+04  0.25500000920E-02 0. -1.
       -2   -1    0    0    0  501  0.00000000000E+00  0.00000000000E+00 -0.26640445071E+03  0.26640445072E+03  0.25500000920E-02 0.  1.
    10030    2    1    2    0    0  0.00000000000E+00  0.00000000000E+00  0.74423201369E+03  0.12770409151E+04  0.10377630793E+04 0.  0.
        4    1    3    3  502    0 -0.25854195400E+03  0.44933186742E+03  0.34478264450E+03  0.62259116112E+03  0.12699999809E+01 0.  1.
       -4    1    3    3    0  502  0.25854195400E+03 -0.44933186742E+03  0.39944936920E+03  0.65444975400E+03  0.12699999809E+01 0. -1.
</event>
<event>
 5   0  0.8341767E-04  0.1098231E+04  0.7818609E-02  0.9206917E-01
       -1   -1    0    0    0  501  0.00000000000E+00  0.00000000000E+00  0.57675572425E+03  0.57675572428E+03  0.50400001928E-02 0.  1.
        1   -1    0    0  501    0  0.00000000000E+00  0.00000000000E+00 -0.52280034998E+03  0.52280035000E+03  0.50400001928E-02 0. -1.
    10030    2    1    2    0    0  0.00000000000E+00  0.00000000000E+00  0.53955374276E+02  0.10995560743E+04  0.10982314775E+04 0.  0.
        2    1    3    3  502    0  0.36688771857E+03  0.40804510754E+03  0.64423007812E+01  0.54877036279E+03  0.25500000920E-02 0.  1.
       -2    1    3    3    0  502 -0.36688771857E+03 -0.40804510754E+03  0.47513073495E+02  0.55078571149E+03  0.25500000920E-02 0. -1.
</event>
<event>
 5   0  0.1372794E-03  0.1105052E+04  0.7818609E-02  0.9200281E-01
       -2   -1    0    0    0  501  0.00000000000E+00  0.00000000000E+00  0.21690872916E+03  0.21690872917E+03  0.25500000920E-02 0.  1.
        2   -1    0    0  501    0  0.00000000000E+00  0.00000000000E+00 -0.14074360987E+04  0.14074360987E+04  0.25500000920E-02 0. -1.
    10030    2    1    2    0    0  0.00000000000E+00  0.00000000000E+00 -0.11905273696E+04  0.16243448279E+04  0.11050523527E+04 0.  0.
        4    1    3    3  502    0  0.42064621192E+03  0.15753057613E+03 -0.10682154286E+04  0.11588118626E+04  0.12699999809E+01 0. -1.
       -4    1    3    3    0  502 -0.42064621192E+03 -0.15753057613E+03 -0.12231194098E+03  0.46553296535E+03  0.12699999809E+01 0.  1.
</event>
<event>
 5   0  0.1425432E-03  0.1098379E+04  0.7818609E-02  0.9206773E-01
        2   -1    0    0  501    0  0.00000000000E+00  0.00000000000E+00  0.82223170585E+03  0.82223170585E+03  0.25500000920E-02 0. -1.
       -2   -1    0    0    0  501  0.00000000000E+00  0.00000000000E+00 -0.36681764572E+03  0.36681764572E+03  0.25500000920E-02 0.  1.
    10030    2    1    2    0    0  0.00000000000E+00  0.00000000000E+00  0.45541406013E+03  0.11890493516E+04  0.10983789848E+04 0.  0.
        1    1    3    3  502    0  0.14310946071E+03 -0.14233030505E+03 -0.32521062130E+03  0.38275342156E+03  0.50400001928E-02 0.  1.
       -1    1    3    3    0  502 -0.14310946071E+03  0.14233030505E+03  0.78062468143E+03  0.80629593002E+03  0.50400001928E-02 0. -1.
</event>
<event>
 5   0  0.1372794E-03  0.1104741E+04  0.7818609E-02  0.9200583E-01
        2   -1    0    0  501    0  0.00000000000E+00  0.00000000000E+00  0.20644277366E+04  0.20644277366E+04  0.25500000920E-02 0.  1.
       -2   -1    0    0    0  501  0.00000000000E+00  0.00000000000E+00 -0.14779545577E+03  0.14779545579E+03  0.25500000920E-02 0. -1.
    10030    2    1    2    0    0  0.00000000000E+00  0.00000000000E+00  0.19166322809E+04  0.22122231924E+04  0.11047407628E+04 0.  0.
        4    1    3    3  502    0 -0.29161204604E+03 -0.43333798835E+03  0.13181617606E+04  0.14178756777E+04  0.12699999809E+01 0.  1.
       -4    1    3    3    0  502  0.29161204604E+03  0.43333798835E+03  0.59847052027E+03  0.79434751468E+03  0.12699999809E+01 0. -1.
</event>
<event>
 5   0  0.8150924E-04  0.1096333E+04  0.7818609E-02  0.9208774E-01
        1   -1    0    0  501    0  0.00000000000E+00  0.00000000000E+00  0.34998289916E+03  0.34998289919E+03  0.50400001928E-02 0.  1.
       -1   -1    0    0    0  501  0.00000000000E+00  0.00000000000E+00 -0.85857410140E+03  0.85857410142E+03  0.50400001928E-02 0. -1.
    10030    2    1    2    0    0  0.00000000000E+00  0.00000000000E+00 -0.50859120224E+03  0.12085570006E+04  0.10963325284E+04 0.  0.
        3    1    3    3  502    0 -0.23874228318E+03 -0.62497151650E+02 -0.79387127105E+03  0.83134552199E+03  0.10100000352E+00 0. -1.
       -3    1    3    3    0  502  0.23874228318E+03  0.62497151650E+02  0.28528006881E+03  0.37721147862E+03  0.10100000352E+00 0.  1.
</event>
<event>
 5   0  0.1402775E-03  0.1121754E+04  0.7818609E-02  0.9184244E-01
        2   -1    0    0  501    0  0.00000000000E+00  0.00000000000E+00  0.46843085133E+03  0.46843085134E+03  0.25500000920E-02 0.  1.
       -2   -1    0    0    0  501  0.00000000000E+00  0.00000000000E+00 -0.67156790148E+03  0.67156790148E+03  0.25500000920E-02 0. -1.
    10030    2    1    2    0    0  0.00000000000E+00  0.00000000000E+00 -0.20313705015E+03  0.11399987528E+04  0.11217542045E+04 0.  0.
        5    1    3    3  502    0  0.53819094468E+03  0.47707019813E+02 -0.25446676804E+03  0.59724440450E+03  0.46999998093E+01 0.  1.
       -5    1    3    3    0  502 -0.53819094468E+03 -0.47707019813E+02  0.51329717893E+02  0.54275434832E+03  0.46999998093E+01 0. -1.
</event>
<event>
 5   0  0.8150924E-04  0.1096253E+04  0.7818609E-02  0.9208852E-01
       -1   -1    0    0    0  501  0.00000000000E+00  0.00000000000E+00  0.15245222571E+03  0.15245222580E+03  0.50400001928E-02 0. -1.
        1   -1    0    0  501    0  0.00000000000E+00  0.00000000000E+00 -0.19707324142E+04  0.19707324142E+04  0.50400001928E-02 0.  1.
    10030    2    1    2    0    0  0.00000000000E+00  0.00000000000E+00 -0.18182801885E+04  0.21231846400E+04  0.10962527864E+04 0.  0.
        3    1    3    3  502    0 -0.11848483647E+03  0.19747687336E+03  0.54207095943E+02  0.23658865450E+03  0.10100000352E+00 0. -1.
       -3    1    3    3    0  502  0.11848483647E+03 -0.19747687336E+03 -0.18724872844E+04  0.18865959855E+04  0.10100000352E+00 0.  1.
</event>
<event>
 5   0  0.8150924E-04  0.1101155E+04  0.7818609E-02  0.9204066E-01
        1   -1    0    0  501    0  0.00000000000E+00  0.00000000000E+00  0.76330396483E+03  0.76330396484E+03  0.50400001928E-02 0.  1.
       -1   -1    0    0    0  501  0.00000000000E+00  0.00000000000E+00 -0.39713643044E+03  0.39713643047E+03  0.50400001928E-02 0. -1.
    10030    2    1    2    0    0  0.00000000000E+00  0.00000000000E+00  0.36616753439E+03  0.11604403953E+04  0.11011554149E+04 0.  0.
        3    1    3    3  502    0 -0.51025489129E+03 -0.20603598247E+03  0.16408770823E+03  0.57422614565E+03  0.10100000352E+00 0. -1.
       -3    1    3    3    0  502  0.51025489129E+03  0.20603598247E+03  0.20207982616E+03  0.58621424966E+03  0.10100000352E+00 0.  1.
</event>
<event>
 5   0  0.1429680E-03  0.1099751E+04  0.7818609E-02  0.9205434E-01
       -2   -1    0    0    0  501  0.00000000000E+00  0.00000000000E+00  0.39448292520E+03  0.39448292521E+03  0.25500000920E-02 0. -1.
        2   -1    0    0  501    0  0.00000000000E+00  0.00000000000E+00 -0.76647986515E+03  0.76647986515E+03  0.25500000920E-02 0.  1.
    10030    2    1    2    0    0  0.00000000000E+00  0.00000000000E+00 -0.37199693994E+03  0.11609627904E+04  0.10997512797E+04 0.  0.
        3    1    3    3  502    0  0.47757692365E+03  0.22418916592E+03 -0.34961787712E+03  0.63290850075E+03  0.10100000352E+00 0.  1.
       -3    1    3    3    0  502 -0.47757692365E+03 -0.22418916592E+03 -0.22379062827E+02  0.52805428961E+03  0.10100000352E+00 0. -1.
</event>
<event>
 5   0  0.8009636E-04  0.1080365E+04  0.7818609E-02  0.9224544E-01
        1   -1    0    0  501    0  0.00000000000E+00  0.00000000000E+00  0.42370374521E+03  0.42370374524E+03  0.50400001928E-02 0.  1.
       -1   -1    0    0    0  501  0.00000000000E+00  0.00000000000E+00 -0.68868143647E+03  0.68868143649E+03  0.50400001928E-02 0. -1.
    10030    2    1    2    0    0  0.00000000000E+00  0.00000000000E+00 -0.26497769126E+03  0.11123851817E+04  0.10803645754E+04 0.  0.
        1    1    3    3  502    0 -0.33477492722E+03  0.23395633025E+03  0.23152460672E+03  0.46948211883E+03  0.50400001928E-02 0.  1.
       -1    1    3    3    0  502  0.33477492722E+03 -0.23395633025E+03 -0.49650229798E+03  0.64290306290E+03  0.50400001928E-02 0. -1.
</event>
<event>
 5   0  0.7946038E-04  0.1098489E+04  0.7818609E-02  0.9206665E-01
        1   -1    0    0  501    0  0.00000000000E+00  0.00000000000E+00  0.15546497954E+04  0.15546497954E+04  0.50400001928E-02 0.  1.
       -1   -1    0    0    0  501  0.00000000000E+00  0.00000000000E+00 -0.19404356627E+03  0.19404356634E+03  0.50400001928E-02 0. -1.
    10030    2    1    2    0    0  0.00000000000E+00  0.00000000000E+00  0.13606062291E+04  0.17486933617E+04  0.10984894914E+04 0.  0.
        4    1    3    3  502    0  0.39197998323E+03  0.38261415200E+03  0.74450023892E+03  0.92429655156E+03  0.12699999809E+01 0.  1.
       -4    1    3    3    0  502 -0.39197998323E+03 -0.38261415200E+03  0.61610599017E+03  0.82439681015E+03  0.12699999809E+01 0. -1.
</event>
<event>
 5   0  0.8305271E-04  0.1099630E+04  0.7818609E-02  0.9205553E-01
        1   -1    0    0  501    0  0.00000000000E+00  0.00000000000E+00  0.56448724962E+03  0.56448724964E+03  0.50400001928E-02 0. -1.
       -1   -1    0    0    0  501  0.00000000000E+00  0.00000000000E+00 -0.53552365828E+03  0.53552365831E+03  0.50400001928E-02 0.  1.
    10030    2    1    2    0    0  0.00000000000E+00  0.00000000000E+00  0.28963591335E+02  0.11000109079E+04  0.10996295321E+04 0.  0.
        5    1    3    3  502    0  0.44846581073E+03 -0.48413711341E+02  0.32892935271E+03  0.55828494509E+03  0.46999998093E+01 0. -1.
       -5    1    3    3    0  502 -0.44846581073E+03  0.48413711341E+02 -0.29996576138E+03  0.54172596286E+03  0.46999998093E+01 0.  1.
</event>
<event>
 5   0  0.7946038E-04  0.1084585E+04  0.7818609E-02  0.9220348E-01
        1   -1    0    0  501    0  0.00000000000E+00  0.00000000000E+00  0.14231565053E+04  0.14231565054E+04  0.50400001928E-02 0.  1.
       -1   -1    0    0    0  501  0.00000000000E+00  0.00000000000E+00 -0.20664010057E+03  0.20664010063E+03  0.50400001928E-02 0. -1.
    10030    2    1    2    0    0  0.00000000000E+00  0.00000000000E+00  0.12165164048E+04  0.16297966060E+04  0.10845850883E+04 0.  0.
        4    1    3    3  502    0  0.34442658139E+03  0.17087048992E+03  0.33582992723E+02  0.38594795581E+03  0.12699999809E+01 0. -1.
       -4    1    3    3    0  502 -0.34442658139E+03 -0.17087048992E+03  0.11829334120E+04  0.12438486502E+04  0.12699999809E+01 0.  1.
</event>
<event>
 5   0  0.8009636E-04  0.1097572E+04  0.7818609E-02  0.9207561E-01
       -1   -1    0    0    0  501  0.00000000000E+00  0.00000000000E+00  0.92804431776E+03  0.92804431778E+03  0.50400001928E-02 0.  1.
        1   -1    0    0  501    0  0.00000000000E+00  0.00000000000E+00 -0.32451708632E+03  0.32451708636E+03  0.50400001928E-02 0. -1.
    10030    2    1    2    0    0  0.00000000000E+00  0.00000000000E+00  0.60352723144E+03  0.12525614041E+04  0.10975722992E+04 0.  0.
        1    1    3    3  502    0  0.22128367464E+03 -0.23834633536E+03  0.80621340012E+03  0.86934198495E+03  0.50400001928E-02 0.  1.
       -1    1    3    3    0  502 -0.22128367464E+03  0.23834633536E+03 -0.20268616868E+03  0.38321941919E+03  0.50400001928E-02 0. -1.
</event>
<event>
 5   0  0.1372794E-03  0.1101204E+04  0.7818609E-02  0.9204019E-01
        2   -1    0    0  501    0  0.00000000000E+00  0.00000000000E+00  0.64815063514E+03  0.64815063515E+03  0.25500000920E-02 0.  1.
       -2   -1    0    0    0  501  0.00000000000E+00  0.00000000000E+00 -0.46773501723E+03  0.46773501724E+03  0.25500000920E-02 0. -1.
    10030    2    1    2    0    0  0.00000000000E+00  0.00000000000E+00  0.18041561791E+03  0.11158856524E+04  0.11012043380E+04 0.  0.
        4    1    3    3  502    0  0.47288379309E+03 -0.18432234496E+02  0.37538887939E+03  0.60405070376E+03  0.12699999809E+01 0.  1.
       -4    1    3    3    0  502 -0.47288379309E+03  0.18432234496E+02 -0.19497326148E+03  0.51183494862E+03  0.12699999809E+01 0. -1.
</event>
<event>
 5   0  0.7946038E-04  0.1100103E+04  0.7818609E-02  0.9205091E-01
       -1   -1    0    0    0  501  0.00000000000E+00  0.00000000000E+00  0.90020430819E+03  0.90020430821E+03  0.50400001928E-02 0. -1.
        1   -1    0    0  501    0  0.00000000000E+00  0.00000000000E+00 -0.33609791010E+03  0.33609791014E+03  0.50400001928E-02 0.  1.
    10030    2    1    2    0    0  0.00000000000E+00  0.00000000000E+00  0.56410639809E+03  0.12363022183E+04  0.11001032437E+04 0.  0.
        4    1    3    3  502    0  0.75653606368E+02  0.37938611968E+03  0.72148545451E+03  0.81865754130E+03  0.12699999809E+01 0. -1.
       -4    1    3    3    0  502 -0.75653606368E+02 -0.37938611968E+03 -0.15737905642E+03  0.41764467704E+03  0.12699999809E+01 0.  1.
</event>
<event>
 5   0  0.7946038E-04  0.1103595E+04  0.7818609E-02  0.9201695E-01
        1   -1    0    0  501    0  0.00000000000E+00  0.00000000000E+00  0.10657524180E+04  0.10657524180E+04  0.50400001928E-02 0.  1.
       -1   -1    0    0    0  501  0.00000000000E+00  0.00000000000E+00 -0.28569550965E+03  0.28569550970E+03  0.50400001928E-02 0. -1.
    10030    2    1    2    0    0  0.00000000000E+00  0.00000000000E+00  0.78005690834E+03  0.13514479277E+04  0.11035953611E+04 0.  0.
        4    1    3    3  502    0 -0.35439728741E+03  0.14360053166E+03  0.87719307473E+03  0.95691580260E+03  0.12699999809E+01 0.  1.
       -4    1    3    3    0  502  0.35439728741E+03 -0.14360053166E+03 -0.97136166387E+02  0.39453212510E+03  0.12699999809E+01 0. -1.
</event>
<event>
 5   0  0.8150924E-04  0.1086640E+04  0.7818609E-02  0.9218312E-01
       -1   -1    0    0    0  501  0.00000000000E+00  0.00000000000E+00  0.61179278298E+03  0.61179278300E+03  0.50400001928E-02 0. -1.
        1   -1    0    0  501    0  0.00000000000E+00  0.00000000000E+00 -0.48251083818E+03  0.48251083821E+03  0.50400001928E-02 0.  1.
    10030    2    1    2    0    0  0.00000000000E+00  0.00000000000E+00  0.12928194480E+03  0.10943036212E+04  0.10866400481E+04 0.  0.
        3    1    3    3  502    0  0.18146322999E+03  0.37514250035E+03 -0.28643758975E+03  0.50567509572E+03  0.10100000352E+00 0.  1.
       -3    1    3    3    0  502 -0.18146322999E+03 -0.37514250035E+03  0.41571953456E+03  0.58862852549E+03  0.10100000352E+00 0. -1.
</event>
<event>
 5   0  0.8150924E-04  0.1097822E+04  0.7818609E-02  0.9207317E-01
        1   -1    0    0  501    0  0.00000000000E+00  0.00000000000E+00  0.59613866099E+03  0.59613866101E+03  0.50400001928E-02 0.  1.
       -1   -1    0    0    0  501  0.00000000000E+00  0.00000000000E+00 -0.50542497019E+03  0.50542497022E+03  0.50400001928E-02 0. -1.
    10030    2    1    2    0    0  0.00000000000E+00  0.00000000000E+00  0.90713690797E+02  0.11015636312E+04  0.10978221440E+04 0.  0.
        3    1    3    3  502    0  0.54380114117E+03 -0.62073318072E+02  0.87098825293E+02  0.55421926485E+03  0.10100000352E+00 0.  1.
       -3    1    3    3    0  502 -0.54380114117E+03  0.62073318072E+02  0.36148655039E+01  0.54734436638E+03  0.10100000352E+00 0. -1.
</event>
<event>
 5   0  0.1372794E-03  0.1094484E+04  0.7818609E-02  0.9210584E-01
       -2   -1    0    0    0  501  0.00000000000E+00  0.00000000000E+00  0.28163060619E+03  0.28163060620E+03  0.25500000920E-02 0.  1.
        2   -1    0    0  501    0  0.00000000000E+00  0.00000000000E+00 -0.10633575934E+04  0.10633575934E+04  0.25500000920E-02 0. -1.
    10030    2    1    2    0    0  0.00000000000E+00  0.00000000000E+00 -0.78172698722E+03  0.13449881996E+04  0.10944844332E+04 0.  0.
        4    1    3    3  502    0  0.75067621532E+01  0.25858450264E+03 -0.98347104647E+03  0.10169263536E+04  0.12699999809E+01 0. -1.
       -4    1    3    3    0  502 -0.75067621532E+01 -0.25858450264E+03  0.20174405924E+03  0.32806184603E+03  0.12699999809E+01 0.  1.
</event>
<event>
 5   0  0.8341767E-04  0.1102544E+04  0.7818609E-02  0.9202716E-01
        1   -1    0    0  501    0  0.00000000000E+00  0.00000000000E+00  0.86286241643E+03  0.86286241644E+03  0.50400001928E-02 0. -1.
       -1   -1    0    0    0  501  0.00000000000E+00  0.00000000000E+00 -0.35220053602E+03  0.35220053606E+03  0.50400001928E-02 0.  1.
    10030    2    1    2    0    0  0.00000000000E+00  0.00000000000E+00  0.51066188041E+03  0.12150629525E+04  0.11025436148E+04 0.  0.
        2    1    3    3  502    0 -0.14445549492E+03 -0.34073551967E+03 -0.19493954183E+03  0.41829356839E+03  0.25500000920E-02 0.  1.
       -2    1    3    3    0  502  0.14445549492E+03  0.34073551967E+03  0.70560142224E+03  0.79676938411E+03  0.25500000920E-02 0. -1.
</event>
<event>
 5   0  0.7946038E-04  0.1081572E+04  0.7818609E-02  0.9223342E-01
       -1   -1    0    0    0  501  0.00000000000E+00  0.00000000000E+00  0.30389321583E+03  0.30389321587E+03  0.50400001928E-02 0.  1.
        1   -1    0    0  501    0  0.00000000000E+00  0.00000000000E+00 -0.96234290733E+03  0.96234290734E+03  0.50400001928E-02 0. -1.
    10030    2    1    2    0    0  0.00000000000E+00  0.00000000000E+00 -0.65844969150E+03  0.12662361232E+04  0.10815719687E+04 0.  0.
        4    1    3    3  502    0 -0.28748915867E+03  0.46954303207E+02  0.20419083706E+03  0.35573899671E+03  0.12699999809E+01 0.  1.
       -4    1    3    3    0  502  0.28748915867E+03 -0.46954303207E+02 -0.86264052857E+03  0.91049712650E+03  0.12699999809E+01 0. -1.
</event>
<event>
 5   0  0.1372794E-03  0.1101431E+04  0.7818609E-02  0.9203798E-01
       -2   -1    0    0    0  501  0.00000000000E+00  0.00000000000E+00  0.10162386654E+04  0.10162386654E+04  0.25500000920E-02 0. -1.
        2   -1    0    0  501    0  0.00000000000E+00  0.00000000000E+00 -0.29844149034E+03  0.29844149035E+03  0.25500000920E-02 0.  1.
    10030    2    1    2    0    0  0.00000000000E+00  0.00000000000E+00  0.71779717507E+03  0.13146801558E+04  0.11014313993E+04 0.  0.
        4    1    3    3  502    0  0.42600307803E+03  0.13113214150E+03 -0.27159998730E+02  0.44655743131E+03  0.12699999809E+01 0.  1.
       -4    1    3    3    0  502 -0.42600307803E+03 -0.13113214150E+03  0.74495717380E+03  0.86812272446E+03  0.12699999809E+01 0. -1.
</event>
<event>
 5   0  0.1402775E-03  0.1095797E+04  0.7818609E-02  0.9209298E-01
        2   -1    0    0  501    0  0.00000000000E+00  0.00000000000E+00  0.96211252245E+03  0.96211252246E+03  0.25500000920E-02 0.  1.
       -2   -1    0    0    0  501  0.00000000000E+00  0.00000000000E+00 -0.31201398813E+03  0.31201398814E+03  0.25500000920E-02 0. -1.
    10030    2    1    2    0    0  0.00000000000E+00  0.00000000000E+00  0.65009853432E+03  0.12741265106E+04  0.10957966329E+04 0.  0.
        5    1    3    3  502    0 -0.17399048039E+03 -0.10390539667E+03 -0.26680872652E+03  0.33507910301E+03  0.46999998093E+01 0. -1.
       -5    1    3    3    0  502  0.17399048039E+03  0.10390539667E+03  0.91690726084E+03  0.93904740759E+03  0.46999998093E+01 0.  1.
</event>
<event>
 5   0  0.7946038E-04  0.1096911E+04  0.7818609E-02  0.9208208E-01
       -1   -1    0    0    0  501  0.00000000000E+00  0.00000000000E+00  0.17824415692E+03  0.17824415699E+03  0.50400001928E-02 0.  1.
        1   -1    0    0  501    0  0.00000000000E+00  0.00000000000E+00 -0.16875909931E+04  0.16875909931E+04  0.50400001928E-02 0. -1.
    10030    2    1    2    0    0  0.00000000000E+00  0.00000000000E+00 -0.15093468362E+04  0.18658351501E+04  0.10969106324E+04 0.  0.
        4    1    3    3  502    0  0.55578952759E+02  0.45645221736E+03 -0.24618242854E+03  0.52157937818E+03  0.12699999809E+01 0.  1.
       -4    1    3    3    0  502 -0.55578952759E+02 -0.45645221736E+03 -0.12631644076E+04  0.13442557719E+04  0.12699999809E+01 0. -1.
</event>
<event>
 5   0  0.1372794E-03  0.1102919E+04  0.7818609E-02  0.9202352E-01
       -2   -1    0    0    0  501  0.00000000000E+00  0.00000000000E+00  0.69803312082E+03  0.69803312082E+03  0.25500000920E-02 0. -1.
        2   -1    0    0  501    0  0.00000000000E+00  0.00000000000E+00 -0.43566323283E+03  0.43566323284E+03  0.25500000920E-02 0.  1.
    10030    2    1    2    0    0  0.00000000000E+00  0.00000000000E+00  0.26236988799E+03  0.11336963537E+04  0.11029186118E+04 0.  0.
        4    1    3    3  502    0 -0.13244420300E+03  0.24466629451E+02 -0.41849543408E+03  0.43963635440E+03  0.12699999809E+01 0.  1.
       -4    1    3    3    0  502  0.13244420300E+03 -0.24466629451E+02  0.68086532207E+03  0.69405999925E+03  0.12699999809E+01 0. -1.
</event>
<event>
 5   0  0.1429680E-03  0.1102353E+04  0.7818609E-02  0.9202902E-01
        2   -1    0    0  501    0  0.00000000000E+00  0.00000000000E+00  0.24031967786E+03  0.24031967787E+03  0.25500000920E-02 0. -1.
       -2   -1    0    0    0  501  0.00000000000E+00  0.00000000000E+00 -0.12641301930E+04  0.12641301930E+04  0.25500000920E-02 0.  1.
    10030    2    1    2    0    0  0.00000000000E+00  0.00000000000E+00 -0.10238105152E+04  0.15044498709E+04  0.11023526854E+04 0.  0.
        3    1    3    3  502    0  0.38564965638E+03 -0.17615476945E+03 -0.99256374814E+03  0.10793233828E+04  0.10100000352E+00 0.  1.
       -3    1    3    3    0  502 -0.38564965638E+03  0.17615476945E+03 -0.31246767038E+02  0.42512648814E+03  0.10100000352E+00 0. -1.
</event>
<event>
 5   0  0.8305271E-04  0.1035402E+04  0.7818609E-02  0.9270546E-01
       -1   -1    0    0    0  501  0.00000000000E+00  0.00000000000E+00  0.18271655259E+03  0.18271655266E+03  0.50400001928E-02 0.  1.
        1   -1    0    0  501    0  0.00000000000E+00  0.00000000000E+00 -0.14668324979E+04  0.14668324979E+04  0.50400001928E-02 0. -1.
    10030    2    1    2    0    0  0.00000000000E+00  0.00000000000E+00 -0.12841159453E+04  0.16495490505E+04  0.10354024866E+04 0.  0.
        5    1    3    3  502    0  0.12367220936E+03  0.13610637960E+03 -0.14130043742E+04  0.14249291960E+04  0.46999998093E+01 0. -1.
       -5    1    3    3    0  502 -0.12367220936E+03 -0.13610637960E+03  0.12888842897E+03  0.22461985454E+03  0.46999998093E+01 0.  1.
</event>
<event>
 5   0  0.1396936E-03  0.1095676E+04  0.7818609E-02  0.9209417E-01
        2   -1    0    0  501    0  0.00000000000E+00  0.00000000000E+00  0.61631305641E+03  0.61631305641E+03  0.25500000920E-02 0.  1.
       -2   -1    0    0    0  501  0.00000000000E+00  0.00000000000E+00 -0.48697047303E+03  0.48697047304E+03  0.25500000920E-02 0. -1.
    10030    2    1    2    0    0  0.00000000000E+00  0.00000000000E+00  0.12934258338E+03  0.11032835294E+04  0.10956756101E+04 0.  0.
        2    1    3    3  502    0 -0.29744902115E+03  0.30732360349E+03 -0.28005440522E+03  0.51122811673E+03  0.25500000920E-02 0.  1.
       -2    1    3    3    0  502  0.29744902115E+03 -0.30732360349E+03  0.40939698860E+03  0.59205541272E+03  0.25500000920E-02 0. -1.
</event>
<event>
 5   0  0.8305271E-04  0.1101803E+04  0.7818609E-02  0.9203436E-01
       -1   -1    0    0    0  501  0.00000000000E+00  0.00000000000E+00  0.48833573425E+03  0.48833573428E+03  0.50400001928E-02 0. -1.
        1   -1    0    0  501    0  0.00000000000E+00  0.00000000000E+00 -0.62148356104E+03  0.62148356106E+03  0.50400001928E-02 0.  1.
    10030    2    1    2    0    0  0.00000000000E+00  0.00000000000E+00 -0.13314782678E+03  0.11098192953E+04  0.11018033057E+04 0.  0.
        5    1    3    3  502    0 -0.45251840172E+02  0.38002292042E+03 -0.46569574503E+03  0.60279330290E+03  0.46999998093E+01 0.  1.
       -5    1    3    3    0  502  0.45251840172E+02 -0.38002292042E+03  0.33254791824E+03  0.50702599244E+03  0.46999998093E+01 0. -1.
</event>
<event>
 5   0  0.1396936E-03  0.1097912E+04  0.7818609E-02  0.9207229E-01
       -2   -1    0    0    0  501  0.00000000000E+00  0.00000000000E+00  0.35501828612E+03  0.35501828613E+03  0.25500000920E-02 0. -1.
        2   -1    0    0  501    0  0.00000000000E+00  0.00000000000E+00 -0.84883719714E+03  0.84883719715E+03  0.25500000920E-02 0.  1.
    10030    2    1    2    0    0  0.00000000000E+00  0.00000000000E+00 -0.49381891102E+03  0.12038554833E+04  0.10979120674E+04 0.  0.
        2    1    3    3  502    0 -0.37856877667E+03 -0.23331167173E+03 -0.59984484607E+03  0.74670107419E+03  0.25500000920E-02 0.  1.
       -2    1    3    3    0  502  0.37856877667E+03  0.23331167173E+03  0.10602593505E+03  0.45715440908E+03  0.25500000920E-02 0. -1.
</event>
<event>
 5   0  0.8150924E-04  0.1096840E+04  0.7818609E-02  0.9208277E-01
       -1   -1    0    0    0  501  0.00000000000E+00  0.00000000000E+00  0.46967376501E+03  0.46967376503E+03  0.50400001928E-02 0. -1.
        1   -1    0    0  501    0  0.00000000000E+00  0.00000000000E+00 -0.64036876477E+03  0.64036876479E+03  0.50400001928E-02 0.  1.
    10030    2    1    2    0    0  0.00000000000E+00  0.00000000000E+00 -0.17069499976E+03  0.11100425298E+04  0.10968398402E+04 0.  0.
        3    1    3    3  502    0 -0.14851840094E+03 -0.31820006301E+03 -0.51167271042E+03  0.62057873659E+03  0.10100000352E+00 0.  1.
       -3    1    3    3    0  502  0.14851840094E+03  0.31820006301E+03  0.34097771066E+03  0.48946379323E+03  0.10100000352E+00 0. -1.
</event>
<event>
 5   0  0.1429680E-03  0.1102140E+04  0.7818609E-02  0.9203108E-01
        2   -1    0    0  501    0  0.00000000000E+00  0.00000000000E+00  0.13091029752E+04  0.13091029752E+04  0.25500000920E-02 0. -1.
       -2   -1    0    0    0  501  0.00000000000E+00  0.00000000000E+00 -0.23197429456E+03  0.23197429457E+03  0.25500000920E-02 0.  1.
    10030    2    1    2    0    0  0.00000000000E+00  0.00000000000E+00  0.10771286807E+04  0.15410772698E+04  0.11021401711E+04 0.  0.
        3    1    3    3  502    0  0.18104467014E+03 -0.26278480672E+03 -0.89634018997E+02  0.33146235803E+03  0.10100000352E+00 0.  1.
       -3    1    3    3    0  502 -0.18104467014E+03  0.26278480672E+03  0.11667626997E+04  0.12096149118E+04  0.10100000352E+00 0. -1.
</event>
<event>
 5   0  0.8341767E-04  0.1097078E+04  0.7818609E-02  0.9208044E-01
       -1   -1    0    0    0  501  0.00000000000E+00  0.00000000000E+00  0.37394180661E+03  0.37394180664E+03  0.50400001928E-02 0.  1.
        1   -1    0    0  501    0  0.00000000000E+00  0.00000000000E+00 -0.80465796608E+03  0.80465796609E+03  0.50400001928E-02 0. -1.
    10030    2    1    2    0    0  0.00000000000E+00  0.00000000000E+00 -0.43071615947E+03  0.11785997727E+04  0.10970783993E+04 0.  0.
        2    1    3    3  502    0  0.34624451536E+02 -0.28947628856E+03  0.28381929027E+03  0.40687684110E+03  0.25500000920E-02 0.  1.
       -2    1    3    3    0  502 -0.34624451536E+02  0.28947628856E+03 -0.71453544974E+03  0.77172293164E+03  0.25500000920E-02 0. -1.
</event>
<event>
 5   0  0.8009636E-04  0.1095883E+04  0.7818609E-02  0.9209214E-01
        1   -1    0    0  501    0  0.00000000000E+00  0.00000000000E+00  0.47205367247E+03  0.47205367250E+03  0.50400001928E-02 0.  1.
       -1   -1    0    0    0  501  0.00000000000E+00  0.00000000000E+00 -0.63602924274E+03  0.63602924276E+03  0.50400001928E-02 0. -1.
    10030    2    1    2    0    0  0.00000000000E+00  0.00000000000E+00 -0.16397557027E+03  0.11080829153E+04  0.10958830957E+04 0.  0.
        1    1    3    3  502    0  0.35424727147E+03 -0.41451630989E+03 -0.27302071285E+02  0.54594899362E+03  0.50400001928E-02 0.  1.
       -1    1    3    3    0  502 -0.35424727147E+03  0.41451630989E+03 -0.13667349899E+03  0.56213392164E+03  0.50400001928E-02 0. -1.
</event>
<event>
 5   0  0.1396936E-03  0.1100487E+04  0.7818609E-02  0.9204717E-01
       -2   -1    0    0    0  501  0.00000000000E+00  0.00000000000E+00  0.41318855329E+03  0.41318855330E+03  0.25500000920E-02 0.  1.
        2   -1    0    0  501    0  0.00000000000E+00  0.00000000000E+00 -0.73275968062E+03  0.73275968063E+03  0.25500000920E-02 0. -1.
    10030    2    1    2    0    0  0.00000000000E+00  0.00000000000E+00 -0.31957112733E+03  0.11459482339E+04  0.11004870056E+04 0.  0.
        2    1    3    3  502    0 -0.68804628876E+02  0.19778261289E+03  0.37007234274E+03  0.42521239138E+03  0.25500000920E-02 0.  1.
       -2    1    3    3    0  502  0.68804628876E+02 -0.19778261289E+03 -0.68964347007E+03  0.72073584255E+03  0.25500000920E-02 0. -1.
</event>
<event>
 5   0  0.8150924E-04  0.1106836E+04  0.7818609E-02  0.9198555E-01
       -1   -1    0    0    0  501  0.00000000000E+00  0.00000000000E+00  0.50397086596E+03  0.50397086599E+03  0.50400001928E-02 0. -1.
        1   -1    0    0  501    0  0.00000000000E+00  0.00000000000E+00 -0.60771624153E+03  0.60771624155E+03  0.50400001928E-02 0.  1.
    10030    2    1    2    0    0  0.00000000000E+00  0.00000000000E+00 -0.10374537556E+03  0.11116871075E+04  0.11068356346E+04 0.  0.
        3    1    3    3  502    0 -0.22996225053E+03 -0.72061986670E+01 -0.55740450508E+03  0.60302102654E+03  0.10100000352E+00 0.  1.
       -3    1    3    3    0  502  0.22996225053E+03  0.72061986670E+01  0.45365912951E+03  0.50866608100E+03  0.10100000352E+00 0. -1.
</event>
<event>
 5   0  0.1372794E-03  0.1105764E+04  0.7818609E-02  0.9199592E-01
       -2   -1    0    0    0  501  0.00000000000E+00  0.00000000000E+00  0.84346479575E+03  0.84346479575E+03  0.25500000920E-02 0. -1.
        2   -1    0    0  501    0  0.00000000000E+00  0.00000000000E+00 -0.36240834201E+03  0.36240834202E+03  0.25500000920E-02 0.  1.
    10030    2    1    2    0    0  0.00000000000E+00  0.00000000000E+00  0.48105645374E+03  0.12058731378E+04  0.11057643116E+04 0.  0.
        4    1    3    3  502    0  0.24700368991E+03  0.91455353529E+02 -0.28959019724E+03  0.39145753251E+03  0.12699999809E+01 0.  1.
       -4    1    3    3    0  502 -0.24700368991E+03 -0.91455353529E+02  0.77064665098E+03  0.81441560526E+03  0.12699999809E+01 0. -1.
</event>
<event>
 5   0  0.1429680E-03  0.1097562E+04  0.7818609E-02  0.9207571E-01
        2   -1    0    0  501    0  0.00000000000E+00  0.00000000000E+00  0.42612454448E+03  0.42612454449E+03  0.25500000920E-02 0. -1.
       -2   -1    0    0    0  501  0.00000000000E+00  0.00000000000E+00 -0.70674304770E+03  0.70674304771E+03  0.25500000920E-02 0.  1.
    10030    2    1    2    0    0  0.00000000000E+00  0.00000000000E+00 -0.28061850322E+03  0.11328675922E+04  0.10975619514E+04 0.  0.
        3    1    3    3  502    0  0.44231957443E+03 -0.15505161816E+03  0.15430706882E+03  0.49345546091E+03  0.10100000352E+00 0. -1.
       -3    1    3    3    0  502 -0.44231957443E+03  0.15505161816E+03 -0.43492557204E+03  0.63941213128E+03  0.10100000352E+00 0.  1.
</event>
<event>
 5   0  0.1402775E-03  0.1098736E+04  0.7818609E-02  0.9206425E-01
        2   -1    0    0  501    0  0.00000000000E+00  0.00000000000E+00  0.64900529118E+03  0.64900529119E+03  0.25500000920E-02 0. -1.
       -2   -1    0    0    0  501  0.00000000000E+00  0.00000000000E+00 -0.46502698485E+03  0.46502698485E+03  0.25500000920E-02 0.  1.
    10030    2    1    2    0    0  0.00000000000E+00  0.00000000000E+00  0.18397830633E+03  0.11140322760E+04  0.10987355891E+04 0.  0.
        5    1    3    3  502    0 -0.22598137209E+03  0.33472608669E+03  0.46956283213E+03  0.61937103335E+03  0.46999998093E+01 0. -1.
       -5    1    3    3    0  502  0.22598137209E+03 -0.33472608669E+03 -0.28558452579E+03  0.49466124269E+03  0.46999998093E+01 0.  1.
</event>
<event>
 5   0  0.7946038E-04  0.1101164E+04  0.7818609E-02  0.9204058E-01
       -1   -1    0    0    0  501  0.00000000000E+00  0.00000000000E+00  0.17891409789E+04  0.17891409789E+04  0.50400001928E-02 0.  1.
        1   -1    0    0  501    0  0.00000000000E+00  0.00000000000E+00 -0.16943359462E+03  0.16943359469E+03  0.50400001928E-02 0. -1.
    10030    2    1    2    0    0  0.00000000000E+00  0.00000000000E+00  0.16197073843E+04  0.19585745736E+04  0.11011640884E+04 0.  0.
        4    1    3    3  502    0 -0.53932936094E+03  0.96987082445E+02  0.90491232476E+03  0.10578991361E+04  0.12699999809E+01 0. -1.
       -4    1    3    3    0  502  0.53932936094E+03 -0.96987082445E+02  0.71479505956E+03  0.90067543755E+03  0.12699999809E+01 0.  1.
</event>
<event>
 5   0  0.8150924E-04  0.1109864E+04  0.7818609E-02  0.9195631E-01
       -1   -1    0    0    0  501  0.00000000000E+00  0.00000000000E+00  0.62892042774E+03  0.62892042776E+03  0.50400001928E-02 0. -1.
        1   -1    0    0  501    0  0.00000000000E+00  0.00000000000E+00 -0.48964767235E+03  0.48964767237E+03  0.50400001928E-02 0.  1.
    10030    2    1    2    0    0  0.00000000000E+00  0.00000000000E+00  0.13927275539E+03  0.11185681001E+04  0.11098638179E+04 0.  0.
        3    1    3    3  502    0 -0.37296320518E+03 -0.12223640710E+03  0.46502182786E+03  0.60851343635E+03  0.10100000352E+00 0. -1.
       -3    1    3    3    0  502  0.37296320518E+03  0.12223640710E+03 -0.32574907246E+03  0.51005466379E+03  0.10100000352E+00 0.  1.
</event>
<event>
 5   0  0.8305271E-04  0.1094578E+04  0.7818609E-02  0.9210493E-01
        1   -1    0    0  501    0  0.00000000000E+00  0.00000000000E+00  0.12288941226E+04  0.12288941226E+04  0.50400001928E-02 0. -1.
       -1   -1    0    0    0  501  0.00000000000E+00  0.00000000000E+00 -0.24373566020E+03  0.24373566025E+03  0.50400001928E-02 0.  1.
    10030    2    1    2    0    0  0.00000000000E+00  0.00000000000E+00  0.98515846240E+03  0.14726297829E+04  0.10945781294E+04 0.  0.
        5    1    3    3  502    0 -0.20197611640E+03 -0.40580038356E+03  0.80015154249E+02  0.46031817018E+03  0.46999998093E+01 0.  1.
       -5    1    3    3    0  502  0.20197611640E+03  0.40580038356E+03  0.90514330815E+03  0.10123116127E+04  0.46999998093E+01 0. -1.
</event>
<event>
 5   0  0.1372794E-03  0.1097850E+04  0.7818609E-02  0.9207290E-01
        2   -1    0    0  501    0  0.00000000000E+00  0.00000000000E+00  0.81294302927E+03  0.81294302928E+03  0.25500000920E-02 0. -1.
       -2   -1    0    0    0  501  0.00000000000E+00  0.00000000000E+00 -0.37065162979E+03  0.37065162980E+03  0.25500000920E-02 0.  1.
    10030    2    1    2    0    0  0.00000000000E+00  0.00000000000E+00  0.44229139949E+03  0.11835946591E+04  0.10978500057E+04 0.  0.
        4    1    3    3  502    0  0.25288490154E+03  0.35755832712E+03 -0.13563665310E+03  0.45847316747E+03  0.12699999809E+01 0.  1.
       -4    1    3    3    0  502 -0.25288490154E+03 -0.35755832712E+03  0.57792805258E+03  0.72512149160E+03  0.12699999809E+01 0. -1.
</event>
<event>
 5   0  0.1425432E-03  0.1100629E+04  0.7818609E-02  0.9204579E-01
       -2   -1    0    0    0  501  0.00000000000E+00  0.00000000000E+00  0.34363981908E+03  0.34363981909E+03  0.25500000920E-02 0. -1.
        2   -1    0    0  501    0  0.00000000000E+00  0.00000000000E+00 -0.88128984324E+03  0.88128984324E+03  0.25500000920E-02 0.  1.
    10030    2    1    2    0    0  0.00000000000E+00  0.00000000000E+00 -0.53765002416E+03  0.12249296623E+04  0.11006294241E+04 0.  0.
        1    1    3    3  502    0 -0.26349819478E+02 -0.22810281555E+03 -0.82542754145E+03  0.85677058403E+03  0.50400001928E-02 0.  1.
       -1    1    3    3    0  502  0.26349819478E+02  0.22810281555E+03  0.28777751730E+03  0.36815907830E+03  0.50400001928E-02 0. -1.
</event>
<event>
 5   0  0.1402775E-03  0.1090300E+04  0.7818609E-02  0.9214698E-01
       -2   -1    0    0    0  501  0.00000000000E+00  0.00000000000E+00  0.20187355658E+03  0.20187355659E+03  0.25500000920E-02 0.  1.
        2   -1    0    0  501    0  0.00000000000E+00  0.00000000000E+00 -0.14721520330E+04  0.14721520330E+04  0.25500000920E-02 0. -1.
    10030    2    1    2    0    0  0.00000000000E+00  0.00000000000E+00 -0.12702784764E+04  0.16740255896E+04  0.10903000812E+04 0.  0.
        5    1    3    3  502    0  0.23119401306E+03 -0.47970152232E+01  0.12280523659E+03  0.26187191365E+03  0.46999998093E+01 0.  1.
       -5    1    3    3    0  502 -0.23119401306E+03  0.47970152232E+01 -0.13930837130E+04  0.14121536759E+04  0.46999998093E+01 0. -1.
</event>
<event>
 5   0  0.1372794E-03  0.1094820E+04  0.7818609E-02  0.9210255E-01
        2   -1    0    0  501    0  0.00000000000E+00  0.00000000000E+00  0.22216662120E+04  0.22216662120E+04  0.25500000920E-02 0.  1.
       -2   -1    0    0    0  501  0.00000000000E+00  0.00000000000E+00 -0.13487982217E+03  0.13487982219E+03  0.25500000920E-02 0. -1.
    10030    2    1    2    0    0  0.00000000000E+00  0.00000000000E+00  0.20867863898E+04  0.23565460342E+04  0.10948204303E+04 0.  0.
        4    1    3    3  502    0  0.47969589294E+03 -0.26232429193E+03  0.98507225501E+03  0.11266282192E+04  0.12699999809E+01 0. -1.
       -4    1    3    3    0  502 -0.47969589294E+03  0.26232429193E+03  0.11017141348E+04  0.12299178150E+04  0.12699999809E+01 0.  1.
</event>
<event>
 5   0  0.1396936E-03  0.1097432E+04  0.7818609E-02  0.9207698E-01
        2   -1    0    0  501    0  0.00000000000E+00  0.00000000000E+00  0.79421886718E+03  0.79421886719E+03  0.25500000920E-02 0.  1.
       -2   -1    0    0    0  501  0.00000000000E+00  0.00000000000E+00 -0.37910133536E+03  0.37910133536E+03  0.25500000920E-02 0. -1.
    10030    2    1    2    0    0  0.00000000000E+00  0.00000000000E+00  0.41511753183E+03  0.11733202026E+04  0.10974323362E+04 0.  0.
        2    1    3    3  502    0  0.16022989070E+03 -0.78379550006E+02  0.76235661154E+03  0.78294608684E+03  0.25500000920E-02 0.  1.
       -2    1    3    3    0  502 -0.16022989070E+03  0.78379550006E+02 -0.34723907971E+03  0.39037411571E+03  0.25500000920E-02 0. -1.
</event>
<event>
 5   0  0.1402775E-03  0.1099565E+04  0.7818609E-02  0.9205616E-01
        2   -1    0    0  501    0  0.00000000000E+00  0.00000000000E+00  0.10247350077E+04  0.10247350077E+04  0.25500000920E-02 0.  1.
       -2   -1    0    0    0  501  0.00000000000E+00  0.00000000000E+00 -0.29496504234E+03  0.29496504235E+03  0.25500000920E-02 0. -1.
    10030    2    1    2    0    0  0.00000000000E+00  0.00000000000E+00  0.72976996540E+03  0.13197000501E+04  0.10995653777E+04 0.  0.
        5    1    3    3  502    0  0.15866123423E+03 -0.41642341880E+03 -0.21529707353E+02  0.44616977629E+03  0.46999998093E+01 0.  1.
       -5    1    3    3    0  502 -0.15866123423E+03  0.41642341880E+03  0.75129967275E+03  0.87353027380E+03  0.46999998093E+01 0. -1.
</event>
<event>
 5   0  0.1402775E-03  0.1099077E+04  0.7818609E-02  0.9206092E-01
        2   -1    0    0  501    0  0.00000000000E+00  0.00000000000E+00  0.22639715129E+04  0.22639715129E+04  0.25500000920E-02 0.  1.
       -2   -1    0    0    0  501  0.00000000000E+00  0.00000000000E+00 -0.13339051092E+03  0.13339051094E+03  0.25500000920E-02 0. -1.
    10030    2    1    2    0    0  0.00000000000E+00  0.00000000000E+00  0.21305810020E+04  0.23973620239E+04  0.10990765521E+04 0.  0.
        5    1    3    3  502    0  0.36660911102E+03 -0.67617903406E+02  0.18465965531E+03  0.41604771294E+03  0.46999998093E+01 0. -1.
       -5    1    3    3    0  502 -0.36660911102E+03  0.67617903406E+02  0.19459213467E+04  0.19813143109E+04  0.46999998093E+01 0.  1.
</event>
<event>
 5   0  0.8341767E-04  0.1104940E+04  0.7818609E-02  0.9200390E-01
       -1   -1    0    0    0  501  0.00000000000E+00  0.00000000000E+00  0.44254424243E+03  0.44254424246E+03  0.50400001928E-02 0.  1.
        1   -1    0    0  501    0  0.00000000000E+00  0.00000000000E+00 -0.68970099544E+03  0.68970099546E+03  0.50400001928E-02 0. -1.
    10030    2    1    2    0    0  0.00000000000E+00  0.00000000000E+00 -0.24715675301E+03  0.11322452379E+04  0.11049401876E+04 0.  0.
        2    1    3    3  502    0 -0.22407304068E+03 -0.12086746609E+03  0.37884977155E+03  0.45644804888E+03  0.25500000920E-02 0.  1.
       -2    1    3    3    0  502  0.22407304068E+03  0.12086746609E+03 -0.62600652456E+03  0.67579718904E+03  0.25500000920E-02 0. -1.
</event>
<event>
 5   0  0.8341767E-04  0.1099619E+04  0.7818609E-02  0.9205563E-01
        1   -1    0    0  501    0  0.00000000000E+00  0.00000000000E+00  0.64062557101E+03  0.64062557102E+03  0.50400001928E-02 0.  1.
       -1   -1    0    0    0  501  0.00000000000E+00  0.00000000000E+00 -0.47186748767E+03  0.47186748770E+03  0.50400001928E-02 0. -1.
    10030    2    1    2    0    0  0.00000000000E+00  0.00000000000E+00  0.16875808334E+03  0.11124930587E+04  0.10996188044E+04 0.  0.
        2    1    3    3  502    0 -0.25502065707E+03  0.28502644020E+03  0.48399057283E+03  0.61686504338E+03  0.25500000920E-02 0.  1.
       -2    1    3    3    0  502  0.25502065707E+03 -0.28502644020E+03 -0.31523248950E+03  0.49562801534E+03  0.25500000920E-02 0. -1.
</event>
<event>
 5   0  0.5409500E-04  0.1042695E+04  0.7818609E-02  0.9262918E-01
        4   -1    0    0  501    0  0.00000000000E+00  0.00000000000E+00  0.57663900012E+03  0.57664039865E+03  0.12699999809E+01 0. -1.
       -4   -1    0    0    0  501  0.00000000000E+00  0.00000000000E+00 -0.47135498369E+03  0.47135669461E+03  0.12699999809E+01 0.  1.
    10030    2    1    2    0    0  0.00000000000E+00  0.00000000000E+00  0.10528401643E+03  0.10479970933E+04  0.10426951536E+04 0.  0.
        1    1    3    3  502    0 -0.37918687263E+03  0.25642460196E+03 -0.19816046569E+03  0.49880239680E+03  0.50400001928E-02 0.  1.
       -1    1    3    3    0  502  0.37918687263E+03 -0.25642460196E+03  0.30344448212E+03  0.54919469646E+03  0.50400001928E-02 0. -1.
</event>
<event>
 5   0  0.8305271E-04  0.1099632E+04  0.7818609E-02  0.9205551E-01
       -1   -1    0    0    0  501  0.00000000000E+00  0.00000000000E+00  0.30180508402E+03  0.30180508406E+03  0.50400001928E-02 0. -1.
        1   -1    0    0  501    0  0.00000000000E+00  0.00000000000E+00 -0.10016312348E+04  0.10016312348E+04  0.50400001928E-02 0.  1.
    10030    2    1    2    0    0  0.00000000000E+00  0.00000000000E+00 -0.69982615077E+03  0.13034363189E+04  0.10996315729E+04 0.  0.
        5    1    3    3  502    0  0.19586144358E+03 -0.50009039933E+03 -0.48927587325E+03  0.72654324216E+03  0.46999998093E+01 0.  1.
       -5    1    3    3    0  502 -0.19586144358E+03  0.50009039933E+03 -0.21055027752E+03  0.57689307670E+03  0.46999998093E+01 0. -1.
</event>
<event>
 5   0  0.1429680E-03  0.1101620E+04  0.7818609E-02  0.9203615E-01
       -2   -1    0    0    0  501  0.00000000000E+00  0.00000000000E+00  0.45451475253E+03  0.45451475254E+03  0.25500000920E-02 0. -1.
        2   -1    0    0  501    0  0.00000000000E+00  0.00000000000E+00 -0.66750618333E+03  0.66750618334E+03  0.25500000920E-02 0.  1.
    10030    2    1    2    0    0  0.00000000000E+00  0.00000000000E+00 -0.21299143080E+03  0.11220209359E+04  0.11016195491E+04 0.  0.
        3    1    3    3  502    0 -0.91667083586E+02 -0.49657599869E+03  0.11758046344E+03  0.51847444707E+03  0.10100000352E+00 0. -1.
       -3    1    3    3    0  502  0.91667083586E+02  0.49657599869E+03 -0.33057189424E+03  0.60354648880E+03  0.10100000352E+00 0.  1.
</event>
<event>
 5   0  0.8009636E-04  0.1101617E+04  0.7818609E-02  0.9203617E-01
       -1   -1    0    0    0  501  0.00000000000E+00  0.00000000000E+00  0.66233728960E+03  0.66233728961E+03  0.50400001928E-02 0.  1.
        1   -1    0    0  501    0  0.00000000000E+00  0.00000000000E+00 -0.45805984455E+03  0.45805984458E+03  0.50400001928E-02 0. -1.
    10030    2    1    2    0    0  0.00000000000E+00  0.00000000000E+00  0.20427744505E+03  0.11203971342E+04  0.11016172038E+04 0.  0.
        1    1    3    3  502    0  0.54117040786E+03  0.60527808190E+01 -0.20184198583E+01  0.54120801966E+03  0.50400001928E-02 0. -1.
       -1    1    3    3    0  502 -0.54117040786E+03 -0.60527808190E+01  0.20629586490E+03  0.57918911454E+03  0.50400001928E-02 0.  1.
</event>
<event>
 5   0  0.8341767E-04  0.1099158E+04  0.7818609E-02  0.9206013E-01
        1   -1    0    0  501    0  0.00000000000E+00  0.00000000000E+00  0.37058331211E+03  0.37058331215E+03  0.50400001928E-02 0.  1.
       -1   -1    0    0    0  501  0.00000000000E+00  0.00000000000E+00 -0.81503163118E+03  0.81503163120E+03  0.50400001928E-02 0. -1.
    10030    2    1    2    0    0  0.00000000000E+00  0.00000000000E+00 -0.44444831907E+03  0.11856149433E+04  0.10991580803E+04 0.  0.
        2    1    3    3  502    0 -0.37985792893E+03  0.19614462024E+03 -0.59474744074E+03  0.73245428287E+03  0.25500000920E-02 0. -1.
       -2    1    3    3    0  502  0.37985792893E+03 -0.19614462024E+03  0.15029912167E+03  0.45316066047E+03  0.25500000920E-02 0.  1.
</event>
<event>
 5   0  0.8305271E-04  0.1067252E+04  0.7818609E-02  0.9237712E-01
        1   -1    0    0  501    0  0.00000000000E+00  0.00000000000E+00  0.73476979549E+03  0.73476979551E+03  0.50400001928E-02 0.  1.
       -1   -1    0    0    0  501  0.00000000000E+00  0.00000000000E+00 -0.38754544589E+03  0.38754544593E+03  0.50400001928E-02 0. -1.
    10030    2    1    2    0    0  0.00000000000E+00  0.00000000000E+00  0.34722434960E+03  0.11223152414E+04  0.10672519629E+04 0.  0.
        5    1    3    3  502    0  0.51639354438E+03 -0.25078619353E+02  0.31249964680E+03  0.60412693126E+03  0.46999998093E+01 0.  1.
       -5    1    3    3    0  502 -0.51639354438E+03  0.25078619353E+02  0.34724702799E+02  0.51818831018E+03  0.46999998093E+01 0. -1.
</event>
<event>
 5   0  0.1396936E-03  0.1084688E+04  0.7818609E-02  0.9220246E-01
        2   -1    0    0  501    0  0.00000000000E+00  0.00000000000E+00  0.92649184392E+03  0.92649184392E+03  0.25500000920E-02 0. -1.
       -2   -1    0    0    0  501  0.00000000000E+00  0.00000000000E+00 -0.31747388795E+03  0.31747388796E+03  0.25500000920E-02 0.  1.
    10030    2    1    2    0    0  0.00000000000E+00  0.00000000000E+00  0.60901795597E+03  0.12439657319E+04  0.10846879143E+04 0.  0.
        2    1    3    3  502    0  0.62165692960E+01  0.25569061537E+03  0.85298328251E+03  0.89050368712E+03  0.25500000920E-02 0. -1.
       -2    1    3    3    0  502 -0.62165692960E+01 -0.25569061537E+03 -0.24396532654E+03  0.35346204476E+03  0.25500000920E-02 0.  1.
</event>
<event>
 5   0  0.1372794E-03  0.1098115E+04  0.7818609E-02  0.9207031E-01
       -2   -1    0    0    0  501  0.00000000000E+00  0.00000000000E+00  0.27604503889E+03  0.27604503890E+03  0.25500000920E-02 0. -1.
        2   -1    0    0  501    0  0.00000000000E+00  0.00000000000E+00 -0.10920826242E+04  0.10920826242E+04  0.25500000920E-02 0.  1.
    10030    2    1    2    0    0  0.00000000000E+00  0.00000000000E+00 -0.81603758531E+03  0.13681276631E+04  0.10981147308E+04 0.  0.
        4    1    3    3  502    0  0.32214035832E+03 -0.41620847268E+03 -0.21317185302E+03  0.56784483357E+03  0.12699999809E+01 0. -1.
       -4    1    3    3    0  502 -0.32214035832E+03  0.41620847268E+03 -0.60286573229E+03  0.80028282954E+03  0.12699999809E+01 0.  1.
</event>
<event>
 5   0  0.8150924E-04  0.1097144E+04  0.7818609E-02  0.9207980E-01
        1   -1    0    0  501    0  0.00000000000E+00  0.00000000000E+00  0.13530553085E+04  0.13530553085E+04  0.50400001928E-02 0. -1.
       -1   -1    0    0    0  501  0.00000000000E+00  0.00000000000E+00 -0.22240864749E+03  0.22240864754E+03  0.50400001928E-02 0.  1.
    10030    2    1    2    0    0  0.00000000000E+00  0.00000000000E+00  0.11306466610E+04  0.15754639560E+04  0.10971439307E+04 0.  0.
        3    1    3    3  502    0  0.19213429524E+03 -0.37723928446E+03  0.64365596544E+02  0.42821490559E+03  0.10100000352E+00 0.  1.
       -3    1    3    3    0  502 -0.19213429524E+03  0.37723928446E+03  0.10662810645E+04  0.11472490505E+04  0.10100000352E+00 0. -1.
</event>
<event>
 5   0  0.1396936E-03  0.1092920E+04  0.7818609E-02  0.9212120E-01
       -2   -1    0    0    0  501  0.00000000000E+00  0.00000000000E+00  0.14740397988E+03  0.14740397990E+03  0.25500000920E-02 0. -1.
        2   -1    0    0  501    0  0.00000000000E+00  0.00000000000E+00 -0.20258509666E+04  0.20258509666E+04  0.25500000920E-02 0.  1.
    10030    2    1    2    0    0  0.00000000000E+00  0.00000000000E+00 -0.18784469867E+04  0.21732549465E+04  0.10929199333E+04 0.  0.
        2    1    3    3  502    0  0.50356153564E+03 -0.53683035154E+02 -0.13475288020E+04  0.14395450533E+04  0.25500000920E-02 0.  1.
       -2    1    3    3    0  502 -0.50356153564E+03  0.53683035154E+02 -0.53091818476E+03  0.73370989318E+03  0.25500000920E-02 0. -1.
</event>
<event>
 5   0  0.8305271E-04  0.1097678E+04  0.7818609E-02  0.9207458E-01
        1   -1    0    0  501    0  0.00000000000E+00  0.00000000000E+00  0.10987893347E+04  0.10987893347E+04  0.50400001928E-02 0. -1.
       -1   -1    0    0    0  501  0.00000000000E+00  0.00000000000E+00 -0.27414215666E+03  0.27414215671E+03  0.50400001928E-02 0.  1.
    10030    2    1    2    0    0  0.00000000000E+00  0.00000000000E+00  0.82464717799E+03  0.13729314914E+04  0.10976784191E+04 0.  0.
        5    1    3    3  502    0 -0.46137155350E+03  0.55350089720E+02  0.47078218570E+02  0.46708221061E+03  0.46999998093E+01 0.  1.
       -5    1    3    3    0  502  0.46137155350E+03 -0.55350089720E+02  0.77756895942E+03  0.90584928077E+03  0.46999998093E+01 0. -1.
</event>
<event>
 5   0  0.5409500E-04  0.1096981E+04  0.7818609E-02  0.9208140E-01
       -3   -1    0    0    0  501  0.00000000000E+00  0.00000000000E+00  0.12495322468E+04  0.12495322509E+04  0.10100000352E+00 0.  1.
        3   -1    0    0  501    0  0.00000000000E+00  0.00000000000E+00 -0.24076344885E+03  0.24076347004E+03  0.10100000352E+00 0. -1.
    10030    2    1    2    0    0  0.00000000000E+00  0.00000000000E+00  0.10087687980E+04  0.14902957209E+04  0.10969807875E+04 0.  0.
        1    1    3    3  502    0 -0.49004333573E+03  0.52993394883E+02  0.83125716515E+03  0.96640532151E+03  0.50400001928E-02 0.  1.
       -1    1    3    3    0  502  0.49004333573E+03 -0.52993394883E+02  0.17751163280E+03  0.52389039942E+03  0.50400001928E-02 0. -1.
</event>
<event>
 5   0  0.7946038E-04  0.1099029E+04  0.7818609E-02  0.9206138E-01
        1   -1    0    0  501    0  0.00000000000E+00  0.00000000000E+00  0.15504386165E+04  0.15504386165E+04  0.50400001928E-02 0.  1.
       -1   -1    0    0    0  501  0.00000000000E+00  0.00000000000E+00 -0.19476195160E+03  0.19476195166E+03  0.50400001928E-02 0. -1.
    10030    2    1    2    0    0  0.00000000000E+00  0.00000000000E+00  0.13556766649E+04  0.17452005682E+04  0.10990294825E+04 0.  0.
        4    1    3    3  502    0 -0.24022449099E+03 -0.17753592999E+03  0.14102555832E+04  0.14415440456E+04  0.12699999809E+01 0.  1.
       -4    1    3    3    0  502  0.24022449099E+03  0.17753592999E+03 -0.54578918269E+02  0.30365652261E+03  0.12699999809E+01 0. -1.
</event>
<event>
 5   0  0.8341767E-04  0.1102810E+04  0.7818609E-02  0.9202458E-01
       -1   -1    0    0    0  501  0.00000000000E+00  0.00000000000E+00  0.42683562777E+03  0.42683562780E+03  0.50400001928E-02 0. -1.
        1   -1    0    0  501    0  0.00000000000E+00  0.00000000000E+00 -0.71232865649E+03  0.71232865651E+03  0.50400001928E-02 0.  1.
    10030    2    1    2    0    0  0.00000000000E+00  0.00000000000E+00 -0.28549302872E+03  0.11391642843E+04  0.11028095924E+04 0.  0.
        2    1    3    3  502    0 -0.36286679409E+03  0.25900128566E+03 -0.47793272080E+03  0.65358523686E+03  0.25500000920E-02 0.  1.
       -2    1    3    3    0  502  0.36286679409E+03 -0.25900128566E+03  0.19243969208E+03  0.48557904745E+03  0.25500000920E-02 0. -1.
</event>
<event>
 5   0  0.8305271E-04  0.1094776E+04  0.7818609E-02  0.9210298E-01
       -1   -1    0    0    0  501  0.00000000000E+00  0.00000000000E+00  0.13036364396E+04  0.13036364397E+04  0.50400001928E-02 0.  1.
        1   -1    0    0  501    0  0.00000000000E+00  0.00000000000E+00 -0.22984463955E+03  0.22984463960E+03  0.50400001928E-02 0. -1.
    10030    2    1    2    0    0  0.00000000000E+00  0.00000000000E+00  0.10737918001E+04  0.15334810793E+04  0.10947764112E+04 0.  0.
        5    1    3    3  502    0 -0.36742081734E+03 -0.24643802972E+02  0.11041574755E+04  0.11639549797E+04  0.46999998093E+01 0.  1.
       -5    1    3    3    0  502  0.36742081734E+03  0.24643802972E+02 -0.30365675379E+02  0.36952609959E+03  0.46999998093E+01 0. -1.
</event>
<event>
 5   0  0.8009636E-04  0.1099321E+04  0.7818609E-02  0.9205854E-01
       -1   -1    0    0    0  501  0.00000000000E+00  0.00000000000E+00  0.83355015559E+03  0.83355015560E+03  0.50400001928E-02 0.  1.
        1   -1    0    0  501    0  0.00000000000E+00  0.00000000000E+00 -0.36245782503E+03  0.36245782507E+03  0.50400001928E-02 0. -1.
    10030    2    1    2    0    0  0.00000000000E+00  0.00000000000E+00  0.47109233056E+03  0.11960079807E+04  0.10993212023E+04 0.  0.
        1    1    3    3  502    0  0.65748781317E+01  0.19827525109E+03 -0.32215012316E+03  0.37833451613E+03  0.50400001928E-02 0. -1.
       -1    1    3    3    0  502 -0.65748781317E+01 -0.19827525109E+03  0.79324245372E+03  0.81767346454E+03  0.50400001928E-02 0.  1.
</event>
<event>
 5   0  0.1429680E-03  0.1102649E+04  0.7818609E-02  0.9202614E-01
       -2   -1    0    0    0  501  0.00000000000E+00  0.00000000000E+00  0.20171484416E+03  0.20171484418E+03  0.25500000920E-02 0. -1.
        2   -1    0    0  501    0  0.00000000000E+00  0.00000000000E+00 -0.15068734735E+04  0.15068734735E+04  0.25500000920E-02 0.  1.
    10030    2    1    2    0    0  0.00000000000E+00  0.00000000000E+00 -0.13051586294E+04  0.17085883177E+04  0.11026490791E+04 0.  0.
        3    1    3    3  502    0 -0.30422674845E+02  0.42399959976E+03 -0.10856934625E+03  0.43873512840E+03  0.10100000352E+00 0. -1.
       -3    1    3    3    0  502  0.30422674845E+02 -0.42399959976E+03 -0.11965892831E+04  0.12698531893E+04  0.10100000352E+00 0.  1.
</event>
<event>
 5   0  0.1429680E-03  0.1100290E+04  0.7818609E-02  0.9204909E-01
        2   -1    0    0  501    0  0.00000000000E+00  0.00000000000E+00  0.19818795803E+04  0.19818795804E+04  0.25500000920E-02 0. -1.
       -2   -1    0    0    0  501  0.00000000000E+00  0.00000000000E+00 -0.15271347259E+03  0.15271347261E+03  0.25500000920E-02 0.  1.
    10030    2    1    2    0    0  0.00000000000E+00  0.00000000000E+00  0.18291661078E+04  0.21345930530E+04  0.11002903489E+04 0.  0.
        3    1    3    3  502    0 -0.35974350501E+03  0.17615390399E+02  0.17213498130E+04  0.17586275559E+04  0.10100000352E+00 0. -1.
       -3    1    3    3    0  502  0.35974350501E+03 -0.17615390399E+02  0.10781629476E+03  0.37596549708E+03  0.10100000352E+00 0.  1.
</event>
<event>
 5   0  0.8305271E-04  0.1093973E+04  0.7818609E-02  0.9211086E-01
        1   -1    0    0  501    0  0.00000000000E+00  0.00000000000E+00  0.11422124460E+04  0.11422124460E+04  0.50400001928E-02 0. -1.
       -1   -1    0    0    0  501  0.00000000000E+00  0.00000000000E+00 -0.26194275997E+03  0.26194276002E+03  0.50400001928E-02 0.  1.
    10030    2    1    2    0    0  0.00000000000E+00  0.00000000000E+00  0.88026968602E+03  0.14041552060E+04  0.10939730904E+04 0.  0.
        5    1    3    3  502    0 -0.37506366787E+03  0.33848940021E+03  0.17112931529E+03  0.53343712053E+03  0.46999998093E+01 0.  1.
       -5    1    3    3    0  502  0.37506366787E+03 -0.33848940021E+03  0.70914037073E+03  0.87071808549E+03  0.46999998093E+01 0. -1.
</event>
<event>
 5   0  0.8150924E-04  0.1091678E+04  0.7818609E-02  0.9213341E-01
        1   -1    0    0  501    0  0.00000000000E+00  0.00000000000E+00  0.95606669046E+03  0.95606669047E+03  0.50400001928E-02 0.  1.
       -1   -1    0    0    0  501  0.00000000000E+00  0.00000000000E+00 -0.31163134480E+03  0.31163134484E+03  0.50400001928E-02 0. -1.
    10030    2    1    2    0    0  0.00000000000E+00  0.00000000000E+00  0.64443534566E+03  0.12676980353E+04  0.10916782466E+04 0.  0.
        3    1    3    3  502    0 -0.44543948102E+03 -0.10185804195E+02 -0.43931957824E+02  0.44771654982E+03  0.10100000352E+00 0. -1.
       -3    1    3    3    0  502  0.44543948102E+03  0.10185804195E+02  0.68836730348E+03  0.81998148550E+03  0.10100000352E+00 0.  1.
</event>
<event>
 5   0  0.8150924E-04  0.1101397E+04  0.7818609E-02  0.9203831E-01
        1   -1    0    0  501    0  0.00000000000E+00  0.00000000000E+00  0.12771177561E+04  0.12771177561E+04  0.50400001928E-02 0. -1.
       -1   -1    0    0    0  501  0.00000000000E+00  0.00000000000E+00 -0.23746350908E+03  0.23746350913E+03  0.50400001928E-02 0.  1.
    10030    2    1    2    0    0  0.00000000000E+00  0.00000000000E+00  0.10396542470E+04  0.15145812652E+04  0.11013970472E+04 0.  0.
        3    1    3    3  502    0  0.56015160318E+02  0.19306972878E+03 -0.18520188805E+03  0.27333746156E+03  0.10100000352E+00 0.  1.
       -3    1    3    3    0  502 -0.56015160318E+02 -0.19306972878E+03  0.12248561350E+04  0.12412438036E+04  0.10100000352E+00 0. -1.
</event>
<event>
 5   0  0.1396936E-03  0.1101524E+04  0.7818609E-02  0.9203708E-01
       -2   -1    0    0    0  501  0.00000000000E+00  0.00000000000E+00  0.23686931473E+03  0.23686931474E+03  0.25500000920E-02 0.  1.
        2   -1    0    0  501    0  0.00000000000E+00  0.00000000000E+00 -0.12806161492E+04  0.12806161492E+04  0.25500000920E-02 0. -1.
    10030    2    1    2    0    0  0.00000000000E+00  0.00000000000E+00 -0.10437468345E+04  0.15174854639E+04  0.11015237986E+04 0.  0.
        2    1    3    3  502    0 -0.24288183399E+03  0.21142707471E+03 -0.11374195538E+04  0.11821236122E+04  0.25500000920E-02 0. -1.
       -2    1    3    3    0  502  0.24288183399E+03 -0.21142707471E+03  0.93672719374E+02  0.33536185168E+03  0.25500000920E-02 0.  1.
</event>
<event>
 5   0  0.1396936E-03  0.1098168E+04  0.7818609E-02  0.9206979E-01
        2   -1    0    0  501    0  0.00000000000E+00  0.00000000000E+00  0.53183128608E+03  0.53183128609E+03  0.25500000920E-02 0.  1.
       -2   -1    0    0    0  501  0.00000000000E+00  0.00000000000E+00 -0.56689654501E+03  0.56689654501E+03  0.25500000920E-02 0. -1.
    10030    2    1    2    0    0  0.00000000000E+00  0.00000000000E+00 -0.35065258924E+02  0.10987278311E+04  0.10981681449E+04 0.  0.
        2    1    3    3  502    0  0.53961220405E+03  0.10154782259E+03 -0.17366473844E+02  0.54935861279E+03  0.25500000920E-02 0. -1.
       -2    1    3    3    0  502 -0.53961220405E+03 -0.10154782259E+03 -0.17698785080E+02  0.54936921831E+03  0.25500000920E-02 0.  1.
</event>
<event>
 5   0  0.7946038E-04  0.1100759E+04  0.7818609E-02  0.9204452E-01
        1   -1    0    0  501    0  0.00000000000E+00  0.00000000000E+00  0.22078677377E+04  0.22078677377E+04  0.50400001928E-02 0. -1.
       -1   -1    0    0    0  501  0.00000000000E+00  0.00000000000E+00 -0.13719922464E+03  0.13719922473E+03  0.50400001928E-02 0.  1.
    10030    2    1    2    0    0  0.00000000000E+00  0.00000000000E+00  0.20706685131E+04  0.23450669625E+04  0.11007592686E+04 0.  0.
        4    1    3    3  502    0 -0.19857502480E+03  0.49257622747E+03  0.13429754950E+04  0.14441773345E+04  0.12699999809E+01 0. -1.
       -4    1    3    3    0  502  0.19857502480E+03 -0.49257622747E+03  0.72769301811E+03  0.90088962801E+03  0.12699999809E+01 0.  1.
</event>
<event>
 5   0  0.1425432E-03  0.1107366E+04  0.7818609E-02  0.9198042E-01
        2   -1    0    0  501    0  0.00000000000E+00  0.00000000000E+00  0.67455004432E+03  0.67455004433E+03  0.25500000920E-02 0. -1.
       -2   -1    0    0    0  501  0.00000000000E+00  0.00000000000E+00 -0.45447324425E+03  0.45447324425E+03  0.25500000920E-02 0.  1.
    10030    2    1    2    0    0  0.00000000000E+00  0.00000000000E+00  0.22007680008E+03  0.11290232886E+04  0.11073661491E+04 0.  0.
        1    1    3    3  502    0 -0.51780638712E+03 -0.13882921634E+03 -0.31117615490E+02  0.53699656597E+03  0.50400001928E-02 0. -1.
       -1    1    3    3    0  502  0.51780638712E+03  0.13882921634E+03  0.25119441557E+03  0.59202672261E+03  0.50400001928E-02 0.  1.
</event>
<event>
 5   0  0.5409500E-04  0.1095917E+04  0.7818609E-02  0.9209181E-01
       -3   -1    0    0    0  501  0.00000000000E+00  0.00000000000E+00  0.23536948220E+03  0.23536950387E+03  0.10100000352E+00 0.  1.
        3   -1    0    0  501    0  0.00000000000E+00  0.00000000000E+00 -0.12756889535E+04  0.12756889575E+04  0.10100000352E+00 0. -1.
    10030    2    1    2    0    0  0.00000000000E+00  0.00000000000E+00 -0.10403194713E+04  0.15110584614E+04  0.10959165440E+04 0.  0.
        1    1    3    3  502    0  0.41567810757E+03 -0.31793433025E+03 -0.29618198185E+03  0.60132711054E+03  0.50400001928E-02 0. -1.
       -1    1    3    3    0  502 -0.41567810757E+03  0.31793433025E+03 -0.74413748949E+03  0.90973135087E+03  0.50400001928E-02 0.  1.
</event>
<event>
 5   0  0.1402775E-03  0.1098116E+04  0.7818609E-02  0.9207030E-01
       -2   -1    0    0    0  501  0.00000000000E+00  0.00000000000E+00  0.18925826462E+03  0.18925826464E+03  0.25500000920E-02 0.  1.
        2   -1    0    0  501    0  0.00000000000E+00  0.00000000000E+00 -0.15928755542E+04  0.15928755542E+04  0.25500000920E-02 0. -1.
    10030    2    1    2    0    0  0.00000000000E+00  0.00000000000E+00 -0.14036172896E+04  0.17821338188E+04  0.10981163202E+04 0.  0.
        5    1    3    3  502    0 -0.26817686110E+03  0.45561599107E+03 -0.94218437164E+03  0.10803880045E+04  0.46999998093E+01 0. -1.
       -5    1    3    3    0  502  0.26817686110E+03 -0.45561599107E+03 -0.46143291792E+03  0.70174581430E+03  0.46999998093E+01 0.  1.
</event>
<event>
 5   0  0.1402775E-03  0.1096755E+04  0.7818609E-02  0.9208361E-01
       -2   -1    0    0    0  501  0.00000000000E+00  0.00000000000E+00  0.33574120068E+03  0.33574120069E+03  0.25500000920E-02 0.  1.
        2   -1    0    0  501    0  0.00000000000E+00  0.00000000000E+00 -0.89568281962E+03  0.89568281962E+03  0.25500000920E-02 0. -1.
    10030    2    1    2    0    0  0.00000000000E+00  0.00000000000E+00 -0.55994161894E+03  0.12314240203E+04  0.10967545310E+04 0.  0.
        5    1    3    3  502    0 -0.40498897667E+03 -0.68376405689E+02  0.12796510781E+03  0.43021920331E+03  0.46999998093E+01 0.  1.
       -5    1    3    3    0  502  0.40498897667E+03  0.68376405689E+02 -0.68790672675E+03  0.80120481700E+03  0.46999998093E+01 0. -1.
</event>
<event>
 5   0  0.1396936E-03  0.1097324E+04  0.7818609E-02  0.9207804E-01
       -2   -1    0    0    0  501  0.00000000000E+00  0.00000000000E+00  0.26983898092E+03  0.26983898094E+03  0.25500000920E-02 0.  1.
        2   -1    0    0  501    0  0.00000000000E+00  0.00000000000E+00 -0.11155910499E+04  0.11155910499E+04  0.25500000920E-02 0. -1.
    10030    2    1    2    0    0  0.00000000000E+00  0.00000000000E+00 -0.84575206893E+03  0.13854300308E+04  0.10973239304E+04 0.  0.
        2    1    3    3  502    0 -0.21844522896E+03  0.25966949403E+03  0.12146369918E+03  0.36041641806E+03  0.25500000920E-02 0.  1.
       -2    1    3    3    0  502  0.21844522896E+03 -0.25966949403E+03 -0.96721576812E+03  0.10250136127E+04  0.25500000920E-02 0. -1.
</event>
<event>
 5   0  0.8305271E-04  0.1098996E+04  0.7818609E-02  0.9206171E-01
       -1   -1    0    0    0  501  0.00000000000E+00  0.00000000000E+00  0.38536691894E+03  0.38536691898E+03  0.50400001928E-02 0. -1.
        1   -1    0    0  501    0  0.00000000000E+00  0.00000000000E+00 -0.78353344008E+03  0.78353344010E+03  0.50400001928E-02 0.  1.
    10030    2    1    2    0    0  0.00000000000E+00  0.00000000000E+00 -0.39816652114E+03  0.11689003591E+04  0.10989956646E+04 0.  0.
        5    1    3    3  502    0  0.48830651312E+03  0.22610657499E+03 -0.80844015606E+02  0.54417394173E+03  0.46999998093E+01 0. -1.
       -5    1    3    3    0  502 -0.48830651312E+03 -0.22610657499E+03 -0.31732250553E+03  0.62472641734E+03  0.46999998093E+01 0.  1.
</event>
<event>
 5   0  0.1429680E-03  0.1124116E+04  0.7818609E-02  0.9182000E-01
       -2   -1    0    0    0  501  0.00000000000E+00  0.00000000000E+00  0.80183618243E+03  0.80183618243E+03  0.25500000920E-02 0. -1.
        2   -1    0    0  501    0  0.00000000000E+00  0.00000000000E+00 -0.39398230235E+03  0.39398230236E+03  0.25500000920E-02 0.  1.
    10030    2    1    2    0    0  0.00000000000E+00  0.00000000000E+00  0.40785388008E+03  0.11958184848E+04  0.11241161244E+04 0.  0.
        3    1    3    3  502    0 -0.41859904042E+03  0.37096131886E+03  0.26288598442E+03  0.61801820988E+03  0.10100000352E+00 0. -1.
       -3    1    3    3    0  502  0.41859904042E+03 -0.37096131886E+03  0.14496789565E+03  0.57780027492E+03  0.10100000352E+00 0.  1.
</event>
<event>
 5   0  0.8150924E-04  0.1080972E+04  0.7818609E-02  0.9223939E-01
        1   -1    0    0  501    0  0.00000000000E+00  0.00000000000E+00  0.42142554205E+03  0.42142554208E+03  0.50400001928E-02 0. -1.
       -1   -1    0    0    0  501  0.00000000000E+00  0.00000000000E+00 -0.69318359592E+03  0.69318359594E+03  0.50400001928E-02 0.  1.
    10030    2    1    2    0    0  0.00000000000E+00  0.00000000000E+00 -0.27175805387E+03  0.11146091380E+04  0.10809722895E+04 0.  0.
        3    1    3    3  502    0  0.23447100280E+03 -0.36380130852E+03 -0.46967640243E+03  0.63868926438E+03  0.10100000352E+00 0.  1.
       -3    1    3    3    0  502 -0.23447100280E+03  0.36380130852E+03  0.19791834856E+03  0.47591987365E+03  0.10100000352E+00 0. -1.
</event>
<event>
 5   0  0.1372794E-03  0.1093191E+04  0.7818609E-02  0.9211854E-01
       -2   -1    0    0    0  501  0.00000000000E+00  0.00000000000E+00  0.46572907704E+03  0.46572907705E+03  0.25500000920E-02 0. -1.
        2   -1    0    0  501    0  0.00000000000E+00  0.00000000000E+00 -0.64150271904E+03  0.64150271905E+03  0.25500000920E-02 0.  1.
    10030    2    1    2    0    0  0.00000000000E+00  0.00000000000E+00 -0.17577364200E+03  0.11072317961E+04  0.10931906865E+04 0.  0.
        4    1    3    3  502    0 -0.25984284374E+03  0.19159161302E+03 -0.53461792961E+03  0.62453470135E+03  0.12699999809E+01 0.  1.
       -4    1    3    3    0  502  0.25984284374E+03 -0.19159161302E+03  0.35884428762E+03  0.48269709475E+03  0.12699999809E+01 0. -1.
</event>
<event>
 5   0  0.8341767E-04  0.1086731E+04  0.7818609E-02  0.9218222E-01
        1   -1    0    0  501    0  0.00000000000E+00  0.00000000000E+00  0.98026587775E+03  0.98026587777E+03  0.50400001928E-02 0.  1.
       -1   -1    0    0    0  501  0.00000000000E+00  0.00000000000E+00 -0.30118972603E+03  0.30118972607E+03  0.50400001928E-02 0. -1.
    10030    2    1    2    0    0  0.00000000000E+00  0.00000000000E+00  0.67907615172E+03  0.12814556038E+04  0.10867308980E+04 0.  0.
        2    1    3    3  502    0 -0.46978634411E+03  0.62957226742E+02  0.26258422470E+02  0.47471288825E+03  0.25500000920E-02 0. -1.
       -2    1    3    3    0  502  0.46978634411E+03 -0.62957226742E+02  0.65281772925E+03  0.80674271558E+03  0.25500000920E-02 0.  1.
</event>
<event>
 5   0  0.8009636E-04  0.1106291E+04  0.7818609E-02  0.9199082E-01
        1   -1    0    0  501    0  0.00000000000E+00  0.00000000000E+00  0.15743136339E+04  0.15743136339E+04  0.50400001928E-02 0.  1.
       -1   -1    0    0    0  501  0.00000000000E+00  0.00000000000E+00 -0.19435128347E+03  0.19435128353E+03  0.50400001928E-02 0. -1.
    10030    2    1    2    0    0  0.00000000000E+00  0.00000000000E+00  0.13799623505E+04  0.17686649175E+04  0.11062908757E+04 0.  0.
        1    1    3    3  502    0 -0.24723243596E+02 -0.51266887701E+03  0.36028026994E+03  0.62709049519E+03  0.50400001928E-02 0. -1.
       -1    1    3    3    0  502  0.24723243596E+02  0.51266887701E+03  0.10196820805E+04  0.11415744223E+04  0.50400001928E-02 0.  1.
</event>
<event>
 5   0  0.1402775E-03  0.1131255E+04  0.7818609E-02  0.9175252E-01
       -2   -1    0    0    0  501  0.00000000000E+00  0.00000000000E+00  0.48833062057E+03  0.48833062058E+03  0.25500000920E-02 0.  1.
        2   -1    0    0  501    0  0.00000000000E+00  0.00000000000E+00 -0.65516009228E+03  0.65516009229E+03  0.25500000920E-02 0. -1.
    10030    2    1    2    0    0  0.00000000000E+00  0.00000000000E+00 -0.16682947171E+03  0.11434907129E+04  0.11312554697E+04 0.  0.
        5    1    3    3  502    0 -0.98815586047E+02 -0.53769207930E+03 -0.23001908162E+03  0.59313418389E+03  0.46999998093E+01 0. -1.
       -5    1    3    3    0  502  0.98815586047E+02  0.53769207930E+03  0.63189609911E+02  0.55035652898E+03  0.46999998093E+01 0.  1.
</event>
<event>
 5   0  0.8305271E-04  0.1101841E+04  0.7818609E-02  0.9203400E-01
       -1   -1    0    0    0  501  0.00000000000E+00  0.00000000000E+00  0.55298061237E+03  0.55298061240E+03  0.50400001928E-02 0.  1.
        1   -1    0    0  501    0  0.00000000000E+00  0.00000000000E+00 -0.54886790366E+03  0.54886790368E+03  0.50400001928E-02 0. -1.
    10030    2    1    2    0    0  0.00000000000E+00  0.00000000000E+00  0.41127087127E+01  0.11018485161E+04  0.11018408406E+04 0.  0.
        5    1    3    3  502    0 -0.17494919604E+03  0.15481510829E+03  0.50097493338E+03  0.55278649841E+03  0.46999998093E+01 0.  1.
       -5    1    3    3    0  502  0.17494919604E+03 -0.15481510829E+03 -0.49686222467E+03  0.54906201767E+03  0.46999998093E+01 0. -1.
</event>
<event>
 5   0  0.1429680E-03  0.1102824E+04  0.7818609E-02  0.9202444E-01
       -2   -1    0    0    0  501  0.00000000000E+00  0.00000000000E+00  0.25352524681E+03  0.25352524683E+03  0.25500000920E-02 0. -1.
        2   -1    0    0  501    0  0.00000000000E+00  0.00000000000E+00 -0.11993086379E+04  0.11993086379E+04  0.25500000920E-02 0.  1.
    10030    2    1    2    0    0  0.00000000000E+00  0.00000000000E+00 -0.94578339111E+03  0.14528338848E+04  0.11028236821E+04 0.  0.
        3    1    3    3  502    0  0.13015034125E+03  0.60545979470E+02 -0.11742632848E+04  0.11830043108E+04  0.10100000352E+00 0.  1.
       -3    1    3    3    0  502 -0.13015034125E+03 -0.60545979470E+02  0.22847989373E+03  0.26982957399E+03  0.10100000352E+00 0. -1.
</event>
<event>
 5   0  0.1425432E-03  0.1106814E+04  0.7818609E-02  0.9198576E-01
       -2   -1    0    0    0  501  0.00000000000E+00  0.00000000000E+00  0.31484938525E+03  0.31484938526E+03  0.25500000920E-02 0.  1.
        2   -1    0    0  501    0  0.00000000000E+00  0.00000000000E+00 -0.97271738357E+03  0.97271738357E+03  0.25500000920E-02 0. -1.
    10030    2    1    2    0    0  0.00000000000E+00  0.00000000000E+00 -0.65786799832E+03  0.12875667688E+04  0.11068142938E+04 0.  0.
        1    1    3    3  502    0 -0.38884069229E+03  0.13628567653E+03  0.10084302133E+03  0.42419356971E+03  0.50400001928E-02 0.  1.
       -1    1    3    3    0  502  0.38884069229E+03 -0.13628567653E+03 -0.75871101965E+03  0.86337319913E+03  0.50400001928E-02 0. -1.
</event>
<event>
 5   0  0.8341767E-04  0.1098189E+04  0.7818609E-02  0.9206959E-01
        1   -1    0    0  501    0  0.00000000000E+00  0.00000000000E+00  0.16676075827E+04  0.16676075827E+04  0.50400001928E-02 0. -1.
       -1   -1    0    0    0  501  0.00000000000E+00  0.00000000000E+00 -0.18080067323E+03  0.18080067331E+03  0.50400001928E-02 0.  1.
    10030    2    1    2    0    0  0.00000000000E+00  0.00000000000E+00  0.14868069094E+04  0.18484082560E+04  0.10981886426E+04 0.  0.
        2    1    3    3  502    0 -0.21551269021E+03 -0.25930846572E+03  0.14728433744E+04  0.15109448056E+04  0.25500000920E-02 0. -1.
       -2    1    3    3    0  502  0.21551269021E+03  0.25930846572E+03  0.13963535039E+02  0.33746345039E+03  0.25500000920E-02 0.  1.
</event>
<event>
 5   0  0.8341767E-04  0.1098744E+04  0.7818609E-02  0.9206417E-01
        1   -1    0    0  501    0  0.00000000000E+00  0.00000000000E+00  0.77118859356E+03  0.77118859358E+03  0.50400001928E-02 0. -1.
       -1   -1    0    0    0  501  0.00000000000E+00  0.00000000000E+00 -0.39135638107E+03  0.39135638110E+03  0.50400001928E-02 0.  1.
    10030    2    1    2    0    0  0.00000000000E+00  0.00000000000E+00  0.37983221250E+03  0.11625449747E+04  0.10987439686E+04 0.  0.
        2    1    3    3  502    0 -0.23802422537E+03  0.37861010747E+03  0.52751820124E+03  0.69157544635E+03  0.25500000920E-02 0. -1.
       -2    1    3    3    0  502  0.23802422537E+03 -0.37861010747E+03 -0.14768598875E+03  0.47096952833E+03  0.25500000920E-02 0.  1.
</event>
<event>
 5   0  0.1429680E-03  0.1106618E+04  0.7818609E-02  0.9198766E-01
        2   -1    0    0  501    0  0.00000000000E+00  0.00000000000E+00  0.31023632106E+03  0.31023632107E+03  0.25500000920E-02 0.  1.
       -2   -1    0    0    0  501  0.00000000000E+00  0.00000000000E+00 -0.98683051028E+03  0.98683051029E+03  0.25500000920E-02 0. -1.
    10030    2    1    2    0    0  0.00000000000E+00  0.00000000000E+00 -0.67659418922E+03  0.12970668314E+04  0.11066176703E+04 0.  0.
        3    1    3    3  502    0  0.51868383502E+02 -0.10782996766E+03 -0.97148406867E+03  0.97882528421E+03  0.10100000352E+00 0. -1.
       -3    1    3    3    0  502 -0.51868383502E+02  0.10782996766E+03  0.29488987944E+03  0.31824154715E+03  0.10100000352E+00 0.  1.
</event>
<event>
 5   0  0.1402775E-03  0.1102359E+04  0.7818609E-02  0.9202895E-01
        2   -1    0    0  501    0  0.00000000000E+00  0.00000000000E+00  0.88339094143E+03  0.88339094143E+03  0.25500000920E-02 0.  1.
       -2   -1    0    0    0  501  0.00000000000E+00  0.00000000000E+00 -0.34390093634E+03  0.34390093635E+03  0.25500000920E-02 0. -1.
    10030    2    1    2    0    0  0.00000000000E+00  0.00000000000E+00  0.53949000509E+03  0.12272918778E+04  0.11023592371E+04 0.  0.
        5    1    3    3  502    0 -0.44222229472E+02  0.53926093182E+03  0.15287735468E+03  0.56227353996E+03  0.46999998093E+01 0. -1.
       -5    1    3    3    0  502  0.44222229472E+02 -0.53926093182E+03  0.38661265041E+03  0.66501833781E+03  0.46999998093E+01 0.  1.
</event>
<event>
 5   0  0.7946038E-04  0.1102550E+04  0.7818609E-02  0.9202710E-01
       -1   -1    0    0    0  501  0.00000000000E+00  0.00000000000E+00  0.45970410523E+03  0.45970410525E+03  0.50400001928E-02 0. -1.
        1   -1    0    0  501    0  0.00000000000E+00  0.00000000000E+00 -0.66108689228E+03  0.66108689230E+03  0.50400001928E-02 0.  1.
    10030    2    1    2    0    0  0.00000000000E+00  0.00000000000E+00 -0.20138278706E+03  0.11207909976E+04  0.11025504221E+04 0.  0.
        4    1    3    3  502    0 -0.17361349267E+03  0.52247635950E+03 -0.72308976715E+02  0.55529576991E+03  0.12699999809E+01 0.  1.
       -4    1    3    3    0  502  0.17361349267E+03 -0.52247635950E+03 -0.12907381034E+03  0.56549522764E+03  0.12699999809E+01 0. -1.
</event>
<event>
 5   0  0.7946038E-04  0.1101483E+04  0.7818609E-02  0.9203747E-01
        1   -1    0    0  501    0  0.00000000000E+00  0.00000000000E+00  0.95655743343E+03  0.95655743344E+03  0.50400001928E-02 0.  1.
       -1   -1    0    0    0  501  0.00000000000E+00  0.00000000000E+00 -0.31709173496E+03  0.31709173500E+03  0.50400001928E-02 0. -1.
    10030    2    1    2    0    0  0.00000000000E+00  0.00000000000E+00  0.63946569846E+03  0.12736491684E+04  0.11014834655E+04 0.  0.
        4    1    3    3  502    0  0.28216499145E+03  0.11893479105E+03  0.84905251009E+03  0.90258204320E+03  0.12699999809E+01 0.  1.
       -4    1    3    3    0  502 -0.28216499145E+03 -0.11893479105E+03 -0.20958681163E+03  0.37106712524E+03  0.12699999809E+01 0. -1.
</event>
<event>
 5   0  0.8009636E-04  0.1094650E+04  0.7818609E-02  0.9210422E-01
        1   -1    0    0  501    0  0.00000000000E+00  0.00000000000E+00  0.72386392187E+03  0.72386392188E+03  0.50400001928E-02 0.  1.
       -1   -1    0    0    0  501  0.00000000000E+00  0.00000000000E+00 -0.41384138131E+03  0.41384138134E+03  0.50400001928E-02 0. -1.
    10030    2    1    2    0    0  0.00000000000E+00  0.00000000000E+00  0.31002254056E+03  0.11377053032E+04  0.10946503466E+04 0.  0.
        1    1    3    3  502    0  0.85374176824E+02  0.41947867495E+03  0.50947342018E+03  0.66544291618E+03  0.50400001928E-02 0.  1.
       -1    1    3    3    0  502 -0.85374176824E+02 -0.41947867495E+03 -0.19945087962E+03  0.47226238704E+03  0.50400001928E-02 0. -1.
</event>
<event>
 5   0  0.8009636E-04  0.1100121E+04  0.7818609E-02  0.9205074E-01
       -1   -1    0    0    0  501  0.00000000000E+00  0.00000000000E+00  0.44603478885E+03  0.44603478888E+03  0.50400001928E-02 0. -1.
        1   -1    0    0  501    0  0.00000000000E+00  0.00000000000E+00 -0.67834684997E+03  0.67834684999E+03  0.50400001928E-02 0.  1.
    10030    2    1    2    0    0  0.00000000000E+00  0.00000000000E+00 -0.23231206112E+03  0.11243816389E+04  0.11001205280E+04 0.  0.
        1    1    3    3  502    0 -0.45989381583E+03  0.25442126267E+03  0.49699587557E+02  0.52792286346E+03  0.50400001928E-02 0. -1.
       -1    1    3    3    0  502  0.45989381583E+03 -0.25442126267E+03 -0.28201164868E+03  0.59645877540E+03  0.50400001928E-02 0.  1.
</event>
<event>
 5   0  0.8341767E-04  0.1092371E+04  0.7818609E-02  0.9212660E-01
        1   -1    0    0  501    0  0.00000000000E+00  0.00000000000E+00  0.44339271652E+03  0.44339271655E+03  0.50400001928E-02 0. -1.
       -1   -1    0    0    0  501  0.00000000000E+00  0.00000000000E+00 -0.67280862647E+03  0.67280862649E+03  0.50400001928E-02 0.  1.
    10030    2    1    2    0    0  0.00000000000E+00  0.00000000000E+00 -0.22941590995E+03  0.11162013430E+04  0.10923707148E+04 0.  0.
        2    1    3    3  502    0 -0.22762492811E+02  0.35886614873E+03  0.30537555297E+03  0.47175976104E+03  0.25500000920E-02 0. -1.
       -2    1    3    3    0  502  0.22762492811E+02 -0.35886614873E+03 -0.53479146292E+03  0.64444158199E+03  0.25500000920E-02 0.  1.
</event>
<event>
 5   0  0.8305271E-04  0.1091500E+04  0.7818609E-02  0.9213517E-01
       -1   -1    0    0    0  501  0.00000000000E+00  0.00000000000E+00  0.43672624389E+03  0.43672624392E+03  0.50400001928E-02 0. -1.
        1   -1    0    0  501    0  0.00000000000E+00  0.00000000000E+00 -0.68198983776E+03  0.68198983778E+03  0.50400001928E-02 0.  1.
    10030    2    1    2    0    0  0.00000000000E+00  0.00000000000E+00 -0.24526359387E+03  0.11187160817E+04  0.10914996294E+04 0.  0.
        5    1    3    3  502    0 -0.30049537803E+03  0.37543619152E+03  0.14181524410E+03  0.50138155089E+03  0.46999998093E+01 0. -1.
       -5    1    3    3    0  502  0.30049537803E+03 -0.37543619152E+03 -0.38707883798E+03  0.61733453081E+03  0.46999998093E+01 0.  1.
</event>
<event>
 5   0  0.8341767E-04  0.1099739E+04  0.7818609E-02  0.9205447E-01
       -1   -1    0    0    0  501  0.00000000000E+00  0.00000000000E+00  0.14388060988E+03  0.14388060997E+03  0.50400001928E-02 0. -1.
        1   -1    0    0  501    0  0.00000000000E+00  0.00000000000E+00 -0.21014385306E+04  0.21014385306E+04  0.50400001928E-02 0.  1.
    10030    2    1    2    0    0  0.00000000000E+00  0.00000000000E+00 -0.19575579207E+04  0.22453191406E+04  0.10997386190E+04 0.  0.
        2    1    3    3  502    0  0.46191535044E+02  0.20276189772E+03  0.60496966199E+02  0.21657776433E+03  0.25500000920E-02 0. -1.
       -2    1    3    3    0  502 -0.46191535044E+02 -0.20276189772E+03 -0.20180548869E+04  0.20287413763E+04  0.25500000920E-02 0.  1.
</event>
<event>
 5   0  0.1425432E-03  0.1101130E+04  0.7818609E-02  0.9204091E-01
       -2   -1    0    0    0  501  0.00000000000E+00  0.00000000000E+00  0.15137170274E+03  0.15137170276E+03  0.25500000920E-02 0.  1.
        2   -1    0    0  501    0  0.00000000000E+00  0.00000000000E+00 -0.20025012101E+04  0.20025012101E+04  0.25500000920E-02 0. -1.
    10030    2    1    2    0    0  0.00000000000E+00  0.00000000000E+00 -0.18511295073E+04  0.21538729128E+04  0.11011303609E+04 0.  0.
        1    1    3    3  502    0 -0.44247448666E+03 -0.16705996715E+03 -0.14768441266E+04  0.15507292730E+04  0.50400001928E-02 0.  1.
       -1    1    3    3    0  502  0.44247448666E+03  0.16705996715E+03 -0.37428538074E+03  0.60314363980E+03  0.50400001928E-02 0. -1.
</event>
<event>
 5   0  0.1425432E-03  0.1086980E+04  0.7818609E-02  0.9217976E-01
        2   -1    0    0  501    0  0.00000000000E+00  0.00000000000E+00  0.18681171516E+03  0.18681171517E+03  0.25500000920E-02 0.  1.
       -2   -1    0    0    0  501  0.00000000000E+00  0.00000000000E+00 -0.15811712906E+04  0.15811712906E+04  0.25500000920E-02 0. -1.
    10030    2    1    2    0    0  0.00000000000E+00  0.00000000000E+00 -0.13943595754E+04  0.17679830057E+04  0.10869798908E+04 0.  0.
        1    1    3    3  502    0 -0.22217600015E+03  0.48314260030E+03 -0.51465982378E+03  0.74004302680E+03  0.50400001928E-02 0. -1.
       -1    1    3    3    0  502  0.22217600015E+03 -0.48314260030E+03 -0.87969975162E+03  0.10279399789E+04  0.50400001928E-02 0.  1.
</event>
<event>
 5   0  0.1396936E-03  0.1099332E+04  0.7818609E-02  0.9205844E-01
       -2   -1    0    0    0  501  0.00000000000E+00  0.00000000000E+00  0.22641762066E+03  0.22641762067E+03  0.25500000920E-02 0. -1.
        2   -1    0    0  501    0  0.00000000000E+00  0.00000000000E+00 -0.13344036846E+04  0.13344036846E+04  0.25500000920E-02 0.  1.
    10030    2    1    2    0    0  0.00000000000E+00  0.00000000000E+00 -0.11079860639E+04  0.15608213053E+04  0.10993316283E+04 0.  0.
        2    1    3    3  502    0  0.29575863944E+03  0.44265730094E+03 -0.35976763629E+03  0.64253514379E+03  0.25500000920E-02 0. -1.
       -2    1    3    3    0  502 -0.29575863944E+03 -0.44265730094E+03 -0.74821842763E+03  0.91828616146E+03  0.25500000920E-02 0.  1.
</event>
<event>
 5   0  0.7946038E-04  0.1100377E+04  0.7818609E-02  0.9204825E-01
       -1   -1    0    0    0  501  0.00000000000E+00  0.00000000000E+00  0.26335219113E+03  0.26335219118E+03  0.50400001928E-02 0.  1.
        1   -1    0    0  501    0  0.00000000000E+00  0.00000000000E+00 -0.11494391959E+04  0.11494391960E+04  0.50400001928E-02 0. -1.
    10030    2    1    2    0    0  0.00000000000E+00  0.00000000000E+00 -0.88608700482E+03  0.14127913871E+04  0.11003769006E+04 0.  0.
        4    1    3    3  502    0  0.30833562256E+03 -0.44990826086E+03 -0.53578293108E+03  0.76456082914E+03  0.12699999809E+01 0.  1.
       -4    1    3    3    0  502 -0.30833562256E+03  0.44990826086E+03 -0.35030407374E+03  0.64823055799E+03  0.12699999809E+01 0. -1.
</event>
<event>
 5   0  0.7946038E-04  0.1110138E+04  0.7818609E-02  0.9195367E-01
       -1   -1    0    0    0  501  0.00000000000E+00  0.00000000000E+00  0.32525240385E+03  0.32525240389E+03  0.50400001928E-02 0.  1.
        1   -1    0    0  501    0  0.00000000000E+00  0.00000000000E+00 -0.94726860380E+03  0.94726860381E+03  0.50400001928E-02 0. -1.
    10030    2    1    2    0    0  0.00000000000E+00  0.00000000000E+00 -0.62201619995E+03  0.12725210077E+04  0.11101376320E+04 0.  0.
        4    1    3    3  502    0 -0.18060823714E+03  0.93916699446E+02  0.28091753856E+03  0.34692356237E+03  0.12699999809E+01 0.  1.
       -4    1    3    3    0  502  0.18060823714E+03 -0.93916699446E+02 -0.90293373851E+03  0.92559744533E+03  0.12699999809E+01 0. -1.
</event>
<event>
 5   0  0.8009636E-04  0.1171220E+04  0.7818609E-02  0.9138427E-01
        1   -1    0    0  501    0  0.00000000000E+00  0.00000000000E+00  0.47186821964E+03  0.47186821966E+03  0.50400001928E-02 0.  1.
       -1   -1    0    0    0  501  0.00000000000E+00  0.00000000000E+00 -0.72676931481E+03  0.72676931483E+03  0.50400001928E-02 0. -1.
    10030    2    1    2    0    0  0.00000000000E+00  0.00000000000E+00 -0.25490109517E+03  0.11986375345E+04  0.11712204621E+04 0.  0.
        1    1    3    3  502    0 -0.44139979565E+03  0.35173493657E+02 -0.51965578305E+03  0.68272475210E+03  0.50400001928E-02 0. -1.
       -1    1    3    3    0  502  0.44139979565E+03 -0.35173493657E+02  0.26475468787E+03  0.51591278239E+03  0.50400001928E-02 0.  1.
</event>
<event>
 5   0  0.8341767E-04  0.1112549E+04  0.7818609E-02  0.9193046E-01
       -1   -1    0    0    0  501  0.00000000000E+00  0.00000000000E+00  0.56932221972E+03  0.56932221974E+03  0.50400001928E-02 0. -1.
        1   -1    0    0  501    0  0.00000000000E+00  0.00000000000E+00 -0.54352599039E+03  0.54352599041E+03  0.50400001928E-02 0.  1.
    10030    2    1    2    0    0  0.00000000000E+00  0.00000000000E+00  0.25796229327E+02  0.11128482102E+04  0.11125491870E+04 0.  0.
        2    1    3    3  502    0  0.25152605195E+03 -0.33432799515E+03 -0.35380764824E+03  0.54792373111E+03  0.25500000920E-02 0.  1.
       -2    1    3    3    0  502 -0.25152605195E+03  0.33432799515E+03  0.37960387757E+03  0.56492447904E+03  0.25500000920E-02 0. -1.
</event>
<event>
 5   0  0.8341767E-04  0.1099422E+04  0.7818609E-02  0.9205755E-01
        1   -1    0    0  501    0  0.00000000000E+00  0.00000000000E+00  0.86860535589E+03  0.86860535591E+03  0.50400001928E-02 0. -1.
       -1   -1    0    0    0  501  0.00000000000E+00  0.00000000000E+00 -0.34789378775E+03  0.34789378779E+03  0.50400001928E-02 0.  1.
    10030    2    1    2    0    0  0.00000000000E+00  0.00000000000E+00  0.52071156814E+03  0.12164991437E+04  0.10994224072E+04 0.  0.
        2    1    3    3  502    0 -0.14519820267E+03  0.40782487434E+03  0.63522345682E+03  0.76870832329E+03  0.25500000920E-02 0. -1.
       -2    1    3    3    0  502  0.14519820267E+03 -0.40782487434E+03 -0.11451188868E+03  0.44779082041E+03  0.25500000920E-02 0.  1.
</event>
<event>
 5   0  0.1429680E-03  0.1100300E+04  0.7818609E-02  0.9204899E-01
        2   -1    0    0  501    0  0.00000000000E+00  0.00000000000E+00  0.78703852337E+03  0.78703852337E+03  0.25500000920E-02 0.  1.
       -2   -1    0    0    0  501  0.00000000000E+00  0.00000000000E+00 -0.38456219679E+03  0.38456219680E+03  0.25500000920E-02 0. -1.
    10030    2    1    2    0    0  0.00000000000E+00  0.00000000000E+00  0.40247632657E+03  0.11716007202E+04  0.11003004381E+04 0.  0.
        3    1    3    3  502    0  0.13450841437E+02 -0.17182204566E+03  0.75755096294E+03  0.77690875408E+03  0.10100000352E+00 0.  1.
       -3    1    3    3    0  502 -0.13450841437E+02  0.17182204566E+03 -0.35507463637E+03  0.39469196610E+03  0.10100000352E+00 0. -1.
</event>
<event>
 5   0  0.1425432E-03  0.1095758E+04  0.7818609E-02  0.9209337E-01
        2   -1    0    0  501    0  0.00000000000E+00  0.00000000000E+00  0.13085090705E+04  0.13085090705E+04  0.25500000920E-02 0.  1.
       -2   -1    0    0    0  501  0.00000000000E+00  0.00000000000E+00 -0.22939938471E+03  0.22939938472E+03  0.25500000920E-02 0. -1.
    10030    2    1    2    0    0  0.00000000000E+00  0.00000000000E+00  0.10791096858E+04  0.15379084552E+04  0.10957575930E+04 0.  0.
        1    1    3    3  502    0  0.31020917876E+03 -0.25580488990E+03  0.10618899192E+04  0.11354629351E+04  0.50400001928E-02 0.  1.
       -1    1    3    3    0  502 -0.31020917876E+03  0.25580488990E+03  0.17219766515E+02  0.40244552012E+03  0.50400001928E-02 0. -1.
</event>
<event>
 5   0  0.1429680E-03  0.1101430E+04  0.7818609E-02  0.9203799E-01
        2   -1    0    0  501    0  0.00000000000E+00  0.00000000000E+00  0.77641024427E+03  0.77641024427E+03  0.25500000920E-02 0.  1.
       -2   -1    0    0    0  501  0.00000000000E+00  0.00000000000E+00 -0.39062739130E+03  0.39062739131E+03  0.25500000920E-02 0. -1.
    10030    2    1    2    0    0  0.00000000000E+00  0.00000000000E+00  0.38578285296E+03  0.11670376356E+04  0.11014301763E+04 0.  0.
        3    1    3    3  502    0 -0.53251649253E+03 -0.12421904911E+03  0.26223359550E+03  0.60644097469E+03  0.10100000352E+00 0.  1.
       -3    1    3    3    0  502  0.53251649253E+03  0.12421904911E+03  0.12354925747E+03  0.56059666089E+03  0.10100000352E+00 0. -1.
</event>
<event>
 5   0  0.8009636E-04  0.1121938E+04  0.7818609E-02  0.9184069E-01
       -1   -1    0    0    0  501  0.00000000000E+00  0.00000000000E+00  0.34815481188E+03  0.34815481191E+03  0.50400001928E-02 0.  1.
        1   -1    0    0  501    0  0.00000000000E+00  0.00000000000E+00 -0.90386926794E+03  0.90386926795E+03  0.50400001928E-02 0. -1.
    10030    2    1    2    0    0  0.00000000000E+00  0.00000000000E+00 -0.55571445606E+03  0.12520240799E+04  0.11219383851E+04 0.  0.
        1    1    3    3  502    0 -0.11678442495E+02  0.39477684570E+03  0.16670637606E+03  0.42869121727E+03  0.50400001928E-02 0.  1.
       -1    1    3    3    0  502  0.11678442495E+02 -0.39477684570E+03 -0.72242083212E+03  0.82333286260E+03  0.50400001928E-02 0. -1.
</event>
<event>
 5   0  0.1396936E-03  0.1101296E+04  0.7818609E-02  0.9203930E-01
        2   -1    0    0  501    0  0.00000000000E+00  0.00000000000E+00  0.74142943108E+03  0.74142943108E+03  0.25500000920E-02 0.  1.
       -2   -1    0    0    0  501  0.00000000000E+00  0.00000000000E+00 -0.40895734784E+03  0.40895734785E+03  0.25500000920E-02 0. -1.
    10030    2    1    2    0    0  0.00000000000E+00  0.00000000000E+00  0.33247208324E+03  0.11503867789E+04  0.11012956256E+04 0.  0.
        2    1    3    3  502    0 -0.32962035657E+03  0.40035190108E+03 -0.27170745357E+02  0.51929709567E+03  0.25500000920E-02 0. -1.
       -2    1    3    3    0  502  0.32962035657E+03 -0.40035190108E+03  0.35964282859E+03  0.63108968327E+03  0.25500000920E-02 0.  1.
</event>
<event>
 5   0  0.1396936E-03  0.1098746E+04  0.7818609E-02  0.9206415E-01
        2   -1    0    0  501    0  0.00000000000E+00  0.00000000000E+00  0.69674492115E+03  0.69674492116E+03  0.25500000920E-02 0.  1.
       -2   -1    0    0    0  501  0.00000000000E+00  0.00000000000E+00 -0.43317220670E+03  0.43317220671E+03  0.25500000920E-02 0. -1.
    10030    2    1    2    0    0  0.00000000000E+00  0.00000000000E+00  0.26357271445E+03  0.11299171279E+04  0.10987457122E+04 0.  0.
        2    1    3    3  502    0  0.22489030294E+03 -0.12656906648E+03  0.63053537286E+03  0.68130039878E+03  0.25500000920E-02 0.  1.
       -2    1    3    3    0  502 -0.22489030294E+03  0.12656906648E+03 -0.36696265841E+03  0.44861672909E+03  0.25500000920E-02 0. -1.
</event>
<event>
 5   0  0.7946038E-04  0.1058340E+04  0.7818609E-02  0.9246776E-01
       -1   -1    0    0    0  501  0.00000000000E+00  0.00000000000E+00  0.22107663991E+03  0.22107663997E+03  0.50400001928E-02 0.  1.
        1   -1    0    0  501    0  0.00000000000E+00  0.00000000000E+00 -0.12666232618E+04  0.12666232618E+04  0.50400001928E-02 0. -1.
    10030    2    1    2    0    0  0.00000000000E+00  0.00000000000E+00 -0.10455466219E+04  0.14876999018E+04  0.10583398600E+04 0.  0.
        4    1    3    3  502    0 -0.81805219200E+01  0.50056101181E+03 -0.28178441847E+03  0.57448439394E+03  0.12699999809E+01 0.  1.
       -4    1    3    3    0  502  0.81805219200E+01 -0.50056101181E+03 -0.76376220343E+03  0.91321550784E+03  0.12699999809E+01 0. -1.
</event>
<event>
 5   0  0.8341767E-04  0.1098740E+04  0.7818609E-02  0.9206421E-01
       -1   -1    0    0    0  501  0.00000000000E+00  0.00000000000E+00  0.41159503785E+03  0.41159503788E+03  0.50400001928E-02 0. -1.
        1   -1    0    0  501    0  0.00000000000E+00  0.00000000000E+00 -0.73326253866E+03  0.73326253868E+03  0.50400001928E-02 0.  1.
    10030    2    1    2    0    0  0.00000000000E+00  0.00000000000E+00 -0.32166750081E+03  0.11448575766E+04  0.10987396823E+04 0.  0.
        2    1    3    3  502    0  0.36579917849E+03 -0.40488595615E+03 -0.22727167954E+03  0.59109567144E+03  0.25500000920E-02 0.  1.
       -2    1    3    3    0  502 -0.36579917849E+03  0.40488595615E+03 -0.94395821270E+02  0.55376190511E+03  0.25500000920E-02 0. -1.
</event>
<event>
 5   0  0.8305271E-04  0.1095313E+04  0.7818609E-02  0.9209772E-01
        1   -1    0    0  501    0  0.00000000000E+00  0.00000000000E+00  0.93800880734E+03  0.93800880735E+03  0.50400001928E-02 0. -1.
       -1   -1    0    0    0  501  0.00000000000E+00  0.00000000000E+00 -0.31974919975E+03  0.31974919978E+03  0.50400001928E-02 0.  1.
    10030    2    1    2    0    0  0.00000000000E+00  0.00000000000E+00  0.61825960760E+03  0.12577580071E+04  0.10953128604E+04 0.  0.
        5    1    3    3  502    0 -0.37872024105E+03 -0.39555627697E+03  0.31305532630E+03  0.63080862118E+03  0.46999998093E+01 0.  1.
       -5    1    3    3    0  502  0.37872024105E+03  0.39555627697E+03  0.30520428129E+03  0.62694938596E+03  0.46999998093E+01 0. -1.
</event>
<event>
 5   0  0.1372794E-03  0.1101519E+04  0.7818609E-02  0.9203712E-01
       -2   -1    0    0    0  501  0.00000000000E+00  0.00000000000E+00  0.32964568373E+03  0.32964568374E+03  0.25500000920E-02 0. -1.
        2   -1    0    0  501    0  0.00000000000E+00  0.00000000000E+00 -0.92018870831E+03  0.92018870831E+03  0.25500000920E-02 0.  1.
    10030    2    1    2    0    0  0.00000000000E+00  0.00000000000E+00 -0.59054302458E+03  0.12498343921E+04  0.11015193796E+04 0.  0.
        4    1    3    3  502    0 -0.27341497988E+03 -0.12980351144E+03  0.22682578581E+03  0.37822777901E+03  0.12699999809E+01 0. -1.
       -4    1    3    3    0  502  0.27341497988E+03  0.12980351144E+03 -0.81736881039E+03  0.87160661305E+03  0.12699999809E+01 0.  1.
</event>
<event>
 5   0  0.8305271E-04  0.1103564E+04  0.7818609E-02  0.9201725E-01
        1   -1    0    0  501    0  0.00000000000E+00  0.00000000000E+00  0.71602376013E+03  0.71602376015E+03  0.50400001928E-02 0. -1.
       -1   -1    0    0    0  501  0.00000000000E+00  0.00000000000E+00 -0.42521428280E+03  0.42521428283E+03  0.50400001928E-02 0.  1.
    10030    2    1    2    0    0  0.00000000000E+00  0.00000000000E+00  0.29080947733E+03  0.11412380430E+04  0.11035642793E+04 0.  0.
        5    1    3    3  502    0  0.44494448132E+03 -0.26260715278E+03 -0.54864169542E+02  0.51958663882E+03  0.46999998093E+01 0.  1.
       -5    1    3    3    0  502 -0.44494448132E+03  0.26260715278E+03  0.34567364687E+03  0.62165140415E+03  0.46999998093E+01 0. -1.
</event>
<event>
 5   0  0.1425432E-03  0.1083347E+04  0.7818609E-02  0.9221577E-01
        2   -1    0    0  501    0  0.00000000000E+00  0.00000000000E+00  0.47131217666E+03  0.47131217667E+03  0.25500000920E-02 0. -1.
       -2   -1    0    0    0  501  0.00000000000E+00  0.00000000000E+00 -0.62253841439E+03  0.62253841439E+03  0.25500000920E-02 0.  1.
    10030    2    1    2    0    0  0.00000000000E+00  0.00000000000E+00 -0.15122623773E+03  0.10938505911E+04  0.10833465469E+04 0.  0.
        1    1    3    3  502    0 -0.24130579409E+03 -0.32284570924E+03 -0.44099485155E+03  0.59743978555E+03  0.50400001928E-02 0.  1.
       -1    1    3    3    0  502  0.24130579409E+03  0.32284570924E+03  0.28976861383E+03  0.49641080551E+03  0.50400001928E-02 0. -1.
</event>
<event>
 5   0  0.8305271E-04  0.1094267E+04  0.7818609E-02  0.9210798E-01
       -1   -1    0    0    0  501  0.00000000000E+00  0.00000000000E+00  0.27312081278E+03  0.27312081283E+03  0.50400001928E-02 0. -1.
        1   -1    0    0  501    0  0.00000000000E+00  0.00000000000E+00 -0.10960540680E+04  0.10960540680E+04  0.50400001928E-02 0.  1.
    10030    2    1    2    0    0  0.00000000000E+00  0.00000000000E+00 -0.82293325521E+03  0.13691748808E+04  0.10942672031E+04 0.  0.
        5    1    3    3  502    0 -0.51376754620E+03  0.98606793956E+02 -0.61186862798E+03  0.80503770052E+03  0.46999998093E+01 0.  1.
       -5    1    3    3    0  502  0.51376754620E+03 -0.98606793956E+02 -0.21106462722E+03  0.56413718031E+03  0.46999998093E+01 0. -1.
</event>
<event>
 5   0  0.8150924E-04  0.1094736E+04  0.7818609E-02  0.9210337E-01
       -1   -1    0    0    0  501  0.00000000000E+00  0.00000000000E+00  0.23357286822E+03  0.23357286828E+03  0.50400001928E-02 0.  1.
        1   -1    0    0  501    0  0.00000000000E+00  0.00000000000E+00 -0.12827344428E+04  0.12827344428E+04  0.50400001928E-02 0. -1.
    10030    2    1    2    0    0  0.00000000000E+00  0.00000000000E+00 -0.10491615746E+04  0.15163073111E+04  0.10947364304E+04 0.  0.
        3    1    3    3  502    0  0.78371921361E+02 -0.53304107816E+03 -0.39074217497E+03  0.66554820003E+03  0.10100000352E+00 0.  1.
       -3    1    3    3    0  502 -0.78371921361E+02  0.53304107816E+03 -0.65841939958E+03  0.85075911103E+03  0.10100000352E+00 0. -1.
</event>
<event>
 5   0  0.8150924E-04  0.1099269E+04  0.7818609E-02  0.9205905E-01
        1   -1    0    0  501    0  0.00000000000E+00  0.00000000000E+00  0.69056937833E+03  0.69056937835E+03  0.50400001928E-02 0.  1.
       -1   -1    0    0    0  501  0.00000000000E+00  0.00000000000E+00 -0.43746226704E+03  0.43746226707E+03  0.50400001928E-02 0. -1.
    10030    2    1    2    0    0  0.00000000000E+00  0.00000000000E+00  0.25310711129E+03  0.11280316454E+04  0.10992689313E+04 0.  0.
        3    1    3    3  502    0  0.23676938555E+03  0.49598749074E+03  0.13259859404E+03  0.56537220505E+03  0.10100000352E+00 0.  1.
       -3    1    3    3    0  502 -0.23676938555E+03 -0.49598749074E+03  0.12050851725E+03  0.56265944037E+03  0.10100000352E+00 0. -1.
</event>
<event>
 5   0  0.8305271E-04  0.1100016E+04  0.7818609E-02  0.9205177E-01
        1   -1    0    0  501    0  0.00000000000E+00  0.00000000000E+00  0.81844706361E+03  0.81844706362E+03  0.50400001928E-02 0.  1.
       -1   -1    0    0    0  501  0.00000000000E+00  0.00000000000E+00 -0.36961288445E+03  0.36961288448E+03  0.50400001928E-02 0. -1.
    10030    2    1    2    0    0  0.00000000000E+00  0.00000000000E+00  0.44883417916E+03  0.11880599481E+04  0.11000155998E+04 0.  0.
        5    1    3    3  502    0 -0.31149431772E+03 -0.43688845401E+03  0.35485729315E+03  0.64330865043E+03  0.46999998093E+01 0. -1.
       -5    1    3    3    0  502  0.31149431772E+03  0.43688845401E+03  0.93976886011E+02  0.54475129768E+03  0.46999998093E+01 0.  1.
</event>
<event>
 5   0  0.1372794E-03  0.1116534E+04  0.7818609E-02  0.9189225E-01
       -2   -1    0    0    0  501  0.00000000000E+00  0.00000000000E+00  0.53931621822E+03  0.53931621822E+03  0.25500000920E-02 0.  1.
        2   -1    0    0  501    0  0.00000000000E+00  0.00000000000E+00 -0.57788401060E+03  0.57788401060E+03  0.25500000920E-02 0. -1.
    10030    2    1    2    0    0  0.00000000000E+00  0.00000000000E+00 -0.38567792380E+02  0.11172002288E+04  0.11165343150E+04 0.  0.
        4    1    3    3  502    0 -0.27156209439E+03 -0.40326858171E+03  0.25526832012E+03  0.54912207046E+03  0.12699999809E+01 0. -1.
       -4    1    3    3    0  502  0.27156209439E+03  0.40326858171E+03 -0.29383611250E+03  0.56807815837E+03  0.12699999809E+01 0.  1.
</event>
<event>
 5   0  0.1429680E-03  0.1106641E+04  0.7818609E-02  0.9198743E-01
        2   -1    0    0  501    0  0.00000000000E+00  0.00000000000E+00  0.98585413621E+03  0.98585413622E+03  0.25500000920E-02 0.  1.
       -2   -1    0    0    0  501  0.00000000000E+00  0.00000000000E+00 -0.31055684610E+03  0.31055684611E+03  0.25500000920E-02 0. -1.
    10030    2    1    2    0    0  0.00000000000E+00  0.00000000000E+00  0.67529729012E+03  0.12964109823E+04  0.11066413172E+04 0.  0.
        3    1    3    3  502    0 -0.35432190251E+03 -0.42488966745E+03  0.34866936084E+03  0.65394615489E+03  0.10100000352E+00 0. -1.
       -3    1    3    3    0  502  0.35432190251E+03  0.42488966745E+03  0.32662792927E+03  0.64246482743E+03  0.10100000352E+00 0.  1.
</event>
<event>
 5   0  0.1396936E-03  0.1140819E+04  0.7818609E-02  0.9166296E-01
        2   -1    0    0  501    0  0.00000000000E+00  0.00000000000E+00  0.12715691367E+04  0.12715691367E+04  0.25500000920E-02 0.  1.
       -2   -1    0    0    0  501  0.00000000000E+00  0.00000000000E+00 -0.25587829545E+03  0.25587829546E+03  0.25500000920E-02 0. -1.
    10030    2    1    2    0    0  0.00000000000E+00  0.00000000000E+00  0.10156908413E+04  0.15274474322E+04  0.11408189046E+04 0.  0.
        2    1    3    3  502    0  0.17038582514E+03  0.23349979583E+03  0.11662453844E+04  0.12015330960E+04  0.25500000920E-02 0.  1.
       -2    1    3    3    0  502 -0.17038582514E+03 -0.23349979583E+03 -0.15055454316E+03  0.32591433619E+03  0.25500000920E-02 0. -1.
</event>
<event>
 5   0  0.1425432E-03  0.1093267E+04  0.7818609E-02  0.9211779E-01
       -2   -1    0    0    0  501  0.00000000000E+00  0.00000000000E+00  0.29836847357E+03  0.29836847358E+03  0.25500000920E-02 0. -1.
        2   -1    0    0  501    0  0.00000000000E+00  0.00000000000E+00 -0.10014737650E+04  0.10014737650E+04  0.25500000920E-02 0.  1.
    10030    2    1    2    0    0  0.00000000000E+00  0.00000000000E+00 -0.70310529138E+03  0.12998422385E+04  0.10932670279E+04 0.  0.
        1    1    3    3  502    0 -0.75091571606E+02 -0.25652756516E+03 -0.91847600312E+03  0.95657895866E+03  0.50400001928E-02 0.  1.
       -1    1    3    3    0  502  0.75091571606E+02  0.25652756516E+03  0.21537071174E+03  0.34326327988E+03  0.50400001928E-02 0. -1.
</event>
<event>
 5   0  0.1402775E-03  0.1135386E+04  0.7818609E-02  0.9171372E-01
       -2   -1    0    0    0  501  0.00000000000E+00  0.00000000000E+00  0.10490819695E+04  0.10490819695E+04  0.25500000920E-02 0.  1.
        2   -1    0    0  501    0  0.00000000000E+00  0.00000000000E+00 -0.30719744610E+03  0.30719744611E+03  0.25500000920E-02 0. -1.
    10030    2    1    2    0    0  0.00000000000E+00  0.00000000000E+00  0.74188452340E+03  0.13562794156E+04  0.11353859287E+04 0.  0.
        5    1    3    3  502    0  0.45050879346E+03  0.24794802423E+03  0.65817421315E+03  0.83525551812E+03  0.46999998093E+01 0. -1.
       -5    1    3    3    0  502 -0.45050879346E+03 -0.24794802423E+03  0.83710310247E+02  0.52102389748E+03  0.46999998093E+01 0.  1.
</event>
<event>
 5   0  0.1429680E-03  0.1106545E+04  0.7818609E-02  0.9198836E-01
        2   -1    0    0  501    0  0.00000000000E+00  0.00000000000E+00  0.17841919644E+04  0.17841919644E+04  0.25500000920E-02 0. -1.
       -2   -1    0    0    0  501  0.00000000000E+00  0.00000000000E+00 -0.17156798791E+03  0.17156798793E+03  0.25500000920E-02 0.  1.
    10030    2    1    2    0    0  0.00000000000E+00  0.00000000000E+00  0.16126239765E+04  0.19557599523E+04  0.11065445773E+04 0.  0.
        3    1    3    3  502    0 -0.22831794542E+03 -0.40788308719E+03  0.13294661882E+04  0.14092473355E+04  0.10100000352E+00 0. -1.
       -3    1    3    3    0  502  0.22831794542E+03  0.40788308719E+03  0.28315778831E+03  0.54651261678E+03  0.10100000352E+00 0.  1.
</event>
<event>
 5   0  0.8009636E-04  0.1101178E+04  0.7818609E-02  0.9204045E-01
       -1   -1    0    0    0  501  0.00000000000E+00  0.00000000000E+00  0.30087968546E+03  0.30087968550E+03  0.50400001928E-02 0.  1.
        1   -1    0    0  501    0  0.00000000000E+00  0.00000000000E+00 -0.10075389337E+04  0.10075389337E+04  0.50400001928E-02 0. -1.
    10030    2    1    2    0    0  0.00000000000E+00  0.00000000000E+00 -0.70665924824E+03  0.13084186192E+04  0.11011775470E+04 0.  0.
        1    1    3    3  502    0 -0.19191228245E+03 -0.49267102214E+01 -0.96648363027E+03  0.98536551808E+03  0.50400001928E-02 0. -1.
       -1    1    3    3    0  502  0.19191228245E+03  0.49267102214E+01  0.25982438202E+03  0.32305310113E+03  0.50400001928E-02 0.  1.
</event>
<event>
 5   0  0.8150924E-04  0.1103127E+04  0.7818609E-02  0.9202149E-01
        1   -1    0    0  501    0  0.00000000000E+00  0.00000000000E+00  0.97853951417E+03  0.97853951418E+03  0.50400001928E-02 0. -1.
       -1   -1    0    0    0  501  0.00000000000E+00  0.00000000000E+00 -0.31089440005E+03  0.31089440009E+03  0.50400001928E-02 0.  1.
    10030    2    1    2    0    0  0.00000000000E+00  0.00000000000E+00  0.66764511412E+03  0.12894339143E+04  0.11031272913E+04 0.  0.
        3    1    3    3  502    0  0.20994464059E+03  0.19408286608E+03  0.88515879763E+03  0.93018870034E+03  0.10100000352E+00 0. -1.
       -3    1    3    3    0  502 -0.20994464059E+03 -0.19408286608E+03 -0.21751368351E+03  0.35924521393E+03  0.10100000352E+00 0.  1.
</event>
<event>
 5   0  0.8305271E-04  0.1100855E+04  0.7818609E-02  0.9204359E-01
        1   -1    0    0  501    0  0.00000000000E+00  0.00000000000E+00  0.11051897735E+04  0.11051897735E+04  0.50400001928E-02 0. -1.
       -1   -1    0    0    0  501  0.00000000000E+00  0.00000000000E+00 -0.27413420712E+03  0.27413420717E+03  0.50400001928E-02 0.  1.
    10030    2    1    2    0    0  0.00000000000E+00  0.00000000000E+00  0.83105556633E+03  0.13793239806E+04  0.11008547993E+04 0.  0.
        5    1    3    3  502    0 -0.46500941274E+03 -0.23470871585E+03  0.63835098974E+03  0.82391505104E+03  0.46999998093E+01 0. -1.
       -5    1    3    3    0  502  0.46500941274E+03  0.23470871585E+03  0.19270457659E+03  0.55540892959E+03  0.46999998093E+01 0.  1.
</event>
<event>
 5   0  0.8150924E-04  0.1099039E+04  0.7818609E-02  0.9206129E-01
        1   -1    0    0  501    0  0.00000000000E+00  0.00000000000E+00  0.95134070256E+03  0.95134070257E+03  0.50400001928E-02 0.  1.
       -1   -1    0    0    0  501  0.00000000000E+00  0.00000000000E+00 -0.31741723300E+03  0.31741723304E+03  0.50400001928E-02 0. -1.
    10030    2    1    2    0    0  0.00000000000E+00  0.00000000000E+00  0.63392346956E+03  0.12687579356E+04  0.10990394597E+04 0.  0.
        3    1    3    3  502    0  0.36230130767E+03 -0.25844018817E+03  0.68910624563E+03  0.82031761920E+03  0.10100000352E+00 0.  1.
       -3    1    3    3    0  502 -0.36230130767E+03  0.25844018817E+03 -0.55182776073E+02  0.44844031640E+03  0.10100000352E+00 0. -1.
</event>
<event>
 5   0  0.1396936E-03  0.1103891E+04  0.7818609E-02  0.9201408E-01
        2   -1    0    0  501    0  0.00000000000E+00  0.00000000000E+00  0.64022343023E+03  0.64022343023E+03  0.25500000920E-02 0. -1.
       -2   -1    0    0    0  501  0.00000000000E+00  0.00000000000E+00 -0.47583950491E+03  0.47583950492E+03  0.25500000920E-02 0.  1.
    10030    2    1    2    0    0  0.00000000000E+00  0.00000000000E+00  0.16438392532E+03  0.11160629352E+04  0.11038905744E+04 0.  0.
        2    1    3    3  502    0 -0.24309250920E+03 -0.49049470993E+03  0.15342862257E+03  0.56852385238E+03  0.25500000920E-02 0. -1.
       -2    1    3    3    0  502  0.24309250920E+03  0.49049470993E+03  0.10955302751E+02  0.54753908277E+03  0.25500000920E-02 0.  1.
</event>
<event>
 5   0  0.1429680E-03  0.1103274E+04  0.7818609E-02  0.9202007E-01
        2   -1    0    0  501    0  0.00000000000E+00  0.00000000000E+00  0.39945743132E+03  0.39945743133E+03  0.25500000920E-02 0. -1.
       -2   -1    0    0    0  501  0.00000000000E+00  0.00000000000E+00 -0.76179168617E+03  0.76179168617E+03  0.25500000920E-02 0.  1.
    10030    2    1    2    0    0  0.00000000000E+00  0.00000000000E+00 -0.36233425485E+03  0.11612491175E+04  0.11032739463E+04 0.  0.
        3    1    3    3  502    0  0.28613776479E+03 -0.15747968581E+03  0.28674791426E+03  0.43462518152E+03  0.10100000352E+00 0. -1.
       -3    1    3    3    0  502 -0.28613776479E+03  0.15747968581E+03 -0.64908216911E+03  0.72662393598E+03  0.10100000352E+00 0.  1.
</event>
<event>
 5   0  0.8150924E-04  0.1111525E+04  0.7818609E-02  0.9194031E-01
        1   -1    0    0  501    0  0.00000000000E+00  0.00000000000E+00  0.11098154388E+04  0.11098154388E+04  0.50400001928E-02 0.  1.
       -1   -1    0    0    0  501  0.00000000000E+00  0.00000000000E+00 -0.27830925099E+03  0.27830925103E+03  0.50400001928E-02 0. -1.
    10030    2    1    2    0    0  0.00000000000E+00  0.00000000000E+00  0.83150618783E+03  0.13881246899E+04  0.11115249049E+04 0.  0.
        3    1    3    3  502    0  0.55178638949E+03  0.66267207670E+02  0.42013846978E+03  0.69668924668E+03  0.10100000352E+00 0. -1.
       -3    1    3    3    0  502 -0.55178638949E+03 -0.66267207670E+02  0.41136771806E+03  0.69143544319E+03  0.10100000352E+00 0.  1.
</event>
<event>
 5   0  0.8341767E-04  0.1099875E+04  0.7818609E-02  0.9205314E-01
        1   -1    0    0  501    0  0.00000000000E+00  0.00000000000E+00  0.26139586860E+03  0.26139586865E+03  0.50400001928E-02 0.  1.
       -1   -1    0    0    0  501  0.00000000000E+00  0.00000000000E+00 -0.11569855421E+04  0.11569855421E+04  0.50400001928E-02 0. -1.
    10030    2    1    2    0    0  0.00000000000E+00  0.00000000000E+00 -0.89558967349E+03  0.14183814108E+04  0.10998749761E+04 0.  0.
        2    1    3    3  502    0 -0.13587711908E+03 -0.52690999368E+03 -0.34515731699E+03  0.64438366398E+03  0.25500000920E-02 0.  1.
       -2    1    3    3    0  502  0.13587711908E+03  0.52690999368E+03 -0.55043235650E+03  0.77399774677E+03  0.25500000920E-02 0. -1.
</event>
<event>
 5   0  0.1396936E-03  0.1099989E+04  0.7818609E-02  0.9205202E-01
        2   -1    0    0  501    0  0.00000000000E+00  0.00000000000E+00  0.85348281630E+03  0.85348281631E+03  0.25500000920E-02 0. -1.
       -2   -1    0    0    0  501  0.00000000000E+00  0.00000000000E+00 -0.35442321861E+03  0.35442321862E+03  0.25500000920E-02 0.  1.
    10030    2    1    2    0    0  0.00000000000E+00  0.00000000000E+00  0.49905959770E+03  0.12079060349E+04  0.10999893214E+04 0.  0.
        2    1    3    3  502    0 -0.37932624746E+03  0.28594254359E+03  0.55393051471E+03  0.72971950459E+03  0.25500000920E-02 0. -1.
       -2    1    3    3    0  502  0.37932624746E+03 -0.28594254359E+03 -0.54870917014E+02  0.47818653033E+03  0.25500000920E-02 0.  1.
</event>
<event>
 5   0  0.7946038E-04  0.1101639E+04  0.7818609E-02  0.9203596E-01
        1   -1    0    0  501    0  0.00000000000E+00  0.00000000000E+00  0.31746535618E+03  0.31746535622E+03  0.50400001928E-02 0. -1.
       -1   -1    0    0    0  501  0.00000000000E+00  0.00000000000E+00 -0.95570069623E+03  0.95570069624E+03  0.50400001928E-02 0.  1.
    10030    2    1    2    0    0  0.00000000000E+00  0.00000000000E+00 -0.63823534005E+03  0.12731660525E+04  0.11016385287E+04 0.  0.
        4    1    3    3  502    0 -0.29143684566E+03 -0.75889038599E+02 -0.85212780234E+03  0.90377983249E+03  0.12699999809E+01 0.  1.
       -4    1    3    3    0  502  0.29143684566E+03  0.75889038599E+02  0.21389246229E+03  0.36938621998E+03  0.12699999809E+01 0. -1.
</event>
<event>
 5   0  0.5409500E-04  0.1098132E+04  0.7818609E-02  0.9207014E-01
       -3   -1    0    0    0  501  0.00000000000E+00  0.00000000000E+00  0.33904242876E+03  0.33904244380E+03  0.10100000352E+00 0.  1.
        3   -1    0    0  501    0  0.00000000000E+00  0.00000000000E+00 -0.88919174625E+03  0.88919175199E+03  0.10100000352E+00 0. -1.
    10030    2    1    2    0    0  0.00000000000E+00  0.00000000000E+00 -0.55014931750E+03  0.12282341958E+04  0.10981324912E+04 0.  0.
        1    1    3    3  502    0 -0.52094709512E+03  0.93519330805E+02 -0.43847163284E+03  0.68730569180E+03  0.50400001928E-02 0.  1.
       -1    1    3    3    0  502  0.52094709512E+03 -0.93519330805E+02 -0.11167768465E+03  0.54092850399E+03  0.50400001928E-02 0. -1.
</event>
<event>
 5   0  0.1425432E-03  0.1098410E+04  0.7818609E-02  0.9206743E-01
       -2   -1    0    0    0  501  0.00000000000E+00  0.00000000000E+00  0.16906373541E+03  0.16906373543E+03  0.25500000920E-02 0. -1.
        2   -1    0    0  501    0  0.00000000000E+00  0.00000000000E+00 -0.17840969755E+04  0.17840969755E+04  0.25500000920E-02 0.  1.
    10030    2    1    2    0    0  0.00000000000E+00  0.00000000000E+00 -0.16150332401E+04  0.19531607109E+04  0.10984099399E+04 0.  0.
        1    1    3    3  502    0  0.38863288112E+03  0.14684256641E+03 -0.14462435754E+04  0.15047321140E+04  0.50400001928E-02 0.  1.
       -1    1    3    3    0  502 -0.38863288112E+03 -0.14684256641E+03 -0.16878966472E+03  0.44842859692E+03  0.50400001928E-02 0. -1.
</event>
<event>
 5   0  0.7946038E-04  0.1112907E+04  0.7818609E-02  0.9192702E-01
        1   -1    0    0  501    0  0.00000000000E+00  0.00000000000E+00  0.10430288245E+04  0.10430288245E+04  0.50400001928E-02 0. -1.
       -1   -1    0    0    0  501  0.00000000000E+00  0.00000000000E+00 -0.29686664235E+03  0.29686664240E+03  0.50400001928E-02 0.  1.
    10030    2    1    2    0    0  0.00000000000E+00  0.00000000000E+00  0.74616218210E+03  0.13398954669E+04  0.11129069414E+04 0.  0.
        4    1    3    3  502    0  0.42962071092E+03 -0.34459727957E+03  0.46877593408E+03  0.72323836293E+03  0.12699999809E+01 0.  1.
       -4    1    3    3    0  502 -0.42962071092E+03  0.34459727957E+03  0.27738624801E+03  0.61665710393E+03  0.12699999809E+01 0. -1.
</event>
<event>
 5   0  0.8009636E-04  0.1098823E+04  0.7818609E-02  0.9206340E-01
       -1   -1    0    0    0  501  0.00000000000E+00  0.00000000000E+00  0.59694441898E+03  0.59694441900E+03  0.50400001928E-02 0.  1.
        1   -1    0    0  501    0  0.00000000000E+00  0.00000000000E+00 -0.50566353273E+03  0.50566353275E+03  0.50400001928E-02 0. -1.
    10030    2    1    2    0    0  0.00000000000E+00  0.00000000000E+00  0.91280886250E+02  0.11026079518E+04  0.10988230499E+04 0.  0.
        1    1    3    3  502    0 -0.37206619232E+03  0.39934045830E+03 -0.17400878136E+02  0.54608501508E+03  0.50400001928E-02 0. -1.
       -1    1    3    3    0  502  0.37206619232E+03 -0.39934045830E+03  0.10868176439E+03  0.55652293667E+03  0.50400001928E-02 0.  1.
</event>
<event>
 5   0  0.8341767E-04  0.1097546E+04  0.7818609E-02  0.9207587E-01
       -1   -1    0    0    0  501  0.00000000000E+00  0.00000000000E+00  0.70245048659E+03  0.70245048660E+03  0.50400001928E-02 0.  1.
        1   -1    0    0  501    0  0.00000000000E+00  0.00000000000E+00 -0.42871596330E+03  0.42871596333E+03  0.50400001928E-02 0. -1.
    10030    2    1    2    0    0  0.00000000000E+00  0.00000000000E+00  0.27373452329E+03  0.11311664499E+04  0.10975458752E+04 0.  0.
        2    1    3    3  502    0 -0.44006210223E+03 -0.32241830288E+03  0.75516303317E+02  0.55073671380E+03  0.25500000920E-02 0. -1.
       -2    1    3    3    0  502  0.44006210223E+03  0.32241830288E+03  0.19821821997E+03  0.58042973613E+03  0.25500000920E-02 0.  1.
</event>
<event>
 5   0  0.1425432E-03  0.1104616E+04  0.7818609E-02  0.9200704E-01
        2   -1    0    0  501    0  0.00000000000E+00  0.00000000000E+00  0.61368544517E+03  0.61368544517E+03  0.25500000920E-02 0.  1.
       -2   -1    0    0    0  501  0.00000000000E+00  0.00000000000E+00 -0.49706915908E+03  0.49706915909E+03  0.25500000920E-02 0. -1.
    10030    2    1    2    0    0  0.00000000000E+00  0.00000000000E+00  0.11661628609E+03  0.11107546043E+04  0.11046159662E+04 0.  0.
        1    1    3    3  502    0  0.27513627818E+02  0.10074719381E+03  0.60366617961E+03  0.61263353908E+03  0.50400001928E-02 0.  1.
       -1    1    3    3    0  502 -0.27513627818E+02 -0.10074719381E+03 -0.48704989352E+03  0.49812106518E+03  0.50400001928E-02 0. -1.
</event>
<event>
 5   0  0.1402775E-03  0.1109707E+04  0.7818609E-02  0.9195782E-01
       -2   -1    0    0    0  501  0.00000000000E+00  0.00000000000E+00  0.23561146049E+03  0.23561146051E+03  0.25500000920E-02 0.  1.
        2   -1    0    0  501    0  0.00000000000E+00  0.00000000000E+00 -0.13066533765E+04  0.13066533765E+04  0.25500000920E-02 0. -1.
    10030    2    1    2    0    0  0.00000000000E+00  0.00000000000E+00 -0.10710419160E+04  0.15422648370E+04  0.11097071873E+04 0.  0.
        5    1    3    3  502    0  0.44132570152E+03 -0.33611942032E+03 -0.52191935956E+03  0.76168664647E+03  0.46999998093E+01 0.  1.
       -5    1    3    3    0  502 -0.44132570152E+03  0.33611942032E+03 -0.54912255645E+03  0.78057819053E+03  0.46999998093E+01 0. -1.
</event>
<event>
 5   0  0.8305271E-04  0.1102500E+04  0.7818609E-02  0.9202759E-01
        1   -1    0    0  501    0  0.00000000000E+00  0.00000000000E+00  0.87792018201E+03  0.87792018203E+03  0.50400001928E-02 0.  1.
       -1   -1    0    0    0  501  0.00000000000E+00  0.00000000000E+00 -0.34613208959E+03  0.34613208963E+03  0.50400001928E-02 0. -1.
    10030    2    1    2    0    0  0.00000000000E+00  0.00000000000E+00  0.53178809242E+03  0.12240522717E+04  0.11024996093E+04 0.  0.
        5    1    3    3  502    0 -0.12838163815E+02  0.50466655298E+03  0.51166155906E+03  0.71879954728E+03  0.46999998093E+01 0.  1.
       -5    1    3    3    0  502  0.12838163815E+02 -0.50466655298E+03  0.20126533362E+02  0.50525272438E+03  0.46999998093E+01 0. -1.
</event>
<event>
 5   0  0.1372794E-03  0.1094728E+04  0.7818609E-02  0.9210345E-01
        2   -1    0    0  501    0  0.00000000000E+00  0.00000000000E+00  0.76018169941E+03  0.76018169941E+03  0.25500000920E-02 0.  1.
       -2   -1    0    0    0  501  0.00000000000E+00  0.00000000000E+00 -0.39412627640E+03  0.39412627641E+03  0.25500000920E-02 0. -1.
    10030    2    1    2    0    0  0.00000000000E+00  0.00000000000E+00  0.36605542301E+03  0.11543079758E+04  0.10947284277E+04 0.  0.
        4    1    3    3  502    0 -0.46575802920E+03  0.66101585012E+02  0.47808941393E+03  0.67072428159E+03  0.12699999809E+01 0.  1.
       -4    1    3    3    0  502  0.46575802920E+03 -0.66101585012E+02 -0.11203399092E+03  0.48358369423E+03  0.12699999809E+01 0. -1.
</event>
<event>
 5   0  0.7946038E-04  0.1098989E+04  0.7818609E-02  0.9206178E-01
       -1   -1    0    0    0  501  0.00000000000E+00  0.00000000000E+00  0.36034902868E+03  0.36034902872E+03  0.50400001928E-02 0. -1.
        1   -1    0    0  501    0  0.00000000000E+00  0.00000000000E+00 -0.83792083195E+03  0.83792083196E+03  0.50400001928E-02 0.  1.
    10030    2    1    2    0    0  0.00000000000E+00  0.00000000000E+00 -0.47757180327E+03  0.11982698607E+04  0.10989885494E+04 0.  0.
        4    1    3    3  502    0  0.38409131596E+03  0.30245873543E+03 -0.51231737743E+03  0.70815120825E+03  0.12699999809E+01 0.  1.
       -4    1    3    3    0  502 -0.38409131596E+03 -0.30245873543E+03  0.34745574163E+02  0.49011865243E+03  0.12699999809E+01 0. -1.
</event>
<event>
 5   0  0.8305271E-04  0.1102694E+04  0.7818609E-02  0.9202570E-01
       -1   -1    0    0    0  501  0.00000000000E+00  0.00000000000E+00  0.18369505176E+03  0.18369505183E+03  0.50400001928E-02 0.  1.
        1   -1    0    0  501    0  0.00000000000E+00  0.00000000000E+00 -0.16548280216E+04  0.16548280216E+04  0.50400001928E-02 0. -1.
    10030    2    1    2    0    0  0.00000000000E+00  0.00000000000E+00 -0.14711329699E+04  0.18385230735E+04  0.11026943714E+04 0.  0.
        5    1    3    3  502    0 -0.25692564310E+03 -0.60159075667E+02  0.71537469355E+02  0.27344030425E+03  0.46999998093E+01 0.  1.
       -5    1    3    3    0  502  0.25692564310E+03  0.60159075667E+02 -0.15426704392E+04  0.15650827692E+04  0.46999998093E+01 0. -1.
</event>
<event>
 5   0  0.8341767E-04  0.1099401E+04  0.7818609E-02  0.9205776E-01
        1   -1    0    0  501    0  0.00000000000E+00  0.00000000000E+00  0.46831468527E+03  0.46831468530E+03  0.50400001928E-02 0. -1.
       -1   -1    0    0    0  501  0.00000000000E+00  0.00000000000E+00 -0.64522958270E+03  0.64522958272E+03  0.50400001928E-02 0.  1.
    10030    2    1    2    0    0  0.00000000000E+00  0.00000000000E+00 -0.17691489742E+03  0.11135442680E+04  0.10994007258E+04 0.  0.
        2    1    3    3  502    0  0.16839027840E+03 -0.42827418718E+03 -0.39298535172E+03  0.60515415552E+03  0.25500000920E-02 0.  1.
       -2    1    3    3    0  502 -0.16839027840E+03  0.42827418718E+03  0.21607045430E+03  0.50839011250E+03  0.25500000920E-02 0. -1.
</event>
<event>
 5   0  0.8341767E-04  0.1109332E+04  0.7818609E-02  0.9196144E-01
        1   -1    0    0  501    0  0.00000000000E+00  0.00000000000E+00  0.11491356945E+04  0.11491356945E+04  0.50400001928E-02 0.  1.
       -1   -1    0    0    0  501  0.00000000000E+00  0.00000000000E+00 -0.26772660380E+03  0.26772660385E+03  0.50400001928E-02 0. -1.
    10030    2    1    2    0    0  0.00000000000E+00  0.00000000000E+00  0.88140909072E+03  0.14168622984E+04  0.11093316850E+04 0.  0.
        2    1    3    3  502    0 -0.15075355019E+03  0.31050475275E+03  0.99525165806E+03  0.10534067103E+04  0.25500000920E-02 0.  1.
       -2    1    3    3    0  502  0.15075355019E+03 -0.31050475275E+03 -0.11384256734E+03  0.36345558810E+03  0.25500000920E-02 0. -1.
</event>
<event>
 5   0  0.8305271E-04  0.1103267E+04  0.7818609E-02  0.9202013E-01
        1   -1    0    0  501    0  0.00000000000E+00  0.00000000000E+00  0.72051921186E+03  0.72051921188E+03  0.50400001928E-02 0.  1.
       -1   -1    0    0    0  501  0.00000000000E+00  0.00000000000E+00 -0.42233391708E+03  0.42233391711E+03  0.50400001928E-02 0. -1.
    10030    2    1    2    0    0  0.00000000000E+00  0.00000000000E+00  0.29818529478E+03  0.11428531290E+04  0.11032673313E+04 0.  0.
        5    1    3    3  502    0  0.25910272799E+03 -0.16175077313E+03  0.62489916218E+03  0.69557069314E+03  0.46999998093E+01 0.  1.
       -5    1    3    3    0  502 -0.25910272799E+03  0.16175077313E+03 -0.32671386740E+03  0.44728243584E+03  0.46999998093E+01 0. -1.
</event>
<event>
 5   0  0.8305271E-04  0.1100591E+04  0.7818609E-02  0.9204616E-01
       -1   -1    0    0    0  501  0.00000000000E+00  0.00000000000E+00  0.27247198931E+03  0.27247198935E+03  0.50400001928E-02 0.  1.
        1   -1    0    0  501    0  0.00000000000E+00  0.00000000000E+00 -0.11113993548E+04  0.11113993548E+04  0.50400001928E-02 0. -1.
    10030    2    1    2    0    0  0.00000000000E+00  0.00000000000E+00 -0.83892736547E+03  0.13838713441E+04  0.11005911015E+04 0.  0.
        5    1    3    3  502    0  0.96457759327E+02  0.35090970052E+03 -0.93844927519E+03  0.10065539476E+04  0.46999998093E+01 0. -1.
       -5    1    3    3    0  502 -0.96457759327E+02 -0.35090970052E+03  0.99521909715E+02  0.37731739658E+03  0.46999998093E+01 0.  1.
</event>
<event>
 5   0  0.8341767E-04  0.1098441E+04  0.7818609E-02  0.9206713E-01
        1   -1    0    0  501    0  0.00000000000E+00  0.00000000000E+00  0.50915746607E+03  0.50915746610E+03  0.50400001928E-02 0.  1.
       -1   -1    0    0    0  501  0.00000000000E+00  0.00000000000E+00 -0.59243545325E+03  0.59243545327E+03  0.50400001928E-02 0. -1.
    10030    2    1    2    0    0  0.00000000000E+00  0.00000000000E+00 -0.83277987180E+02  0.11015929194E+04  0.10984405932E+04 0.  0.
        2    1    3    3  502    0 -0.39486384498E+03 -0.21161378654E+03 -0.36026934867E+03  0.57488420949E+03  0.25500000920E-02 0. -1.
       -2    1    3    3    0  502  0.39486384498E+03  0.21161378654E+03  0.27699136148E+03  0.52670870988E+03  0.25500000920E-02 0.  1.
</event>
<event>
 5   0  0.8341767E-04  0.1099812E+04  0.7818609E-02  0.9205376E-01
       -1   -1    0    0    0  501  0.00000000000E+00  0.00000000000E+00  0.27623261950E+03  0.27623261955E+03  0.50400001928E-02 0.  1.
        1   -1    0    0  501    0  0.00000000000E+00  0.00000000000E+00 -0.10947162789E+04  0.10947162790E+04  0.50400001928E-02 0. -1.
    10030    2    1    2    0    0  0.00000000000E+00  0.00000000000E+00 -0.81848365945E+03  0.13709488985E+04  0.10998115209E+04 0.  0.
        2    1    3    3  502    0  0.17698613142E+03 -0.34876168942E+03  0.72631461236E+02  0.39778654564E+03  0.25500000920E-02 0. -1.
       -2    1    3    3    0  502 -0.17698613142E+03  0.34876168942E+03 -0.89111512068E+03  0.97316235287E+03  0.25500000920E-02 0.  1.
</event>
<event>
 5   0  0.5409500E-04  0.1098229E+04  0.7818609E-02  0.9206920E-01
       -4   -1    0    0    0  501  0.00000000000E+00  0.00000000000E+00  0.67813369091E+03  0.67813488013E+03  0.12699999809E+01 0.  1.
        4   -1    0    0  501    0  0.00000000000E+00  0.00000000000E+00 -0.44463958642E+03  0.44464140013E+03  0.12699999809E+01 0. -1.
    10030    2    1    2    0    0  0.00000000000E+00  0.00000000000E+00  0.23349410450E+03  0.11227762803E+04  0.10982290648E+04 0.  0.
        1    1    3    3  502    0 -0.32575023304E+03  0.34209854606E+03  0.40297290274E+03  0.62091206294E+03  0.50400001928E-02 0.  1.
       -1    1    3    3    0  502  0.32575023304E+03 -0.34209854606E+03 -0.16947879824E+03  0.50186421731E+03  0.50400001928E-02 0. -1.
</event>
<event>
 5   0  0.1425432E-03  0.1100175E+04  0.7818609E-02  0.9205022E-01
       -2   -1    0    0    0  501  0.00000000000E+00  0.00000000000E+00  0.36057468727E+03  0.36057468727E+03  0.25500000920E-02 0. -1.
        2   -1    0    0  501    0  0.00000000000E+00  0.00000000000E+00 -0.83920487898E+03  0.83920487899E+03  0.25500000920E-02 0.  1.
    10030    2    1    2    0    0  0.00000000000E+00  0.00000000000E+00 -0.47863019172E+03  0.11997795663E+04  0.11001745985E+04 0.  0.
        1    1    3    3  502    0 -0.15258262700E+03 -0.20268196498E+03  0.29296749934E+03  0.38754534274E+03  0.50400001928E-02 0. -1.
       -1    1    3    3    0  502  0.15258262700E+03  0.20268196498E+03 -0.77159769105E+03  0.81223422352E+03  0.50400001928E-02 0.  1.
</event>
<event>
 5   0  0.8305271E-04  0.1103074E+04  0.7818609E-02  0.9202201E-01
        1   -1    0    0  501    0  0.00000000000E+00  0.00000000000E+00  0.22231461365E+04  0.22231461365E+04  0.50400001928E-02 0. -1.
       -1   -1    0    0    0  501  0.00000000000E+00  0.00000000000E+00 -0.13682987285E+03  0.13682987294E+03  0.50400001928E-02 0.  1.
    10030    2    1    2    0    0  0.00000000000E+00  0.00000000000E+00  0.20863162637E+04  0.23599760095E+04  0.11030735303E+04 0.  0.
        5    1    3    3  502    0  0.48293437960E+03 -0.20734206275E+03  0.68545070387E+03  0.86375986444E+03  0.46999998093E+01 0.  1.
       -5    1    3    3    0  502 -0.48293437960E+03  0.20734206275E+03  0.14008655598E+04  0.14962161450E+04  0.46999998093E+01 0. -1.
</event>
<event>
 5   0  0.8341767E-04  0.1097026E+04  0.7818609E-02  0.9208096E-01
        1   -1    0    0  501    0  0.00000000000E+00  0.00000000000E+00  0.74731377620E+03  0.74731377622E+03  0.50400001928E-02 0.  1.
       -1   -1    0    0    0  501  0.00000000000E+00  0.00000000000E+00 -0.40259716365E+03  0.40259716368E+03  0.50400001928E-02 0. -1.
    10030    2    1    2    0    0  0.00000000000E+00  0.00000000000E+00  0.34471661255E+03  0.11499109399E+04  0.10970258095E+04 0.  0.
        2    1    3    3  502    0  0.48740581426E+03  0.24269997825E+03  0.10283834756E+03  0.55411499975E+03  0.25500000920E-02 0. -1.
       -2    1    3    3    0  502 -0.48740581426E+03 -0.24269997825E+03  0.24187826499E+03  0.59579594015E+03  0.25500000920E-02 0.  1.
</event>
<event>
 5   0  0.8009636E-04  0.1099564E+04  0.7818609E-02  0.9205617E-01
       -1   -1    0    0    0  501  0.00000000000E+00  0.00000000000E+00  0.46180628414E+03  0.46180628417E+03  0.50400001928E-02 0. -1.
        1   -1    0    0  501    0  0.00000000000E+00  0.00000000000E+00 -0.65451684370E+03  0.65451684372E+03  0.50400001928E-02 0.  1.
    10030    2    1    2    0    0  0.00000000000E+00  0.00000000000E+00 -0.19271055956E+03  0.11163231279E+04  0.10995635344E+04 0.  0.
        1    1    3    3  502    0  0.33841750267E+03 -0.18941157789E+03 -0.49198305377E+03  0.62645867954E+03  0.50400001928E-02 0.  1.
       -1    1    3    3    0  502 -0.33841750267E+03  0.18941157789E+03  0.29927249421E+03  0.48986444836E+03  0.50400001928E-02 0. -1.
</event>
<event>
 5   0  0.1402775E-03  0.1101090E+04  0.7818609E-02  0.9204130E-01
       -2   -1    0    0    0  501  0.00000000000E+00  0.00000000000E+00  0.16691611790E+03  0.16691611792E+03  0.25500000920E-02 0. -1.
        2   -1    0    0  501    0  0.00000000000E+00  0.00000000000E+00 -0.18158817752E+04  0.18158817752E+04  0.25500000920E-02 0.  1.
    10030    2    1    2    0    0  0.00000000000E+00  0.00000000000E+00 -0.16489656573E+04  0.19827978932E+04  0.11010902534E+04 0.  0.
        5    1    3    3  502    0 -0.54291842072E+03 -0.25760279597E+02 -0.66694120974E+03  0.86038170065E+03  0.46999998093E+01 0. -1.
       -5    1    3    3    0  502  0.54291842072E+03  0.25760279597E+02 -0.98202444760E+03  0.11224161925E+04  0.46999998093E+01 0.  1.
</event>
<event>
 5   0  0.1402775E-03  0.1107869E+04  0.7818609E-02  0.9197556E-01
       -2   -1    0    0    0  501  0.00000000000E+00  0.00000000000E+00  0.65231438624E+03  0.65231438625E+03  0.25500000920E-02 0. -1.
        2   -1    0    0  501    0  0.00000000000E+00  0.00000000000E+00 -0.47039179598E+03  0.47039179599E+03  0.25500000920E-02 0.  1.
    10030    2    1    2    0    0  0.00000000000E+00  0.00000000000E+00  0.18192259026E+03  0.11227061822E+04  0.11078688292E+04 0.  0.
        5    1    3    3  502    0  0.39639429628E+02 -0.18343277188E+03  0.61909581660E+03  0.64693167051E+03  0.46999998093E+01 0. -1.
       -5    1    3    3    0  502 -0.39639429628E+02  0.18343277188E+03 -0.43717322634E+03  0.47577451172E+03  0.46999998093E+01 0.  1.
</event>
<event>
 5   0  0.1372794E-03  0.1077029E+04  0.7818609E-02  0.9227875E-01
        2   -1    0    0  501    0  0.00000000000E+00  0.00000000000E+00  0.12180886893E+04  0.12180886893E+04  0.25500000920E-02 0.  1.
       -2   -1    0    0    0  501  0.00000000000E+00  0.00000000000E+00 -0.23807620565E+03  0.23807620566E+03  0.25500000920E-02 0. -1.
    10030    2    1    2    0    0  0.00000000000E+00  0.00000000000E+00  0.98001248365E+03  0.14561648950E+04  0.10770291237E+04 0.  0.
        4    1    3    3  502    0 -0.28962425325E+02  0.48971498551E+03  0.79031520615E+03  0.93019316654E+03  0.12699999809E+01 0.  1.
       -4    1    3    3    0  502  0.28962425325E+02 -0.48971498551E+03  0.18969727751E+03  0.52597172843E+03  0.12699999809E+01 0. -1.
</event>
<event>
 5   0  0.8305271E-04  0.1094140E+04  0.7818609E-02  0.9210922E-01
        1   -1    0    0  501    0  0.00000000000E+00  0.00000000000E+00  0.92772930734E+03  0.92772930736E+03  0.50400001928E-02 0.  1.
       -1   -1    0    0    0  501  0.00000000000E+00  0.00000000000E+00 -0.32260016704E+03  0.32260016708E+03  0.50400001928E-02 0. -1.
    10030    2    1    2    0    0  0.00000000000E+00  0.00000000000E+00  0.60512914030E+03  0.12503294744E+04  0.10941400816E+04 0.  0.
        5    1    3    3  502    0  0.47436268783E+03  0.14540418894E+02 -0.83647951890E+01  0.47468246563E+03  0.46999998093E+01 0. -1.
       -5    1    3    3    0  502 -0.47436268783E+03 -0.14540418894E+02  0.61349393549E+03  0.77564700880E+03  0.46999998093E+01 0.  1.
</event>
<event>
 5   0  0.1396936E-03  0.1115219E+04  0.7818609E-02  0.9190484E-01
        2   -1    0    0  501    0  0.00000000000E+00  0.00000000000E+00  0.66962629394E+03  0.66962629394E+03  0.25500000920E-02 0. -1.
       -2   -1    0    0    0  501  0.00000000000E+00  0.00000000000E+00 -0.46433082981E+03  0.46433082981E+03  0.25500000920E-02 0.  1.
    10030    2    1    2    0    0  0.00000000000E+00  0.00000000000E+00  0.20529546413E+03  0.11339571238E+04  0.11152186023E+04 0.  0.
        2    1    3    3  502    0 -0.54970278895E+03  0.35191757395E+02  0.19080232482E+03  0.58293836993E+03  0.25500000920E-02 0. -1.
       -2    1    3    3    0  502  0.54970278895E+03 -0.35191757395E+02  0.14493139314E+02  0.55101875382E+03  0.25500000920E-02 0.  1.
</event>
<event>
 5   0  0.8341767E-04  0.1098752E+04  0.7818609E-02  0.9206409E-01
       -1   -1    0    0    0  501  0.00000000000E+00  0.00000000000E+00  0.42325664051E+03  0.42325664054E+03  0.50400001928E-02 0.  1.
        1   -1    0    0  501    0  0.00000000000E+00  0.00000000000E+00 -0.71307616937E+03  0.71307616938E+03  0.50400001928E-02 0. -1.
    10030    2    1    2    0    0  0.00000000000E+00  0.00000000000E+00 -0.28981952885E+03  0.11363328099E+04  0.10987524269E+04 0.  0.
        2    1    3    3  502    0  0.22337380315E+03  0.18221479437E+03 -0.62857638035E+03  0.69152465840E+03  0.25500000920E-02 0. -1.
       -2    1    3    3    0  502 -0.22337380315E+03 -0.18221479437E+03  0.33875685150E+03  0.44480815153E+03  0.25500000920E-02 0.  1.
</event>
<event>
 5   0  0.1396936E-03  0.1099633E+04  0.7818609E-02  0.9205550E-01
       -2   -1    0    0    0  501  0.00000000000E+00  0.00000000000E+00  0.11510159499E+04  0.11510159499E+04  0.25500000920E-02 0. -1.
        2   -1    0    0  501    0  0.00000000000E+00  0.00000000000E+00 -0.26263601511E+03  0.26263601513E+03  0.25500000920E-02 0.  1.
    10030    2    1    2    0    0  0.00000000000E+00  0.00000000000E+00  0.88837993481E+03  0.14136519651E+04  0.10996331069E+04 0.  0.
        2    1    3    3  502    0 -0.35796493790E+03  0.32439519445E+03  0.10667758641E+03  0.49472340393E+03  0.25500000920E-02 0. -1.
       -2    1    3    3    0  502  0.35796493790E+03 -0.32439519445E+03  0.78170234840E+03  0.91892856112E+03  0.25500000920E-02 0.  1.
</event>
<event>
 5   0  0.8305271E-04  0.1101542E+04  0.7818609E-02  0.9203691E-01
        1   -1    0    0  501    0  0.00000000000E+00  0.00000000000E+00  0.17914683107E+04  0.17914683107E+04  0.50400001928E-02 0. -1.
       -1   -1    0    0    0  501  0.00000000000E+00  0.00000000000E+00 -0.16932950500E+03  0.16932950507E+03  0.50400001928E-02 0.  1.
    10030    2    1    2    0    0  0.00000000000E+00  0.00000000000E+00  0.16221388057E+04  0.19607978158E+04  0.11015415423E+04 0.  0.
        5    1    3    3  502    0  0.10549703048E+03 -0.40825829121E+03  0.14417241664E+04  0.15021301934E+04  0.46999998093E+01 0. -1.
       -5    1    3    3    0  502 -0.10549703048E+03  0.40825829121E+03  0.18041463927E+03  0.45866762241E+03  0.46999998093E+01 0.  1.
</event>
<event>
 5   0  0.1372794E-03  0.1102819E+04  0.7818609E-02  0.9202449E-01
        2   -1    0    0  501    0  0.00000000000E+00  0.00000000000E+00  0.97604790735E+03  0.97604790735E+03  0.25500000920E-02 0. -1.
       -2   -1    0    0    0  501  0.00000000000E+00  0.00000000000E+00 -0.31151378325E+03  0.31151378326E+03  0.25500000920E-02 0.  1.
    10030    2    1    2    0    0  0.00000000000E+00  0.00000000000E+00  0.66453412410E+03  0.12875616906E+04  0.11028188904E+04 0.  0.
        4    1    3    3  502    0  0.30927007650E+02 -0.16705076891E+03  0.94472864371E+03  0.95988346290E+03  0.12699999809E+01 0. -1.
       -4    1    3    3    0  502 -0.30927007650E+02  0.16705076891E+03 -0.28019451961E+03  0.32767822771E+03  0.12699999809E+01 0.  1.
</event>
<event>
 5   0  0.8009636E-04  0.1096999E+04  0.7818609E-02  0.9208121E-01
        1   -1    0    0  501    0  0.00000000000E+00  0.00000000000E+00  0.10199566360E+04  0.10199566360E+04  0.50400001928E-02 0.  1.
       -1   -1    0    0    0  501  0.00000000000E+00  0.00000000000E+00 -0.29496537206E+03  0.29496537210E+03  0.50400001928E-02 0. -1.
    10030    2    1    2    0    0  0.00000000000E+00  0.00000000000E+00  0.72499126394E+03  0.13149220081E+04  0.10969993412E+04 0.  0.
        1    1    3    3  502    0  0.36698712564E+03 -0.11200661625E+03 -0.10731971480E+03  0.39842509168E+03  0.50400001928E-02 0. -1.
       -1    1    3    3    0  502 -0.36698712564E+03  0.11200661625E+03  0.83231097874E+03  0.91649691643E+03  0.50400001928E-02 0.  1.
</event>
<event>
 5   0  0.8305271E-04  0.1091068E+04  0.7818609E-02  0.9213942E-01
       -1   -1    0    0    0  501  0.00000000000E+00  0.00000000000E+00  0.22998142917E+03  0.22998142922E+03  0.50400001928E-02 0. -1.
        1   -1    0    0  501    0  0.00000000000E+00  0.00000000000E+00 -0.12940490140E+04  0.12940490140E+04  0.50400001928E-02 0.  1.
    10030    2    1    2    0    0  0.00000000000E+00  0.00000000000E+00 -0.10640675849E+04  0.15240304433E+04  0.10910678104E+04 0.  0.
        5    1    3    3  502    0  0.50780138551E+03  0.18214147569E+03 -0.41900842722E+03  0.68310168817E+03  0.46999998093E+01 0.  1.
       -5    1    3    3    0  502 -0.50780138551E+03 -0.18214147569E+03 -0.64505915765E+03  0.84092875510E+03  0.46999998093E+01 0. -1.
</event>
<event>
 5   0  0.7946038E-04  0.1099041E+04  0.7818609E-02  0.9206127E-01
        1   -1    0    0  501    0  0.00000000000E+00  0.00000000000E+00  0.10116179158E+04  0.10116179158E+04  0.50400001928E-02 0.  1.
       -1   -1    0    0    0  501  0.00000000000E+00  0.00000000000E+00 -0.29850483225E+03  0.29850483230E+03  0.50400001928E-02 0. -1.
    10030    2    1    2    0    0  0.00000000000E+00  0.00000000000E+00  0.71311308358E+03  0.13101227481E+04  0.10990411026E+04 0.  0.
        4    1    3    3  502    0  0.47988908420E+03 -0.25002881683E+03  0.47066650249E+03  0.71717258164E+03  0.12699999809E+01 0.  1.
       -4    1    3    3    0  502 -0.47988908420E+03  0.25002881683E+03  0.24244658108E+03  0.59295016650E+03  0.12699999809E+01 0. -1.
</event>
<event>
 5   0  0.1396936E-03  0.1101757E+04  0.7818609E-02  0.9203481E-01
        2   -1    0    0  501    0  0.00000000000E+00  0.00000000000E+00  0.82741316327E+03  0.82741316328E+03  0.25500000920E-02 0.  1.
       -2   -1    0    0    0  501  0.00000000000E+00  0.00000000000E+00 -0.36676629573E+03  0.36676629574E+03  0.25500000920E-02 0. -1.
    10030    2    1    2    0    0  0.00000000000E+00  0.00000000000E+00  0.46064686754E+03  0.11941794590E+04  0.11017572526E+04 0.  0.
        2    1    3    3  502    0 -0.11247528930E+03 -0.24861911843E+03  0.74901150437E+03  0.79717023931E+03  0.25500000920E-02 0.  1.
       -2    1    3    3    0  502  0.11247528930E+03  0.24861911843E+03 -0.28836463683E+03  0.39700921970E+03  0.25500000920E-02 0. -1.
</event>
<event>
 5   0  0.1429680E-03  0.1105277E+04  0.7818609E-02  0.9200064E-01
       -2   -1    0    0    0  501  0.00000000000E+00  0.00000000000E+00  0.88310347673E+03  0.88310347674E+03  0.25500000920E-02 0.  1.
        2   -1    0    0  501    0  0.00000000000E+00  0.00000000000E+00 -0.34583632723E+03  0.34583632724E+03  0.25500000920E-02 0. -1.
    10030    2    1    2    0    0  0.00000000000E+00  0.00000000000E+00  0.53726714950E+03  0.12289398040E+04  0.11052769118E+04 0.  0.
        3    1    3    3  502    0 -0.12986004199E+03  0.15500968335E+02 -0.32838227018E+03  0.35346688119E+03  0.10100000352E+00 0. -1.
       -3    1    3    3    0  502  0.12986004199E+03 -0.15500968335E+02  0.86564941969E+03  0.87547292279E+03  0.10100000352E+00 0.  1.
</event>
<event>
 5   0  0.8305271E-04  0.1086732E+04  0.7818609E-02  0.9218221E-01
        1   -1    0    0  501    0  0.00000000000E+00  0.00000000000E+00  0.33062333343E+03  0.33062333347E+03  0.50400001928E-02 0. -1.
       -1   -1    0    0    0  501  0.00000000000E+00  0.00000000000E+00 -0.89299990457E+03  0.89299990459E+03  0.50400001928E-02 0.  1.
    10030    2    1    2    0    0  0.00000000000E+00  0.00000000000E+00 -0.56237657114E+03  0.12236232381E+04  0.10867319913E+04 0.  0.
        5    1    3    3  502    0 -0.53940695925E+03 -0.37371416627E+02 -0.22088836879E+03  0.58409781025E+03  0.46999998093E+01 0.  1.
       -5    1    3    3    0  502  0.53940695925E+03  0.37371416627E+02 -0.34148820235E+03  0.63952542781E+03  0.46999998093E+01 0. -1.
</event>
<event>
 5   0  0.1402775E-03  0.1096845E+04  0.7818609E-02  0.9208272E-01
       -2   -1    0    0    0  501  0.00000000000E+00  0.00000000000E+00  0.17055763049E+03  0.17055763051E+03  0.25500000920E-02 0. -1.
        2   -1    0    0  501    0  0.00000000000E+00  0.00000000000E+00 -0.17634347730E+04  0.17634347730E+04  0.25500000920E-02 0.  1.
    10030    2    1    2    0    0  0.00000000000E+00  0.00000000000E+00 -0.15928771425E+04  0.19339924035E+04  0.10968450327E+04 0.  0.
        5    1    3    3  502    0 -0.20392052780E+03  0.48780783672E+03 -0.53967722420E+03  0.75552211320E+03  0.46999998093E+01 0. -1.
       -5    1    3    3    0  502  0.20392052780E+03 -0.48780783672E+03 -0.10531999183E+04  0.11784702903E+04  0.46999998093E+01 0.  1.
</event>
<event>
 5   0  0.1402775E-03  0.1097236E+04  0.7818609E-02  0.9207890E-01
       -2   -1    0    0    0  501  0.00000000000E+00  0.00000000000E+00  0.40677798242E+03  0.40677798243E+03  0.25500000920E-02 0.  1.
        2   -1    0    0  501    0  0.00000000000E+00  0.00000000000E+00 -0.73991691056E+03  0.73991691056E+03  0.25500000920E-02 0. -1.
    10030    2    1    2    0    0  0.00000000000E+00  0.00000000000E+00 -0.33313892814E+03  0.11466948930E+04  0.10972363611E+04 0.  0.
        5    1    3    3  502    0  0.20036742716E+03  0.22526033445E+03 -0.64556362071E+03  0.71250530000E+03  0.46999998093E+01 0. -1.
       -5    1    3    3    0  502 -0.20036742716E+03 -0.22526033445E+03  0.31242469257E+03  0.43418959300E+03  0.46999998093E+01 0.  1.
</event>
<event>
 5   0  0.1402775E-03  0.1099692E+04  0.7818609E-02  0.9205492E-01
       -2   -1    0    0    0  501  0.00000000000E+00  0.00000000000E+00  0.17390035035E+03  0.17390035036E+03  0.25500000920E-02 0. -1.
        2   -1    0    0  501    0  0.00000000000E+00  0.00000000000E+00 -0.17385292266E+04  0.17385292266E+04  0.25500000920E-02 0.  1.
    10030    2    1    2    0    0  0.00000000000E+00  0.00000000000E+00 -0.15646288763E+04  0.19124295770E+04  0.10996923963E+04 0.  0.
        5    1    3    3  502    0 -0.23823681465E+03  0.83436348614E+02 -0.16317700003E+04  0.16511855825E+04  0.46999998093E+01 0.  1.
       -5    1    3    3    0  502  0.23823681465E+03 -0.83436348614E+02  0.67141123988E+02  0.26124399448E+03  0.46999998093E+01 0. -1.
</event>
<event>
 5   0  0.7946038E-04  0.1102930E+04  0.7818609E-02  0.9202341E-01
        1   -1    0    0  501    0  0.00000000000E+00  0.00000000000E+00  0.51811873391E+03  0.51811873394E+03  0.50400001928E-02 0. -1.
       -1   -1    0    0    0  501  0.00000000000E+00  0.00000000000E+00 -0.58695752978E+03  0.58695752980E+03  0.50400001928E-02 0.  1.
    10030    2    1    2    0    0  0.00000000000E+00  0.00000000000E+00 -0.68838795866E+02  0.11050762637E+04  0.11029300834E+04 0.  0.
        4    1    3    3  502    0 -0.42262666608E+03 -0.11033799040E+02 -0.38919460877E+03  0.57463823402E+03  0.12699999809E+01 0.  1.
       -4    1    3    3    0  502  0.42262666608E+03  0.11033799040E+02  0.32035581291E+03  0.53043802971E+03  0.12699999809E+01 0. -1.
</event>
<event>
 5   0  0.1372794E-03  0.1097515E+04  0.7818609E-02  0.9207617E-01
       -2   -1    0    0    0  501  0.00000000000E+00  0.00000000000E+00  0.37282028771E+03  0.37282028772E+03  0.25500000920E-02 0. -1.
        2   -1    0    0  501    0  0.00000000000E+00  0.00000000000E+00 -0.80772119899E+03  0.80772119899E+03  0.25500000920E-02 0.  1.
    10030    2    1    2    0    0  0.00000000000E+00  0.00000000000E+00 -0.43490091128E+03  0.11805414867E+04  0.10975151020E+04 0.  0.
        4    1    3    3  502    0 -0.38683193926E+02 -0.26074109470E+02 -0.80558285349E+03  0.80693345166E+03  0.12699999809E+01 0.  1.
       -4    1    3    3    0  502  0.38683193926E+02  0.26074109470E+02  0.37068194221E+03  0.37360803505E+03  0.12699999809E+01 0. -1.
</event>
<event>
 5   0  0.8009636E-04  0.1101708E+04  0.7818609E-02  0.9203528E-01
        1   -1    0    0  501    0  0.00000000000E+00  0.00000000000E+00  0.81408689716E+03  0.81408689717E+03  0.50400001928E-02 0.  1.
       -1   -1    0    0    0  501  0.00000000000E+00  0.00000000000E+00 -0.37273699644E+03  0.37273699648E+03  0.50400001928E-02 0. -1.
    10030    2    1    2    0    0  0.00000000000E+00  0.00000000000E+00  0.44134990071E+03  0.11868238936E+04  0.11017083188E+04 0.  0.
        1    1    3    3  502    0  0.22944478994E+03  0.33980026925E+03 -0.17562002975E+03  0.44603982948E+03  0.50400001928E-02 0. -1.
       -1    1    3    3    0  502 -0.22944478994E+03 -0.33980026925E+03  0.61696993046E+03  0.74078406417E+03  0.50400001928E-02 0.  1.
</event>
<event>
 5   0  0.8009636E-04  0.1100295E+04  0.7818609E-02  0.9204905E-01
       -1   -1    0    0    0  501  0.00000000000E+00  0.00000000000E+00  0.22352481508E+03  0.22352481513E+03  0.50400001928E-02 0. -1.
        1   -1    0    0  501    0  0.00000000000E+00  0.00000000000E+00 -0.13540423003E+04  0.13540423003E+04  0.50400001928E-02 0.  1.
    10030    2    1    2    0    0  0.00000000000E+00  0.00000000000E+00 -0.11305174852E+04  0.15775671154E+04  0.11002946057E+04 0.  0.
        1    1    3    3  502    0 -0.29620507426E+02  0.43735252281E+03 -0.88636131030E+02  0.44722585727E+03  0.50400001928E-02 0. -1.
       -1    1    3    3    0  502  0.29620507426E+02 -0.43735252281E+03 -0.10418813542E+04  0.11303412581E+04  0.50400001928E-02 0.  1.
</event>
<event>
 5   0  0.8341767E-04  0.1079041E+04  0.7818609E-02  0.9225864E-01
       -1   -1    0    0    0  501  0.00000000000E+00  0.00000000000E+00  0.24432285429E+03  0.24432285434E+03  0.50400001928E-02 0.  1.
        1   -1    0    0  501    0  0.00000000000E+00  0.00000000000E+00 -0.11913840618E+04  0.11913840618E+04  0.50400001928E-02 0. -1.
    10030    2    1    2    0    0  0.00000000000E+00  0.00000000000E+00 -0.94706120751E+03  0.14357069162E+04  0.10790409716E+04 0.  0.
        2    1    3    3  502    0 -0.18238611672E+03 -0.22735331722E+03 -0.10776134269E+04  0.11163354891E+04  0.25500000920E-02 0. -1.
       -2    1    3    3    0  502  0.18238611672E+03  0.22735331722E+03  0.13055221937E+03  0.31937142705E+03  0.25500000920E-02 0.  1.
</event>
<event>
 5   0  0.1372794E-03  0.1113457E+04  0.7818609E-02  0.9192174E-01
       -2   -1    0    0    0  501  0.00000000000E+00  0.00000000000E+00  0.40477689139E+03  0.40477689140E+03  0.25500000920E-02 0.  1.
        2   -1    0    0  501    0  0.00000000000E+00  0.00000000000E+00 -0.76572200245E+03  0.76572200245E+03  0.25500000920E-02 0. -1.
    10030    2    1    2    0    0  0.00000000000E+00  0.00000000000E+00 -0.36094511106E+03  0.11704988938E+04  0.11134569086E+04 0.  0.
        4    1    3    3  502    0 -0.14447425820E+03  0.79726552633E+02  0.37847704785E+03  0.41288693746E+03  0.12699999809E+01 0.  1.
       -4    1    3    3    0  502  0.14447425820E+03 -0.79726552633E+02 -0.73942215891E+03  0.75761195639E+03  0.12699999809E+01 0. -1.
</event>
<event>
 5   0  0.7946038E-04  0.1091018E+04  0.7818609E-02  0.9213991E-01
       -1   -1    0    0    0  501  0.00000000000E+00  0.00000000000E+00  0.21140685387E+03  0.21140685393E+03  0.50400001928E-02 0. -1.
        1   -1    0    0  501    0  0.00000000000E+00  0.00000000000E+00 -0.14076179318E+04  0.14076179318E+04  0.50400001928E-02 0.  1.
    10030    2    1    2    0    0  0.00000000000E+00  0.00000000000E+00 -0.11962110779E+04  0.16190247858E+04  0.10910180172E+04 0.  0.
        4    1    3    3  502    0 -0.24058002191E+03  0.33256157497E+03 -0.11313040529E+04  0.12034643414E+04  0.12699999809E+01 0.  1.
       -4    1    3    3    0  502  0.24058002191E+03 -0.33256157497E+03 -0.64907025038E+02  0.41556044432E+03  0.12699999809E+01 0. -1.
</event>
<event>
 5   0  0.8150924E-04  0.1104295E+04  0.7818609E-02  0.9201016E-01
       -1   -1    0    0    0  501  0.00000000000E+00  0.00000000000E+00  0.75697428641E+03  0.75697428643E+03  0.50400001928E-02 0.  1.
        1   -1    0    0  501    0  0.00000000000E+00  0.00000000000E+00 -0.40274404890E+03  0.40274404893E+03  0.50400001928E-02 0. -1.
    10030    2    1    2    0    0  0.00000000000E+00  0.00000000000E+00  0.35423023751E+03  0.11597183354E+04  0.11042950494E+04 0.  0.
        3    1    3    3  502    0  0.82236355458E+02  0.43986479315E+02 -0.39441270926E+03  0.40528881547E+03  0.10100000352E+00 0. -1.
       -3    1    3    3    0  502 -0.82236355458E+02 -0.43986479315E+02  0.74864294677E+03  0.75442951989E+03  0.10100000352E+00 0.  1.
</event>
<event>
 5   0  0.1425432E-03  0.1102341E+04  0.7818609E-02  0.9202913E-01
       -2   -1    0    0    0  501  0.00000000000E+00  0.00000000000E+00  0.13765290710E+04  0.13765290710E+04  0.25500000920E-02 0. -1.
        2   -1    0    0  501    0  0.00000000000E+00  0.00000000000E+00 -0.22069189851E+03  0.22069189853E+03  0.25500000920E-02 0.  1.
    10030    2    1    2    0    0  0.00000000000E+00  0.00000000000E+00  0.11558371724E+04  0.15972209695E+04  0.11023408076E+04 0.  0.
        1    1    3    3  502    0 -0.32825778615E+02 -0.25078044469E+03 -0.13164648011E+03  0.28513007370E+03  0.50400001928E-02 0.  1.
       -1    1    3    3    0  502  0.32825778615E+02  0.25078044469E+03  0.12874836526E+04  0.13120908958E+04  0.50400001928E-02 0. -1.
</event>
<event>
 5   0  0.1402775E-03  0.1097472E+04  0.7818609E-02  0.9207659E-01
       -2   -1    0    0    0  501  0.00000000000E+00  0.00000000000E+00  0.16330765378E+03  0.16330765380E+03  0.25500000920E-02 0. -1.
        2   -1    0    0  501    0  0.00000000000E+00  0.00000000000E+00 -0.18438279128E+04  0.18438279128E+04  0.25500000920E-02 0.  1.
    10030    2    1    2    0    0  0.00000000000E+00  0.00000000000E+00 -0.16805202590E+04  0.20071355666E+04  0.10974720232E+04 0.  0.
        5    1    3    3  502    0 -0.27206149053E+03  0.20117740514E+03 -0.16302804719E+04  0.16650304231E+04  0.46999998093E+01 0.  1.
       -5    1    3    3    0  502  0.27206149053E+03 -0.20117740514E+03 -0.50239787112E+02  0.34210514345E+03  0.46999998093E+01 0. -1.
</event>
<event>
 5   0  0.7946038E-04  0.1107432E+04  0.7818609E-02  0.9197979E-01
        1   -1    0    0  501    0  0.00000000000E+00  0.00000000000E+00  0.12629678610E+04  0.12629678610E+04  0.50400001928E-02 0.  1.
       -1   -1    0    0    0  501  0.00000000000E+00  0.00000000000E+00 -0.24276251094E+03  0.24276251099E+03  0.50400001928E-02 0. -1.
    10030    2    1    2    0    0  0.00000000000E+00  0.00000000000E+00  0.10202053500E+04  0.15057303720E+04  0.11074317120E+04 0.  0.
        4    1    3    3  502    0 -0.15519393039E+03  0.50087344374E+03  0.75195505768E+03  0.91673190429E+03  0.12699999809E+01 0.  1.
       -4    1    3    3    0  502  0.15519393039E+03 -0.50087344374E+03  0.26825029234E+03  0.58899846766E+03  0.12699999809E+01 0. -1.
</event>
<event>
 5   0  0.1372794E-03  0.1099895E+04  0.7818609E-02  0.9205294E-01
       -2   -1    0    0    0  501  0.00000000000E+00  0.00000000000E+00  0.33262792522E+03  0.33262792523E+03  0.25500000920E-02 0.  1.
        2   -1    0    0  501    0  0.00000000000E+00  0.00000000000E+00 -0.90925067067E+03  0.90925067067E+03  0.25500000920E-02 0. -1.
    10030    2    1    2    0    0  0.00000000000E+00  0.00000000000E+00 -0.57662274544E+03  0.12418785959E+04  0.10998948388E+04 0.  0.
        4    1    3    3  502    0 -0.11185860202E+03  0.46065184564E+03 -0.60309849109E+03  0.76709964971E+03  0.12699999809E+01 0. -1.
       -4    1    3    3    0  502  0.11185860202E+03 -0.46065184564E+03  0.26475745645E+02  0.47477894619E+03  0.12699999809E+01 0.  1.
</event>
<event>
 5   0  0.1396936E-03  0.1099669E+04  0.7818609E-02  0.9205515E-01
       -2   -1    0    0    0  501  0.00000000000E+00  0.00000000000E+00  0.13825413769E+03  0.13825413771E+03  0.25500000920E-02 0.  1.
        2   -1    0    0  501    0  0.00000000000E+00  0.00000000000E+00 -0.21866831664E+04  0.21866831664E+04  0.25500000920E-02 0. -1.
    10030    2    1    2    0    0  0.00000000000E+00  0.00000000000E+00 -0.20484290288E+04  0.23249373041E+04  0.10996690331E+04 0.  0.
        2    1    3    3  502    0 -0.56613093520E+02 -0.40376384639E+03 -0.24427898837E+03  0.47529202620E+03  0.25500000920E-02 0. -1.
       -2    1    3    3    0  502  0.56613093520E+02  0.40376384639E+03 -0.18041500404E+04  0.18496452779E+04  0.25500000920E-02 0.  1.
</event>
<event>
 5   0  0.8009636E-04  0.1099966E+04  0.7818609E-02  0.9205225E-01
        1   -1    0    0  501    0  0.00000000000E+00  0.00000000000E+00  0.60053352753E+03  0.60053352755E+03  0.50400001928E-02 0. -1.
       -1   -1    0    0    0  501  0.00000000000E+00  0.00000000000E+00 -0.50368747502E+03  0.50368747505E+03  0.50400001928E-02 0.  1.
    10030    2    1    2    0    0  0.00000000000E+00  0.00000000000E+00  0.96846052509E+02  0.11042210026E+04  0.10999658471E+04 0.  0.
        1    1    3    3  502    0 -0.53001765870E+03  0.14024346053E+03  0.47314539471E+01  0.54827851812E+03  0.50400001928E-02 0.  1.
       -1    1    3    3    0  502  0.53001765870E+03 -0.14024346053E+03  0.92114598562E+02  0.55594248448E+03  0.50400001928E-02 0. -1.
</event>
<event>
 5   0  0.1396936E-03  0.1099667E+04  0.7818609E-02  0.9205516E-01
        2   -1    0    0  501    0  0.00000000000E+00  0.00000000000E+00  0.69959612429E+03  0.69959612429E+03  0.25500000920E-02 0. -1.
       -2   -1    0    0    0  501  0.00000000000E+00  0.00000000000E+00 -0.43213061469E+03  0.43213061470E+03  0.25500000920E-02 0.  1.
    10030    2    1    2    0    0  0.00000000000E+00  0.00000000000E+00  0.26746550959E+03  0.11317267390E+04  0.10996670464E+04 0.  0.
        2    1    3    3  502    0 -0.11657552814E+03  0.53689792442E+03  0.15598886665E+03  0.57112324548E+03  0.25500000920E-02 0. -1.
       -2    1    3    3    0  502  0.11657552814E+03 -0.53689792442E+03  0.11147664295E+03  0.56060349351E+03  0.25500000920E-02 0.  1.
</event>
<event>
 5   0  0.8341767E-04  0.1097960E+04  0.7818609E-02  0.9207182E-01
        1   -1    0    0  501    0  0.00000000000E+00  0.00000000000E+00  0.15236007487E+04  0.15236007487E+04  0.50400001928E-02 0. -1.
       -1   -1    0    0    0  501  0.00000000000E+00  0.00000000000E+00 -0.19780723074E+03  0.19780723080E+03  0.50400001928E-02 0.  1.
    10030    2    1    2    0    0  0.00000000000E+00  0.00000000000E+00  0.13257935180E+04  0.17214079795E+04  0.10979603725E+04 0.  0.
        2    1    3    3  502    0  0.16504280552E+03  0.11360325945E+03 -0.13843497617E+03  0.24353453728E+03  0.25500000920E-02 0.  1.
       -2    1    3    3    0  502 -0.16504280552E+03 -0.11360325945E+03  0.14642284942E+04  0.14778734423E+04  0.25500000920E-02 0. -1.
</event>
<event>
 5   0  0.7946038E-04  0.1096132E+04  0.7818609E-02  0.9208970E-01
       -1   -1    0    0    0  501  0.00000000000E+00  0.00000000000E+00  0.95863044219E+03  0.95863044220E+03  0.50400001928E-02 0.  1.
        1   -1    0    0  501    0  0.00000000000E+00  0.00000000000E+00 -0.31333919294E+03  0.31333919298E+03  0.50400001928E-02 0. -1.
    10030    2    1    2    0    0  0.00000000000E+00  0.00000000000E+00  0.64529124925E+03  0.12719696352E+04  0.10961322714E+04 0.  0.
        4    1    3    3  502    0 -0.51964985148E+02 -0.54334940042E+03  0.26525549886E+03  0.60686985689E+03  0.12699999809E+01 0. -1.
       -4    1    3    3    0  502  0.51964985148E+02  0.54334940042E+03  0.38003575039E+03  0.66509977830E+03  0.12699999809E+01 0.  1.
</event>
<event>
 5   0  0.1425432E-03  0.1097348E+04  0.7818609E-02  0.9207781E-01
       -2   -1    0    0    0  501  0.00000000000E+00  0.00000000000E+00  0.20086624390E+03  0.20086624391E+03  0.25500000920E-02 0. -1.
        2   -1    0    0  501    0  0.00000000000E+00  0.00000000000E+00 -0.14987235692E+04  0.14987235692E+04  0.25500000920E-02 0.  1.
    10030    2    1    2    0    0  0.00000000000E+00  0.00000000000E+00 -0.12978573253E+04  0.16995898131E+04  0.10973476641E+04 0.  0.
        1    1    3    3  502    0  0.52550053953E+03 -0.13930279227E+03 -0.53420236911E+03  0.76218649697E+03  0.50400001928E-02 0. -1.
       -1    1    3    3    0  502 -0.52550053953E+03  0.13930279227E+03 -0.76365495620E+03  0.93740331615E+03  0.50400001928E-02 0.  1.
</event>
<event>
 5   0  0.1396936E-03  0.1092869E+04  0.7818609E-02  0.9212170E-01
        2   -1    0    0  501    0  0.00000000000E+00  0.00000000000E+00  0.14456368664E+04  0.14456368664E+04  0.25500000920E-02 0. -1.
       -2   -1    0    0    0  501  0.00000000000E+00  0.00000000000E+00 -0.20654607687E+03  0.20654607689E+03  0.25500000920E-02 0.  1.
    10030    2    1    2    0    0  0.00000000000E+00  0.00000000000E+00  0.12390907895E+04  0.16521829433E+04  0.10928689278E+04 0.  0.
        2    1    3    3  502    0  0.20871230640E+03 -0.32324695776E+03  0.12061125538E+04  0.12660003613E+04  0.25500000920E-02 0. -1.
       -2    1    3    3    0  502 -0.20871230640E+03  0.32324695776E+03  0.32978235741E+02  0.38618258193E+03  0.25500000920E-02 0.  1.
</event>
<event>
 5   0  0.8009636E-04  0.1097615E+04  0.7818609E-02  0.9207520E-01
       -1   -1    0    0    0  501  0.00000000000E+00  0.00000000000E+00  0.23994464544E+03  0.23994464550E+03  0.50400001928E-02 0. -1.
        1   -1    0    0  501    0  0.00000000000E+00  0.00000000000E+00 -0.12552453419E+04  0.12552453420E+04  0.50400001928E-02 0.  1.
    10030    2    1    2    0    0  0.00000000000E+00  0.00000000000E+00 -0.10153006965E+04  0.14951899875E+04  0.10976145017E+04 0.  0.
        1    1    3    3  502    0  0.26811537158E+03 -0.47201659545E+03 -0.61750862776E+03  0.82219366589E+03  0.50400001928E-02 0.  1.
       -1    1    3    3    0  502 -0.26811537158E+03  0.47201659545E+03 -0.39779206874E+03  0.67299632156E+03  0.50400001928E-02 0. -1.
</event>
<event>
 5   0  0.8341767E-04  0.1092578E+04  0.7818609E-02  0.9212456E-01
        1   -1    0    0  501    0  0.00000000000E+00  0.00000000000E+00  0.15985664932E+04  0.15985664932E+04  0.50400001928E-02 0.  1.
       -1   -1    0    0    0  501  0.00000000000E+00  0.00000000000E+00 -0.18668696787E+03  0.18668696794E+03  0.50400001928E-02 0. -1.
    10030    2    1    2    0    0  0.00000000000E+00  0.00000000000E+00  0.14118795254E+04  0.17852534612E+04  0.10925777439E+04 0.  0.
        2    1    3    3  502    0 -0.50020286784E+03  0.14907645586E+03  0.44244343422E+03  0.68423891382E+03  0.25500000920E-02 0. -1.
       -2    1    3    3    0  502  0.50020286784E+03 -0.14907645586E+03  0.96943609115E+03  0.11010145474E+04  0.25500000920E-02 0.  1.
</event>
<event>
 5   0  0.1425432E-03  0.1098155E+04  0.7818609E-02  0.9206992E-01
        2   -1    0    0  501    0  0.00000000000E+00  0.00000000000E+00  0.21181684419E+04  0.21181684419E+04  0.25500000920E-02 0. -1.
       -2   -1    0    0    0  501  0.00000000000E+00  0.00000000000E+00 -0.14233326342E+03  0.14233326345E+03  0.25500000920E-02 0.  1.
    10030    2    1    2    0    0  0.00000000000E+00  0.00000000000E+00  0.19758351784E+04  0.22605017053E+04  0.10981545007E+04 0.  0.
        1    1    3    3  502    0 -0.30220218070E+03  0.45221895055E+03  0.83308550856E+03  0.99491688188E+03  0.50400001928E-02 0.  1.
       -1    1    3    3    0  502  0.30220218070E+03 -0.45221895055E+03  0.11427496699E+04  0.12655848234E+04  0.50400001928E-02 0. -1.
</event>
<event>
 5   0  0.8341767E-04  0.1076184E+04  0.7818609E-02  0.9228720E-01
       -1   -1    0    0    0  501  0.00000000000E+00  0.00000000000E+00  0.12071112390E+04  0.12071112390E+04  0.50400001928E-02 0. -1.
        1   -1    0    0  501    0  0.00000000000E+00  0.00000000000E+00 -0.23986453689E+03  0.23986453694E+03  0.50400001928E-02 0.  1.
    10030    2    1    2    0    0  0.00000000000E+00  0.00000000000E+00  0.96724670209E+03  0.14469757759E+04  0.10761843306E+04 0.  0.
        2    1    3    3  502    0  0.83452927376E+01  0.46511684036E+03  0.12000009084E+03  0.48041996306E+03  0.25500000920E-02 0.  1.
       -2    1    3    3    0  502 -0.83452927376E+01 -0.46511684036E+03  0.84724661125E+03  0.96655581286E+03  0.25500000920E-02 0. -1.
</event>
<event>
 5   0  0.8150924E-04  0.1096853E+04  0.7818609E-02  0.9208264E-01
       -1   -1    0    0    0  501  0.00000000000E+00  0.00000000000E+00  0.13163821450E+04  0.13163821450E+04  0.50400001928E-02 0. -1.
        1   -1    0    0  501    0  0.00000000000E+00  0.00000000000E+00 -0.22848367225E+03  0.22848367230E+03  0.50400001928E-02 0.  1.
    10030    2    1    2    0    0  0.00000000000E+00  0.00000000000E+00  0.10878984727E+04  0.15448658173E+04  0.10968533660E+04 0.  0.
        3    1    3    3  502    0 -0.11750428537E+03  0.27697822449E+03  0.11897636568E+04  0.12272170807E+04  0.10100000352E+00 0. -1.
       -3    1    3    3    0  502  0.11750428537E+03 -0.27697822449E+03 -0.10186518408E+03  0.31764873658E+03  0.10100000352E+00 0.  1.
</event>
<event>
 5   0  0.1372794E-03  0.1107126E+04  0.7818609E-02  0.9198275E-01
       -2   -1    0    0    0  501  0.00000000000E+00  0.00000000000E+00  0.33239829596E+03  0.33239829597E+03  0.25500000920E-02 0.  1.
        2   -1    0    0  501    0  0.00000000000E+00  0.00000000000E+00 -0.92188122767E+03  0.92188122768E+03  0.25500000920E-02 0. -1.
    10030    2    1    2    0    0  0.00000000000E+00  0.00000000000E+00 -0.58948293172E+03  0.12542795236E+04  0.11071255560E+04 0.  0.
        4    1    3    3  502    0 -0.26526973422E+02 -0.54309240350E+03 -0.17713035375E+03  0.57186520630E+03  0.12699999809E+01 0.  1.
       -4    1    3    3    0  502  0.26526973422E+02  0.54309240350E+03 -0.41235257796E+03  0.68241431734E+03  0.12699999809E+01 0. -1.
</event>
<event>
 5   0  0.1372794E-03  0.1128319E+04  0.7818609E-02  0.9178021E-01
        2   -1    0    0  501    0  0.00000000000E+00  0.00000000000E+00  0.86395439485E+03  0.86395439486E+03  0.25500000920E-02 0.  1.
       -2   -1    0    0    0  501  0.00000000000E+00  0.00000000000E+00 -0.36839444353E+03  0.36839444354E+03  0.25500000920E-02 0. -1.
    10030    2    1    2    0    0  0.00000000000E+00  0.00000000000E+00  0.49555995132E+03  0.12323488384E+04  0.11283191012E+04 0.  0.
        4    1    3    3  502    0 -0.62548043164E+02  0.23472781715E+03 -0.30834659961E+03  0.39254126438E+03  0.12699999809E+01 0. -1.
       -4    1    3    3    0  502  0.62548043164E+02 -0.23472781715E+03  0.80390655094E+03  0.83980757402E+03  0.12699999809E+01 0.  1.
</event>
<event>
 5   0  0.1372794E-03  0.1087641E+04  0.7818609E-02  0.9217322E-01
        2   -1    0    0  501    0  0.00000000000E+00  0.00000000000E+00  0.58591860472E+03  0.58591860473E+03  0.25500000920E-02 0. -1.
       -2   -1    0    0    0  501  0.00000000000E+00  0.00000000000E+00 -0.50474714138E+03  0.50474714138E+03  0.25500000920E-02 0.  1.
    10030    2    1    2    0    0  0.00000000000E+00  0.00000000000E+00  0.81171463348E+02  0.10906657461E+04  0.10876410085E+04 0.  0.
        4    1    3    3  502    0 -0.72081461323E+02 -0.18265127152E+03 -0.46795565548E+03  0.50748530269E+03  0.12699999809E+01 0.  1.
       -4    1    3    3    0  502  0.72081461323E+02  0.18265127152E+03  0.54912711883E+03  0.58318044342E+03  0.12699999809E+01 0. -1.
</event>
<event>
 5   0  0.1429680E-03  0.1100112E+04  0.7818609E-02  0.9205083E-01
        2   -1    0    0  501    0  0.00000000000E+00  0.00000000000E+00  0.82168297259E+03  0.82168297259E+03  0.25500000920E-02 0.  1.
       -2   -1    0    0    0  501  0.00000000000E+00  0.00000000000E+00 -0.36822185531E+03  0.36822185531E+03  0.25500000920E-02 0. -1.
    10030    2    1    2    0    0  0.00000000000E+00  0.00000000000E+00  0.45346111728E+03  0.11899048279E+04  0.11001120464E+04 0.  0.
        3    1    3    3  502    0  0.12112486315E+03  0.29526421116E+03  0.71130354177E+03  0.77961844873E+03  0.10100000352E+00 0. -1.
       -3    1    3    3    0  502 -0.12112486315E+03 -0.29526421116E+03 -0.25784242449E+03  0.41028637917E+03  0.10100000352E+00 0.  1.
</event>
<event>
 5   0  0.8009636E-04  0.1102207E+04  0.7818609E-02  0.9203043E-01
       -1   -1    0    0    0  501  0.00000000000E+00  0.00000000000E+00  0.31946587695E+03  0.31946587699E+03  0.50400001928E-02 0.  1.
        1   -1    0    0  501    0  0.00000000000E+00  0.00000000000E+00 -0.95069645005E+03  0.95069645006E+03  0.50400001928E-02 0. -1.
    10030    2    1    2    0    0  0.00000000000E+00  0.00000000000E+00 -0.63123057310E+03  0.12701623270E+04  0.11022070135E+04 0.  0.
        1    1    3    3  502    0  0.53074098740E+03 -0.11959392289E+03 -0.21432124642E+03  0.58474122378E+03  0.50400001928E-02 0. -1.
       -1    1    3    3    0  502 -0.53074098740E+03  0.11959392289E+03 -0.41690932668E+03  0.68542110326E+03  0.50400001928E-02 0.  1.
</event>
<event>
 5   0  0.1396936E-03  0.1091171E+04  0.7818609E-02  0.9213841E-01
        2   -1    0    0  501    0  0.00000000000E+00  0.00000000000E+00  0.53947229347E+03  0.53947229348E+03  0.25500000920E-02 0. -1.
       -2   -1    0    0    0  501  0.00000000000E+00  0.00000000000E+00 -0.55176751600E+03  0.55176751600E+03  0.25500000920E-02 0.  1.
    10030    2    1    2    0    0  0.00000000000E+00  0.00000000000E+00 -0.12295222524E+02  0.10912398095E+04  0.10911705409E+04 0.  0.
        2    1    3    3  502    0  0.18569464367E+03  0.36962070544E+03 -0.36192477428E+03  0.54962851893E+03  0.25500000920E-02 0.  1.
       -2    1    3    3    0  502 -0.18569464367E+03 -0.36962070544E+03  0.34962955176E+03  0.54161129055E+03  0.25500000920E-02 0. -1.
</event>
<event>
 5   0  0.1425432E-03  0.1097546E+04  0.7818609E-02  0.9207587E-01
       -2   -1    0    0    0  501  0.00000000000E+00  0.00000000000E+00  0.25706715439E+03  0.25706715441E+03  0.25500000920E-02 0. -1.
        2   -1    0    0  501    0  0.00000000000E+00  0.00000000000E+00 -0.11714909885E+04  0.11714909885E+04  0.25500000920E-02 0.  1.
    10030    2    1    2    0    0  0.00000000000E+00  0.00000000000E+00 -0.91442383414E+03  0.14285581429E+04  0.10975460898E+04 0.  0.
        1    1    3    3  502    0 -0.29078243960E+03  0.61095765997E+01  0.14849757083E+03  0.32656283113E+03  0.50400001928E-02 0. -1.
       -1    1    3    3    0  502  0.29078243960E+03 -0.61095765997E+01 -0.10629214050E+04  0.11019953118E+04  0.50400001928E-02 0.  1.
</event>
<event>
 5   0  0.8341767E-04  0.1102156E+04  0.7818609E-02  0.9203093E-01
       -1   -1    0    0    0  501  0.00000000000E+00  0.00000000000E+00  0.49460985346E+03  0.49460985348E+03  0.50400001928E-02 0. -1.
        1   -1    0    0  501    0  0.00000000000E+00  0.00000000000E+00 -0.61399242778E+03  0.61399242780E+03  0.50400001928E-02 0.  1.
    10030    2    1    2    0    0  0.00000000000E+00  0.00000000000E+00 -0.11938257433E+03  0.11086022813E+04  0.11021555330E+04 0.  0.
        2    1    3    3  502    0  0.10191939411E+02 -0.11140131368E+03  0.48306906723E+03  0.49585265154E+03  0.25500000920E-02 0. -1.
       -2    1    3    3    0  502 -0.10191939411E+02  0.11140131368E+03 -0.60245164156E+03  0.61274962974E+03  0.25500000920E-02 0.  1.
</event>
<event>
 5   0  0.8341767E-04  0.1100782E+04  0.7818609E-02  0.9204430E-01
        1   -1    0    0  501    0  0.00000000000E+00  0.00000000000E+00  0.75564664582E+03  0.75564664584E+03  0.50400001928E-02 0. -1.
       -1   -1    0    0    0  501  0.00000000000E+00  0.00000000000E+00 -0.40088873887E+03  0.40088873890E+03  0.50400001928E-02 0.  1.
    10030    2    1    2    0    0  0.00000000000E+00  0.00000000000E+00  0.35475790695E+03  0.11565353847E+04  0.11007819601E+04 0.  0.
        2    1    3    3  502    0 -0.24335946408E+03  0.21933416762E+03  0.64204490753E+03  0.72080022831E+03  0.25500000920E-02 0. -1.
       -2    1    3    3    0  502  0.24335946408E+03 -0.21933416762E+03 -0.28728700057E+03  0.43573515643E+03  0.25500000920E-02 0.  1.
</event>
<event>
 5   0  0.1372794E-03  0.1107718E+04  0.7818609E-02  0.9197702E-01
       -2   -1    0    0    0  501  0.00000000000E+00  0.00000000000E+00  0.25379251792E+03  0.25379251793E+03  0.25500000920E-02 0. -1.
        2   -1    0    0  501    0  0.00000000000E+00  0.00000000000E+00 -0.12087023995E+04  0.12087023995E+04  0.25500000920E-02 0.  1.
    10030    2    1    2    0    0  0.00000000000E+00  0.00000000000E+00 -0.95490988154E+03  0.14624949174E+04  0.11077176994E+04 0.  0.
        4    1    3    3  502    0 -0.46139343523E+02 -0.36364516828E+03  0.70724854961E+02  0.37332327203E+03  0.12699999809E+01 0. -1.
       -4    1    3    3    0  502  0.46139343523E+02  0.36364516828E+03 -0.10256347365E+04  0.10891716454E+04  0.12699999809E+01 0.  1.
</event>
<event>
 5   0  0.1372794E-03  0.1099087E+04  0.7818609E-02  0.9206082E-01
        2   -1    0    0  501    0  0.00000000000E+00  0.00000000000E+00  0.24233813063E+04  0.24233813063E+04  0.25500000920E-02 0.  1.
       -2   -1    0    0    0  501  0.00000000000E+00  0.00000000000E+00 -0.12461856472E+03  0.12461856475E+03  0.25500000920E-02 0. -1.
    10030    2    1    2    0    0  0.00000000000E+00  0.00000000000E+00  0.22987627415E+04  0.25479998710E+04  0.10990874400E+04 0.  0.
        4    1    3    3  502    0 -0.38104103204E+03 -0.34103652613E+03  0.16159189843E+04  0.16949023444E+04  0.12699999809E+01 0. -1.
       -4    1    3    3    0  502  0.38104103204E+03  0.34103652613E+03  0.68284375721E+03  0.85309752661E+03  0.12699999809E+01 0.  1.
</event>
<event>
 5   0  0.1372794E-03  0.1096907E+04  0.7818609E-02  0.9208211E-01
        2   -1    0    0  501    0  0.00000000000E+00  0.00000000000E+00  0.13628468046E+04  0.13628468046E+04  0.25500000920E-02 0. -1.
       -2   -1    0    0    0  501  0.00000000000E+00  0.00000000000E+00 -0.22071550673E+03  0.22071550674E+03  0.25500000920E-02 0.  1.
    10030    2    1    2    0    0  0.00000000000E+00  0.00000000000E+00  0.11421312978E+04  0.15835623113E+04  0.10969073308E+04 0.  0.
        4    1    3    3  502    0 -0.53974086911E+03  0.16755030969E+02  0.43260303141E+03  0.69191613115E+03  0.12699999809E+01 0.  1.
       -4    1    3    3    0  502  0.53974086911E+03 -0.16755030969E+02  0.70952826643E+03  0.89164618017E+03  0.12699999809E+01 0. -1.
</event>
<event>
 5   0  0.8150924E-04  0.1098477E+04  0.7818609E-02  0.9206678E-01
        1   -1    0    0  501    0  0.00000000000E+00  0.00000000000E+00  0.63571148035E+03  0.63571148037E+03  0.50400001928E-02 0. -1.
       -1   -1    0    0    0  501  0.00000000000E+00  0.00000000000E+00 -0.47452765780E+03  0.47452765783E+03  0.50400001928E-02 0.  1.
    10030    2    1    2    0    0  0.00000000000E+00  0.00000000000E+00  0.16118382254E+03  0.11102391382E+04  0.10984765447E+04 0.  0.
        3    1    3    3  502    0  0.54910772821E+03  0.21251275973E+01  0.68682000051E+02  0.55339049565E+03  0.10100000352E+00 0.  1.
       -3    1    3    3    0  502 -0.54910772821E+03 -0.21251275973E+01  0.92501822490E+02  0.55684864255E+03  0.10100000352E+00 0. -1.
</event>
<event>
 5   0  0.5409500E-04  0.1101961E+04  0.7818609E-02  0.9203283E-01
       -3   -1    0    0    0  501  0.00000000000E+00  0.00000000000E+00  0.39227239453E+03  0.39227240753E+03  0.10100000352E+00 0.  1.
        3   -1    0    0  501    0  0.00000000000E+00  0.00000000000E+00 -0.77389946400E+03  0.77389947059E+03  0.10100000352E+00 0. -1.
    10030    2    1    2    0    0  0.00000000000E+00  0.00000000000E+00 -0.38162706947E+03  0.11661718781E+04  0.11019608111E+04 0.  0.
        5    1    3    3  502    0 -0.44727264901E+03  0.22272593014E+03  0.54872996398E+02  0.50268558587E+03  0.46999998093E+01 0.  1.
       -5    1    3    3    0  502  0.44727264901E+03 -0.22272593014E+03 -0.43650006587E+03  0.66348629225E+03  0.46999998093E+01 0. -1.
</event>
<event>
 5   0  0.8305271E-04  0.1100947E+04  0.7818609E-02  0.9204269E-01
       -1   -1    0    0    0  501  0.00000000000E+00  0.00000000000E+00  0.10614019075E+04  0.10614019075E+04  0.50400001928E-02 0.  1.
        1   -1    0    0  501    0  0.00000000000E+00  0.00000000000E+00 -0.28549156239E+03  0.28549156243E+03  0.50400001928E-02 0. -1.
    10030    2    1    2    0    0  0.00000000000E+00  0.00000000000E+00  0.77591034508E+03  0.13468934699E+04  0.11009473901E+04 0.  0.
        5    1    3    3  502    0 -0.95395219724E+02  0.20264007508E+03 -0.22720200331E+03  0.31907066346E+03  0.46999998093E+01 0. -1.
       -5    1    3    3    0  502  0.95395219724E+02 -0.20264007508E+03  0.10031123484E+04  0.10278228065E+04  0.46999998093E+01 0.  1.
</event>
<event>
 5   0  0.1396936E-03  0.1098458E+04  0.7818609E-02  0.9206696E-01
       -2   -1    0    0    0  501  0.00000000000E+00  0.00000000000E+00  0.46609073035E+03  0.46609073036E+03  0.25500000920E-02 0. -1.
        2   -1    0    0  501    0  0.00000000000E+00  0.00000000000E+00 -0.64719674077E+03  0.64719674078E+03  0.25500000920E-02 0.  1.
    10030    2    1    2    0    0  0.00000000000E+00  0.00000000000E+00 -0.18110601042E+03  0.11132874711E+04  0.10984578309E+04 0.  0.
        2    1    3    3  502    0 -0.92425360114E+02  0.31159704204E+03 -0.53926849808E+03  0.62963932281E+03  0.25500000920E-02 0.  1.
       -2    1    3    3    0  502  0.92425360114E+02 -0.31159704204E+03  0.35816248766E+03  0.48364814832E+03  0.25500000920E-02 0. -1.
</event>
<event>
 5   0  0.8341767E-04  0.1082839E+04  0.7818609E-02  0.9222082E-01
        1   -1    0    0  501    0  0.00000000000E+00  0.00000000000E+00  0.87396723286E+03  0.87396723288E+03  0.50400001928E-02 0.  1.
       -1   -1    0    0    0  501  0.00000000000E+00  0.00000000000E+00 -0.33540728982E+03  0.33540728986E+03  0.50400001928E-02 0. -1.
    10030    2    1    2    0    0  0.00000000000E+00  0.00000000000E+00  0.53855994304E+03  0.12093745227E+04  0.10828388264E+04 0.  0.
        2    1    3    3  502    0  0.51005591451E+03  0.14029093335E+03  0.14049534679E+03  0.54733675592E+03  0.25500000920E-02 0. -1.
       -2    1    3    3    0  502 -0.51005591451E+03 -0.14029093335E+03  0.39806459625E+03  0.66203776682E+03  0.25500000920E-02 0.  1.
</event>
<event>
 5   0  0.8341767E-04  0.1105921E+04  0.7818609E-02  0.9199440E-01
        1   -1    0    0  501    0  0.00000000000E+00  0.00000000000E+00  0.88665826738E+03  0.88665826739E+03  0.50400001928E-02 0. -1.
       -1   -1    0    0    0  501  0.00000000000E+00  0.00000000000E+00 -0.34485137652E+03  0.34485137655E+03  0.50400001928E-02 0.  1.
    10030    2    1    2    0    0  0.00000000000E+00  0.00000000000E+00  0.54180689086E+03  0.12315096439E+04  0.11059210171E+04 0.  0.
        2    1    3    3  502    0 -0.12203191240E+02  0.26527575105E+03  0.81100331748E+03  0.85337361276E+03  0.25500000920E-02 0. -1.
       -2    1    3    3    0  502  0.12203191240E+02 -0.26527575105E+03 -0.26919642662E+03  0.37813603119E+03  0.25500000920E-02 0.  1.
</event>
<event>
 5   0  0.8009636E-04  0.1098053E+04  0.7818609E-02  0.9207092E-01
        1   -1    0    0  501    0  0.00000000000E+00  0.00000000000E+00  0.62937214081E+03  0.62937214083E+03  0.50400001928E-02 0.  1.
       -1   -1    0    0    0  501  0.00000000000E+00  0.00000000000E+00 -0.47893769564E+03  0.47893769566E+03  0.50400001928E-02 0. -1.
    10030    2    1    2    0    0  0.00000000000E+00  0.00000000000E+00  0.15043444517E+03  0.11083098365E+04  0.10980529001E+04 0.  0.
        1    1    3    3  502    0  0.64785505514E+01 -0.47428628252E+03 -0.20384429350E+03  0.51627700454E+03  0.50400001928E-02 0. -1.
       -1    1    3    3    0  502 -0.64785505514E+01  0.47428628252E+03  0.35427873868E+03  0.59203283195E+03  0.50400001928E-02 0.  1.
</event>
<event>
 5   0  0.1396936E-03  0.1105824E+04  0.7818609E-02  0.9199534E-01
        2   -1    0    0  501    0  0.00000000000E+00  0.00000000000E+00  0.52239574168E+03  0.52239574169E+03  0.25500000920E-02 0.  1.
       -2   -1    0    0    0  501  0.00000000000E+00  0.00000000000E+00 -0.58521063440E+03  0.58521063441E+03  0.25500000920E-02 0. -1.
    10030    2    1    2    0    0  0.00000000000E+00  0.00000000000E+00 -0.62814892719E+02  0.11076063761E+04  0.11058237534E+04 0.  0.
        2    1    3    3  502    0  0.42794893121E+03 -0.82348660560E+02  0.30942032359E+03  0.53447406512E+03  0.25500000920E-02 0.  1.
       -2    1    3    3    0  502 -0.42794893121E+03  0.82348660560E+02 -0.37223521631E+03  0.57313231098E+03  0.25500000920E-02 0. -1.
</event>
<event>
 5   0  0.1372794E-03  0.1102077E+04  0.7818609E-02  0.9203170E-01
       -2   -1    0    0    0  501  0.00000000000E+00  0.00000000000E+00  0.62195443404E+03  0.62195443404E+03  0.25500000920E-02 0.  1.
        2   -1    0    0  501    0  0.00000000000E+00  0.00000000000E+00 -0.48820869251E+03  0.48820869252E+03  0.25500000920E-02 0. -1.
    10030    2    1    2    0    0  0.00000000000E+00  0.00000000000E+00  0.13374574153E+03  0.11101631266E+04  0.11020772406E+04 0.  0.
        4    1    3    3  502    0 -0.41097928455E+02 -0.54849465336E+03  0.33364360734E+02  0.55104466058E+03  0.12699999809E+01 0. -1.
       -4    1    3    3    0  502  0.41097928455E+02  0.54849465336E+03  0.10038138079E+03  0.55911846598E+03  0.12699999809E+01 0.  1.
</event>
<event>
 5   0  0.8009636E-04  0.1099878E+04  0.7818609E-02  0.9205311E-01
        1   -1    0    0  501    0  0.00000000000E+00  0.00000000000E+00  0.11520428409E+04  0.11520428409E+04  0.50400001928E-02 0.  1.
       -1   -1    0    0    0  501  0.00000000000E+00  0.00000000000E+00 -0.26251883274E+03  0.26251883279E+03  0.50400001928E-02 0. -1.
    10030    2    1    2    0    0  0.00000000000E+00  0.00000000000E+00  0.88952400812E+03  0.14145616737E+04  0.10998780694E+04 0.  0.
        1    1    3    3  502    0 -0.53068941409E+02  0.25618002479E+03 -0.17735852225E+03  0.31607050334E+03  0.50400001928E-02 0. -1.
       -1    1    3    3    0  502  0.53068941409E+02 -0.25618002479E+03  0.10668825304E+04  0.10984911703E+04  0.50400001928E-02 0.  1.
</event>
<event>
 5   0  0.1425432E-03  0.1142225E+04  0.7818609E-02  0.9164986E-01
        2   -1    0    0  501    0  0.00000000000E+00  0.00000000000E+00  0.76982535160E+03  0.76982535161E+03  0.25500000920E-02 0.  1.
       -2   -1    0    0    0  501  0.00000000000E+00  0.00000000000E+00 -0.42369308116E+03  0.42369308117E+03  0.25500000920E-02 0. -1.
    10030    2    1    2    0    0  0.00000000000E+00  0.00000000000E+00  0.34613227044E+03  0.11935184328E+04  0.11422253284E+04 0.  0.
        1    1    3    3  502    0  0.13244500925E+03  0.34523346762E+03  0.62786074069E+03  0.72865419601E+03  0.50400001928E-02 0.  1.
       -1    1    3    3    0  502 -0.13244500925E+03 -0.34523346762E+03 -0.28172847025E+03  0.46486423676E+03  0.50400001928E-02 0. -1.
</event>
<event>
 5   0  0.8341767E-04  0.1100608E+04  0.7818609E-02  0.9204600E-01
       -1   -1    0    0    0  501  0.00000000000E+00  0.00000000000E+00  0.65513388805E+03  0.65513388807E+03  0.50400001928E-02 0. -1.
        1   -1    0    0  501    0  0.00000000000E+00  0.00000000000E+00 -0.46224791551E+03  0.46224791554E+03  0.50400001928E-02 0.  1.
    10030    2    1    2    0    0  0.00000000000E+00  0.00000000000E+00  0.19288597254E+03  0.11173818036E+04  0.11006076034E+04 0.  0.
        2    1    3    3  502    0 -0.45818334854E+03 -0.14249705153E+03  0.36998754151E+03  0.60591102602E+03  0.25500000920E-02 0. -1.
       -2    1    3    3    0  502  0.45818334854E+03  0.14249705153E+03 -0.17710156897E+03  0.51147077758E+03  0.25500000920E-02 0.  1.
</event>
<event>
 5   0  0.7946038E-04  0.1100635E+04  0.7818609E-02  0.9204573E-01
       -1   -1    0    0    0  501  0.00000000000E+00  0.00000000000E+00  0.30786238258E+03  0.30786238262E+03  0.50400001928E-02 0. -1.
        1   -1    0    0  501    0  0.00000000000E+00  0.00000000000E+00 -0.98371604837E+03  0.98371604838E+03  0.50400001928E-02 0.  1.
    10030    2    1    2    0    0  0.00000000000E+00  0.00000000000E+00 -0.67585366579E+03  0.12915784310E+04  0.11006346650E+04 0.  0.
        4    1    3    3  502    0  0.19499770936E+02  0.23885298340E+03  0.24341226615E+03  0.34158766512E+03  0.12699999809E+01 0. -1.
       -4    1    3    3    0  502 -0.19499770936E+02 -0.23885298340E+03 -0.91926593194E+03  0.94999076589E+03  0.12699999809E+01 0.  1.
</event>
<event>
 5   0  0.8009636E-04  0.1093561E+04  0.7818609E-02  0.9211490E-01
       -1   -1    0    0    0  501  0.00000000000E+00  0.00000000000E+00  0.71319635250E+03  0.71319635252E+03  0.50400001928E-02 0. -1.
        1   -1    0    0  501    0  0.00000000000E+00  0.00000000000E+00 -0.41919599247E+03  0.41919599250E+03  0.50400001928E-02 0.  1.
    10030    2    1    2    0    0  0.00000000000E+00  0.00000000000E+00  0.29400036003E+03  0.11323923450E+04  0.10935612518E+04 0.  0.
        1    1    3    3  502    0 -0.31469313600E+03  0.20683214674E+03 -0.26350789759E+03  0.45961692624E+03  0.50400001928E-02 0.  1.
       -1    1    3    3    0  502  0.31469313600E+03 -0.20683214674E+03  0.55750825762E+03  0.67277541878E+03  0.50400001928E-02 0. -1.
</event>
<event>
 5   0  0.8009636E-04  0.1103446E+04  0.7818609E-02  0.9201839E-01
        1   -1    0    0  501    0  0.00000000000E+00  0.00000000000E+00  0.57523820503E+03  0.57523820505E+03  0.50400001928E-02 0. -1.
       -1   -1    0    0    0  501  0.00000000000E+00  0.00000000000E+00 -0.52916947877E+03  0.52916947880E+03  0.50400001928E-02 0.  1.
    10030    2    1    2    0    0  0.00000000000E+00  0.00000000000E+00  0.46068726257E+02  0.11044076838E+04  0.11034464213E+04 0.  0.
        1    1    3    3  502    0  0.11030022764E+03 -0.35086185558E+03  0.43464475946E+03  0.56937355828E+03  0.50400001928E-02 0. -1.
       -1    1    3    3    0  502 -0.11030022764E+03  0.35086185558E+03 -0.38857603320E+03  0.53503412557E+03  0.50400001928E-02 0.  1.
</event>
<event>
 5   0  0.8009636E-04  0.1096158E+04  0.7818609E-02  0.9208944E-01
        1   -1    0    0  501    0  0.00000000000E+00  0.00000000000E+00  0.74757606781E+03  0.74757606783E+03  0.50400001928E-02 0.  1.
       -1   -1    0    0    0  501  0.00000000000E+00  0.00000000000E+00 -0.40181960986E+03  0.40181960989E+03  0.50400001928E-02 0. -1.
    10030    2    1    2    0    0  0.00000000000E+00  0.00000000000E+00  0.34575645795E+03  0.11493956777E+04  0.10961582439E+04 0.  0.
        1    1    3    3  502    0 -0.43042670013E+03  0.16629263012E+03 -0.13723958556E+03  0.48140947944E+03  0.50400001928E-02 0. -1.
       -1    1    3    3    0  502  0.43042670013E+03 -0.16629263012E+03  0.48299604351E+03  0.66798619828E+03  0.50400001928E-02 0.  1.
</event>
<event>
 5   0  0.8341767E-04  0.1107157E+04  0.7818609E-02  0.9198244E-01
       -1   -1    0    0    0  501  0.00000000000E+00  0.00000000000E+00  0.98897232173E+03  0.98897232175E+03  0.50400001928E-02 0. -1.
        1   -1    0    0  501    0  0.00000000000E+00  0.00000000000E+00 -0.30986651932E+03  0.30986651937E+03  0.50400001928E-02 0.  1.
    10030    2    1    2    0    0  0.00000000000E+00  0.00000000000E+00  0.67910580241E+03  0.12988388411E+04  0.11071574614E+04 0.  0.
        2    1    3    3  502    0 -0.20362673634E+03  0.47219398552E+03  0.58002552899E+03  0.77515199929E+03  0.25500000920E-02 0. -1.
       -2    1    3    3    0  502  0.20362673634E+03 -0.47219398552E+03  0.99080273416E+02  0.52368684182E+03  0.25500000920E-02 0.  1.
</event>
<event>
 5   0  0.7946038E-04  0.1101943E+04  0.7818609E-02  0.9203300E-01
       -1   -1    0    0    0  501  0.00000000000E+00  0.00000000000E+00  0.17386358413E+03  0.17386358420E+03  0.50400001928E-02 0.  1.
        1   -1    0    0  501    0  0.00000000000E+00  0.00000000000E+00 -0.17460229408E+04  0.17460229409E+04  0.50400001928E-02 0. -1.
    10030    2    1    2    0    0  0.00000000000E+00  0.00000000000E+00 -0.15721593567E+04  0.19198865251E+04  0.11019433861E+04 0.  0.
        4    1    3    3  502    0  0.81944302996E+02  0.53277214352E+03 -0.58737520160E+03  0.79722786333E+03  0.12699999809E+01 0.  1.
       -4    1    3    3    0  502 -0.81944302996E+02 -0.53277214352E+03 -0.98478415511E+03  0.11226586617E+04  0.12699999809E+01 0. -1.
</event>
<event>
 5   0  0.1396936E-03  0.1098779E+04  0.7818609E-02  0.9206383E-01
       -2   -1    0    0    0  501  0.00000000000E+00  0.00000000000E+00  0.11748463369E+03  0.11748463371E+03  0.25500000920E-02 0.  1.
        2   -1    0    0  501    0  0.00000000000E+00  0.00000000000E+00 -0.25690901032E+04  0.25690901032E+04  0.25500000920E-02 0. -1.
    10030    2    1    2    0    0  0.00000000000E+00  0.00000000000E+00 -0.24516054695E+04  0.26865747369E+04  0.10987786123E+04 0.  0.
        2    1    3    3  502    0  0.95350592314E+02 -0.15491360396E+03  0.41714270116E+02  0.18662808065E+03  0.25500000920E-02 0.  1.
       -2    1    3    3    0  502 -0.95350592314E+02  0.15491360396E+03 -0.24933197396E+04  0.24999466562E+04  0.25500000920E-02 0. -1.
</event>
<event>
 5   0  0.8341767E-04  0.1098955E+04  0.7818609E-02  0.9206211E-01
        1   -1    0    0  501    0  0.00000000000E+00  0.00000000000E+00  0.68259129747E+03  0.68259129749E+03  0.50400001928E-02 0.  1.
       -1   -1    0    0    0  501  0.00000000000E+00  0.00000000000E+00 -0.44232234342E+03  0.44232234344E+03  0.50400001928E-02 0. -1.
    10030    2    1    2    0    0  0.00000000000E+00  0.00000000000E+00  0.24026895406E+03  0.11249136409E+04  0.10989547440E+04 0.  0.
        2    1    3    3  502    0 -0.29984924763E+03  0.34233911164E+03 -0.19506737707E+03  0.49513323486E+03  0.25500000920E-02 0. -1.
       -2    1    3    3    0  502  0.29984924763E+03 -0.34233911164E+03  0.43533633113E+03  0.62978040607E+03  0.25500000920E-02 0.  1.
</event>
<event>
 5   0  0.8305271E-04  0.1104423E+04  0.7818609E-02  0.9200892E-01
       -1   -1    0    0    0  501  0.00000000000E+00  0.00000000000E+00  0.18929896230E+03  0.18929896237E+03  0.50400001928E-02 0.  1.
        1   -1    0    0  501    0  0.00000000000E+00  0.00000000000E+00 -0.16108769622E+04  0.16108769622E+04  0.50400001928E-02 0. -1.
    10030    2    1    2    0    0  0.00000000000E+00  0.00000000000E+00 -0.14215779999E+04  0.18001759246E+04  0.11044226318E+04 0.  0.
        5    1    3    3  502    0  0.61597048802E+02  0.54602235963E+03 -0.79977751517E+03  0.97036115823E+03  0.46999998093E+01 0.  1.
       -5    1    3    3    0  502 -0.61597048802E+02 -0.54602235963E+03 -0.62180048472E+03  0.82981476634E+03  0.46999998093E+01 0. -1.
</event>
<event>
 5   0  0.1425432E-03  0.1099738E+04  0.7818609E-02  0.9205448E-01
        2   -1    0    0  501    0  0.00000000000E+00  0.00000000000E+00  0.50408620709E+03  0.50408620709E+03  0.25500000920E-02 0. -1.
       -2   -1    0    0    0  501  0.00000000000E+00  0.00000000000E+00 -0.59980959595E+03  0.59980959596E+03  0.25500000920E-02 0.  1.
    10030    2    1    2    0    0  0.00000000000E+00  0.00000000000E+00 -0.95723388869E+02  0.11038958031E+04  0.10997376855E+04 0.  0.
        1    1    3    3  502    0 -0.27894849577E+03 -0.43393670405E+03 -0.23895591640E+03  0.56851847501E+03  0.50400001928E-02 0. -1.
       -1    1    3    3    0  502  0.27894849577E+03  0.43393670405E+03  0.14323252753E+03  0.53537732804E+03  0.50400001928E-02 0.  1.
</event>
<event>
 5   0  0.1425432E-03  0.1100437E+04  0.7818609E-02  0.9204766E-01
        2   -1    0    0  501    0  0.00000000000E+00  0.00000000000E+00  0.17888703292E+04  0.17888703292E+04  0.25500000920E-02 0. -1.
       -2   -1    0    0    0  501  0.00000000000E+00  0.00000000000E+00 -0.16923547488E+03  0.16923547490E+03  0.25500000920E-02 0.  1.
    10030    2    1    2    0    0  0.00000000000E+00  0.00000000000E+00  0.16196348543E+04  0.19581058041E+04  0.11004368581E+04 0.  0.
        1    1    3    3  502    0  0.36528954484E+03 -0.41112068183E+03  0.83978591016E+03  0.10038411436E+04  0.50400001928E-02 0.  1.
       -1    1    3    3    0  502 -0.36528954484E+03  0.41112068183E+03  0.77984894411E+03  0.95426466048E+03  0.50400001928E-02 0. -1.
</event>
<event>
 5   0  0.1396936E-03  0.1100725E+04  0.7818609E-02  0.9204486E-01
        2   -1    0    0  501    0  0.00000000000E+00  0.00000000000E+00  0.64999549525E+03  0.64999549526E+03  0.25500000920E-02 0. -1.
       -2   -1    0    0    0  501  0.00000000000E+00  0.00000000000E+00 -0.46600136121E+03  0.46600136122E+03  0.25500000920E-02 0.  1.
    10030    2    1    2    0    0  0.00000000000E+00  0.00000000000E+00  0.18399413404E+03  0.11159968565E+04  0.11007248259E+04 0.  0.
        2    1    3    3  502    0 -0.44345024718E+03 -0.14538124932E+03 -0.20379542722E+03  0.50923119066E+03  0.25500000920E-02 0.  1.
       -2    1    3    3    0  502  0.44345024718E+03  0.14538124932E+03  0.38778956126E+03  0.60676566581E+03  0.25500000920E-02 0. -1.
</event>
<event>
 5   0  0.1402775E-03  0.1109513E+04  0.7818609E-02  0.9195969E-01
        2   -1    0    0  501    0  0.00000000000E+00  0.00000000000E+00  0.14706978357E+04  0.14706978357E+04  0.25500000920E-02 0.  1.
       -2   -1    0    0    0  501  0.00000000000E+00  0.00000000000E+00 -0.20925774156E+03  0.20925774157E+03  0.25500000920E-02 0. -1.
    10030    2    1    2    0    0  0.00000000000E+00  0.00000000000E+00  0.12614400942E+04  0.16799555773E+04  0.11095132404E+04 0.  0.
        5    1    3    3  502    0  0.12933419027E+03  0.19217507927E+03  0.13939327891E+04  0.14130567237E+04  0.46999998093E+01 0.  1.
       -5    1    3    3    0  502 -0.12933419027E+03 -0.19217507927E+03 -0.13249269490E+03  0.26689885363E+03  0.46999998093E+01 0. -1.
</event>
<event>
 5   0  0.7946038E-04  0.1050823E+04  0.7818609E-02  0.9254495E-01
        1   -1    0    0  501    0  0.00000000000E+00  0.00000000000E+00  0.49789631013E+03  0.49789631015E+03  0.50400001928E-02 0. -1.
       -1   -1    0    0    0  501  0.00000000000E+00  0.00000000000E+00 -0.55444673546E+03  0.55444673548E+03  0.50400001928E-02 0.  1.
    10030    2    1    2    0    0  0.00000000000E+00  0.00000000000E+00 -0.56550425332E+02  0.10523430456E+04  0.10508225041E+04 0.  0.
        4    1    3    3  502    0  0.95262294421E+02 -0.50897624059E+03  0.60868493312E+02  0.52138115098E+03  0.12699999809E+01 0. -1.
       -4    1    3    3    0  502 -0.95262294421E+02  0.50897624059E+03 -0.11741891864E+03  0.53096189465E+03  0.12699999809E+01 0.  1.
</event>
<event>
 5   0  0.1425432E-03  0.1131340E+04  0.7818609E-02  0.9175173E-01
        2   -1    0    0  501    0  0.00000000000E+00  0.00000000000E+00  0.80392400761E+03  0.80392400762E+03  0.25500000920E-02 0. -1.
       -2   -1    0    0    0  501  0.00000000000E+00  0.00000000000E+00 -0.39802587764E+03  0.39802587765E+03  0.25500000920E-02 0.  1.
    10030    2    1    2    0    0  0.00000000000E+00  0.00000000000E+00  0.40589812998E+03  0.12019498853E+04  0.11313400173E+04 0.  0.
        1    1    3    3  502    0  0.71118717658E+01  0.42137029169E+03  0.60383079846E+03  0.73635258853E+03  0.50400001928E-02 0. -1.
       -1    1    3    3    0  502 -0.71118717658E+01 -0.42137029169E+03 -0.19793266849E+03  0.46559729673E+03  0.50400001928E-02 0.  1.
</event>
<event>
 5   0  0.8009636E-04  0.1102704E+04  0.7818609E-02  0.9202560E-01
       -1   -1    0    0    0  501  0.00000000000E+00  0.00000000000E+00  0.27851268381E+03  0.27851268386E+03  0.50400001928E-02 0.  1.
        1   -1    0    0  501    0  0.00000000000E+00  0.00000000000E+00 -0.10914726455E+04  0.10914726455E+04  0.50400001928E-02 0. -1.
    10030    2    1    2    0    0  0.00000000000E+00  0.00000000000E+00 -0.81295996172E+03  0.13699853294E+04  0.11027039056E+04 0.  0.
        1    1    3    3  502    0 -0.43425938476E+03  0.94756950319E+02 -0.11705065881E+01  0.44447886677E+03  0.50400001928E-02 0.  1.
       -1    1    3    3    0  502  0.43425938476E+03 -0.94756950319E+02 -0.81178945514E+03  0.92550646264E+03  0.50400001928E-02 0. -1.
</event>
<event>
 5   0  0.5409500E-04  0.1103999E+04  0.7818609E-02  0.9201303E-01
        4   -1    0    0  501    0  0.00000000000E+00  0.00000000000E+00  0.52519509080E+03  0.52519662632E+03  0.12699999809E+01 0.  1.
       -4   -1    0    0    0  501  0.00000000000E+00  0.00000000000E+00 -0.58016832404E+03  0.58016971406E+03  0.12699999809E+01 0. -1.
    10030    2    1    2    0    0  0.00000000000E+00  0.00000000000E+00 -0.54973233238E+02  0.11053663404E+04  0.11039985009E+04 0.  0.
        5    1    3    3  502    0 -0.10870663439E+03 -0.39220510495E+02 -0.56790131503E+03  0.57955963836E+03  0.46999998093E+01 0. -1.
       -5    1    3    3    0  502  0.10870663439E+03  0.39220510495E+02  0.51292808179E+03  0.52580670202E+03  0.46999998093E+01 0.  1.
</event>
<event>
 5   0  0.8009636E-04  0.1109073E+04  0.7818609E-02  0.9196394E-01
       -1   -1    0    0    0  501  0.00000000000E+00  0.00000000000E+00  0.88378002938E+03  0.88378002939E+03  0.50400001928E-02 0. -1.
        1   -1    0    0  501    0  0.00000000000E+00  0.00000000000E+00 -0.34794942183E+03  0.34794942186E+03  0.50400001928E-02 0.  1.
    10030    2    1    2    0    0  0.00000000000E+00  0.00000000000E+00  0.53583060755E+03  0.12317294513E+04  0.11090730369E+04 0.  0.
        1    1    3    3  502    0  0.47398880872E+03 -0.21205361937E+03  0.48406382273E+03  0.70989429691E+03  0.50400001928E-02 0. -1.
       -1    1    3    3    0  502 -0.47398880872E+03  0.21205361937E+03  0.51766784815E+02  0.52183515435E+03  0.50400001928E-02 0.  1.
</event>
<event>
 5   0  0.8305271E-04  0.1100672E+04  0.7818609E-02  0.9204537E-01
       -1   -1    0    0    0  501  0.00000000000E+00  0.00000000000E+00  0.17909893518E+03  0.17909893525E+03  0.50400001928E-02 0. -1.
        1   -1    0    0  501    0  0.00000000000E+00  0.00000000000E+00 -0.16910754616E+04  0.16910754616E+04  0.50400001928E-02 0.  1.
    10030    2    1    2    0    0  0.00000000000E+00  0.00000000000E+00 -0.15119765264E+04  0.18701743968E+04  0.11006721847E+04 0.  0.
        5    1    3    3  502    0  0.99432758706E+02 -0.31591923042E+03 -0.15027431865E+04  0.15388148063E+04  0.46999998093E+01 0.  1.
       -5    1    3    3    0  502 -0.99432758706E+02  0.31591923042E+03 -0.92333399151E+01  0.33135959050E+03  0.46999998093E+01 0. -1.
</event>
<event>
 5   0  0.8341767E-04  0.1101002E+04  0.7818609E-02  0.9204216E-01
        1   -1    0    0  501    0  0.00000000000E+00  0.00000000000E+00  0.10383816155E+04  0.10383816155E+04  0.50400001928E-02 0. -1.
       -1   -1    0    0    0  501  0.00000000000E+00  0.00000000000E+00 -0.29184977392E+03  0.29184977397E+03  0.50400001928E-02 0.  1.
    10030    2    1    2    0    0  0.00000000000E+00  0.00000000000E+00  0.74653184153E+03  0.13302313894E+04  0.11010021612E+04 0.  0.
        2    1    3    3  502    0  0.20774711733E+03  0.10827667884E+03 -0.22861774083E+03  0.32733587547E+03  0.25500000920E-02 0.  1.
       -2    1    3    3    0  502 -0.20774711733E+03 -0.10827667884E+03  0.97514958236E+03  0.10028955140E+04  0.25500000920E-02 0. -1.
</event>
<event>
 5   0  0.1425432E-03  0.1097920E+04  0.7818609E-02  0.9207221E-01
       -2   -1    0    0    0  501  0.00000000000E+00  0.00000000000E+00  0.22882017727E+03  0.22882017728E+03  0.25500000920E-02 0. -1.
        2   -1    0    0  501    0  0.00000000000E+00  0.00000000000E+00 -0.13170044401E+04  0.13170044401E+04  0.25500000920E-02 0.  1.
    10030    2    1    2    0    0  0.00000000000E+00  0.00000000000E+00 -0.10881842628E+04  0.15458246174E+04  0.10979201965E+04 0.  0.
        1    1    3    3  502    0  0.28330457489E+03  0.20425607307E+03 -0.11404000829E+04  0.11926836859E+04  0.50400001928E-02 0.  1.
       -1    1    3    3    0  502 -0.28330457489E+03 -0.20425607307E+03  0.52215820129E+02  0.35314093141E+03  0.50400001928E-02 0. -1.
</event>
<event>
 5   0  0.1429680E-03  0.1099014E+04  0.7818609E-02  0.9206154E-01
        2   -1    0    0  501    0  0.00000000000E+00  0.00000000000E+00  0.65041786448E+03  0.65041786449E+03  0.25500000920E-02 0.  1.
       -2   -1    0    0    0  501  0.00000000000E+00  0.00000000000E+00 -0.46425211668E+03  0.46425211669E+03  0.25500000920E-02 0. -1.
    10030    2    1    2    0    0  0.00000000000E+00  0.00000000000E+00  0.18616574780E+03  0.11146699812E+04  0.10990138676E+04 0.  0.
        3    1    3    3  502    0  0.38007264402E+03  0.39140531687E+03  0.15962637777E+03  0.56844870260E+03  0.10100000352E+00 0.  1.
       -3    1    3    3    0  502 -0.38007264402E+03 -0.39140531687E+03  0.26539370030E+02  0.54622127857E+03  0.10100000352E+00 0. -1.
</event>
<event>
 5   0  0.8009636E-04  0.1100289E+04  0.7818609E-02  0.9204910E-01
        1   -1    0    0  501    0  0.00000000000E+00  0.00000000000E+00  0.39796668087E+03  0.39796668091E+03  0.50400001928E-02 0. -1.
       -1   -1    0    0    0  501  0.00000000000E+00  0.00000000000E+00 -0.76051370994E+03  0.76051370995E+03  0.50400001928E-02 0.  1.
    10030    2    1    2    0    0  0.00000000000E+00  0.00000000000E+00 -0.36254702906E+03  0.11584803909E+04  0.11002892655E+04 0.  0.
        1    1    3    3  502    0 -0.26790620276E+03  0.38204193286E+03 -0.48811261321E+03  0.67526564783E+03  0.50400001928E-02 0.  1.
       -1    1    3    3    0  502  0.26790620276E+03 -0.38204193286E+03  0.12556558414E+03  0.48321474303E+03  0.50400001928E-02 0. -1.
</event>
<event>
 5   0  0.8341767E-04  0.1096792E+04  0.7818609E-02  0.9208325E-01
       -1   -1    0    0    0  501  0.00000000000E+00  0.00000000000E+00  0.59533465543E+03  0.59533465545E+03  0.50400001928E-02 0.  1.
        1   -1    0    0  501    0  0.00000000000E+00  0.00000000000E+00 -0.50515784341E+03  0.50515784343E+03  0.50400001928E-02 0. -1.
    10030    2    1    2    0    0  0.00000000000E+00  0.00000000000E+00  0.90176812024E+02  0.11004924989E+04  0.10967916314E+04 0.  0.
        2    1    3    3  502    0 -0.26072379746E+03 -0.39236053639E+03 -0.23659769543E+03  0.52716426147E+03  0.25500000920E-02 0. -1.
       -2    1    3    3    0  502  0.26072379746E+03  0.39236053639E+03  0.32677450746E+03  0.57332823741E+03  0.25500000920E-02 0.  1.
</event>
<event>
 5   0  0.5409500E-04  0.1105505E+04  0.7818609E-02  0.9199843E-01
        3   -1    0    0  501    0  0.00000000000E+00  0.00000000000E+00  0.32091928440E+03  0.32091930029E+03  0.10100000352E+00 0. -1.
       -3   -1    0    0    0  501  0.00000000000E+00  0.00000000000E+00 -0.95206215494E+03  0.95206216030E+03  0.10100000352E+00 0.  1.
    10030    2    1    2    0    0  0.00000000000E+00  0.00000000000E+00 -0.63114287054E+03  0.12729814606E+04  0.11055046250E+04 0.  0.
        1    1    3    3  502    0 -0.21144049266E+02 -0.14248262569E+03 -0.93007075188E+03  0.94115884577E+03  0.50400001928E-02 0.  1.
       -1    1    3    3    0  502  0.21144049266E+02  0.14248262569E+03  0.29892788133E+03  0.33182261482E+03  0.50400001928E-02 0. -1.
</event>
<event>
 5   0  0.7946038E-04  0.1120244E+04  0.7818609E-02  0.9185683E-01
        1   -1    0    0  501    0  0.00000000000E+00  0.00000000000E+00  0.10252399122E+04  0.10252399122E+04  0.50400001928E-02 0. -1.
       -1   -1    0    0    0  501  0.00000000000E+00  0.00000000000E+00 -0.30601276307E+03  0.30601276311E+03  0.50400001928E-02 0.  1.
    10030    2    1    2    0    0  0.00000000000E+00  0.00000000000E+00  0.71922714908E+03  0.13312526753E+04  0.11202437206E+04 0.  0.
        4    1    3    3  502    0 -0.51154244918E+03  0.26849787244E+02  0.90355519287E+02  0.52015605462E+03  0.12699999809E+01 0.  1.
       -4    1    3    3    0  502  0.51154244918E+03 -0.26849787244E+02  0.62887162980E+03  0.81109662066E+03  0.12699999809E+01 0. -1.
</event>
<event>
 5   0  0.8341767E-04  0.1094293E+04  0.7818609E-02  0.9210773E-01
        1   -1    0    0  501    0  0.00000000000E+00  0.00000000000E+00  0.68443635764E+03  0.68443635766E+03  0.50400001928E-02 0.  1.
       -1   -1    0    0    0  501  0.00000000000E+00  0.00000000000E+00 -0.43739510142E+03  0.43739510145E+03  0.50400001928E-02 0. -1.
    10030    2    1    2    0    0  0.00000000000E+00  0.00000000000E+00  0.24704125622E+03  0.11218314591E+04  0.10942926667E+04 0.  0.
        2    1    3    3  502    0 -0.32933474625E+03 -0.21490034396E+03 -0.26648131503E+03  0.47503244541E+03  0.25500000920E-02 0. -1.
       -2    1    3    3    0  502  0.32933474625E+03  0.21490034396E+03  0.51352257125E+03  0.64679901370E+03  0.25500000920E-02 0.  1.
</event>
<event>
 5   0  0.8150924E-04  0.1096004E+04  0.7818609E-02  0.9209096E-01
       -1   -1    0    0    0  501  0.00000000000E+00  0.00000000000E+00  0.70755006145E+03  0.70755006147E+03  0.50400001928E-02 0.  1.
        1   -1    0    0  501    0  0.00000000000E+00  0.00000000000E+00 -0.42443091279E+03  0.42443091282E+03  0.50400001928E-02 0. -1.
    10030    2    1    2    0    0  0.00000000000E+00  0.00000000000E+00  0.28311914866E+03  0.11319809743E+04  0.10960038658E+04 0.  0.
        3    1    3    3  502    0 -0.10242909229E+03  0.23952759970E+03 -0.35638766944E+03  0.44144917158E+03  0.10100000352E+00 0. -1.
       -3    1    3    3    0  502  0.10242909229E+03 -0.23952759970E+03  0.63950681809E+03  0.69053180271E+03  0.10100000352E+00 0.  1.
</event>
<event>
 5   0  0.1425432E-03  0.1094918E+04  0.7818609E-02  0.9210159E-01
       -2   -1    0    0    0  501  0.00000000000E+00  0.00000000000E+00  0.27687688963E+03  0.27687688964E+03  0.25500000920E-02 0. -1.
        2   -1    0    0  501    0  0.00000000000E+00  0.00000000000E+00 -0.10824718548E+04  0.10824718548E+04  0.25500000920E-02 0.  1.
    10030    2    1    2    0    0  0.00000000000E+00  0.00000000000E+00 -0.80559496520E+03  0.13593487445E+04  0.10949181527E+04 0.  0.
        1    1    3    3  502    0 -0.18473493544E+03  0.48649085477E+03 -0.19170076372E+03  0.55457148411E+03  0.50400001928E-02 0. -1.
       -1    1    3    3    0  502  0.18473493544E+03 -0.48649085477E+03 -0.61389420149E+03  0.80477726036E+03  0.50400001928E-02 0.  1.
</event>
<event>
 5   0  0.8305271E-04  0.1100660E+04  0.7818609E-02  0.9204549E-01
        1   -1    0    0  501    0  0.00000000000E+00  0.00000000000E+00  0.21941963108E+03  0.21941963113E+03  0.50400001928E-02 0. -1.
       -1   -1    0    0    0  501  0.00000000000E+00  0.00000000000E+00 -0.13802918493E+04  0.13802918493E+04  0.50400001928E-02 0.  1.
    10030    2    1    2    0    0  0.00000000000E+00  0.00000000000E+00 -0.11608722182E+04  0.15997114804E+04  0.11006600354E+04 0.  0.
        5    1    3    3  502    0 -0.52285162840E+03  0.20147653643E+02 -0.82820448366E+03  0.97965530163E+03  0.46999998093E+01 0.  1.
       -5    1    3    3    0  502  0.52285162840E+03 -0.20147653643E+02 -0.33266773457E+03  0.62005617881E+03  0.46999998093E+01 0. -1.
</event>
<event>
 5   0  0.1396936E-03  0.1099323E+04  0.7818609E-02  0.9205852E-01
        2   -1    0    0  501    0  0.00000000000E+00  0.00000000000E+00  0.11072980259E+04  0.11072980259E+04  0.25500000920E-02 0. -1.
       -2   -1    0    0    0  501  0.00000000000E+00  0.00000000000E+00 -0.27285137106E+03  0.27285137107E+03  0.25500000920E-02 0.  1.
    10030    2    1    2    0    0  0.00000000000E+00  0.00000000000E+00  0.83444665480E+03  0.13801493969E+04  0.10993230363E+04 0.  0.
        2    1    3    3  502    0 -0.35286834170E+03 -0.68344837212E+02  0.93931814101E+03  0.10057363737E+04  0.25500000920E-02 0. -1.
       -2    1    3    3    0  502  0.35286834170E+03  0.68344837212E+02 -0.10487148621E+03  0.37441302324E+03  0.25500000920E-02 0.  1.
</event>
<event>
 5   0  0.8341767E-04  0.1102977E+04  0.7818609E-02  0.9202295E-01
        1   -1    0    0  501    0  0.00000000000E+00  0.00000000000E+00  0.91254006088E+03  0.91254006090E+03  0.50400001928E-02 0.  1.
       -1   -1    0    0    0  501  0.00000000000E+00  0.00000000000E+00 -0.33328909081E+03  0.33328909084E+03  0.50400001928E-02 0. -1.
    10030    2    1    2    0    0  0.00000000000E+00  0.00000000000E+00  0.57925097007E+03  0.12458291517E+04  0.11029771480E+04 0.  0.
        2    1    3    3  502    0  0.14658115767E+03 -0.52159869082E+03  0.17339835970E+03  0.56887452149E+03  0.25500000920E-02 0.  1.
       -2    1    3    3    0  502 -0.14658115767E+03  0.52159869082E+03  0.40585261038E+03  0.67695463025E+03  0.25500000920E-02 0. -1.
</event>
<event>
 5   0  0.1429680E-03  0.1099374E+04  0.7818609E-02  0.9205802E-01
        2   -1    0    0  501    0  0.00000000000E+00  0.00000000000E+00  0.17166449010E+04  0.17166449010E+04  0.25500000920E-02 0.  1.
       -2   -1    0    0    0  501  0.00000000000E+00  0.00000000000E+00 -0.17601543939E+03  0.17601543941E+03  0.25500000920E-02 0. -1.
    10030    2    1    2    0    0  0.00000000000E+00  0.00000000000E+00  0.15406294616E+04  0.18926603404E+04  0.10993743795E+04 0.  0.
        3    1    3    3  502    0  0.46060542179E+03  0.16811162491E+02  0.12859731177E+04  0.13660771718E+04  0.10100000352E+00 0.  1.
       -3    1    3    3    0  502 -0.46060542179E+03 -0.16811162491E+02  0.25465634398E+03  0.52658316864E+03  0.10100000352E+00 0. -1.
</event>
<event>
 5   0  0.8009636E-04  0.1100923E+04  0.7818609E-02  0.9204293E-01
        1   -1    0    0  501    0  0.00000000000E+00  0.00000000000E+00  0.33729485723E+03  0.33729485727E+03  0.50400001928E-02 0.  1.
       -1   -1    0    0    0  501  0.00000000000E+00  0.00000000000E+00 -0.89834682667E+03  0.89834682669E+03  0.50400001928E-02 0. -1.
    10030    2    1    2    0    0  0.00000000000E+00  0.00000000000E+00 -0.56105196944E+03  0.12356416840E+04  0.11009228214E+04 0.  0.
        1    1    3    3  502    0 -0.54236378305E+03  0.55465573218E+02 -0.19524911467E+03  0.57910026747E+03  0.50400001928E-02 0. -1.
       -1    1    3    3    0  502  0.54236378305E+03 -0.55465573218E+02 -0.36580285477E+03  0.65654141648E+03  0.50400001928E-02 0.  1.
</event>
<event>
 5   0  0.1429680E-03  0.1096698E+04  0.7818609E-02  0.9208416E-01
       -2   -1    0    0    0  501  0.00000000000E+00  0.00000000000E+00  0.17973423624E+03  0.17973423625E+03  0.25500000920E-02 0. -1.
        2   -1    0    0  501    0  0.00000000000E+00  0.00000000000E+00 -0.16729521788E+04  0.16729521788E+04  0.25500000920E-02 0.  1.
    10030    2    1    2    0    0  0.00000000000E+00  0.00000000000E+00 -0.14932179426E+04  0.18526864151E+04  0.10966982851E+04 0.  0.
        3    1    3    3  502    0 -0.13033787344E+03  0.51463638647E+02  0.14897597049E+03  0.20452461304E+03  0.10100000352E+00 0. -1.
       -3    1    3    3    0  502  0.13033787344E+03 -0.51463638647E+02 -0.16421939131E+04  0.16481618020E+04  0.10100000352E+00 0.  1.
</event>
<event>
 5   0  0.8150924E-04  0.1102104E+04  0.7818609E-02  0.9203143E-01
       -1   -1    0    0    0  501  0.00000000000E+00  0.00000000000E+00  0.29073568782E+03  0.29073568786E+03  0.50400001928E-02 0.  1.
        1   -1    0    0  501    0  0.00000000000E+00  0.00000000000E+00 -0.10444487604E+04  0.10444487604E+04  0.50400001928E-02 0. -1.
    10030    2    1    2    0    0  0.00000000000E+00  0.00000000000E+00 -0.75371307255E+03  0.13351844482E+04  0.11021044030E+04 0.  0.
        3    1    3    3  502    0  0.11924548940E+03  0.53656238672E+03 -0.32931689483E+03  0.64075604485E+03  0.10100000352E+00 0. -1.
       -3    1    3    3    0  502 -0.11924548940E+03 -0.53656238672E+03 -0.42439617772E+03  0.69442840340E+03  0.10100000352E+00 0.  1.
</event>
<event>
 5   0  0.8305271E-04  0.1105301E+04  0.7818609E-02  0.9200041E-01
       -1   -1    0    0    0  501  0.00000000000E+00  0.00000000000E+00  0.36246461736E+03  0.36246461740E+03  0.50400001928E-02 0.  1.
        1   -1    0    0  501    0  0.00000000000E+00  0.00000000000E+00 -0.84262708224E+03  0.84262708226E+03  0.50400001928E-02 0. -1.
    10030    2    1    2    0    0  0.00000000000E+00  0.00000000000E+00 -0.48016246488E+03  0.12050916997E+04  0.11053008694E+04 0.  0.
        5    1    3    3  502    0 -0.46571372861E+03 -0.29861150163E+02 -0.56281160485E+03  0.73113607342E+03  0.46999998093E+01 0. -1.
       -5    1    3    3    0  502  0.46571372861E+03  0.29861150163E+02  0.82649139971E+02  0.47395562623E+03  0.46999998093E+01 0.  1.
</event>
<event>
 5   0  0.8150924E-04  0.1098977E+04  0.7818609E-02  0.9206189E-01
        1   -1    0    0  501    0  0.00000000000E+00  0.00000000000E+00  0.79004813690E+03  0.79004813692E+03  0.50400001928E-02 0.  1.
       -1   -1    0    0    0  501  0.00000000000E+00  0.00000000000E+00 -0.38217624695E+03  0.38217624698E+03  0.50400001928E-02 0. -1.
    10030    2    1    2    0    0  0.00000000000E+00  0.00000000000E+00  0.40787188996E+03  0.11722243839E+04  0.10989770369E+04 0.  0.
        3    1    3    3  502    0 -0.29356279597E+03 -0.24893538700E+02  0.69868106878E+03  0.75825724495E+03  0.10100000352E+00 0.  1.
       -3    1    3    3    0  502  0.29356279597E+03  0.24893538700E+02 -0.29080917882E+03  0.41396713895E+03  0.10100000352E+00 0. -1.
</event>
<event>
 5   0  0.1402775E-03  0.1156248E+04  0.7818609E-02  0.9152038E-01
       -2   -1    0    0    0  501  0.00000000000E+00  0.00000000000E+00  0.57380629497E+03  0.57380629497E+03  0.25500000920E-02 0. -1.
        2   -1    0    0  501    0  0.00000000000E+00  0.00000000000E+00 -0.58247466417E+03  0.58247466418E+03  0.25500000920E-02 0.  1.
    10030    2    1    2    0    0  0.00000000000E+00  0.00000000000E+00 -0.86683692053E+01  0.11562809592E+04  0.11562484663E+04 0.  0.
        5    1    3    3  502    0  0.41473508592E+02 -0.38784598557E+03 -0.43103221742E+03  0.58133933541E+03  0.46999998093E+01 0.  1.
       -5    1    3    3    0  502 -0.41473508592E+02  0.38784598557E+03  0.42236384822E+03  0.57494162375E+03  0.46999998093E+01 0. -1.
</event>
<event>
 5   0  0.1425432E-03  0.1093964E+04  0.7818609E-02  0.9211095E-01
       -2   -1    0    0    0  501  0.00000000000E+00  0.00000000000E+00  0.14276032140E+03  0.14276032142E+03  0.25500000920E-02 0.  1.
        2   -1    0    0  501    0  0.00000000000E+00  0.00000000000E+00 -0.20957467739E+04  0.20957467739E+04  0.25500000920E-02 0. -1.
    10030    2    1    2    0    0  0.00000000000E+00  0.00000000000E+00 -0.19529864525E+04  0.22385070953E+04  0.10939643194E+04 0.  0.
        1    1    3    3  502    0 -0.43697315530E+03 -0.62585852145E+02 -0.31556608725E+03  0.54262738854E+03  0.50400001928E-02 0.  1.
       -1    1    3    3    0  502  0.43697315530E+03  0.62585852145E+02 -0.16374203652E+04  0.16958797068E+04  0.50400001928E-02 0. -1.
</event>
<event>
 5   0  0.1425432E-03  0.1099832E+04  0.7818609E-02  0.9205356E-01
       -2   -1    0    0    0  501  0.00000000000E+00  0.00000000000E+00  0.39182199441E+03  0.39182199442E+03  0.25500000920E-02 0.  1.
        2   -1    0    0  501    0  0.00000000000E+00  0.00000000000E+00 -0.77179793480E+03  0.77179793480E+03  0.25500000920E-02 0. -1.
    10030    2    1    2    0    0  0.00000000000E+00  0.00000000000E+00 -0.37997594038E+03  0.11636199292E+04  0.10998316346E+04 0.  0.
        1    1    3    3  502    0  0.17263519895E+03  0.24380044584E+03  0.29848860859E+03  0.42229967889E+03  0.50400001928E-02 0.  1.
       -1    1    3    3    0  502 -0.17263519895E+03 -0.24380044584E+03 -0.67846454897E+03  0.74132025033E+03  0.50400001928E-02 0. -1.
</event>
<event>
 5   0  0.8341767E-04  0.1108980E+04  0.7818609E-02  0.9196484E-01
        1   -1    0    0  501    0  0.00000000000E+00  0.00000000000E+00  0.75338395205E+03  0.75338395206E+03  0.50400001928E-02 0. -1.
       -1   -1    0    0    0  501  0.00000000000E+00  0.00000000000E+00 -0.40810388952E+03  0.40810388956E+03  0.50400001928E-02 0.  1.
    10030    2    1    2    0    0  0.00000000000E+00  0.00000000000E+00  0.34528006252E+03  0.11614878416E+04  0.11089795691E+04 0.  0.
        2    1    3    3  502    0 -0.53069950616E+03 -0.91546207083E+02  0.31093858314E+03  0.62185647570E+03  0.25500000920E-02 0. -1.
       -2    1    3    3    0  502  0.53069950616E+03  0.91546207083E+02  0.34341479383E+02  0.53963136592E+03  0.25500000920E-02 0.  1.
</event>
<event>
 5   0  0.5409500E-04  0.1098750E+04  0.7818609E-02  0.9206411E-01
       -4   -1    0    0    0  501  0.00000000000E+00  0.00000000000E+00  0.44395496636E+03  0.44395678287E+03  0.12699999809E+01 0. -1.
        4   -1    0    0  501    0  0.00000000000E+00  0.00000000000E+00 -0.67982347183E+03  0.67982465809E+03  0.12699999809E+01 0.  1.
    10030    2    1    2    0    0  0.00000000000E+00  0.00000000000E+00 -0.23586850546E+03  0.11237814410E+04  0.10987496417E+04 0.  0.
        4    1    3    3  502    0 -0.37259864574E+03  0.30941199292E+03  0.14729100491E+03  0.50622305873E+03  0.12699999809E+01 0. -1.
       -4    1    3    3    0  502  0.37259864574E+03 -0.30941199292E+03 -0.38315951038E+03  0.61755838223E+03  0.12699999809E+01 0.  1.
</event>
<event>
 5   0  0.1396936E-03  0.1103131E+04  0.7818609E-02  0.9202146E-01
        2   -1    0    0  501    0  0.00000000000E+00  0.00000000000E+00  0.36882496918E+03  0.36882496919E+03  0.25500000920E-02 0. -1.
       -2   -1    0    0    0  501  0.00000000000E+00  0.00000000000E+00 -0.82484795413E+03  0.82484795413E+03  0.25500000920E-02 0.  1.
    10030    2    1    2    0    0  0.00000000000E+00  0.00000000000E+00 -0.45602298495E+03  0.11936729233E+04  0.11031310371E+04 0.  0.
        2    1    3    3  502    0 -0.14949213834E+03 -0.51294733908E+03 -0.37622703366E+03  0.65345975619E+03  0.25500000920E-02 0. -1.
       -2    1    3    3    0  502  0.14949213834E+03  0.51294733908E+03 -0.79795951288E+02  0.54021316713E+03  0.25500000920E-02 0.  1.
</event>
<event>
 5   0  0.8305271E-04  0.1098692E+04  0.7818609E-02  0.9206468E-01
        1   -1    0    0  501    0  0.00000000000E+00  0.00000000000E+00  0.24848227948E+03  0.24848227954E+03  0.50400001928E-02 0. -1.
       -1   -1    0    0    0  501  0.00000000000E+00  0.00000000000E+00 -0.12144963913E+04  0.12144963913E+04  0.50400001928E-02 0.  1.
    10030    2    1    2    0    0  0.00000000000E+00  0.00000000000E+00 -0.96601411183E+03  0.14629786709E+04  0.10986916433E+04 0.  0.
        5    1    3    3  502    0 -0.34620078465E+03 -0.24155264561E+03 -0.95105919038E+03  0.10405471337E+04  0.46999998093E+01 0.  1.
       -5    1    3    3    0  502  0.34620078465E+03  0.24155264561E+03 -0.14954921447E+02  0.42243153713E+03  0.46999998093E+01 0. -1.
</event>
<event>
 5   0  0.7946038E-04  0.1102884E+04  0.7818609E-02  0.9202386E-01
       -1   -1    0    0    0  501  0.00000000000E+00  0.00000000000E+00  0.50102777725E+03  0.50102777728E+03  0.50400001928E-02 0.  1.
        1   -1    0    0  501    0  0.00000000000E+00  0.00000000000E+00 -0.60692872567E+03  0.60692872569E+03  0.50400001928E-02 0. -1.
    10030    2    1    2    0    0  0.00000000000E+00  0.00000000000E+00 -0.10590094841E+03  0.11079565030E+04  0.11028837661E+04 0.  0.
        4    1    3    3  502    0  0.35663313160E+03  0.42049105785E+03 -0.43600830429E+02  0.55308459172E+03  0.12699999809E+01 0. -1.
       -4    1    3    3    0  502 -0.35663313160E+03 -0.42049105785E+03 -0.62300117985E+02  0.55487191125E+03  0.12699999809E+01 0.  1.
</event>
<event>
 5   0  0.8150924E-04  0.1084090E+04  0.7818609E-02  0.9220839E-01
       -1   -1    0    0    0  501  0.00000000000E+00  0.00000000000E+00  0.58229162303E+03  0.58229162305E+03  0.50400001928E-02 0. -1.
        1   -1    0    0  501    0  0.00000000000E+00  0.00000000000E+00 -0.50457997729E+03  0.50457997732E+03  0.50400001928E-02 0.  1.
    10030    2    1    2    0    0  0.00000000000E+00  0.00000000000E+00  0.77711645732E+02  0.10868716004E+04  0.10840898375E+04 0.  0.
        3    1    3    3  502    0  0.14706676696E+03 -0.48731116185E+03  0.22564514408E+03  0.55679129273E+03  0.10100000352E+00 0.  1.
       -3    1    3    3    0  502 -0.14706676696E+03  0.48731116185E+03 -0.14793349834E+03  0.53008030764E+03  0.10100000352E+00 0. -1.
</event>
<event>
 5   0  0.8305271E-04  0.1101998E+04  0.7818609E-02  0.9203247E-01
       -1   -1    0    0    0  501  0.00000000000E+00  0.00000000000E+00  0.55895698479E+03  0.55895698481E+03  0.50400001928E-02 0.  1.
        1   -1    0    0  501    0  0.00000000000E+00  0.00000000000E+00 -0.54315389464E+03  0.54315389467E+03  0.50400001928E-02 0. -1.
    10030    2    1    2    0    0  0.00000000000E+00  0.00000000000E+00  0.15803090145E+02  0.11021108795E+04  0.11019975740E+04 0.  0.
        5    1    3    3  502    0  0.14719749724E+02 -0.28541119661E+03  0.47901404168E+03  0.55781068859E+03  0.46999998093E+01 0.  1.
       -5    1    3    3    0  502 -0.14719749724E+02  0.28541119661E+03 -0.46321095153E+03  0.54430019089E+03  0.46999998093E+01 0. -1.
</event>
<event>
 5   0  0.1396936E-03  0.1099420E+04  0.7818609E-02  0.9205758E-01
       -2   -1    0    0    0  501  0.00000000000E+00  0.00000000000E+00  0.17831982858E+03  0.17831982859E+03  0.25500000920E-02 0. -1.
        2   -1    0    0  501    0  0.00000000000E+00  0.00000000000E+00 -0.16946002133E+04  0.16946002133E+04  0.25500000920E-02 0.  1.
    10030    2    1    2    0    0  0.00000000000E+00  0.00000000000E+00 -0.15162803848E+04  0.18729200419E+04  0.10994195188E+04 0.  0.
        2    1    3    3  502    0  0.30568659520E+03  0.36937167523E+03 -0.30007402282E+03  0.56561837676E+03  0.25500000920E-02 0. -1.
       -2    1    3    3    0  502 -0.30568659520E+03 -0.36937167523E+03 -0.12162063619E+04  0.13073016652E+04  0.25500000920E-02 0.  1.
</event>
<event>
 5   0  0.1396936E-03  0.1100688E+04  0.7818609E-02  0.9204521E-01
       -2   -1    0    0    0  501  0.00000000000E+00  0.00000000000E+00  0.56061651459E+03  0.56061651460E+03  0.25500000920E-02 0. -1.
        2   -1    0    0  501    0  0.00000000000E+00  0.00000000000E+00 -0.54026015316E+03  0.54026015317E+03  0.25500000920E-02 0.  1.
    10030    2    1    2    0    0  0.00000000000E+00  0.00000000000E+00  0.20356361433E+02  0.11008766678E+04  0.11006884465E+04 0.  0.
        2    1    3    3  502    0 -0.48369525855E+03 -0.92522036717E+02  0.25589748801E+03  0.55498194097E+03  0.25500000920E-02 0. -1.
       -2    1    3    3    0  502  0.48369525855E+03  0.92522036717E+02 -0.23554112658E+03  0.54589472679E+03  0.25500000920E-02 0.  1.
</event>
<event>
 5   0  0.7946038E-04  0.1101816E+04  0.7818609E-02  0.9203424E-01
        1   -1    0    0  501    0  0.00000000000E+00  0.00000000000E+00  0.30491362181E+03  0.30491362185E+03  0.50400001928E-02 0. -1.
       -1   -1    0    0    0  501  0.00000000000E+00  0.00000000000E+00 -0.99536255931E+03  0.99536255932E+03  0.50400001928E-02 0.  1.
    10030    2    1    2    0    0  0.00000000000E+00  0.00000000000E+00 -0.69044893750E+03  0.13002761812E+04  0.11018159611E+04 0.  0.
        4    1    3    3  502    0  0.76915997181E+02  0.33568180576E+02  0.29732417078E+03  0.30894363369E+03  0.12699999809E+01 0. -1.
       -4    1    3    3    0  502 -0.76915997181E+02 -0.33568180576E+02 -0.98777310828E+03  0.99133254749E+03  0.12699999809E+01 0.  1.
</event>
<event>
 5   0  0.8009636E-04  0.1096508E+04  0.7818609E-02  0.9208602E-01
       -1   -1    0    0    0  501  0.00000000000E+00  0.00000000000E+00  0.63264243637E+03  0.63264243639E+03  0.50400001928E-02 0. -1.
        1   -1    0    0  501    0  0.00000000000E+00  0.00000000000E+00 -0.47512216019E+03  0.47512216022E+03  0.50400001928E-02 0.  1.
    10030    2    1    2    0    0  0.00000000000E+00  0.00000000000E+00  0.15752027618E+03  0.11077645966E+04  0.10965079863E+04 0.  0.
        1    1    3    3  502    0 -0.18652297335E+03 -0.34259676943E+03 -0.31044677211E+03  0.49853842816E+03  0.50400001928E-02 0.  1.
       -1    1    3    3    0  502  0.18652297335E+03  0.34259676943E+03  0.46796704829E+03  0.60922616845E+03  0.50400001928E-02 0. -1.
</event>
<event>
 5   0  0.8009636E-04  0.1101710E+04  0.7818609E-02  0.9203527E-01
       -1   -1    0    0    0  501  0.00000000000E+00  0.00000000000E+00  0.81846820414E+03  0.81846820416E+03  0.50400001928E-02 0.  1.
        1   -1    0    0  501    0  0.00000000000E+00  0.00000000000E+00 -0.37074286067E+03  0.37074286071E+03  0.50400001928E-02 0. -1.
    10030    2    1    2    0    0  0.00000000000E+00  0.00000000000E+00  0.44772534347E+03  0.11892110649E+04  0.11017100225E+04 0.  0.
        1    1    3    3  502    0 -0.36069583577E+03 -0.39069445117E+03  0.37915559672E+03  0.65307167039E+03  0.50400001928E-02 0.  1.
       -1    1    3    3    0  502  0.36069583577E+03  0.39069445117E+03  0.68569746750E+02  0.53613939448E+03  0.50400001928E-02 0. -1.
</event>
<event>
 5   0  0.5409500E-04  0.1100552E+04  0.7818609E-02  0.9204654E-01
        3   -1    0    0  501    0  0.00000000000E+00  0.00000000000E+00  0.77539797756E+03  0.77539798414E+03  0.10100000352E+00 0.  1.
       -3   -1    0    0    0  501  0.00000000000E+00  0.00000000000E+00 -0.39051414490E+03  0.39051415796E+03  0.10100000352E+00 0. -1.
    10030    2    1    2    0    0  0.00000000000E+00  0.00000000000E+00  0.38488383266E+03  0.11659121421E+04  0.11005523879E+04 0.  0.
        3    1    3    3  502    0  0.20519212666E+03 -0.74283635362E+02  0.72759758921E+03  0.75961841036E+03  0.10100000352E+00 0.  1.
       -3    1    3    3    0  502 -0.20519212666E+03  0.74283635362E+02 -0.34271375655E+03  0.40629373175E+03  0.10100000352E+00 0. -1.
</event>
<event>
 5   0  0.8305271E-04  0.1108967E+04  0.7818609E-02  0.9196496E-01
       -1   -1    0    0    0  501  0.00000000000E+00  0.00000000000E+00  0.37857686793E+03  0.37857686796E+03  0.50400001928E-02 0. -1.
        1   -1    0    0  501    0  0.00000000000E+00  0.00000000000E+00 -0.81212541413E+03  0.81212541415E+03  0.50400001928E-02 0.  1.
    10030    2    1    2    0    0  0.00000000000E+00  0.00000000000E+00 -0.43354854621E+03  0.11907022821E+04  0.11089668988E+04 0.  0.
        5    1    3    3  502    0  0.24083273318E+01  0.54657115780E+03 -0.11671810017E+03  0.55891952505E+03  0.46999998093E+01 0. -1.
       -5    1    3    3    0  502 -0.24083273318E+01 -0.54657115780E+03 -0.31683044603E+03  0.63178275706E+03  0.46999998093E+01 0.  1.
</event>
<event>
 5   0  0.1372794E-03  0.1096722E+04  0.7818609E-02  0.9208392E-01
       -2   -1    0    0    0  501  0.00000000000E+00  0.00000000000E+00  0.43911717048E+03  0.43911717048E+03  0.25500000920E-02 0. -1.
        2   -1    0    0  501    0  0.00000000000E+00  0.00000000000E+00 -0.68478315531E+03  0.68478315532E+03  0.25500000920E-02 0.  1.
    10030    2    1    2    0    0  0.00000000000E+00  0.00000000000E+00 -0.24566598484E+03  0.11239003258E+04  0.10967224655E+04 0.  0.
        4    1    3    3  502    0 -0.53690289817E+03 -0.63060465518E+02 -0.21707431810E+03  0.58254975483E+03  0.12699999809E+01 0. -1.
       -4    1    3    3    0  502  0.53690289817E+03  0.63060465518E+02 -0.28591666740E+02  0.54135057097E+03  0.12699999809E+01 0.  1.
</event>
<event>
 5   0  0.1429680E-03  0.1103592E+04  0.7818609E-02  0.9201698E-01
        2   -1    0    0  501    0  0.00000000000E+00  0.00000000000E+00  0.59295593049E+03  0.59295593049E+03  0.25500000920E-02 0.  1.
       -2   -1    0    0    0  501  0.00000000000E+00  0.00000000000E+00 -0.51349342409E+03  0.51349342410E+03  0.25500000920E-02 0. -1.
    10030    2    1    2    0    0  0.00000000000E+00  0.00000000000E+00  0.79462506401E+02  0.11064493546E+04  0.11035922636E+04 0.  0.
        3    1    3    3  502    0  0.50474736365E+03 -0.18356902740E+03 -0.87132782284E+02  0.54411361027E+03  0.10100000352E+00 0.  1.
       -3    1    3    3    0  502 -0.50474736365E+03  0.18356902740E+03  0.16659528868E+03  0.56233574432E+03  0.10100000352E+00 0. -1.
</event>
<event>
 5   0  0.1425432E-03  0.1146539E+04  0.7818609E-02  0.9160982E-01
        2   -1    0    0  501    0  0.00000000000E+00  0.00000000000E+00  0.23585134136E+04  0.23585134136E+04  0.25500000920E-02 0. -1.
       -2   -1    0    0    0  501  0.00000000000E+00  0.00000000000E+00 -0.13934121526E+03  0.13934121528E+03  0.25500000920E-02 0.  1.
    10030    2    1    2    0    0  0.00000000000E+00  0.00000000000E+00  0.22191721983E+04  0.24978546289E+04  0.11465393587E+04 0.  0.
        1    1    3    3  502    0  0.31075746348E+02  0.57107433708E+03  0.10239106020E+04  0.11728105224E+04  0.50400001928E-02 0. -1.
       -1    1    3    3    0  502 -0.31075746348E+02 -0.57107433708E+03  0.11952615963E+04  0.13250441065E+04  0.50400001928E-02 0.  1.
</event>
<event>
 5   0  0.1429680E-03  0.1100888E+04  0.7818609E-02  0.9204326E-01
        2   -1    0    0  501    0  0.00000000000E+00  0.00000000000E+00  0.61457541623E+03  0.61457541624E+03  0.25500000920E-02 0. -1.
       -2   -1    0    0    0  501  0.00000000000E+00  0.00000000000E+00 -0.49300516459E+03  0.49300516460E+03  0.25500000920E-02 0.  1.
    10030    2    1    2    0    0  0.00000000000E+00  0.00000000000E+00  0.12157025164E+03  0.11075805808E+04  0.11008884671E+04 0.  0.
        3    1    3    3  502    0  0.28003818077E+03 -0.39636863634E+03  0.32209338489E+03  0.58247200565E+03  0.10100000352E+00 0. -1.
       -3    1    3    3    0  502 -0.28003818077E+03  0.39636863634E+03 -0.20052313325E+03  0.52510857519E+03  0.10100000352E+00 0.  1.
</event>
<event>
 5   0  0.1402775E-03  0.1098860E+04  0.7818609E-02  0.9206304E-01
        2   -1    0    0  501    0  0.00000000000E+00  0.00000000000E+00  0.48313492947E+03  0.48313492947E+03  0.25500000920E-02 0. -1.
       -2   -1    0    0    0  501  0.00000000000E+00  0.00000000000E+00 -0.62482154821E+03  0.62482154821E+03  0.25500000920E-02 0.  1.
    10030    2    1    2    0    0  0.00000000000E+00  0.00000000000E+00 -0.14168661874E+03  0.11079564777E+04  0.10988596173E+04 0.  0.
        5    1    3    3  502    0  0.28099914869E+03 -0.32228942191E+03  0.27700549748E+03  0.50949497414E+03  0.46999998093E+01 0. -1.
       -5    1    3    3    0  502 -0.28099914869E+03  0.32228942191E+03 -0.41869211623E+03  0.59846150355E+03  0.46999998093E+01 0.  1.
</event>
<event>
 5   0  0.5409500E-04  0.1100067E+04  0.7818609E-02  0.9205127E-01
       -4   -1    0    0    0  501  0.00000000000E+00  0.00000000000E+00  0.49776039490E+03  0.49776201505E+03  0.12699999809E+01 0.  1.
        4   -1    0    0  501    0  0.00000000000E+00  0.00000000000E+00 -0.60779238685E+03  0.60779371370E+03  0.12699999809E+01 0. -1.
    10030    2    1    2    0    0  0.00000000000E+00  0.00000000000E+00 -0.11003199196E+03  0.11055557288E+04  0.11000665571E+04 0.  0.
        4    1    3    3  502    0 -0.36914035645E+03  0.31723308776E+03 -0.31248482489E+03  0.57840281242E+03  0.12699999809E+01 0. -1.
       -4    1    3    3    0  502  0.36914035645E+03 -0.31723308776E+03  0.20245283293E+03  0.52715291633E+03  0.12699999809E+01 0.  1.
</event>
<event>
 5   0  0.8009636E-04  0.1100920E+04  0.7818609E-02  0.9204296E-01
       -1   -1    0    0    0  501  0.00000000000E+00  0.00000000000E+00  0.12127618071E+03  0.12127618082E+03  0.50400001928E-02 0.  1.
        1   -1    0    0  501    0  0.00000000000E+00  0.00000000000E+00 -0.24984789262E+04  0.24984789262E+04  0.50400001928E-02 0. -1.
    10030    2    1    2    0    0  0.00000000000E+00  0.00000000000E+00 -0.23772027455E+04  0.26197551071E+04  0.11009195827E+04 0.  0.
        1    1    3    3  502    0  0.24266973149E+02 -0.37511258799E+03 -0.21455097823E+04  0.21781897451E+04  0.50400001928E-02 0. -1.
       -1    1    3    3    0  502 -0.24266973149E+02  0.37511258799E+03 -0.23169296322E+03  0.44156536196E+03  0.50400001928E-02 0.  1.
</event>
<event>
 5   0  0.1425432E-03  0.1115300E+04  0.7818609E-02  0.9190407E-01
        2   -1    0    0  501    0  0.00000000000E+00  0.00000000000E+00  0.12456542682E+04  0.12456542682E+04  0.25500000920E-02 0.  1.
       -2   -1    0    0    0  501  0.00000000000E+00  0.00000000000E+00 -0.24964666369E+03  0.24964666370E+03  0.25500000920E-02 0. -1.
    10030    2    1    2    0    0  0.00000000000E+00  0.00000000000E+00  0.99600760452E+03  0.14953009319E+04  0.11152998380E+04 0.  0.
        1    1    3    3  502    0 -0.15291236987E+03  0.39002680523E+03  0.99147187594E+03  0.10763454754E+04  0.50400001928E-02 0.  1.
       -1    1    3    3    0  502  0.15291236987E+03 -0.39002680523E+03  0.45357285839E+01  0.41895545649E+03  0.50400001928E-02 0. -1.
</event>
<event>
 5   0  0.8150924E-04  0.1102071E+04  0.7818609E-02  0.9203176E-01
       -1   -1    0    0    0  501  0.00000000000E+00  0.00000000000E+00  0.23150899563E+03  0.23150899568E+03  0.50400001928E-02 0. -1.
        1   -1    0    0  501    0  0.00000000000E+00  0.00000000000E+00 -0.13115688120E+04  0.13115688121E+04  0.50400001928E-02 0.  1.
    10030    2    1    2    0    0  0.00000000000E+00  0.00000000000E+00 -0.10800598164E+04  0.15430778077E+04  0.11020707390E+04 0.  0.
        3    1    3    3  502    0  0.77940553249E+02 -0.63511369389E+02  0.21855769901E+03  0.24057410891E+03  0.10100000352E+00 0. -1.
       -3    1    3    3    0  502 -0.77940553249E+02  0.63511369389E+02 -0.12986175154E+04  0.13025036988E+04  0.10100000352E+00 0.  1.
</event>
<event>
 5   0  0.8341767E-04  0.1101927E+04  0.7818609E-02  0.9203315E-01
       -1   -1    0    0    0  501  0.00000000000E+00  0.00000000000E+00  0.45496664734E+03  0.45496664737E+03  0.50400001928E-02 0.  1.
        1   -1    0    0  501    0  0.00000000000E+00  0.00000000000E+00 -0.66721578638E+03  0.66721578640E+03  0.50400001928E-02 0. -1.
    10030    2    1    2    0    0  0.00000000000E+00  0.00000000000E+00 -0.21224913904E+03  0.11221824338E+04  0.11019272742E+04 0.  0.
        2    1    3    3  502    0  0.21697677201E+03  0.45484940504E+03 -0.33291526215E+03  0.60398631825E+03  0.25500000920E-02 0. -1.
       -2    1    3    3    0  502 -0.21697677201E+03 -0.45484940504E+03  0.12066612311E+03  0.51819611551E+03  0.25500000920E-02 0.  1.
</event>
<event>
 5   0  0.7946038E-04  0.1103597E+04  0.7818609E-02  0.9201693E-01
       -1   -1    0    0    0  501  0.00000000000E+00  0.00000000000E+00  0.39777578946E+03  0.39777578949E+03  0.50400001928E-02 0. -1.
        1   -1    0    0  501    0  0.00000000000E+00  0.00000000000E+00 -0.76545990822E+03  0.76545990823E+03  0.50400001928E-02 0.  1.
    10030    2    1    2    0    0  0.00000000000E+00  0.00000000000E+00 -0.36768411876E+03  0.11632356977E+04  0.11035967005E+04 0.  0.
        4    1    3    3  502    0 -0.51522565480E+03 -0.55788784282E+02 -0.38358189292E+03  0.64475308862E+03  0.12699999809E+01 0.  1.
       -4    1    3    3    0  502  0.51522565480E+03  0.55788784282E+02  0.15897774157E+02  0.51848260910E+03  0.12699999809E+01 0. -1.
</event>
<event>
 5   0  0.1372794E-03  0.1101174E+04  0.7818609E-02  0.9204049E-01
        2   -1    0    0  501    0  0.00000000000E+00  0.00000000000E+00  0.82847978022E+03  0.82847978022E+03  0.25500000920E-02 0. -1.
       -2   -1    0    0    0  501  0.00000000000E+00  0.00000000000E+00 -0.36590628716E+03  0.36590628717E+03  0.25500000920E-02 0.  1.
    10030    2    1    2    0    0  0.00000000000E+00  0.00000000000E+00  0.46257349306E+03  0.11943860674E+04  0.11011738471E+04 0.  0.
        4    1    3    3  502    0 -0.39051637190E+03  0.36038664295E+03  0.38757688433E+03  0.65772260361E+03  0.12699999809E+01 0.  1.
       -4    1    3    3    0  502  0.39051637190E+03 -0.36038664295E+03  0.74996608734E+02  0.53666346378E+03  0.12699999809E+01 0. -1.
</event>
<event>
 5   0  0.8305271E-04  0.1102423E+04  0.7818609E-02  0.9202834E-01
        1   -1    0    0  501    0  0.00000000000E+00  0.00000000000E+00  0.11255545257E+04  0.11255545257E+04  0.50400001928E-02 0. -1.
       -1   -1    0    0    0  501  0.00000000000E+00  0.00000000000E+00 -0.26994155456E+03  0.26994155460E+03  0.50400001928E-02 0.  1.
    10030    2    1    2    0    0  0.00000000000E+00  0.00000000000E+00  0.85561297115E+03  0.13954960803E+04  0.11024226747E+04 0.  0.
        5    1    3    3  502    0  0.13791182514E+03 -0.29220506266E+02  0.11023228684E+04  0.11113106252E+04  0.46999998093E+01 0. -1.
       -5    1    3    3    0  502 -0.13791182514E+03  0.29220506266E+02 -0.24670989725E+03  0.28418545511E+03  0.46999998093E+01 0.  1.
</event>
<event>
 5   0  0.8305271E-04  0.1105870E+04  0.7818609E-02  0.9199489E-01
        1   -1    0    0  501    0  0.00000000000E+00  0.00000000000E+00  0.68737981195E+03  0.68737981197E+03  0.50400001928E-02 0. -1.
       -1   -1    0    0    0  501  0.00000000000E+00  0.00000000000E+00 -0.44478620796E+03  0.44478620799E+03  0.50400001928E-02 0.  1.
    10030    2    1    2    0    0  0.00000000000E+00  0.00000000000E+00  0.24259360398E+03  0.11321660200E+04  0.11058699020E+04 0.  0.
        5    1    3    3  502    0  0.41716985247E+03 -0.15367264050E+03 -0.21525866678E+03  0.49396796442E+03  0.46999998093E+01 0.  1.
       -5    1    3    3    0  502 -0.41716985247E+03  0.15367264050E+03  0.45785227076E+03  0.63819805554E+03  0.46999998093E+01 0. -1.
</event>
<event>
 5   0  0.8305271E-04  0.1098947E+04  0.7818609E-02  0.9206219E-01
       -1   -1    0    0    0  501  0.00000000000E+00  0.00000000000E+00  0.25022411492E+03  0.25022411498E+03  0.50400001928E-02 0. -1.
        1   -1    0    0  501    0  0.00000000000E+00  0.00000000000E+00 -0.12066018042E+04  0.12066018042E+04  0.50400001928E-02 0.  1.
    10030    2    1    2    0    0  0.00000000000E+00  0.00000000000E+00 -0.95637768925E+03  0.14568259192E+04  0.10989465293E+04 0.  0.
        5    1    3    3  502    0 -0.20991675497E+03  0.49160020017E+03 -0.30965319274E+03  0.61777260428E+03  0.46999998093E+01 0. -1.
       -5    1    3    3    0  502  0.20991675497E+03 -0.49160020017E+03 -0.64672449651E+03  0.83905331488E+03  0.46999998093E+01 0.  1.
</event>
<event>
 5   0  0.1402775E-03  0.1098124E+04  0.7818609E-02  0.9207023E-01
       -2   -1    0    0    0  501  0.00000000000E+00  0.00000000000E+00  0.84790568714E+03  0.84790568714E+03  0.25500000920E-02 0.  1.
        2   -1    0    0  501    0  0.00000000000E+00  0.00000000000E+00 -0.35554531131E+03  0.35554531132E+03  0.25500000920E-02 0. -1.
    10030    2    1    2    0    0  0.00000000000E+00  0.00000000000E+00  0.49236037582E+03  0.12034509985E+04  0.10981236570E+04 0.  0.
        5    1    3    3  502    0 -0.49177953339E+02 -0.28904308317E+02  0.84462732316E+03  0.84656443060E+03  0.46999998093E+01 0.  1.
       -5    1    3    3    0  502  0.49177953339E+02  0.28904308317E+02 -0.35226694734E+03  0.35688656786E+03  0.46999998093E+01 0. -1.
</event>
<event>
 5   0  0.1425432E-03  0.1104001E+04  0.7818609E-02  0.9201301E-01
       -2   -1    0    0    0  501  0.00000000000E+00  0.00000000000E+00  0.47816692547E+03  0.47816692548E+03  0.25500000920E-02 0. -1.
        2   -1    0    0  501    0  0.00000000000E+00  0.00000000000E+00 -0.63723413653E+03  0.63723413653E+03  0.25500000920E-02 0.  1.
    10030    2    1    2    0    0  0.00000000000E+00  0.00000000000E+00 -0.15906721106E+03  0.11154010620E+04  0.11040005215E+04 0.  0.
        1    1    3    3  502    0  0.53046548080E+03  0.10089329085E+03  0.36241203215E+02  0.54118989948E+03  0.50400001928E-02 0.  1.
       -1    1    3    3    0  502 -0.53046548080E+03 -0.10089329085E+03 -0.19530841427E+03  0.57421116253E+03  0.50400001928E-02 0. -1.
</event>
<event>
 5   0  0.8341767E-04  0.1102815E+04  0.7818609E-02  0.9202453E-01
       -1   -1    0    0    0  501  0.00000000000E+00  0.00000000000E+00  0.37483044728E+03  0.37483044731E+03  0.50400001928E-02 0.  1.
        1   -1    0    0  501    0  0.00000000000E+00  0.00000000000E+00 -0.81116699726E+03  0.81116699727E+03  0.50400001928E-02 0. -1.
    10030    2    1    2    0    0  0.00000000000E+00  0.00000000000E+00 -0.43633654998E+03  0.11859974446E+04  0.11028147413E+04 0.  0.
        2    1    3    3  502    0 -0.24475808892E+03 -0.39816022709E+03 -0.53283332748E+03  0.70876614155E+03  0.25500000920E-02 0. -1.
       -2    1    3    3    0  502  0.24475808892E+03  0.39816022709E+03  0.96496777507E+02  0.47723130304E+03  0.25500000920E-02 0.  1.
</event>
<event>
 5   0  0.5409500E-04  0.1103809E+04  0.7818609E-02  0.9201487E-01
       -4   -1    0    0    0  501  0.00000000000E+00  0.00000000000E+00  0.54086540878E+03  0.54086689982E+03  0.12699999809E+01 0. -1.
        4   -1    0    0  501    0  0.00000000000E+00  0.00000000000E+00 -0.56316605637E+03  0.56316748836E+03  0.12699999809E+01 0.  1.
    10030    2    1    2    0    0  0.00000000000E+00  0.00000000000E+00 -0.22300647585E+02  0.11040343882E+04  0.11038091372E+04 0.  0.
        2    1    3    3  502    0 -0.23369377934E+03  0.30252658895E+02  0.48802130152E+03  0.54193431024E+03  0.25500000920E-02 0. -1.
       -2    1    3    3    0  502  0.23369377934E+03 -0.30252658895E+02 -0.51032194910E+03  0.56210007794E+03  0.25500000920E-02 0.  1.
</event>
<event>
 5   0  0.1425432E-03  0.1095877E+04  0.7818609E-02  0.9209220E-01
       -2   -1    0    0    0  501  0.00000000000E+00  0.00000000000E+00  0.24916847007E+03  0.24916847009E+03  0.25500000920E-02 0. -1.
        2   -1    0    0  501    0  0.00000000000E+00  0.00000000000E+00 -0.12049542863E+04  0.12049542863E+04  0.25500000920E-02 0.  1.
    10030    2    1    2    0    0  0.00000000000E+00  0.00000000000E+00 -0.95578581622E+03  0.14541227564E+04  0.10958770297E+04 0.  0.
        1    1    3    3  502    0 -0.20120892507E+03 -0.40007925948E+02  0.19628747446E+03  0.28392681860E+03  0.50400001928E-02 0. -1.
       -1    1    3    3    0  502  0.20120892507E+03  0.40007925948E+02 -0.11520732907E+04  0.11701959378E+04  0.50400001928E-02 0.  1.
</event>
<event>
 5   0  0.5409500E-04  0.1112868E+04  0.7818609E-02  0.9192740E-01
        3   -1    0    0  501    0  0.00000000000E+00  0.00000000000E+00  0.75152025262E+03  0.75152025941E+03  0.10100000352E+00 0. -1.
       -3   -1    0    0    0  501  0.00000000000E+00  0.00000000000E+00 -0.41199004546E+03  0.41199005785E+03  0.10100000352E+00 0.  1.
    10030    2    1    2    0    0  0.00000000000E+00  0.00000000000E+00  0.33953020715E+03  0.11635103173E+04  0.11128681399E+04 0.  0.
        1    1    3    3  502    0 -0.40142019094E+03 -0.27113473156E+03  0.45602506983E+03  0.66529021990E+03  0.50400001928E-02 0. -1.
       -1    1    3    3    0  502  0.40142019094E+03  0.27113473156E+03 -0.11649486267E+03  0.49822009736E+03  0.50400001928E-02 0.  1.
</event>
<event>
 5   0  0.1425432E-03  0.1096093E+04  0.7818609E-02  0.9209008E-01
       -2   -1    0    0    0  501  0.00000000000E+00  0.00000000000E+00  0.33947459539E+03  0.33947459540E+03  0.25500000920E-02 0. -1.
        2   -1    0    0  501    0  0.00000000000E+00  0.00000000000E+00 -0.88476425221E+03  0.88476425221E+03  0.25500000920E-02 0.  1.
    10030    2    1    2    0    0  0.00000000000E+00  0.00000000000E+00 -0.54528965681E+03  0.12242388476E+04  0.10960930372E+04 0.  0.
        1    1    3    3  502    0 -0.23593437457E+03  0.27580431470E+03 -0.73128889019E+03  0.81640461173E+03  0.50400001928E-02 0.  1.
       -1    1    3    3    0  502  0.23593437457E+03 -0.27580431470E+03  0.18599923338E+03  0.40783423588E+03  0.50400001928E-02 0. -1.
</event>
<event>
 5   0  0.1429680E-03  0.1106707E+04  0.7818609E-02  0.9198679E-01
        2   -1    0    0  501    0  0.00000000000E+00  0.00000000000E+00  0.50521125116E+03  0.50521125116E+03  0.25500000920E-02 0. -1.
       -2   -1    0    0    0  501  0.00000000000E+00  0.00000000000E+00 -0.60608319579E+03  0.60608319580E+03  0.25500000920E-02 0.  1.
    10030    2    1    2    0    0  0.00000000000E+00  0.00000000000E+00 -0.10087194464E+03  0.11112944470E+04  0.11067069163E+04 0.  0.
        3    1    3    3  502    0  0.18783648127E+03 -0.46428182367E+03  0.18582615266E+03  0.53420176404E+03  0.10100000352E+00 0. -1.
       -3    1    3    3    0  502 -0.18783648127E+03  0.46428182367E+03 -0.28669809730E+03  0.57709268292E+03  0.10100000352E+00 0.  1.
</event>
<event>
 5   0  0.7946038E-04  0.1110519E+04  0.7818609E-02  0.9195000E-01
        1   -1    0    0  501    0  0.00000000000E+00  0.00000000000E+00  0.78745002316E+03  0.78745002318E+03  0.50400001928E-02 0.  1.
       -1   -1    0    0    0  501  0.00000000000E+00  0.00000000000E+00 -0.39153341143E+03  0.39153341146E+03  0.50400001928E-02 0. -1.
    10030    2    1    2    0    0  0.00000000000E+00  0.00000000000E+00  0.39591661173E+03  0.11789834346E+04  0.11105187867E+04 0.  0.
        4    1    3    3  502    0  0.36988450821E+03  0.27354497395E+03  0.52804468588E+03  0.70033863621E+03  0.12699999809E+01 0. -1.
       -4    1    3    3    0  502 -0.36988450821E+03 -0.27354497395E+03 -0.13212807415E+03  0.47864479843E+03  0.12699999809E+01 0.  1.
</event>
<event>
 5   0  0.7946038E-04  0.1101442E+04  0.7818609E-02  0.9203788E-01
       -1   -1    0    0    0  501  0.00000000000E+00  0.00000000000E+00  0.35696427868E+03  0.35696427871E+03  0.50400001928E-02 0.  1.
        1   -1    0    0  501    0  0.00000000000E+00  0.00000000000E+00 -0.84964678737E+03  0.84964678739E+03  0.50400001928E-02 0. -1.
    10030    2    1    2    0    0  0.00000000000E+00  0.00000000000E+00 -0.49268250870E+03  0.12066110661E+04  0.11014418779E+04 0.  0.
        4    1    3    3  502    0 -0.98262668813E+02  0.39506718060E+03  0.15996090993E+03  0.43740454373E+03  0.12699999809E+01 0.  1.
       -4    1    3    3    0  502  0.98262668813E+02 -0.39506718060E+03 -0.65264341863E+03  0.76920652237E+03  0.12699999809E+01 0. -1.
</event>
<event>
 5   0  0.8009636E-04  0.1097345E+04  0.7818609E-02  0.9207783E-01
       -1   -1    0    0    0  501  0.00000000000E+00  0.00000000000E+00  0.23576259629E+03  0.23576259635E+03  0.50400001928E-02 0. -1.
        1   -1    0    0  501    0  0.00000000000E+00  0.00000000000E+00 -0.12768849796E+04  0.12768849796E+04  0.50400001928E-02 0.  1.
    10030    2    1    2    0    0  0.00000000000E+00  0.00000000000E+00 -0.10411223833E+04  0.15126475759E+04  0.10973453750E+04 0.  0.
        1    1    3    3  502    0  0.55747276815E+02  0.50546322878E+03 -0.23658192978E+03  0.56086704668E+03  0.50400001928E-02 0.  1.
       -1    1    3    3    0  502 -0.55747276815E+02 -0.50546322878E+03 -0.80454045351E+03  0.95178052926E+03  0.50400001928E-02 0. -1.
</event>
<event>
 5   0  0.1402775E-03  0.1095697E+04  0.7818609E-02  0.9209396E-01
        2   -1    0    0  501    0  0.00000000000E+00  0.00000000000E+00  0.21579283839E+04  0.21579283839E+04  0.25500000920E-02 0.  1.
       -2   -1    0    0    0  501  0.00000000000E+00  0.00000000000E+00 -0.13908621351E+03  0.13908621353E+03  0.25500000920E-02 0. -1.
    10030    2    1    2    0    0  0.00000000000E+00  0.00000000000E+00  0.20188421704E+04  0.22970145974E+04  0.10956971990E+04 0.  0.
        5    1    3    3  502    0 -0.73250611102E+02 -0.20221999545E+02 -0.12794137968E+03  0.14888138878E+03  0.46999998093E+01 0. -1.
       -5    1    3    3    0  502  0.73250611102E+02  0.20221999545E+02  0.21467835500E+04  0.21481332086E+04  0.46999998093E+01 0.  1.
</event>
<event>
 5   0  0.8009636E-04  0.1095314E+04  0.7818609E-02  0.9209771E-01
       -1   -1    0    0    0  501  0.00000000000E+00  0.00000000000E+00  0.16045093359E+03  0.16045093366E+03  0.50400001928E-02 0. -1.
        1   -1    0    0  501    0  0.00000000000E+00  0.00000000000E+00 -0.18692829901E+04  0.18692829901E+04  0.50400001928E-02 0.  1.
    10030    2    1    2    0    0  0.00000000000E+00  0.00000000000E+00 -0.17088320565E+04  0.20297339238E+04  0.10953140207E+04 0.  0.
        1    1    3    3  502    0  0.31950859698E+03 -0.43741342744E+03 -0.10039555620E+04  0.11407642266E+04  0.50400001928E-02 0.  1.
       -1    1    3    3    0  502 -0.31950859698E+03  0.43741342744E+03 -0.70487649449E+03  0.88896969721E+03  0.50400001928E-02 0. -1.
</event>
<event>
 5   0  0.5409500E-04  0.1113937E+04  0.7818609E-02  0.9191713E-01
       -3   -1    0    0    0  501  0.00000000000E+00  0.00000000000E+00  0.92897138693E+03  0.92897139242E+03  0.10100000352E+00 0.  1.
        3   -1    0    0  501    0  0.00000000000E+00  0.00000000000E+00 -0.33393264770E+03  0.33393266297E+03  0.10100000352E+00 0. -1.
    10030    2    1    2    0    0  0.00000000000E+00  0.00000000000E+00  0.59503873923E+03  0.12629040554E+04  0.11139369605E+04 0.  0.
        3    1    3    3  502    0 -0.30018281614E+03  0.60149497306E+02  0.82502226168E+03  0.87999399293E+03  0.10100000352E+00 0.  1.
       -3    1    3    3    0  502  0.30018281614E+03 -0.60149497306E+02 -0.22998352245E+03  0.38291006246E+03  0.10100000352E+00 0. -1.
</event>
<event>
 5   0  0.1402775E-03  0.1117150E+04  0.7818609E-02  0.9188636E-01
       -2   -1    0    0    0  501  0.00000000000E+00  0.00000000000E+00  0.87323328581E+03  0.87323328582E+03  0.25500000920E-02 0.  1.
        2   -1    0    0  501    0  0.00000000000E+00  0.00000000000E+00 -0.35729958574E+03  0.35729958575E+03  0.25500000920E-02 0. -1.
    10030    2    1    2    0    0  0.00000000000E+00  0.00000000000E+00  0.51593370007E+03  0.12305328716E+04  0.11171497505E+04 0.  0.
        5    1    3    3  502    0  0.37531206384E+03 -0.21071081199E+03 -0.13414866040E+03  0.45086155817E+03  0.46999998093E+01 0. -1.
       -5    1    3    3    0  502 -0.37531206384E+03  0.21071081199E+03  0.65008236047E+03  0.77967131340E+03  0.46999998093E+01 0.  1.
</event>
<event>
 5   0  0.1425432E-03  0.1087187E+04  0.7818609E-02  0.9217771E-01
        2   -1    0    0  501    0  0.00000000000E+00  0.00000000000E+00  0.10386159366E+04  0.10386159366E+04  0.25500000920E-02 0. -1.
       -2   -1    0    0    0  501  0.00000000000E+00  0.00000000000E+00 -0.28450721837E+03  0.28450721838E+03  0.25500000920E-02 0.  1.
    10030    2    1    2    0    0  0.00000000000E+00  0.00000000000E+00  0.75410871820E+03  0.13231231550E+04  0.10871867017E+04 0.  0.
        1    1    3    3  502    0  0.24952421973E+03  0.40275833007E+02 -0.20864411195E+03  0.32774509063E+03  0.50400001928E-02 0.  1.
       -1    1    3    3    0  502 -0.24952421973E+03 -0.40275833007E+02  0.96275283015E+03  0.99537806433E+03  0.50400001928E-02 0. -1.
</event>
<event>
 5   0  0.1372794E-03  0.1099072E+04  0.7818609E-02  0.9206097E-01
        2   -1    0    0  501    0  0.00000000000E+00  0.00000000000E+00  0.16030988461E+04  0.16030988461E+04  0.25500000920E-02 0. -1.
       -2   -1    0    0    0  501  0.00000000000E+00  0.00000000000E+00 -0.18837882547E+03  0.18837882549E+03  0.25500000920E-02 0.  1.
    10030    2    1    2    0    0  0.00000000000E+00  0.00000000000E+00  0.14147200206E+04  0.17914776716E+04  0.10990721137E+04 0.  0.
        4    1    3    3  502    0  0.29021050493E+03 -0.44450580584E+03  0.93891465619E+03  0.10785962605E+04  0.12699999809E+01 0. -1.
       -4    1    3    3    0  502 -0.29021050493E+03  0.44450580584E+03  0.47580536443E+03  0.71288141112E+03  0.12699999809E+01 0.  1.
</event>
<event>
 5   0  0.1402775E-03  0.1100088E+04  0.7818609E-02  0.9205106E-01
        2   -1    0    0  501    0  0.00000000000E+00  0.00000000000E+00  0.56627893090E+03  0.56627893091E+03  0.25500000920E-02 0.  1.
       -2   -1    0    0    0  501  0.00000000000E+00  0.00000000000E+00 -0.53427470140E+03  0.53427470140E+03  0.25500000920E-02 0. -1.
    10030    2    1    2    0    0  0.00000000000E+00  0.00000000000E+00  0.32004229504E+02  0.11005536323E+04  0.11000881905E+04 0.  0.
        5    1    3    3  502    0  0.10371872815E+03 -0.30454144589E+02  0.55552741200E+03  0.56596627547E+03  0.46999998093E+01 0.  1.
       -5    1    3    3    0  502 -0.10371872815E+03  0.30454144589E+02 -0.52352318249E+03  0.53458735684E+03  0.46999998093E+01 0. -1.
</event>
<event>
 5   0  0.7946038E-04  0.1096681E+04  0.7818609E-02  0.9208432E-01
       -1   -1    0    0    0  501  0.00000000000E+00  0.00000000000E+00  0.27137440352E+03  0.27137440357E+03  0.50400001928E-02 0. -1.
        1   -1    0    0  501    0  0.00000000000E+00  0.00000000000E+00 -0.11079803277E+04  0.11079803277E+04  0.50400001928E-02 0.  1.
    10030    2    1    2    0    0  0.00000000000E+00  0.00000000000E+00 -0.83660592418E+03  0.13793547313E+04  0.10966813586E+04 0.  0.
        4    1    3    3  502    0 -0.17090283365E+03  0.13603233416E+03 -0.10508958106E+04  0.10733574391E+04  0.12699999809E+01 0.  1.
       -4    1    3    3    0  502  0.17090283365E+03 -0.13603233416E+03  0.21428988642E+03  0.30599729216E+03  0.12699999809E+01 0. -1.
</event>
<event>
 5   0  0.1425432E-03  0.1098713E+04  0.7818609E-02  0.9206447E-01
       -2   -1    0    0    0  501  0.00000000000E+00  0.00000000000E+00  0.44323280438E+03  0.44323280439E+03  0.25500000920E-02 0. -1.
        2   -1    0    0  501    0  0.00000000000E+00  0.00000000000E+00 -0.68088968727E+03  0.68088968728E+03  0.25500000920E-02 0.  1.
    10030    2    1    2    0    0  0.00000000000E+00  0.00000000000E+00 -0.23765688289E+03  0.11241224917E+04  0.10987131483E+04 0.  0.
        1    1    3    3  502    0  0.48915708718E+03  0.10031809553E+03 -0.35315404076E+03  0.61160130212E+03  0.50400001928E-02 0.  1.
       -1    1    3    3    0  502 -0.48915708718E+03 -0.10031809553E+03  0.11549715787E+03  0.51252118954E+03  0.50400001928E-02 0. -1.
</event>
<event>
 5   0  0.7946038E-04  0.1044695E+04  0.7818609E-02  0.9260838E-01
        1   -1    0    0  501    0  0.00000000000E+00  0.00000000000E+00  0.11111383192E+04  0.11111383192E+04  0.50400001928E-02 0.  1.
       -1   -1    0    0    0  501  0.00000000000E+00  0.00000000000E+00 -0.24555623832E+03  0.24555623837E+03  0.50400001928E-02 0. -1.
    10030    2    1    2    0    0  0.00000000000E+00  0.00000000000E+00  0.86558208088E+03  0.13566945576E+04  0.10446950674E+04 0.  0.
        4    1    3    3  502    0  0.13616790935E+03 -0.37827416282E+02  0.10858366722E+04  0.10949956641E+04  0.12699999809E+01 0.  1.
       -4    1    3    3    0  502 -0.13616790935E+03  0.37827416282E+02 -0.22025459127E+03  0.26169889346E+03  0.12699999809E+01 0. -1.
</event>
<event>
 5   0  0.8341767E-04  0.1091445E+04  0.7818609E-02  0.9213570E-01
        1   -1    0    0  501    0  0.00000000000E+00  0.00000000000E+00  0.36602291177E+03  0.36602291180E+03  0.50400001928E-02 0. -1.
       -1   -1    0    0    0  501  0.00000000000E+00  0.00000000000E+00 -0.81364641297E+03  0.81364641298E+03  0.50400001928E-02 0.  1.
    10030    2    1    2    0    0  0.00000000000E+00  0.00000000000E+00 -0.44762350120E+03  0.11796693248E+04  0.10914453340E+04 0.  0.
        2    1    3    3  502    0 -0.34622816287E+03  0.26162629490E+03 -0.58145287382E+03  0.72554097295E+03  0.25500000920E-02 0.  1.
       -2    1    3    3    0  502  0.34622816287E+03 -0.26162629490E+03  0.13382937262E+03  0.45412835183E+03  0.25500000920E-02 0. -1.
</event>
<event>
 5   0  0.5409500E-04  0.1100606E+04  0.7818609E-02  0.9204602E-01
       -4   -1    0    0    0  501  0.00000000000E+00  0.00000000000E+00  0.35674759529E+03  0.35674985584E+03  0.12699999809E+01 0.  1.
        4   -1    0    0  501    0  0.00000000000E+00  0.00000000000E+00 -0.84886678523E+03  0.84886773526E+03  0.12699999809E+01 0. -1.
    10030    2    1    2    0    0  0.00000000000E+00  0.00000000000E+00 -0.49211918994E+03  0.12056175911E+04  0.11006055056E+04 0.  0.
        3    1    3    3  502    0  0.29123712049E+03  0.32524293796E+03 -0.61303289485E+03  0.75260306232E+03  0.10100000352E+00 0. -1.
       -3    1    3    3    0  502 -0.29123712049E+03 -0.32524293796E+03  0.12091370491E+03  0.45301452878E+03  0.10100000352E+00 0.  1.
</event>
<event>
 5   0  0.8009636E-04  0.1099217E+04  0.7818609E-02  0.9205955E-01
        1   -1    0    0  501    0  0.00000000000E+00  0.00000000000E+00  0.81702963240E+03  0.81702963242E+03  0.50400001928E-02 0. -1.
       -1   -1    0    0    0  501  0.00000000000E+00  0.00000000000E+00 -0.36971689927E+03  0.36971689930E+03  0.50400001928E-02 0.  1.
    10030    2    1    2    0    0  0.00000000000E+00  0.00000000000E+00  0.44731273313E+03  0.11867465317E+04  0.10992172894E+04 0.  0.
        1    1    3    3  502    0  0.46893237495E+03  0.28412149594E+03  0.18258695067E+03  0.57789323522E+03  0.50400001928E-02 0.  1.
       -1    1    3    3    0  502 -0.46893237495E+03 -0.28412149594E+03  0.26472578246E+03  0.60885329650E+03  0.50400001928E-02 0. -1.
</event>
<event>
 5   0  0.7946038E-04  0.1104819E+04  0.7818609E-02  0.9200507E-01
       -1   -1    0    0    0  501  0.00000000000E+00  0.00000000000E+00  0.47939095930E+03  0.47939095933E+03  0.50400001928E-02 0.  1.
        1   -1    0    0  501    0  0.00000000000E+00  0.00000000000E+00 -0.63655044826E+03  0.63655044828E+03  0.50400001928E-02 0. -1.
    10030    2    1    2    0    0  0.00000000000E+00  0.00000000000E+00 -0.15715948896E+03  0.11159414076E+04  0.11048194967E+04 0.  0.
        4    1    3    3  502    0 -0.72665958875E+02 -0.47144805490E+03 -0.35997227297E+03  0.59759958187E+03  0.12699999809E+01 0. -1.
       -4    1    3    3    0  502  0.72665958875E+02  0.47144805490E+03  0.20281278400E+03  0.51834182574E+03  0.12699999809E+01 0.  1.
</event>
<event>
 5   0  0.1372794E-03  0.1096709E+04  0.7818609E-02  0.9208405E-01
       -2   -1    0    0    0  501  0.00000000000E+00  0.00000000000E+00  0.30119191793E+03  0.30119191795E+03  0.25500000920E-02 0.  1.
        2   -1    0    0  501    0  0.00000000000E+00  0.00000000000E+00 -0.99834287376E+03  0.99834287376E+03  0.25500000920E-02 0. -1.
    10030    2    1    2    0    0  0.00000000000E+00  0.00000000000E+00 -0.69715095582E+03  0.12995347917E+04  0.10967092685E+04 0.  0.
        4    1    3    3  502    0 -0.32008158425E+03  0.36182627921E+03 -0.41128125389E+02  0.48483359258E+03  0.12699999809E+01 0.  1.
       -4    1    3    3    0  502  0.32008158425E+03 -0.36182627921E+03 -0.65602283043E+03  0.81470119912E+03  0.12699999809E+01 0. -1.
</event>
<event>
 5   0  0.1372794E-03  0.1095115E+04  0.7818609E-02  0.9209967E-01
       -2   -1    0    0    0  501  0.00000000000E+00  0.00000000000E+00  0.62729481992E+03  0.62729481993E+03  0.25500000920E-02 0. -1.
        2   -1    0    0  501    0  0.00000000000E+00  0.00000000000E+00 -0.47795550500E+03  0.47795550501E+03  0.25500000920E-02 0.  1.
    10030    2    1    2    0    0  0.00000000000E+00  0.00000000000E+00  0.14933931492E+03  0.11052503249E+04  0.10951146286E+04 0.  0.
        4    1    3    3  502    0  0.49160715191E+03  0.22829329522E+03  0.15298929934E+03  0.56320756304E+03  0.12699999809E+01 0. -1.
       -4    1    3    3    0  502 -0.49160715191E+03 -0.22829329522E+03 -0.36499844246E+01  0.54204276190E+03  0.12699999809E+01 0.  1.
</event>
<event>
 5   0  0.8305271E-04  0.1092397E+04  0.7818609E-02  0.9212634E-01
       -1   -1    0    0    0  501  0.00000000000E+00  0.00000000000E+00  0.23514438713E+03  0.23514438719E+03  0.50400001928E-02 0.  1.
        1   -1    0    0  501    0  0.00000000000E+00  0.00000000000E+00 -0.12687220469E+04  0.12687220469E+04  0.50400001928E-02 0. -1.
    10030    2    1    2    0    0  0.00000000000E+00  0.00000000000E+00 -0.10335776597E+04  0.15038664341E+04  0.10923971223E+04 0.  0.
        5    1    3    3  502    0  0.11851056133E+03 -0.78924752541E+02 -0.12426940912E+04  0.12508335477E+04  0.46999998093E+01 0. -1.
       -5    1    3    3    0  502 -0.11851056133E+03  0.78924752541E+02  0.20911643144E+03  0.25303288641E+03  0.46999998093E+01 0.  1.
</event>
<event>
 5   0  0.1396936E-03  0.1097388E+04  0.7818609E-02  0.9207742E-01
        2   -1    0    0  501    0  0.00000000000E+00  0.00000000000E+00  0.74585591236E+03  0.74585591236E+03  0.25500000920E-02 0. -1.
       -2   -1    0    0    0  501  0.00000000000E+00  0.00000000000E+00 -0.40365038141E+03  0.40365038142E+03  0.25500000920E-02 0.  1.
    10030    2    1    2    0    0  0.00000000000E+00  0.00000000000E+00  0.34220553095E+03  0.11495062938E+04  0.10973878503E+04 0.  0.
        2    1    3    3  502    0  0.38448131003E+03 -0.15500216131E+03  0.54763755645E+03  0.68684673764E+03  0.25500000920E-02 0. -1.
       -2    1    3    3    0  502 -0.38448131003E+03  0.15500216131E+03 -0.20543202550E+03  0.46265955613E+03  0.25500000920E-02 0.  1.
</event>
<event>
 5   0  0.8305271E-04  0.1095834E+04  0.7818609E-02  0.9209262E-01
        1   -1    0    0  501    0  0.00000000000E+00  0.00000000000E+00  0.13868907814E+04  0.13868907814E+04  0.50400001928E-02 0. -1.
       -1   -1    0    0    0  501  0.00000000000E+00  0.00000000000E+00 -0.21646491413E+03  0.21646491419E+03  0.50400001928E-02 0.  1.
    10030    2    1    2    0    0  0.00000000000E+00  0.00000000000E+00  0.11704258672E+04  0.16033556956E+04  0.10958342830E+04 0.  0.
        5    1    3    3  502    0  0.51576671941E+03 -0.18255266013E+03  0.54254746255E+03  0.77053268697E+03  0.46999998093E+01 0. -1.
       -5    1    3    3    0  502 -0.51576671941E+03  0.18255266013E+03  0.62787840469E+03  0.83282300860E+03  0.46999998093E+01 0.  1.
</event>
<event>
 5   0  0.1425432E-03  0.1099144E+04  0.7818609E-02  0.9206027E-01
       -2   -1    0    0    0  501  0.00000000000E+00  0.00000000000E+00  0.45438204210E+03  0.45438204211E+03  0.25500000920E-02 0.  1.
        2   -1    0    0  501    0  0.00000000000E+00  0.00000000000E+00 -0.66470335100E+03  0.66470335100E+03  0.25500000920E-02 0. -1.
    10030    2    1    2    0    0  0.00000000000E+00  0.00000000000E+00 -0.21032130890E+03  0.11190853931E+04  0.10991437868E+04 0.  0.
        1    1    3    3  502    0  0.46284234263E+02 -0.52067547828E+02 -0.66018954367E+03  0.66385502444E+03  0.50400001928E-02 0. -1.
       -1    1    3    3    0  502 -0.46284234263E+02  0.52067547828E+02  0.44986823477E+03  0.45523036867E+03  0.50400001928E-02 0.  1.
</event>
<event>
 5   0  0.1372794E-03  0.1104416E+04  0.7818609E-02  0.9200899E-01
       -2   -1    0    0    0  501  0.00000000000E+00  0.00000000000E+00  0.10019376925E+04  0.10019376925E+04  0.25500000920E-02 0.  1.
        2   -1    0    0  501    0  0.00000000000E+00  0.00000000000E+00 -0.30434384518E+03  0.30434384519E+03  0.25500000920E-02 0. -1.
    10030    2    1    2    0    0  0.00000000000E+00  0.00000000000E+00  0.69759384731E+03  0.13062815377E+04  0.11044158093E+04 0.  0.
        4    1    3    3  502    0  0.44362234764E+03 -0.27177770024E+03  0.56774890462E+03  0.77006774849E+03  0.12699999809E+01 0.  1.
       -4    1    3    3    0  502 -0.44362234764E+03  0.27177770024E+03  0.12984494270E+03  0.53621378919E+03  0.12699999809E+01 0. -1.
</event>
<event>
 5   0  0.8150924E-04  0.1101206E+04  0.7818609E-02  0.9204017E-01
       -1   -1    0    0    0  501  0.00000000000E+00  0.00000000000E+00  0.71770924816E+03  0.71770924818E+03  0.50400001928E-02 0.  1.
        1   -1    0    0  501    0  0.00000000000E+00  0.00000000000E+00 -0.42240475802E+03  0.42240475805E+03  0.50400001928E-02 0. -1.
    10030    2    1    2    0    0  0.00000000000E+00  0.00000000000E+00  0.29530449014E+03  0.11401140062E+04  0.11012062501E+04 0.  0.
        3    1    3    3  502    0 -0.82647475364E+02  0.41272461418E+03 -0.21984185606E+03  0.47487120803E+03  0.10100000352E+00 0. -1.
       -3    1    3    3    0  502  0.82647475364E+02 -0.41272461418E+03  0.51514634621E+03  0.66524279820E+03  0.10100000352E+00 0.  1.
</event>
<event>
 5   0  0.1372794E-03  0.1100654E+04  0.7818609E-02  0.9204555E-01
       -2   -1    0    0    0  501  0.00000000000E+00  0.00000000000E+00  0.29998068373E+03  0.29998068374E+03  0.25500000920E-02 0.  1.
        2   -1    0    0  501    0  0.00000000000E+00  0.00000000000E+00 -0.10095968505E+04  0.10095968505E+04  0.25500000920E-02 0. -1.
    10030    2    1    2    0    0  0.00000000000E+00  0.00000000000E+00 -0.70961616677E+03  0.13095775342E+04  0.11006535395E+04 0.  0.
        4    1    3    3  502    0  0.39328012969E+03  0.22664202195E+03  0.15418647718E+02  0.45417531210E+03  0.12699999809E+01 0.  1.
       -4    1    3    3    0  502 -0.39328012969E+03 -0.22664202195E+03 -0.72503481449E+03  0.85540222214E+03  0.12699999809E+01 0. -1.
</event>
<event>
 5   0  0.1402775E-03  0.1078313E+04  0.7818609E-02  0.9226591E-01
       -2   -1    0    0    0  501  0.00000000000E+00  0.00000000000E+00  0.20339867642E+03  0.20339867643E+03  0.25500000920E-02 0. -1.
        2   -1    0    0  501    0  0.00000000000E+00  0.00000000000E+00 -0.14291620662E+04  0.14291620662E+04  0.25500000920E-02 0.  1.
    10030    2    1    2    0    0  0.00000000000E+00  0.00000000000E+00 -0.12257633898E+04  0.16325607427E+04  0.10783128909E+04 0.  0.
        5    1    3    3  502    0 -0.46420910562E+03  0.17576814835E+03 -0.93147988162E+03  0.10554910684E+04  0.46999998093E+01 0.  1.
       -5    1    3    3    0  502  0.46420910562E+03 -0.17576814835E+03 -0.29428350820E+03  0.57706967422E+03  0.46999998093E+01 0. -1.
</event>
<event>
 5   0  0.1425432E-03  0.1100758E+04  0.7818609E-02  0.9204454E-01
        2   -1    0    0  501    0  0.00000000000E+00  0.00000000000E+00  0.90617582709E+03  0.90617582709E+03  0.25500000920E-02 0. -1.
       -2   -1    0    0    0  501  0.00000000000E+00  0.00000000000E+00 -0.33428044954E+03  0.33428044955E+03  0.25500000920E-02 0.  1.
    10030    2    1    2    0    0  0.00000000000E+00  0.00000000000E+00  0.57189537755E+03  0.12404562766E+04  0.11007576715E+04 0.  0.
        1    1    3    3  502    0 -0.11618479859E+03  0.30923224327E+03  0.78203623870E+03  0.84894297003E+03  0.50400001928E-02 0. -1.
       -1    1    3    3    0  502  0.11618479859E+03 -0.30923224327E+03 -0.21014086115E+03  0.39151330661E+03  0.50400001928E-02 0.  1.
</event>
<event>
 5   0  0.7946038E-04  0.1100902E+04  0.7818609E-02  0.9204314E-01
       -1   -1    0    0    0  501  0.00000000000E+00  0.00000000000E+00  0.40215922365E+03  0.40215922368E+03  0.50400001928E-02 0. -1.
        1   -1    0    0  501    0  0.00000000000E+00  0.00000000000E+00 -0.75342316809E+03  0.75342316811E+03  0.50400001928E-02 0.  1.
    10030    2    1    2    0    0  0.00000000000E+00  0.00000000000E+00 -0.35126394444E+03  0.11555823918E+04  0.11009015876E+04 0.  0.
        4    1    3    3  502    0 -0.35457290741E+03 -0.35119776095E+03  0.68136926728E+02  0.50369243359E+03  0.12699999809E+01 0. -1.
       -4    1    3    3    0  502  0.35457290741E+03  0.35119776095E+03 -0.41940087117E+03  0.65188995820E+03  0.12699999809E+01 0.  1.
</event>
<event>
 5   0  0.1425432E-03  0.1100106E+04  0.7818609E-02  0.9205089E-01
       -2   -1    0    0    0  501  0.00000000000E+00  0.00000000000E+00  0.42989100335E+03  0.42989100336E+03  0.25500000920E-02 0.  1.
        2   -1    0    0  501    0  0.00000000000E+00  0.00000000000E+00 -0.70380226908E+03  0.70380226908E+03  0.25500000920E-02 0. -1.
    10030    2    1    2    0    0  0.00000000000E+00  0.00000000000E+00 -0.27391126572E+03  0.11336932724E+04  0.11001059288E+04 0.  0.
        1    1    3    3  502    0  0.24029544665E+03  0.49243465463E+03 -0.87270860771E+02  0.55484231447E+03  0.50400001928E-02 0. -1.
       -1    1    3    3    0  502 -0.24029544665E+03 -0.49243465463E+03 -0.18664040495E+03  0.57885095797E+03  0.50400001928E-02 0.  1.
</event>
<event>
 5   0  0.8341767E-04  0.1105368E+04  0.7818609E-02  0.9199975E-01
        1   -1    0    0  501    0  0.00000000000E+00  0.00000000000E+00  0.65092811947E+03  0.65092811949E+03  0.50400001928E-02 0. -1.
       -1   -1    0    0    0  501  0.00000000000E+00  0.00000000000E+00 -0.46926788503E+03  0.46926788505E+03  0.50400001928E-02 0.  1.
    10030    2    1    2    0    0  0.00000000000E+00  0.00000000000E+00  0.18166023444E+03  0.11201960045E+04  0.11053681051E+04 0.  0.
        2    1    3    3  502    0 -0.51955092635E+03  0.12252197859E+03 -0.54321335394E+02  0.53655904409E+03  0.25500000920E-02 0. -1.
       -2    1    3    3    0  502  0.51955092635E+03 -0.12252197859E+03  0.23598156984E+03  0.58363696046E+03  0.25500000920E-02 0.  1.
</event>
<event>
 5   0  0.1429680E-03  0.1102671E+04  0.7818609E-02  0.9202593E-01
        2   -1    0    0  501    0  0.00000000000E+00  0.00000000000E+00  0.83273382647E+03  0.83273382647E+03  0.25500000920E-02 0. -1.
       -2   -1    0    0    0  501  0.00000000000E+00  0.00000000000E+00 -0.36502746317E+03  0.36502746318E+03  0.25500000920E-02 0.  1.
    10030    2    1    2    0    0  0.00000000000E+00  0.00000000000E+00  0.46770636330E+03  0.11977612896E+04  0.11026707871E+04 0.  0.
        3    1    3    3  502    0  0.42803105903E+02 -0.10598065212E+03  0.81972319094E+03  0.82765338425E+03  0.10100000352E+00 0. -1.
       -3    1    3    3    0  502 -0.42803105903E+02  0.10598065212E+03 -0.35201682764E+03  0.37010790540E+03  0.10100000352E+00 0.  1.
</event>
<event>
 5   0  0.7946038E-04  0.1098690E+04  0.7818609E-02  0.9206470E-01
        1   -1    0    0  501    0  0.00000000000E+00  0.00000000000E+00  0.11333734001E+04  0.11333734001E+04  0.50400001928E-02 0. -1.
       -1   -1    0    0    0  501  0.00000000000E+00  0.00000000000E+00 -0.26626685916E+03  0.26626685920E+03  0.50400001928E-02 0.  1.
    10030    2    1    2    0    0  0.00000000000E+00  0.00000000000E+00  0.86710654089E+03  0.13996402593E+04  0.10986897206E+04 0.  0.
        4    1    3    3  502    0 -0.16224690505E+03 -0.19883332254E+03  0.10523146591E+04  0.10831558074E+04  0.12699999809E+01 0. -1.
       -4    1    3    3    0  502  0.16224690505E+03  0.19883332254E+03 -0.18520811821E+03  0.31648445191E+03  0.12699999809E+01 0.  1.
</event>
<event>
 5   0  0.7946038E-04  0.1098253E+04  0.7818609E-02  0.9206896E-01
       -1   -1    0    0    0  501  0.00000000000E+00  0.00000000000E+00  0.12171695072E+04  0.12171695072E+04  0.50400001928E-02 0.  1.
        1   -1    0    0  501    0  0.00000000000E+00  0.00000000000E+00 -0.24773861068E+03  0.24773861073E+03  0.50400001928E-02 0. -1.
    10030    2    1    2    0    0  0.00000000000E+00  0.00000000000E+00  0.96943089656E+03  0.14649081180E+04  0.10982529449E+04 0.  0.
        4    1    3    3  502    0 -0.45149743401E+03 -0.83067005669E+02  0.82811072386E+02  0.46648617017E+03  0.12699999809E+01 0. -1.
       -4    1    3    3    0  502  0.45149743401E+03  0.83067005669E+02  0.88661982417E+03  0.99842194781E+03  0.12699999809E+01 0.  1.
</event>
<event>
 5   0  0.1425432E-03  0.1072111E+04  0.7818609E-02  0.9232809E-01
        2   -1    0    0  501    0  0.00000000000E+00  0.00000000000E+00  0.19711042882E+04  0.19711042882E+04  0.25500000920E-02 0.  1.
       -2   -1    0    0    0  501  0.00000000000E+00  0.00000000000E+00 -0.14578402602E+03  0.14578402604E+03  0.25500000920E-02 0. -1.
    10030    2    1    2    0    0  0.00000000000E+00  0.00000000000E+00  0.18253202622E+04  0.21168883143E+04  0.10721110369E+04 0.  0.
        1    1    3    3  502    0 -0.53250100595E+03  0.37785273654E+02  0.10087937887E+04  0.11413369162E+04  0.50400001928E-02 0.  1.
       -1    1    3    3    0  502  0.53250100595E+03 -0.37785273654E+02  0.81652647355E+03  0.97555139807E+03  0.50400001928E-02 0. -1.
</event>
<event>
 5   0  0.1372794E-03  0.1115282E+04  0.7818609E-02  0.9190423E-01
        2   -1    0    0  501    0  0.00000000000E+00  0.00000000000E+00  0.14466389166E+04  0.14466389166E+04  0.25500000920E-02 0.  1.
       -2   -1    0    0    0  501  0.00000000000E+00  0.00000000000E+00 -0.21495598286E+03  0.21495598287E+03  0.25500000920E-02 0. -1.
    10030    2    1    2    0    0  0.00000000000E+00  0.00000000000E+00  0.12316829337E+04  0.16615948995E+04  0.11152823681E+04 0.  0.
        4    1    3    3  502    0 -0.36384893074E+03  0.31886882196E+03  0.10289839291E+04  0.11370456936E+04  0.12699999809E+01 0. -1.
       -4    1    3    3    0  502  0.36384893074E+03 -0.31886882196E+03  0.20269900462E+03  0.52454920588E+03  0.12699999809E+01 0.  1.
</event>
<event>
 5   0  0.8305271E-04  0.1100362E+04  0.7818609E-02  0.9204839E-01
       -1   -1    0    0    0  501  0.00000000000E+00  0.00000000000E+00  0.18036979024E+03  0.18036979031E+03  0.50400001928E-02 0.  1.
        1   -1    0    0  501    0  0.00000000000E+00  0.00000000000E+00 -0.16782151103E+04  0.16782151103E+04  0.50400001928E-02 0. -1.
    10030    2    1    2    0    0  0.00000000000E+00  0.00000000000E+00 -0.14978453200E+04  0.18585849006E+04  0.11003623176E+04 0.  0.
        5    1    3    3  502    0 -0.73886537892E+02  0.54299612022E+03 -0.83120655100E+03  0.99560555818E+03  0.46999998093E+01 0.  1.
       -5    1    3    3    0  502  0.73886537892E+02 -0.54299612022E+03 -0.66663876903E+03  0.86297934241E+03  0.46999998093E+01 0. -1.
</event>
<event>
 5   0  0.1425432E-03  0.1097852E+04  0.7818609E-02  0.9207288E-01
       -2   -1    0    0    0  501  0.00000000000E+00  0.00000000000E+00  0.82051097125E+03  0.82051097125E+03  0.25500000920E-02 0.  1.
        2   -1    0    0  501    0  0.00000000000E+00  0.00000000000E+00 -0.36723421023E+03  0.36723421024E+03  0.25500000920E-02 0. -1.
    10030    2    1    2    0    0  0.00000000000E+00  0.00000000000E+00  0.45327676101E+03  0.11877451815E+04  0.10978518999E+04 0.  0.
        1    1    3    3  502    0 -0.81534695769E+02  0.65809836364E+02 -0.35631469368E+03  0.37140140298E+03  0.50400001928E-02 0. -1.
       -1    1    3    3    0  502  0.81534695769E+02 -0.65809836364E+02  0.80959145470E+03  0.81634377852E+03  0.50400001928E-02 0.  1.
</event>
<event>
 5   0  0.1429680E-03  0.1109498E+04  0.7818609E-02  0.9195983E-01
        2   -1    0    0  501    0  0.00000000000E+00  0.00000000000E+00  0.70824253980E+03  0.70824253980E+03  0.25500000920E-02 0.  1.
       -2   -1    0    0    0  501  0.00000000000E+00  0.00000000000E+00 -0.43452156016E+03  0.43452156017E+03  0.25500000920E-02 0. -1.
    10030    2    1    2    0    0  0.00000000000E+00  0.00000000000E+00  0.27372097963E+03  0.11427641000E+04  0.11094983612E+04 0.  0.
        3    1    3    3  502    0  0.18832526801E+03 -0.49677477825E+02 -0.39814823409E+03  0.44323389411E+03  0.10100000352E+00 0. -1.
       -3    1    3    3    0  502 -0.18832526801E+03  0.49677477825E+02  0.67186921372E+03  0.69953020587E+03  0.10100000352E+00 0.  1.
</event>
<event>
 5   0  0.8009636E-04  0.1096528E+04  0.7818609E-02  0.9208583E-01
        1   -1    0    0  501    0  0.00000000000E+00  0.00000000000E+00  0.33900273536E+03  0.33900273540E+03  0.50400001928E-02 0. -1.
       -1   -1    0    0    0  501  0.00000000000E+00  0.00000000000E+00 -0.88669878105E+03  0.88669878107E+03  0.50400001928E-02 0.  1.
    10030    2    1    2    0    0  0.00000000000E+00  0.00000000000E+00 -0.54769604569E+03  0.12257015165E+04  0.10965278150E+04 0.  0.
        1    1    3    3  502    0  0.28436901783E+03 -0.14990594982E+03  0.22260703522E+03  0.39101333002E+03  0.50400001928E-02 0. -1.
       -1    1    3    3    0  502 -0.28436901783E+03  0.14990594982E+03 -0.77030308092E+03  0.83468818645E+03  0.50400001928E-02 0.  1.
</event>
<event>
 5   0  0.7946038E-04  0.1099349E+04  0.7818609E-02  0.9205827E-01
       -1   -1    0    0    0  501  0.00000000000E+00  0.00000000000E+00  0.27668196215E+03  0.27668196220E+03  0.50400001928E-02 0.  1.
        1   -1    0    0  501    0  0.00000000000E+00  0.00000000000E+00 -0.10920193887E+04  0.10920193887E+04  0.50400001928E-02 0. -1.
    10030    2    1    2    0    0  0.00000000000E+00  0.00000000000E+00 -0.81533742659E+03  0.13687013509E+04  0.10993490205E+04 0.  0.
        4    1    3    3  502    0  0.26129074158E+03  0.10800010792E+03  0.17921036471E+03  0.33474593749E+03  0.12699999809E+01 0.  1.
       -4    1    3    3    0  502 -0.26129074158E+03 -0.10800010792E+03 -0.99454779130E+03  0.10339554135E+04  0.12699999809E+01 0. -1.
</event>
<event>
 5   0  0.8150924E-04  0.1097628E+04  0.7818609E-02  0.9207507E-01
        1   -1    0    0  501    0  0.00000000000E+00  0.00000000000E+00  0.23190592889E+03  0.23190592895E+03  0.50400001928E-02 0. -1.
       -1   -1    0    0    0  501  0.00000000000E+00  0.00000000000E+00 -0.12987886309E+04  0.12987886309E+04  0.50400001928E-02 0.  1.
    10030    2    1    2    0    0  0.00000000000E+00  0.00000000000E+00 -0.10668827020E+04  0.15306945598E+04  0.10976279587E+04 0.  0.
        3    1    3    3  502    0  0.33493110517E+03  0.41723392019E+03 -0.36302223201E+03  0.64656642389E+03  0.10100000352E+00 0. -1.
       -3    1    3    3    0  502 -0.33493110517E+03 -0.41723392019E+03 -0.70386046998E+03  0.88412813594E+03  0.10100000352E+00 0.  1.
</event>
<event>
 5   0  0.8305271E-04  0.1096657E+04  0.7818609E-02  0.9208456E-01
        1   -1    0    0  501    0  0.00000000000E+00  0.00000000000E+00  0.11113006449E+04  0.11113006449E+04  0.50400001928E-02 0. -1.
       -1   -1    0    0    0  501  0.00000000000E+00  0.00000000000E+00 -0.27055164585E+03  0.27055164590E+03  0.50400001928E-02 0.  1.
    10030    2    1    2    0    0  0.00000000000E+00  0.00000000000E+00  0.84074899903E+03  0.13818522908E+04  0.10966571361E+04 0.  0.
        5    1    3    3  502    0  0.48361432795E+02  0.54502604041E+03  0.37582620249E+03  0.66382199224E+03  0.46999998093E+01 0.  1.
       -5    1    3    3    0  502 -0.48361432795E+02 -0.54502604041E+03  0.46492279655E+03  0.71803029856E+03  0.46999998093E+01 0. -1.
</event>
<event>
 5   0  0.5409500E-04  0.1096619E+04  0.7818609E-02  0.9208494E-01
        3   -1    0    0  501    0  0.00000000000E+00  0.00000000000E+00  0.34161882741E+03  0.34161884234E+03  0.10100000352E+00 0. -1.
       -3   -1    0    0    0  501  0.00000000000E+00  0.00000000000E+00 -0.88005476837E+03  0.88005477416E+03  0.10100000352E+00 0.  1.
    10030    2    1    2    0    0  0.00000000000E+00  0.00000000000E+00 -0.53843594096E+03  0.12216736165E+04  0.10966189688E+04 0.  0.
        5    1    3    3  502    0 -0.52897940551E+02  0.40550245078E+03  0.13765827226E+03  0.43151166801E+03  0.46999998093E+01 0. -1.
       -5    1    3    3    0  502  0.52897940551E+02 -0.40550245078E+03 -0.67609421322E+03  0.79016194849E+03  0.46999998093E+01 0.  1.
</event>
<event>
 5   0  0.8150924E-04  0.1086472E+04  0.7818609E-02  0.9218478E-01
       -1   -1    0    0    0  501  0.00000000000E+00  0.00000000000E+00  0.65615071170E+03  0.65615071172E+03  0.50400001928E-02 0.  1.
        1   -1    0    0  501    0  0.00000000000E+00  0.00000000000E+00 -0.44975264507E+03  0.44975264510E+03  0.50400001928E-02 0. -1.
    10030    2    1    2    0    0  0.00000000000E+00  0.00000000000E+00  0.20639806663E+03  0.11059033568E+04  0.10864723065E+04 0.  0.
        3    1    3    3  502    0 -0.50937045724E+03  0.82459112562E+02 -0.69684811818E+02  0.52068584689E+03  0.10100000352E+00 0. -1.
       -3    1    3    3    0  502  0.50937045724E+03 -0.82459112562E+02  0.27608287845E+03  0.58521750993E+03  0.10100000352E+00 0.  1.
</event>
<event>
 5   0  0.1372794E-03  0.1101808E+04  0.7818609E-02  0.9203431E-01
        2   -1    0    0  501    0  0.00000000000E+00  0.00000000000E+00  0.18345092609E+04  0.18345092609E+04  0.25500000920E-02 0.  1.
       -2   -1    0    0    0  501  0.00000000000E+00  0.00000000000E+00 -0.16543683023E+03  0.16543683024E+03  0.25500000920E-02 0. -1.
    10030    2    1    2    0    0  0.00000000000E+00  0.00000000000E+00  0.16690724307E+04  0.19999460912E+04  0.11018083266E+04 0.  0.
        4    1    3    3  502    0 -0.37458124188E+03  0.22935759568E+02  0.15665986506E+04  0.16109221274E+04  0.12699999809E+01 0.  1.
       -4    1    3    3    0  502  0.37458124188E+03 -0.22935759568E+02  0.10247378013E+03  0.38902396372E+03  0.12699999809E+01 0. -1.
</event>
<event>
 5   0  0.1425432E-03  0.1109119E+04  0.7818609E-02  0.9196349E-01
       -2   -1    0    0    0  501  0.00000000000E+00  0.00000000000E+00  0.30940919350E+03  0.30940919351E+03  0.25500000920E-02 0.  1.
        2   -1    0    0  501    0  0.00000000000E+00  0.00000000000E+00 -0.99394622006E+03  0.99394622006E+03  0.25500000920E-02 0. -1.
    10030    2    1    2    0    0  0.00000000000E+00  0.00000000000E+00 -0.68453702656E+03  0.13033554136E+04  0.11091187463E+04 0.  0.
        1    1    3    3  502    0 -0.44100962513E+03  0.95100799780E+02  0.36703023318E+02  0.45263756309E+03  0.50400001928E-02 0. -1.
       -1    1    3    3    0  502  0.44100962513E+03 -0.95100799780E+02 -0.72124004987E+03  0.85071785049E+03  0.50400001928E-02 0.  1.
</event>
<event>
 5   0  0.8341767E-04  0.1098070E+04  0.7818609E-02  0.9207075E-01
        1   -1    0    0  501    0  0.00000000000E+00  0.00000000000E+00  0.16733105031E+04  0.16733105031E+04  0.50400001928E-02 0.  1.
       -1   -1    0    0    0  501  0.00000000000E+00  0.00000000000E+00 -0.18014548025E+03  0.18014548032E+03  0.50400001928E-02 0. -1.
    10030    2    1    2    0    0  0.00000000000E+00  0.00000000000E+00  0.14931650228E+04  0.18534559834E+04  0.10980698052E+04 0.  0.
        2    1    3    3  502    0  0.38070096577E+03  0.16437754735E+03  0.13919768609E+03  0.43741193311E+03  0.25500000920E-02 0. -1.
       -2    1    3    3    0  502 -0.38070096577E+03 -0.16437754735E+03  0.13539673368E+04  0.14160440503E+04  0.25500000920E-02 0.  1.
</event>
<event>
 5   0  0.1402775E-03  0.1103299E+04  0.7818609E-02  0.9201982E-01
       -2   -1    0    0    0  501  0.00000000000E+00  0.00000000000E+00  0.78394878337E+03  0.78394878337E+03  0.25500000920E-02 0.  1.
        2   -1    0    0  501    0  0.00000000000E+00  0.00000000000E+00 -0.38818516736E+03  0.38818516737E+03  0.25500000920E-02 0. -1.
    10030    2    1    2    0    0  0.00000000000E+00  0.00000000000E+00  0.39576361601E+03  0.11721339507E+04  0.11032992154E+04 0.  0.
        5    1    3    3  502    0 -0.63273953343E+02 -0.36694616367E+03  0.63026551992E+03  0.73205860135E+03  0.46999998093E+01 0.  1.
       -5    1    3    3    0  502  0.63273953343E+02  0.36694616367E+03 -0.23450190392E+03  0.44007534939E+03  0.46999998093E+01 0. -1.
</event>
<event>
 5   0  0.8341767E-04  0.1098235E+04  0.7818609E-02  0.9206914E-01
       -1   -1    0    0    0  501  0.00000000000E+00  0.00000000000E+00  0.33537567420E+03  0.33537567423E+03  0.50400001928E-02 0. -1.
        1   -1    0    0  501    0  0.00000000000E+00  0.00000000000E+00 -0.89908078533E+03  0.89908078534E+03  0.50400001928E-02 0.  1.
    10030    2    1    2    0    0  0.00000000000E+00  0.00000000000E+00 -0.56370511114E+03  0.12344564596E+04  0.10982346281E+04 0.  0.
        2    1    3    3  502    0  0.33584510099E+03  0.54312030417E+02 -0.76634787460E+03  0.83846931573E+03  0.25500000920E-02 0.  1.
       -2    1    3    3    0  502 -0.33584510099E+03 -0.54312030417E+02  0.20264276346E+03  0.39598714385E+03  0.25500000920E-02 0. -1.
</event>
<event>
 5   0  0.1396936E-03  0.1102461E+04  0.7818609E-02  0.9202797E-01
        2   -1    0    0  501    0  0.00000000000E+00  0.00000000000E+00  0.28745115089E+03  0.28745115091E+03  0.25500000920E-02 0.  1.
       -2   -1    0    0    0  501  0.00000000000E+00  0.00000000000E+00 -0.10570667349E+04  0.10570667350E+04  0.25500000920E-02 0. -1.
    10030    2    1    2    0    0  0.00000000000E+00  0.00000000000E+00 -0.76961558405E+03  0.13445178859E+04  0.11024609735E+04 0.  0.
        2    1    3    3  502    0  0.32535229178E+03 -0.88826054444E+02 -0.91655697520E+03  0.97663753282E+03  0.25500000920E-02 0. -1.
       -2    1    3    3    0  502 -0.32535229178E+03  0.88826054444E+02  0.14694139114E+03  0.36788035304E+03  0.25500000920E-02 0.  1.
</event>
<event>
 5   0  0.1429680E-03  0.1106876E+04  0.7818609E-02  0.9198516E-01
       -2   -1    0    0    0  501  0.00000000000E+00  0.00000000000E+00  0.67459892413E+03  0.67459892413E+03  0.25500000920E-02 0.  1.
        2   -1    0    0  501    0  0.00000000000E+00  0.00000000000E+00 -0.45403777008E+03  0.45403777009E+03  0.25500000920E-02 0. -1.
    10030    2    1    2    0    0  0.00000000000E+00  0.00000000000E+00  0.22056115405E+03  0.11286366942E+04  0.11068755869E+04 0.  0.
        3    1    3    3  502    0  0.36569648932E+03 -0.41220081919E+03  0.57790929767E+02  0.55406068206E+03  0.10100000352E+00 0. -1.
       -3    1    3    3    0  502 -0.36569648932E+03  0.41220081919E+03  0.16277022428E+03  0.57457601216E+03  0.10100000352E+00 0.  1.
</event>
<event>
 5   0  0.5409500E-04  0.1099993E+04  0.7818609E-02  0.9205199E-01
        3   -1    0    0  501    0  0.00000000000E+00  0.00000000000E+00  0.95814841233E+03  0.95814841765E+03  0.10100000352E+00 0.  1.
       -3   -1    0    0    0  501  0.00000000000E+00  0.00000000000E+00 -0.31570889940E+03  0.31570891556E+03  0.10100000352E+00 0. -1.
    10030    2    1    2    0    0  0.00000000000E+00  0.00000000000E+00  0.64243951293E+03  0.12738573332E+04  0.10999927171E+04 0.  0.
        1    1    3    3  502    0  0.33427459539E+02 -0.35226526485E+03 -0.16638775338E+03  0.39101546820E+03  0.50400001928E-02 0. -1.
       -1    1    3    3    0  502 -0.33427459539E+02  0.35226526485E+03  0.80882726631E+03  0.88284186502E+03  0.50400001928E-02 0.  1.
</event>
<event>
 5   0  0.1425432E-03  0.1102345E+04  0.7818609E-02  0.9202909E-01
       -2   -1    0    0    0  501  0.00000000000E+00  0.00000000000E+00  0.55289435015E+03  0.55289435015E+03  0.25500000920E-02 0.  1.
        2   -1    0    0  501    0  0.00000000000E+00  0.00000000000E+00 -0.54945623474E+03  0.54945623475E+03  0.25500000920E-02 0. -1.
    10030    2    1    2    0    0  0.00000000000E+00  0.00000000000E+00  0.34381154018E+01  0.11023505849E+04  0.11023452233E+04 0.  0.
        1    1    3    3  502    0 -0.36149706762E+03 -0.42498171228E+02  0.41561118103E+03  0.55246617840E+03  0.50400001928E-02 0.  1.
       -1    1    3    3    0  502  0.36149706762E+03  0.42498171228E+02 -0.41217306563E+03  0.54988440650E+03  0.50400001928E-02 0. -1.
</event>
<event>
 5   0  0.1372794E-03  0.1100457E+04  0.7818609E-02  0.9204747E-01
        2   -1    0    0  501    0  0.00000000000E+00  0.00000000000E+00  0.19301117645E+04  0.19301117645E+04  0.25500000920E-02 0.  1.
       -2   -1    0    0    0  501  0.00000000000E+00  0.00000000000E+00 -0.15685692571E+03  0.15685692573E+03  0.25500000920E-02 0. -1.
    10030    2    1    2    0    0  0.00000000000E+00  0.00000000000E+00  0.17732548387E+04  0.20869686902E+04  0.11004569917E+04 0.  0.
        4    1    3    3  502    0 -0.11316480240E+03  0.30322605770E+03  0.17304918475E+04  0.17604987821E+04  0.12699999809E+01 0.  1.
       -4    1    3    3    0  502  0.11316480240E+03 -0.30322605770E+03  0.42762991255E+02  0.32646990810E+03  0.12699999809E+01 0. -1.
</event>
<event>
 5   0  0.8305271E-04  0.1102516E+04  0.7818609E-02  0.9202743E-01
       -1   -1    0    0    0  501  0.00000000000E+00  0.00000000000E+00  0.55493743096E+03  0.55493743098E+03  0.50400001928E-02 0. -1.
        1   -1    0    0  501    0  0.00000000000E+00  0.00000000000E+00 -0.54760299875E+03  0.54760299877E+03  0.50400001928E-02 0.  1.
    10030    2    1    2    0    0  0.00000000000E+00  0.00000000000E+00  0.73344322145E+01  0.11025404298E+04  0.11025160341E+04 0.  0.
        5    1    3    3  502    0  0.35877652906E+03 -0.20957587930E+03  0.36591916093E+03  0.55368002432E+03  0.46999998093E+01 0. -1.
       -5    1    3    3    0  502 -0.35877652906E+03  0.20957587930E+03 -0.35858472872E+03  0.54886040544E+03  0.46999998093E+01 0.  1.
</event>
<event>
 5   0  0.7946038E-04  0.1097304E+04  0.7818609E-02  0.9207824E-01
       -1   -1    0    0    0  501  0.00000000000E+00  0.00000000000E+00  0.20336604691E+03  0.20336604698E+03  0.50400001928E-02 0. -1.
        1   -1    0    0  501    0  0.00000000000E+00  0.00000000000E+00 -0.14801831300E+04  0.14801831300E+04  0.50400001928E-02 0.  1.
    10030    2    1    2    0    0  0.00000000000E+00  0.00000000000E+00 -0.12768170831E+04  0.16835491770E+04  0.10973039541E+04 0.  0.
        4    1    3    3  502    0  0.43655627671E+03 -0.32794677669E+03 -0.72084424169E+03  0.90429447900E+03  0.12699999809E+01 0.  1.
       -4    1    3    3    0  502 -0.43655627671E+03  0.32794677669E+03 -0.55597284143E+03  0.77925469802E+03  0.12699999809E+01 0. -1.
</event>
<event>
 5   0  0.8305271E-04  0.1096985E+04  0.7818609E-02  0.9208135E-01
        1   -1    0    0  501    0  0.00000000000E+00  0.00000000000E+00  0.26770888904E+04  0.26770888904E+04  0.50400001928E-02 0.  1.
       -1   -1    0    0    0  501  0.00000000000E+00  0.00000000000E+00 -0.11237737865E+03  0.11237737876E+03  0.50400001928E-02 0. -1.
    10030    2    1    2    0    0  0.00000000000E+00  0.00000000000E+00  0.25647115118E+04  0.27894662692E+04  0.10969853820E+04 0.  0.
        5    1    3    3  502    0 -0.33077382045E+03 -0.25966471045E+03  0.38698078102E+03  0.57150091603E+03  0.46999998093E+01 0. -1.
       -5    1    3    3    0  502  0.33077382045E+03  0.25966471045E+03  0.21777307307E+04  0.22179653531E+04  0.46999998093E+01 0.  1.
</event>
<event>
 5   0  0.1429680E-03  0.1102120E+04  0.7818609E-02  0.9203128E-01
        2   -1    0    0  501    0  0.00000000000E+00  0.00000000000E+00  0.13371299938E+04  0.13371299938E+04  0.25500000920E-02 0.  1.
       -2   -1    0    0    0  501  0.00000000000E+00  0.00000000000E+00 -0.22710364326E+03  0.22710364327E+03  0.25500000920E-02 0. -1.
    10030    2    1    2    0    0  0.00000000000E+00  0.00000000000E+00  0.11100263506E+04  0.15642336371E+04  0.11021199447E+04 0.  0.
        3    1    3    3  502    0  0.46611055927E+03  0.29206262019E+03  0.60224512474E+03  0.81563400374E+03  0.10100000352E+00 0.  1.
       -3    1    3    3    0  502 -0.46611055927E+03 -0.29206262019E+03  0.50778122584E+03  0.74859963338E+03  0.10100000352E+00 0. -1.
</event>
<event>
 5   0  0.1396936E-03  0.1095179E+04  0.7818609E-02  0.9209903E-01
        2   -1    0    0  501    0  0.00000000000E+00  0.00000000000E+00  0.61526160043E+03  0.61526160043E+03  0.25500000920E-02 0.  1.
       -2   -1    0    0    0  501  0.00000000000E+00  0.00000000000E+00 -0.48736087962E+03  0.48736087963E+03  0.25500000920E-02 0. -1.
    10030    2    1    2    0    0  0.00000000000E+00  0.00000000000E+00  0.12790072080E+03  0.11026224801E+04  0.10951793183E+04 0.  0.
        2    1    3    3  502    0 -0.48255179052E+03 -0.60769448166E+02  0.31726574717E+03  0.58069502382E+03  0.25500000920E-02 0.  1.
       -2    1    3    3    0  502  0.48255179052E+03  0.60769448166E+02 -0.18936502636E+03  0.52192745624E+03  0.25500000920E-02 0. -1.
</event>
<event>
 5   0  0.1402775E-03  0.1088132E+04  0.7818609E-02  0.9216837E-01
        2   -1    0    0  501    0  0.00000000000E+00  0.00000000000E+00  0.15707804808E+04  0.15707804808E+04  0.25500000920E-02 0.  1.
       -2   -1    0    0    0  501  0.00000000000E+00  0.00000000000E+00 -0.18844643576E+03  0.18844643578E+03  0.25500000920E-02 0. -1.
    10030    2    1    2    0    0  0.00000000000E+00  0.00000000000E+00  0.13823340451E+04  0.17592269166E+04  0.10881323136E+04 0.  0.
        5    1    3    3  502    0  0.77159972892E+02  0.53532373192E+03  0.59605744777E+03  0.80487994783E+03  0.46999998093E+01 0.  1.
       -5    1    3    3    0  502 -0.77159972892E+02 -0.53532373192E+03  0.78627659730E+03  0.95434696879E+03  0.46999998093E+01 0. -1.
</event>
<event>
 5   0  0.7946038E-04  0.1109699E+04  0.7818609E-02  0.9195790E-01
        1   -1    0    0  501    0  0.00000000000E+00  0.00000000000E+00  0.52952960800E+03  0.52952960803E+03  0.50400001928E-02 0.  1.
       -1   -1    0    0    0  501  0.00000000000E+00  0.00000000000E+00 -0.58138035679E+03  0.58138035681E+03  0.50400001928E-02 0. -1.
    10030    2    1    2    0    0  0.00000000000E+00  0.00000000000E+00 -0.51850748791E+02  0.11109099648E+04  0.11096992610E+04 0.  0.
        4    1    3    3  502    0  0.38429395957E+03 -0.37043292126E+03 -0.17759678611E+03  0.56253411261E+03  0.12699999809E+01 0. -1.
       -4    1    3    3    0  502 -0.38429395957E+03  0.37043292126E+03  0.12574603732E+03  0.54837585223E+03  0.12699999809E+01 0.  1.
</event>
<event>
 5   0  0.8009636E-04  0.1098996E+04  0.7818609E-02  0.9206171E-01
        1   -1    0    0  501    0  0.00000000000E+00  0.00000000000E+00  0.94610622938E+03  0.94610622940E+03  0.50400001928E-02 0.  1.
       -1   -1    0    0    0  501  0.00000000000E+00  0.00000000000E+00 -0.31914802633E+03  0.31914802637E+03  0.50400001928E-02 0. -1.
    10030    2    1    2    0    0  0.00000000000E+00  0.00000000000E+00  0.62695820305E+03  0.12652542558E+04  0.10989957886E+04 0.  0.
        1    1    3    3  502    0 -0.21759385370E+03 -0.32381776011E+03 -0.13202828729E+03  0.41186951283E+03  0.50400001928E-02 0. -1.
       -1    1    3    3    0  502  0.21759385370E+03  0.32381776011E+03  0.75898649034E+03  0.85338474294E+03  0.50400001928E-02 0.  1.
</event>
<event>
 5   0  0.1396936E-03  0.1100830E+04  0.7818609E-02  0.9204383E-01
        2   -1    0    0  501    0  0.00000000000E+00  0.00000000000E+00  0.10651202016E+04  0.10651202016E+04  0.25500000920E-02 0.  1.
       -2   -1    0    0    0  501  0.00000000000E+00  0.00000000000E+00 -0.28443415409E+03  0.28443415410E+03  0.25500000920E-02 0. -1.
    10030    2    1    2    0    0  0.00000000000E+00  0.00000000000E+00  0.78068604752E+03  0.13495543557E+04  0.11008298026E+04 0.  0.
        2    1    3    3  502    0 -0.11319812276E+03 -0.28280554267E+03  0.95235960851E+03  0.99989080098E+03  0.25500000920E-02 0.  1.
       -2    1    3    3    0  502  0.11319812276E+03  0.28280554267E+03 -0.17167356099E+03  0.34966355474E+03  0.25500000920E-02 0. -1.
</event>
<event>
 5   0  0.5409500E-04  0.1103607E+04  0.7818609E-02  0.9201684E-01
        3   -1    0    0  501    0  0.00000000000E+00  0.00000000000E+00  0.38879751611E+03  0.38879752923E+03  0.10100000352E+00 0.  1.
       -3   -1    0    0    0  501  0.00000000000E+00  0.00000000000E+00 -0.78315053169E+03  0.78315053821E+03  0.10100000352E+00 0. -1.
    10030    2    1    2    0    0  0.00000000000E+00  0.00000000000E+00 -0.39435301559E+03  0.11719480674E+04  0.11036068013E+04 0.  0.
        4    1    3    3  502    0 -0.50956287295E+03  0.12065799660E+03 -0.38194147259E+03  0.64814626051E+03  0.12699999809E+01 0. -1.
       -4    1    3    3    0  502  0.50956287295E+03 -0.12065799660E+03 -0.12411542995E+02  0.52380180692E+03  0.12699999809E+01 0.  1.
</event>
<event>
 5   0  0.7946038E-04  0.1105067E+04  0.7818609E-02  0.9200267E-01
        1   -1    0    0  501    0  0.00000000000E+00  0.00000000000E+00  0.75811813678E+03  0.75811813680E+03  0.50400001928E-02 0.  1.
       -1   -1    0    0    0  501  0.00000000000E+00  0.00000000000E+00 -0.40269865846E+03  0.40269865849E+03  0.50400001928E-02 0. -1.
    10030    2    1    2    0    0  0.00000000000E+00  0.00000000000E+00  0.35541947832E+03  0.11608167953E+04  0.11050667974E+04 0.  0.
        4    1    3    3  502    0 -0.12745066831E+03 -0.53728539657E+03  0.15744195665E+03  0.57420279766E+03  0.12699999809E+01 0. -1.
       -4    1    3    3    0  502  0.12745066831E+03  0.53728539657E+03  0.19797752168E+03  0.58661399763E+03  0.12699999809E+01 0.  1.
</event>
<event>
 5   0  0.1372794E-03  0.1100563E+04  0.7818609E-02  0.9204643E-01
       -2   -1    0    0    0  501  0.00000000000E+00  0.00000000000E+00  0.33120371877E+03  0.33120371878E+03  0.25500000920E-02 0.  1.
        2   -1    0    0  501    0  0.00000000000E+00  0.00000000000E+00 -0.91427084908E+03  0.91427084908E+03  0.25500000920E-02 0. -1.
    10030    2    1    2    0    0  0.00000000000E+00  0.00000000000E+00 -0.58306713031E+03  0.12454745679E+04  0.11005633197E+04 0.  0.
        4    1    3    3  502    0 -0.21097486982E+03  0.23244275098E+03 -0.80300369845E+03  0.86218129230E+03  0.12699999809E+01 0. -1.
       -4    1    3    3    0  502  0.21097486982E+03 -0.23244275098E+03  0.21993656814E+03  0.38329327556E+03  0.12699999809E+01 0.  1.
</event>
<event>
 5   0  0.8305271E-04  0.1112056E+04  0.7818609E-02  0.9193520E-01
       -1   -1    0    0    0  501  0.00000000000E+00  0.00000000000E+00  0.11558589177E+04  0.11558589177E+04  0.50400001928E-02 0. -1.
        1   -1    0    0  501    0  0.00000000000E+00  0.00000000000E+00 -0.26747846548E+03  0.26747846553E+03  0.50400001928E-02 0.  1.
    10030    2    1    2    0    0  0.00000000000E+00  0.00000000000E+00  0.88838045220E+03  0.14233373832E+04  0.11120564188E+04 0.  0.
        5    1    3    3  502    0 -0.21738542306E+03 -0.39071377702E+03  0.86720465984E+03  0.97569446537E+03  0.46999998093E+01 0. -1.
       -5    1    3    3    0  502  0.21738542306E+03  0.39071377702E+03  0.21175792359E+02  0.44764291784E+03  0.46999998093E+01 0.  1.
</event>
<event>
 5   0  0.1402775E-03  0.1101110E+04  0.7818609E-02  0.9204111E-01
        2   -1    0    0  501    0  0.00000000000E+00  0.00000000000E+00  0.69899061153E+03  0.69899061153E+03  0.25500000920E-02 0.  1.
       -2   -1    0    0    0  501  0.00000000000E+00  0.00000000000E+00 -0.43364082845E+03  0.43364082846E+03  0.25500000920E-02 0. -1.
    10030    2    1    2    0    0  0.00000000000E+00  0.00000000000E+00  0.26534978307E+03  0.11326314400E+04  0.11011101087E+04 0.  0.
        5    1    3    3  502    0 -0.47426470632E+03 -0.23437572155E+03  0.28945121666E+03  0.60304484687E+03  0.46999998093E+01 0. -1.
       -5    1    3    3    0  502  0.47426470632E+03  0.23437572155E+03 -0.24101433590E+02  0.52958659312E+03  0.46999998093E+01 0.  1.
</event>
<event>
 5   0  0.1425432E-03  0.1101021E+04  0.7818609E-02  0.9204198E-01
       -2   -1    0    0    0  501  0.00000000000E+00  0.00000000000E+00  0.32407383609E+03  0.32407383610E+03  0.25500000920E-02 0.  1.
        2   -1    0    0  501    0  0.00000000000E+00  0.00000000000E+00 -0.93516220129E+03  0.93516220129E+03  0.25500000920E-02 0. -1.
    10030    2    1    2    0    0  0.00000000000E+00  0.00000000000E+00 -0.61108836519E+03  0.12592360374E+04  0.11010206210E+04 0.  0.
        1    1    3    3  502    0 -0.37100907962E+03 -0.40442282391E+03 -0.35481682528E+03  0.65352929329E+03  0.50400001928E-02 0. -1.
       -1    1    3    3    0  502  0.37100907962E+03  0.40442282391E+03 -0.25627153991E+03  0.60570674410E+03  0.50400001928E-02 0.  1.
</event>
<event>
 5   0  0.8150924E-04  0.1097592E+04  0.7818609E-02  0.9207542E-01
        1   -1    0    0  501    0  0.00000000000E+00  0.00000000000E+00  0.98820963219E+03  0.98820963220E+03  0.50400001928E-02 0. -1.
       -1   -1    0    0    0  501  0.00000000000E+00  0.00000000000E+00 -0.30477029940E+03  0.30477029944E+03  0.50400001928E-02 0.  1.
    10030    2    1    2    0    0  0.00000000000E+00  0.00000000000E+00  0.68343933279E+03  0.12929799316E+04  0.10975918103E+04 0.  0.
        3    1    3    3  502    0 -0.50736677122E+03  0.11140771701E+03  0.13316033417E+03  0.53625031911E+03  0.10100000352E+00 0. -1.
       -3    1    3    3    0  502  0.50736677122E+03 -0.11140771701E+03  0.55027899862E+03  0.75672961253E+03  0.10100000352E+00 0.  1.
</event>
<event>
 5   0  0.5409500E-04  0.1096424E+04  0.7818609E-02  0.9208684E-01
        3   -1    0    0  501    0  0.00000000000E+00  0.00000000000E+00  0.50757456670E+03  0.50757457675E+03  0.10100000352E+00 0. -1.
       -3   -1    0    0    0  501  0.00000000000E+00  0.00000000000E+00 -0.59210281887E+03  0.59210282749E+03  0.10100000352E+00 0.  1.
    10030    2    1    2    0    0  0.00000000000E+00  0.00000000000E+00 -0.84528252169E+02  0.10996774042E+04  0.10964238998E+04 0.  0.
        5    1    3    3  502    0  0.13543352460E+03 -0.34126928222E+03 -0.45054366385E+03  0.58122168370E+03  0.46999998093E+01 0.  1.
       -5    1    3    3    0  502 -0.13543352460E+03  0.34126928222E+03  0.36601541168E+03  0.51845572054E+03  0.46999998093E+01 0. -1.
</event>
<event>
 5   0  0.8341767E-04  0.1101647E+04  0.7818609E-02  0.9203588E-01
       -1   -1    0    0    0  501  0.00000000000E+00  0.00000000000E+00  0.51836750184E+03  0.51836750187E+03  0.50400001928E-02 0.  1.
        1   -1    0    0  501    0  0.00000000000E+00  0.00000000000E+00 -0.58531120475E+03  0.58531120477E+03  0.50400001928E-02 0. -1.
    10030    2    1    2    0    0  0.00000000000E+00  0.00000000000E+00 -0.66943702910E+02  0.11036787066E+04  0.11016465986E+04 0.  0.
        2    1    3    3  502    0  0.12651544323E+03 -0.52067259958E+03 -0.16137956878E+03  0.55959760414E+03  0.25500000920E-02 0.  1.
       -2    1    3    3    0  502 -0.12651544323E+03  0.52067259958E+03  0.94435865867E+02  0.54408110250E+03  0.25500000920E-02 0. -1.
</event>
<event>
 5   0  0.7946038E-04  0.1102031E+04  0.7818609E-02  0.9203215E-01
        1   -1    0    0  501    0  0.00000000000E+00  0.00000000000E+00  0.65837958822E+03  0.65837958824E+03  0.50400001928E-02 0.  1.
       -1   -1    0    0    0  501  0.00000000000E+00  0.00000000000E+00 -0.46115950211E+03  0.46115950214E+03  0.50400001928E-02 0. -1.
    10030    2    1    2    0    0  0.00000000000E+00  0.00000000000E+00  0.19722008611E+03  0.11195390904E+04  0.11020308582E+04 0.  0.
        4    1    3    3  502    0 -0.80432406830E+02  0.13056334019E+03  0.63626325087E+03  0.65448353316E+03  0.12699999809E+01 0.  1.
       -4    1    3    3    0  502  0.80432406830E+02 -0.13056334019E+03 -0.43904316476E+03  0.46505555721E+03  0.12699999809E+01 0. -1.
</event>
<event>
 5   0  0.7946038E-04  0.1101064E+04  0.7818609E-02  0.9204156E-01
       -1   -1    0    0    0  501  0.00000000000E+00  0.00000000000E+00  0.34432625033E+03  0.34432625037E+03  0.50400001928E-02 0.  1.
        1   -1    0    0  501    0  0.00000000000E+00  0.00000000000E+00 -0.88022753847E+03  0.88022753848E+03  0.50400001928E-02 0. -1.
    10030    2    1    2    0    0  0.00000000000E+00  0.00000000000E+00 -0.53590128814E+03  0.12245537889E+04  0.11010639360E+04 0.  0.
        4    1    3    3  502    0  0.74738906881E+02  0.14642045841E+03 -0.85229152081E+03  0.86800190333E+03  0.12699999809E+01 0. -1.
       -4    1    3    3    0  502 -0.74738906881E+02 -0.14642045841E+03  0.31639023267E+03  0.35655188553E+03  0.12699999809E+01 0.  1.
</event>
<event>
 5   0  0.8009636E-04  0.1099466E+04  0.7818609E-02  0.9205712E-01
        1   -1    0    0  501    0  0.00000000000E+00  0.00000000000E+00  0.85977692359E+03  0.85977692360E+03  0.50400001928E-02 0.  1.
       -1   -1    0    0    0  501  0.00000000000E+00  0.00000000000E+00 -0.35149403959E+03  0.35149403963E+03  0.50400001928E-02 0. -1.
    10030    2    1    2    0    0  0.00000000000E+00  0.00000000000E+00  0.50828288399E+03  0.12112709632E+04  0.10994661687E+04 0.  0.
        1    1    3    3  502    0 -0.36549702244E+03  0.40893524591E+03  0.29522067535E+03  0.62287346703E+03  0.50400001928E-02 0. -1.
       -1    1    3    3    0  502  0.36549702244E+03 -0.40893524591E+03  0.21306220864E+03  0.58839749620E+03  0.50400001928E-02 0.  1.
</event>
<event>
 5   0  0.1402775E-03  0.1095697E+04  0.7818609E-02  0.9209396E-01
       -2   -1    0    0    0  501  0.00000000000E+00  0.00000000000E+00  0.43417430839E+03  0.43417430840E+03  0.25500000920E-02 0.  1.
        2   -1    0    0  501    0  0.00000000000E+00  0.00000000000E+00 -0.69128398954E+03  0.69128398954E+03  0.25500000920E-02 0. -1.
    10030    2    1    2    0    0  0.00000000000E+00  0.00000000000E+00 -0.25710968115E+03  0.11254582979E+04  0.10956965786E+04 0.  0.
        5    1    3    3  502    0  0.46380534944E+03 -0.48886065707E+01 -0.42797990896E+03  0.63113246876E+03  0.46999998093E+01 0. -1.
       -5    1    3    3    0  502 -0.46380534944E+03  0.48886065707E+01  0.17087022781E+03  0.49432582918E+03  0.46999998093E+01 0.  1.
</event>
<event>
 5   0  0.1396936E-03  0.1099092E+04  0.7818609E-02  0.9206077E-01
        2   -1    0    0  501    0  0.00000000000E+00  0.00000000000E+00  0.85513360056E+03  0.85513360056E+03  0.25500000920E-02 0. -1.
       -2   -1    0    0    0  501  0.00000000000E+00  0.00000000000E+00 -0.35316236223E+03  0.35316236224E+03  0.25500000920E-02 0.  1.
    10030    2    1    2    0    0  0.00000000000E+00  0.00000000000E+00  0.50197123833E+03  0.12082959628E+04  0.10990923572E+04 0.  0.
        2    1    3    3  502    0 -0.38623774666E+02 -0.13089069514E+03 -0.33423727449E+03  0.36102455001E+03  0.25500000920E-02 0.  1.
       -2    1    3    3    0  502  0.38623774666E+02  0.13089069514E+03  0.83620851281E+03  0.84727141280E+03  0.25500000920E-02 0. -1.
</event>
<event>
 5   0  0.8341767E-04  0.1100184E+04  0.7818609E-02  0.9205012E-01
       -1   -1    0    0    0  501  0.00000000000E+00  0.00000000000E+00  0.17749548408E+03  0.17749548415E+03  0.50400001928E-02 0.  1.
        1   -1    0    0  501    0  0.00000000000E+00  0.00000000000E+00 -0.17048390622E+04  0.17048390622E+04  0.50400001928E-02 0. -1.
    10030    2    1    2    0    0  0.00000000000E+00  0.00000000000E+00 -0.15273435781E+04  0.18823345463E+04  0.11001840477E+04 0.  0.
        2    1    3    3  502    0 -0.14676645040E+03  0.44260555777E+03 -0.26438248373E+03  0.53603933479E+03  0.25500000920E-02 0. -1.
       -2    1    3    3    0  502  0.14676645040E+03 -0.44260555777E+03 -0.12629610943E+04  0.13462952115E+04  0.25500000920E-02 0.  1.
</event>
<event>
 5   0  0.8009636E-04  0.1097748E+04  0.7818609E-02  0.9207390E-01
        1   -1    0    0  501    0  0.00000000000E+00  0.00000000000E+00  0.42560131770E+03  0.42560131773E+03  0.50400001928E-02 0. -1.
       -1   -1    0    0    0  501  0.00000000000E+00  0.00000000000E+00 -0.70785156085E+03  0.70785156087E+03  0.50400001928E-02 0.  1.
    10030    2    1    2    0    0  0.00000000000E+00  0.00000000000E+00 -0.28225024316E+03  0.11334528786E+04  0.10977477981E+04 0.  0.
        1    1    3    3  502    0  0.11550145577E+01 -0.63427380863E+02 -0.70405357319E+03  0.70690579333E+03  0.50400001928E-02 0.  1.
       -1    1    3    3    0  502 -0.11550145577E+01  0.63427380863E+02  0.42180333003E+03  0.42654708527E+03  0.50400001928E-02 0. -1.
</event>
<event>
 5   0  0.8150924E-04  0.1129773E+04  0.7818609E-02  0.9176649E-01
       -1   -1    0    0    0  501  0.00000000000E+00  0.00000000000E+00  0.69984739700E+03  0.69984739702E+03  0.50400001928E-02 0. -1.
        1   -1    0    0  501    0  0.00000000000E+00  0.00000000000E+00 -0.45595227981E+03  0.45595227984E+03  0.50400001928E-02 0.  1.
    10030    2    1    2    0    0  0.00000000000E+00  0.00000000000E+00  0.24389511719E+03  0.11557996769E+04  0.11297734573E+04 0.  0.
        3    1    3    3  502    0  0.11138940343E+03  0.30926447180E+02 -0.44372138161E+03  0.45853322566E+03  0.10100000352E+00 0.  1.
       -3    1    3    3    0  502 -0.11138940343E+03 -0.30926447180E+02  0.68761649880E+03  0.69726645119E+03  0.10100000352E+00 0. -1.
</event>
<event>
 5   0  0.8009636E-04  0.1101051E+04  0.7818609E-02  0.9204168E-01
        1   -1    0    0  501    0  0.00000000000E+00  0.00000000000E+00  0.11132049234E+04  0.11132049234E+04  0.50400001928E-02 0. -1.
       -1   -1    0    0    0  501  0.00000000000E+00  0.00000000000E+00 -0.27225738465E+03  0.27225738470E+03  0.50400001928E-02 0.  1.
    10030    2    1    2    0    0  0.00000000000E+00  0.00000000000E+00  0.84094753879E+03  0.13854623081E+04  0.11010508818E+04 0.  0.
        1    1    3    3  502    0  0.17105284535E+03 -0.33853590214E+03  0.92255742245E+03  0.99748575463E+03  0.50400001928E-02 0. -1.
       -1    1    3    3    0  502 -0.17105284535E+03  0.33853590214E+03 -0.81609883663E+02  0.38797655352E+03  0.50400001928E-02 0.  1.
</event>
<event>
 5   0  0.7946038E-04  0.1107317E+04  0.7818609E-02  0.9198089E-01
        1   -1    0    0  501    0  0.00000000000E+00  0.00000000000E+00  0.13027249235E+04  0.13027249235E+04  0.50400001928E-02 0. -1.
       -1   -1    0    0    0  501  0.00000000000E+00  0.00000000000E+00 -0.23530508016E+03  0.23530508021E+03  0.50400001928E-02 0.  1.
    10030    2    1    2    0    0  0.00000000000E+00  0.00000000000E+00  0.10674198434E+04  0.15380300038E+04  0.11073171047E+04 0.  0.
        4    1    3    3  502    0  0.20892284296E+02 -0.28115878597E+03  0.11955499143E+04  0.12283435842E+04  0.12699999809E+01 0. -1.
       -4    1    3    3    0  502 -0.20892284296E+02  0.28115878597E+03 -0.12813007090E+03  0.30968641953E+03  0.12699999809E+01 0.  1.
</event>
<event>
 5   0  0.7946038E-04  0.1098349E+04  0.7818609E-02  0.9206802E-01
        1   -1    0    0  501    0  0.00000000000E+00  0.00000000000E+00  0.30810342273E+03  0.30810342277E+03  0.50400001928E-02 0.  1.
       -1   -1    0    0    0  501  0.00000000000E+00  0.00000000000E+00 -0.97886847354E+03  0.97886847355E+03  0.50400001928E-02 0. -1.
    10030    2    1    2    0    0  0.00000000000E+00  0.00000000000E+00 -0.67076505081E+03  0.12869718963E+04  0.10983491742E+04 0.  0.
        4    1    3    3  502    0 -0.24525597557E+03 -0.28445462683E+03  0.13408070085E+03  0.39880342967E+03  0.12699999809E+01 0.  1.
       -4    1    3    3    0  502  0.24525597557E+03  0.28445462683E+03 -0.80484575166E+03  0.88816846665E+03  0.12699999809E+01 0. -1.
</event>
<event>
 5   0  0.8150924E-04  0.1099785E+04  0.7818609E-02  0.9205402E-01
       -1   -1    0    0    0  501  0.00000000000E+00  0.00000000000E+00  0.17215470462E+04  0.17215470462E+04  0.50400001928E-02 0. -1.
        1   -1    0    0  501    0  0.00000000000E+00  0.00000000000E+00 -0.17564523165E+03  0.17564523172E+03  0.50400001928E-02 0.  1.
    10030    2    1    2    0    0  0.00000000000E+00  0.00000000000E+00  0.15459018146E+04  0.18971922779E+04  0.10997845785E+04 0.  0.
        3    1    3    3  502    0 -0.20559296230E+03  0.11789452998E+03  0.16289238477E+04  0.16460742688E+04  0.10100000352E+00 0. -1.
       -3    1    3    3    0  502  0.20559296230E+03 -0.11789452998E+03 -0.83022033168E+02  0.25111800918E+03  0.10100000352E+00 0.  1.
</event>
<event>
 5   0  0.1396936E-03  0.1089891E+04  0.7818609E-02  0.9215101E-01
        2   -1    0    0  501    0  0.00000000000E+00  0.00000000000E+00  0.16463652143E+04  0.16463652143E+04  0.25500000920E-02 0. -1.
       -2   -1    0    0    0  501  0.00000000000E+00  0.00000000000E+00 -0.18037662349E+03  0.18037662351E+03  0.25500000920E-02 0.  1.
    10030    2    1    2    0    0  0.00000000000E+00  0.00000000000E+00  0.14659885908E+04  0.18267418378E+04  0.10898913678E+04 0.  0.
        2    1    3    3  502    0  0.50153770979E+03  0.12609850532E+02  0.10895960334E+04  0.11995493315E+04  0.25500000920E-02 0.  1.
       -2    1    3    3    0  502 -0.50153770979E+03 -0.12609850532E+02  0.37639255735E+03  0.62719250627E+03  0.25500000920E-02 0. -1.
</event>
<event>
 5   0  0.8305271E-04  0.1094591E+04  0.7818609E-02  0.9210480E-01
        1   -1    0    0  501    0  0.00000000000E+00  0.00000000000E+00  0.41398646268E+03  0.41398646271E+03  0.50400001928E-02 0. -1.
       -1   -1    0    0    0  501  0.00000000000E+00  0.00000000000E+00 -0.72353227240E+03  0.72353227241E+03  0.50400001928E-02 0.  1.
    10030    2    1    2    0    0  0.00000000000E+00  0.00000000000E+00 -0.30954580972E+03  0.11375187351E+04  0.10945913687E+04 0.  0.
        5    1    3    3  502    0  0.47121097525E+03  0.18893548248E+02  0.13381118577E+03  0.49022879637E+03  0.46999998093E+01 0. -1.
       -5    1    3    3    0  502 -0.47121097525E+03 -0.18893548248E+02 -0.44335699549E+03  0.64728993875E+03  0.46999998093E+01 0.  1.
</event>
<event>
 5   0  0.1425432E-03  0.1100110E+04  0.7818609E-02  0.9205085E-01
       -2   -1    0    0    0  501  0.00000000000E+00  0.00000000000E+00  0.93587897177E+03  0.93587897177E+03  0.25500000920E-02 0. -1.
        2   -1    0    0  501    0  0.00000000000E+00  0.00000000000E+00 -0.32329021781E+03  0.32329021782E+03  0.25500000920E-02 0.  1.
    10030    2    1    2    0    0  0.00000000000E+00  0.00000000000E+00  0.61258875396E+03  0.12591691896E+04  0.11001100248E+04 0.  0.
        1    1    3    3  502    0  0.91528581278E+02 -0.51286394921E+03  0.10427076994E+03  0.53129963776E+03  0.50400001928E-02 0.  1.
       -1    1    3    3    0  502 -0.91528581278E+02  0.51286394921E+03  0.50831798401E+03  0.72786955184E+03  0.50400001928E-02 0. -1.
</event>
<event>
 5   0  0.8150924E-04  0.1097754E+04  0.7818609E-02  0.9207384E-01
       -1   -1    0    0    0  501  0.00000000000E+00  0.00000000000E+00  0.31572870029E+03  0.31572870033E+03  0.50400001928E-02 0.  1.
        1   -1    0    0  501    0  0.00000000000E+00  0.00000000000E+00 -0.95419289753E+03  0.95419289754E+03  0.50400001928E-02 0. -1.
    10030    2    1    2    0    0  0.00000000000E+00  0.00000000000E+00 -0.63846419724E+03  0.12699215979E+04  0.10977542228E+04 0.  0.
        3    1    3    3  502    0  0.29879528629E+02  0.13965076356E+03 -0.93232347228E+03  0.94319785261E+03  0.10100000352E+00 0. -1.
       -3    1    3    3    0  502 -0.29879528629E+02 -0.13965076356E+03  0.29385927504E+03  0.32672374527E+03  0.10100000352E+00 0.  1.
</event>
<event>
 5   0  0.1425432E-03  0.1096970E+04  0.7818609E-02  0.9208150E-01
       -2   -1    0    0    0  501  0.00000000000E+00  0.00000000000E+00  0.27634453360E+03  0.27634453361E+03  0.25500000920E-02 0. -1.
        2   -1    0    0  501    0  0.00000000000E+00  0.00000000000E+00 -0.10886263482E+04  0.10886263482E+04  0.25500000920E-02 0.  1.
    10030    2    1    2    0    0  0.00000000000E+00  0.00000000000E+00 -0.81228181458E+03  0.13649708818E+04  0.10969702648E+04 0.  0.
        1    1    3    3  502    0  0.24446937939E+03 -0.33818472651E+02  0.20335117703E+03  0.31978221929E+03  0.50400001928E-02 0. -1.
       -1    1    3    3    0  502 -0.24446937939E+03  0.33818472651E+02 -0.10156329916E+04  0.10451886625E+04  0.50400001928E-02 0.  1.
</event>
<event>
 5   0  0.8009636E-04  0.1098614E+04  0.7818609E-02  0.9206544E-01
       -1   -1    0    0    0  501  0.00000000000E+00  0.00000000000E+00  0.52875401317E+03  0.52875401320E+03  0.50400001928E-02 0. -1.
        1   -1    0    0  501    0  0.00000000000E+00  0.00000000000E+00 -0.57065871568E+03  0.57065871570E+03  0.50400001928E-02 0.  1.
    10030    2    1    2    0    0  0.00000000000E+00  0.00000000000E+00 -0.41904702505E+02  0.10994127289E+04  0.10986138286E+04 0.  0.
        1    1    3    3  502    0 -0.12663039929E+03  0.12143150665E+03 -0.54186638921E+03  0.56956128082E+03  0.50400001928E-02 0.  1.
       -1    1    3    3    0  502  0.12663039929E+03 -0.12143150665E+03  0.49996168671E+03  0.52985144808E+03  0.50400001928E-02 0. -1.
</event>
<event>
 5   0  0.1402775E-03  0.1099622E+04  0.7818609E-02  0.9205560E-01
       -2   -1    0    0    0  501  0.00000000000E+00  0.00000000000E+00  0.21895525193E+03  0.21895525194E+03  0.25500000920E-02 0.  1.
        2   -1    0    0  501    0  0.00000000000E+00  0.00000000000E+00 -0.13806122393E+04  0.13806122393E+04  0.25500000920E-02 0. -1.
    10030    2    1    2    0    0  0.00000000000E+00  0.00000000000E+00 -0.11616569873E+04  0.15995674912E+04  0.10996223000E+04 0.  0.
        5    1    3    3  502    0  0.68242954491E+02  0.52344780934E+03 -0.80436971008E+03  0.96212651477E+03  0.46999998093E+01 0. -1.
       -5    1    3    3    0  502 -0.68242954491E+02 -0.52344780934E+03 -0.35728727726E+03  0.63744097643E+03  0.46999998093E+01 0.  1.
</event>
<event>
 5   0  0.8341767E-04  0.1118102E+04  0.7818609E-02  0.9187726E-01
       -1   -1    0    0    0  501  0.00000000000E+00  0.00000000000E+00  0.29443400786E+03  0.29443400790E+03  0.50400001928E-02 0.  1.
        1   -1    0    0  501    0  0.00000000000E+00  0.00000000000E+00 -0.10614880287E+04  0.10614880288E+04  0.50400001928E-02 0. -1.
    10030    2    1    2    0    0  0.00000000000E+00  0.00000000000E+00 -0.76705402089E+03  0.13559220367E+04  0.11181022755E+04 0.  0.
        2    1    3    3  502    0 -0.46781200451E+03  0.17845584854E+03 -0.68510567604E+03  0.84856605446E+03  0.25500000920E-02 0.  1.
       -2    1    3    3    0  502  0.46781200451E+03 -0.17845584854E+03 -0.81948344851E+02  0.50735598220E+03  0.25500000920E-02 0. -1.
</event>
<event>
 5   0  0.1429680E-03  0.1100173E+04  0.7818609E-02  0.9205023E-01
        2   -1    0    0  501    0  0.00000000000E+00  0.00000000000E+00  0.43672351397E+03  0.43672351398E+03  0.25500000920E-02 0. -1.
       -2   -1    0    0    0  501  0.00000000000E+00  0.00000000000E+00 -0.69287617794E+03  0.69287617794E+03  0.25500000920E-02 0.  1.
    10030    2    1    2    0    0  0.00000000000E+00  0.00000000000E+00 -0.25615266396E+03  0.11295996919E+04  0.11001732940E+04 0.  0.
        3    1    3    3  502    0 -0.22931095314E+03 -0.44671121676E+03  0.10256699628E+03  0.51249821789E+03  0.10100000352E+00 0. -1.
       -3    1    3    3    0  502  0.22931095314E+03  0.44671121676E+03 -0.35871966024E+03  0.61710147403E+03  0.10100000352E+00 0.  1.
</event>
<event>
 5   0  0.1396936E-03  0.1098885E+04  0.7818609E-02  0.9206280E-01
        2   -1    0    0  501    0  0.00000000000E+00  0.00000000000E+00  0.18439433659E+04  0.18439433659E+04  0.25500000920E-02 0. -1.
       -2   -1    0    0    0  501  0.00000000000E+00  0.00000000000E+00 -0.16371807141E+03  0.16371807143E+03  0.25500000920E-02 0.  1.
    10030    2    1    2    0    0  0.00000000000E+00  0.00000000000E+00  0.16802252945E+04  0.20076614373E+04  0.10988846194E+04 0.  0.
        2    1    3    3  502    0 -0.49679714319E+03  0.20178846016E+03  0.10590544656E+04  0.11870645918E+04  0.25500000920E-02 0. -1.
       -2    1    3    3    0  502  0.49679714319E+03 -0.20178846016E+03  0.62117082892E+03  0.82059684550E+03  0.25500000920E-02 0.  1.
</event>
<event>
 5   0  0.5409500E-04  0.1092414E+04  0.7818609E-02  0.9212618E-01
        4   -1    0    0  501    0  0.00000000000E+00  0.00000000000E+00  0.17550862039E+04  0.17550866634E+04  0.12699999809E+01 0. -1.
       -4   -1    0    0    0  501  0.00000000000E+00  0.00000000000E+00 -0.16998419181E+03  0.16998893600E+03  0.12699999809E+01 0.  1.
    10030    2    1    2    0    0  0.00000000000E+00  0.00000000000E+00  0.15851020121E+04  0.19250755994E+04  0.10924136921E+04 0.  0.
        5    1    3    3  502    0  0.10765590999E+03 -0.46094357244E+03  0.12727720825E+04  0.13579505278E+04  0.46999998093E+01 0. -1.
       -5    1    3    3    0  502 -0.10765590999E+03  0.46094357244E+03  0.31232992958E+03  0.56712507160E+03  0.46999998093E+01 0.  1.
</event>
<event>
 5   0  0.1402775E-03  0.1102044E+04  0.7818609E-02  0.9203202E-01
       -2   -1    0    0    0  501  0.00000000000E+00  0.00000000000E+00  0.19160207838E+03  0.19160207839E+03  0.25500000920E-02 0.  1.
        2   -1    0    0  501    0  0.00000000000E+00  0.00000000000E+00 -0.15846649489E+04  0.15846649489E+04  0.25500000920E-02 0. -1.
    10030    2    1    2    0    0  0.00000000000E+00  0.00000000000E+00 -0.13930628705E+04  0.17762670273E+04  0.11020437337E+04 0.  0.
        5    1    3    3  502    0 -0.13307361797E+03  0.47983298300E+03 -0.31628910885E+03  0.58992302019E+03  0.46999998093E+01 0.  1.
       -5    1    3    3    0  502  0.13307361797E+03 -0.47983298300E+03 -0.10767737616E+04  0.11863440071E+04  0.46999998093E+01 0. -1.
</event>
<event>
 5   0  0.1402775E-03  0.1082212E+04  0.7818609E-02  0.9222705E-01
        2   -1    0    0  501    0  0.00000000000E+00  0.00000000000E+00  0.16163391365E+04  0.16163391365E+04  0.25500000920E-02 0.  1.
       -2   -1    0    0    0  501  0.00000000000E+00  0.00000000000E+00 -0.18114737884E+03  0.18114737885E+03  0.25500000920E-02 0. -1.
    10030    2    1    2    0    0  0.00000000000E+00  0.00000000000E+00  0.14351917577E+04  0.17974865154E+04  0.10822118053E+04 0.  0.
        5    1    3    3  502    0 -0.66461047050E+02 -0.18752787083E+03  0.15533459473E+04  0.15660426223E+04  0.46999998093E+01 0.  1.
       -5    1    3    3    0  502  0.66461047050E+02  0.18752787083E+03 -0.11815418958E+03  0.23144389304E+03  0.46999998093E+01 0. -1.
</event>
<event>
 5   0  0.1429680E-03  0.1098050E+04  0.7818609E-02  0.9207094E-01
        2   -1    0    0  501    0  0.00000000000E+00  0.00000000000E+00  0.13972456088E+04  0.13972456088E+04  0.25500000920E-02 0.  1.
       -2   -1    0    0    0  501  0.00000000000E+00  0.00000000000E+00 -0.21573061980E+03  0.21573061981E+03  0.25500000920E-02 0. -1.
    10030    2    1    2    0    0  0.00000000000E+00  0.00000000000E+00  0.11815149890E+04  0.16129762286E+04  0.10980503836E+04 0.  0.
        3    1    3    3  502    0  0.34286572492E+03 -0.19527237308E+03  0.29973324002E+02  0.39571026694E+03  0.10100000352E+00 0. -1.
       -3    1    3    3    0  502 -0.34286572492E+03  0.19527237308E+03  0.11515416650E+04  0.12172659617E+04  0.10100000352E+00 0.  1.
</event>
<event>
 5   0  0.1425432E-03  0.1102483E+04  0.7818609E-02  0.9202775E-01
       -2   -1    0    0    0  501  0.00000000000E+00  0.00000000000E+00  0.36353473760E+03  0.36353473761E+03  0.25500000920E-02 0. -1.
        2   -1    0    0  501    0  0.00000000000E+00  0.00000000000E+00 -0.83586868305E+03  0.83586868305E+03  0.25500000920E-02 0.  1.
    10030    2    1    2    0    0  0.00000000000E+00  0.00000000000E+00 -0.47233394544E+03  0.11994034207E+04  0.11024832015E+04 0.  0.
        1    1    3    3  502    0  0.57890618897E+02  0.51119136988E+03 -0.20773369584E+02  0.51487811500E+03  0.50400001928E-02 0. -1.
       -1    1    3    3    0  502 -0.57890618897E+02 -0.51119136988E+03 -0.45156057586E+03  0.68452530566E+03  0.50400001928E-02 0.  1.
</event>
<event>
 5   0  0.8305271E-04  0.1102878E+04  0.7818609E-02  0.9202392E-01
        1   -1    0    0  501    0  0.00000000000E+00  0.00000000000E+00  0.21087036332E+04  0.21087036332E+04  0.50400001928E-02 0. -1.
       -1   -1    0    0    0  501  0.00000000000E+00  0.00000000000E+00 -0.14420459161E+03  0.14420459170E+03  0.50400001928E-02 0.  1.
    10030    2    1    2    0    0  0.00000000000E+00  0.00000000000E+00  0.19644990416E+04  0.22529082249E+04  0.11028775931E+04 0.  0.
        5    1    3    3  502    0  0.29159223934E+03  0.17549723984E+03  0.18685257006E+04  0.18992724131E+04  0.46999998093E+01 0. -1.
       -5    1    3    3    0  502 -0.29159223934E+03 -0.17549723984E+03  0.95973340978E+02  0.35363581183E+03  0.46999998093E+01 0.  1.
</event>
<event>
 5   0  0.8009636E-04  0.1099462E+04  0.7818609E-02  0.9205716E-01
       -1   -1    0    0    0  501  0.00000000000E+00  0.00000000000E+00  0.22949135116E+03  0.22949135122E+03  0.50400001928E-02 0. -1.
        1   -1    0    0  501    0  0.00000000000E+00  0.00000000000E+00 -0.13168431601E+04  0.13168431601E+04  0.50400001928E-02 0.  1.
    10030    2    1    2    0    0  0.00000000000E+00  0.00000000000E+00 -0.10873518090E+04  0.15463345114E+04  0.10994618977E+04 0.  0.
        1    1    3    3  502    0 -0.16455152243E+03 -0.12588042460E+03 -0.12598335588E+04  0.12767551374E+04  0.50400001928E-02 0.  1.
       -1    1    3    3    0  502  0.16455152243E+03  0.12588042460E+03  0.17248174985E+03  0.26957937400E+03  0.50400001928E-02 0. -1.
</event>
<event>
 5   0  0.5409500E-04  0.1101172E+04  0.7818609E-02  0.9204050E-01
       -3   -1    0    0    0  501  0.00000000000E+00  0.00000000000E+00  0.14856117156E+04  0.14856117191E+04  0.10100000352E+00 0.  1.
        3   -1    0    0  501    0  0.00000000000E+00  0.00000000000E+00 -0.20405396896E+03  0.20405399395E+03  0.10100000352E+00 0. -1.
    10030    2    1    2    0    0  0.00000000000E+00  0.00000000000E+00  0.12815577467E+04  0.16896657130E+04  0.11011720863E+04 0.  0.
        3    1    3    3  502    0  0.95606353062E+02  0.82795256933E+02 -0.18146286275E+03  0.22118863008E+03  0.10100000352E+00 0. -1.
       -3    1    3    3    0  502 -0.95606353062E+02 -0.82795256933E+02  0.14630206094E+04  0.14684770830E+04  0.10100000352E+00 0.  1.
</event>
<event>
 5   0  0.1396936E-03  0.1100065E+04  0.7818609E-02  0.9205128E-01
       -2   -1    0    0    0  501  0.00000000000E+00  0.00000000000E+00  0.98189004766E+03  0.98189004767E+03  0.25500000920E-02 0. -1.
        2   -1    0    0  501    0  0.00000000000E+00  0.00000000000E+00 -0.30811573415E+03  0.30811573416E+03  0.25500000920E-02 0.  1.
    10030    2    1    2    0    0  0.00000000000E+00  0.00000000000E+00  0.67377431351E+03  0.12900057818E+04  0.11000650397E+04 0.  0.
        2    1    3    3  502    0  0.25521349031E+02 -0.47862365554E+02  0.97874607478E+03  0.98024794017E+03  0.25500000920E-02 0. -1.
       -2    1    3    3    0  502 -0.25521349031E+02  0.47862365554E+02 -0.30497176127E+03  0.30975784166E+03  0.25500000920E-02 0.  1.
</event>
<event>
 5   0  0.8341767E-04  0.1104636E+04  0.7818609E-02  0.9200685E-01
       -1   -1    0    0    0  501  0.00000000000E+00  0.00000000000E+00  0.27294831178E+03  0.27294831182E+03  0.50400001928E-02 0. -1.
        1   -1    0    0  501    0  0.00000000000E+00  0.00000000000E+00 -0.11176290179E+04  0.11176290179E+04  0.50400001928E-02 0.  1.
    10030    2    1    2    0    0  0.00000000000E+00  0.00000000000E+00 -0.84468070610E+03  0.13905773297E+04  0.11046356027E+04 0.  0.
        2    1    3    3  502    0 -0.18369087654E+02 -0.26943227953E+03  0.18416679364E+03  0.32687701743E+03  0.25500000920E-02 0. -1.
       -2    1    3    3    0  502  0.18369087654E+02  0.26943227953E+03 -0.10288474997E+04  0.10637003123E+04  0.25500000920E-02 0.  1.
</event>
<event>
 5   0  0.1425432E-03  0.1098944E+04  0.7818609E-02  0.9206222E-01
        2   -1    0    0  501    0  0.00000000000E+00  0.00000000000E+00  0.25442765270E+04  0.25442765270E+04  0.25500000920E-02 0.  1.
       -2   -1    0    0    0  501  0.00000000000E+00  0.00000000000E+00 -0.11866612231E+03  0.11866612234E+03  0.25500000920E-02 0. -1.
    10030    2    1    2    0    0  0.00000000000E+00  0.00000000000E+00  0.24256104047E+04  0.26629426493E+04  0.10989439105E+04 0.  0.
        1    1    3    3  502    0 -0.51947592744E+03 -0.87264897612E+02  0.83391176290E+03  0.98634640460E+03  0.50400001928E-02 0. -1.
       -1    1    3    3    0  502  0.51947592744E+03  0.87264897612E+02  0.15916986418E+04  0.16765962447E+04  0.50400001928E-02 0.  1.
</event>
<event>
 5   0  0.1402775E-03  0.1092316E+04  0.7818609E-02  0.9212714E-01
        2   -1    0    0  501    0  0.00000000000E+00  0.00000000000E+00  0.52211254460E+03  0.52211254460E+03  0.25500000920E-02 0.  1.
       -2   -1    0    0    0  501  0.00000000000E+00  0.00000000000E+00 -0.57131069361E+03  0.57131069362E+03  0.25500000920E-02 0. -1.
    10030    2    1    2    0    0  0.00000000000E+00  0.00000000000E+00 -0.49198149015E+02  0.10934232382E+04  0.10923158518E+04 0.  0.
        5    1    3    3  502    0 -0.50625878783E+03 -0.20426426023E+03 -0.89453904996E+01  0.54600728775E+03  0.46999998093E+01 0. -1.
       -5    1    3    3    0  502  0.50625878783E+03  0.20426426023E+03 -0.40252758515E+02  0.54741595047E+03  0.46999998093E+01 0.  1.
</event>
<event>
 5   0  0.5409500E-04  0.1114699E+04  0.7818609E-02  0.9190982E-01
       -3   -1    0    0    0  501  0.00000000000E+00  0.00000000000E+00  0.60223460038E+03  0.60223460885E+03  0.10100000352E+00 0.  1.
        3   -1    0    0  501    0  0.00000000000E+00  0.00000000000E+00 -0.51580980660E+03  0.51580981649E+03  0.10100000352E+00 0. -1.
    10030    2    1    2    0    0  0.00000000000E+00  0.00000000000E+00  0.86424793784E+02  0.11180444253E+04  0.11146991038E+04 0.  0.
        3    1    3    3  502    0 -0.15158768465E+03  0.42806936930E+03 -0.28089247709E+03  0.53396891759E+03  0.10100000352E+00 0. -1.
       -3    1    3    3    0  502  0.15158768465E+03 -0.42806936930E+03  0.36731727087E+03  0.58407550775E+03  0.10100000352E+00 0.  1.
</event>
<event>
 5   0  0.8150924E-04  0.1115588E+04  0.7818609E-02  0.9190130E-01
        1   -1    0    0  501    0  0.00000000000E+00  0.00000000000E+00  0.70167948297E+03  0.70167948298E+03  0.50400001928E-02 0.  1.
       -1   -1    0    0    0  501  0.00000000000E+00  0.00000000000E+00 -0.44341359182E+03  0.44341359185E+03  0.50400001928E-02 0. -1.
    10030    2    1    2    0    0  0.00000000000E+00  0.00000000000E+00  0.25826589115E+03  0.11450930748E+04  0.11155881317E+04 0.  0.
        3    1    3    3  502    0  0.30287946813E+03  0.29114189677E+03 -0.24749739152E+03  0.48760080525E+03  0.10100000352E+00 0. -1.
       -3    1    3    3    0  502 -0.30287946813E+03 -0.29114189677E+03  0.50576328266E+03  0.65749226958E+03  0.10100000352E+00 0.  1.
</event>
<event>
 5   0  0.8305271E-04  0.1068049E+04  0.7818609E-02  0.9236906E-01
        1   -1    0    0  501    0  0.00000000000E+00  0.00000000000E+00  0.53834454215E+03  0.53834454217E+03  0.50400001928E-02 0. -1.
       -1   -1    0    0    0  501  0.00000000000E+00  0.00000000000E+00 -0.52973899720E+03  0.52973899723E+03  0.50400001928E-02 0.  1.
    10030    2    1    2    0    0  0.00000000000E+00  0.00000000000E+00  0.86055449464E+01  0.10680835394E+04  0.10680488714E+04 0.  0.
        5    1    3    3  502    0 -0.16459384975E+03  0.33696241844E+03  0.38447981492E+03  0.53710485466E+03  0.46999998093E+01 0. -1.
       -5    1    3    3    0  502  0.16459384975E+03 -0.33696241844E+03 -0.37587426998E+03  0.53097868474E+03  0.46999998093E+01 0.  1.
</event>
<event>
 5   0  0.1425432E-03  0.1102329E+04  0.7818609E-02  0.9202925E-01
        2   -1    0    0  501    0  0.00000000000E+00  0.00000000000E+00  0.12693043326E+04  0.12693043326E+04  0.25500000920E-02 0. -1.
       -2   -1    0    0    0  501  0.00000000000E+00  0.00000000000E+00 -0.23932988073E+03  0.23932988074E+03  0.25500000920E-02 0.  1.
    10030    2    1    2    0    0  0.00000000000E+00  0.00000000000E+00  0.10299744519E+04  0.15086342134E+04  0.11023292694E+04 0.  0.
        1    1    3    3  502    0  0.46308923251E+03 -0.17431217216E+03  0.18271037003E+03  0.52746511731E+03  0.50400001928E-02 0.  1.
       -1    1    3    3    0  502 -0.46308923251E+03  0.17431217216E+03  0.84726408186E+03  0.98116909606E+03  0.50400001928E-02 0. -1.
</event>
<event>
 5   0  0.1372794E-03  0.1100655E+04  0.7818609E-02  0.9204554E-01
       -2   -1    0    0    0  501  0.00000000000E+00  0.00000000000E+00  0.53564292936E+03  0.53564292937E+03  0.25500000920E-02 0. -1.
        2   -1    0    0  501    0  0.00000000000E+00  0.00000000000E+00 -0.56541421027E+03  0.56541421027E+03  0.25500000920E-02 0.  1.
    10030    2    1    2    0    0  0.00000000000E+00  0.00000000000E+00 -0.29771280905E+02  0.11010571396E+04  0.11006545760E+04 0.  0.
        4    1    3    3  502    0  0.14164443552E+01  0.24698913198E+03 -0.50685090424E+03  0.56383072785E+03  0.12699999809E+01 0.  1.
       -4    1    3    3    0  502 -0.14164443552E+01 -0.24698913198E+03  0.47707962334E+03  0.53722641180E+03  0.12699999809E+01 0. -1.
</event>
<event>
 5   0  0.5409500E-04  0.1085846E+04  0.7818609E-02  0.9219098E-01
       -4   -1    0    0    0  501  0.00000000000E+00  0.00000000000E+00  0.22428112102E+03  0.22428471670E+03  0.12699999809E+01 0. -1.
        4   -1    0    0  501    0  0.00000000000E+00  0.00000000000E+00 -0.13142538790E+04  0.13142544926E+04  0.12699999809E+01 0.  1.
    10030    2    1    2    0    0  0.00000000000E+00  0.00000000000E+00 -0.10899727580E+04  0.15385392093E+04  0.10858463453E+04 0.  0.
        1    1    3    3  502    0  0.32498665624E+03  0.43465538782E+03 -0.52378302658E+03  0.75424816330E+03  0.50400001928E-02 0.  1.
       -1    1    3    3    0  502 -0.32498665624E+03 -0.43465538782E+03 -0.56618973143E+03  0.78429104604E+03  0.50400001928E-02 0. -1.
</event>
<event>
 5   0  0.7946038E-04  0.1098053E+04  0.7818609E-02  0.9207091E-01
        1   -1    0    0  501    0  0.00000000000E+00  0.00000000000E+00  0.79657701031E+03  0.79657701033E+03  0.50400001928E-02 0. -1.
       -1   -1    0    0    0  501  0.00000000000E+00  0.00000000000E+00 -0.37840706574E+03  0.37840706577E+03  0.50400001928E-02 0.  1.
    10030    2    1    2    0    0  0.00000000000E+00  0.00000000000E+00  0.41816994457E+03  0.11749840761E+04  0.10980534944E+04 0.  0.
        4    1    3    3  502    0  0.37031323037E+02  0.36256293811E+03  0.64846915606E+03  0.74386629325E+03  0.12699999809E+01 0. -1.
       -4    1    3    3    0  502 -0.37031323037E+02 -0.36256293811E+03 -0.23029921149E+03  0.43111778285E+03  0.12699999809E+01 0.  1.
</event>
<event>
 5   0  0.1429680E-03  0.1099938E+04  0.7818609E-02  0.9205252E-01
       -2   -1    0    0    0  501  0.00000000000E+00  0.00000000000E+00  0.24923293907E+03  0.24923293909E+03  0.25500000920E-02 0. -1.
        2   -1    0    0  501    0  0.00000000000E+00  0.00000000000E+00 -0.12135882038E+04  0.12135882038E+04  0.25500000920E-02 0.  1.
    10030    2    1    2    0    0  0.00000000000E+00  0.00000000000E+00 -0.96435526471E+03  0.14628211429E+04  0.10999384617E+04 0.  0.
        3    1    3    3  502    0 -0.34717926760E+03  0.19594684245E+03 -0.98603264489E+03  0.10635736909E+04  0.10100000352E+00 0.  1.
       -3    1    3    3    0  502  0.34717926760E+03 -0.19594684245E+03  0.21677380181E+02  0.39924745200E+03  0.10100000352E+00 0. -1.
</event>
<event>
 5   0  0.8009636E-04  0.1119664E+04  0.7818609E-02  0.9186235E-01
       -1   -1    0    0    0  501  0.00000000000E+00  0.00000000000E+00  0.23365282493E+03  0.23365282499E+03  0.50400001928E-02 0. -1.
        1   -1    0    0  501    0  0.00000000000E+00  0.00000000000E+00 -0.13413577564E+04  0.13413577564E+04  0.50400001928E-02 0.  1.
    10030    2    1    2    0    0  0.00000000000E+00  0.00000000000E+00 -0.11077049314E+04  0.15750105814E+04  0.11196642873E+04 0.  0.
        1    1    3    3  502    0  0.31345611677E+03 -0.23961814695E+03  0.48327352418E+01  0.39458199255E+03  0.50400001928E-02 0. -1.
       -1    1    3    3    0  502 -0.31345611677E+03  0.23961814695E+03 -0.11125376667E+04  0.11804285888E+04  0.50400001928E-02 0.  1.
</event>
<event>
 5   0  0.1402775E-03  0.1098688E+04  0.7818609E-02  0.9206471E-01
       -2   -1    0    0    0  501  0.00000000000E+00  0.00000000000E+00  0.17945722815E+03  0.17945722817E+03  0.25500000920E-02 0. -1.
        2   -1    0    0  501    0  0.00000000000E+00  0.00000000000E+00 -0.16816208563E+04  0.16816208563E+04  0.25500000920E-02 0.  1.
    10030    2    1    2    0    0  0.00000000000E+00  0.00000000000E+00 -0.15021636281E+04  0.18610780845E+04  0.10986883411E+04 0.  0.
        5    1    3    3  502    0 -0.13216145969E+03 -0.48676538016E+03 -0.38248728681E+03  0.63302906831E+03  0.46999998093E+01 0. -1.
       -5    1    3    3    0  502  0.13216145969E+03  0.48676538016E+03 -0.11196763413E+04  0.12280490162E+04  0.46999998093E+01 0.  1.
</event>
<event>
 5   0  0.8341767E-04  0.1083627E+04  0.7818609E-02  0.9221299E-01
       -1   -1    0    0    0  501  0.00000000000E+00  0.00000000000E+00  0.27107786781E+03  0.27107786786E+03  0.50400001928E-02 0.  1.
        1   -1    0    0  501    0  0.00000000000E+00  0.00000000000E+00 -0.10829429440E+04  0.10829429440E+04  0.50400001928E-02 0. -1.
    10030    2    1    2    0    0  0.00000000000E+00  0.00000000000E+00 -0.81186507617E+03  0.13540208119E+04  0.10836269917E+04 0.  0.
        2    1    3    3  502    0  0.35035544612E+03 -0.31514439697E+01  0.11047582286E+03  0.36737416576E+03  0.25500000920E-02 0.  1.
       -2    1    3    3    0  502 -0.35035544612E+03  0.31514439697E+01 -0.92234089903E+03  0.98664664610E+03  0.25500000920E-02 0. -1.
</event>
<event>
 5   0  0.1425432E-03  0.1093293E+04  0.7818609E-02  0.9211754E-01
       -2   -1    0    0    0  501  0.00000000000E+00  0.00000000000E+00  0.39158644543E+03  0.39158644544E+03  0.25500000920E-02 0. -1.
        2   -1    0    0  501    0  0.00000000000E+00  0.00000000000E+00 -0.76310658949E+03  0.76310658949E+03  0.25500000920E-02 0.  1.
    10030    2    1    2    0    0  0.00000000000E+00  0.00000000000E+00 -0.37152014406E+03  0.11546930349E+04  0.10932926358E+04 0.  0.
        1    1    3    3  502    0 -0.28576344347E+02 -0.47727433186E+03 -0.46562241115E+03  0.66739165795E+03  0.50400001928E-02 0.  1.
       -1    1    3    3    0  502  0.28576344347E+02  0.47727433186E+03  0.94102267099E+02  0.48730137698E+03  0.50400001928E-02 0. -1.
</event>
<event>
 5   0  0.1396936E-03  0.1097427E+04  0.7818609E-02  0.9207703E-01
       -2   -1    0    0    0  501  0.00000000000E+00  0.00000000000E+00  0.47013567702E+03  0.47013567702E+03  0.25500000920E-02 0. -1.
        2   -1    0    0  501    0  0.00000000000E+00  0.00000000000E+00 -0.64042510090E+03  0.64042510091E+03  0.25500000920E-02 0.  1.
    10030    2    1    2    0    0  0.00000000000E+00  0.00000000000E+00 -0.17028942389E+03  0.11105607779E+04  0.10974273341E+04 0.  0.
        2    1    3    3  502    0  0.75419697861E+02  0.53832294842E+03 -0.16092047477E+03  0.56689957384E+03  0.25500000920E-02 0.  1.
       -2    1    3    3    0  502 -0.75419697861E+02 -0.53832294842E+03 -0.93689491129E+01  0.54366120409E+03  0.25500000920E-02 0. -1.
</event>
<event>
 5   0  0.5409500E-04  0.1096746E+04  0.7818609E-02  0.9208369E-01
       -3   -1    0    0    0  501  0.00000000000E+00  0.00000000000E+00  0.44873892258E+03  0.44873893395E+03  0.10100000352E+00 0.  1.
        3   -1    0    0  501    0  0.00000000000E+00  0.00000000000E+00 -0.67012949142E+03  0.67012949903E+03  0.10100000352E+00 0. -1.
    10030    2    1    2    0    0  0.00000000000E+00  0.00000000000E+00 -0.22139056883E+03  0.11188684330E+04  0.10967464549E+04 0.  0.
        2    1    3    3  502    0  0.30201068050E+03 -0.27380039044E+03  0.26349472271E+03  0.48539321570E+03  0.25500000920E-02 0.  1.
       -2    1    3    3    0  502 -0.30201068050E+03  0.27380039044E+03 -0.48488529155E+03  0.63347521728E+03  0.25500000920E-02 0. -1.
</event>
<event>
 5   0  0.7946038E-04  0.1096793E+04  0.7818609E-02  0.9208324E-01
       -1   -1    0    0    0  501  0.00000000000E+00  0.00000000000E+00  0.33784535826E+03  0.33784535830E+03  0.50400001928E-02 0.  1.
        1   -1    0    0  501    0  0.00000000000E+00  0.00000000000E+00 -0.89016613801E+03  0.89016613803E+03  0.50400001928E-02 0. -1.
    10030    2    1    2    0    0  0.00000000000E+00  0.00000000000E+00 -0.55232077975E+03  0.12280114963E+04  0.10967925927E+04 0.  0.
        4    1    3    3  502    0 -0.35991294114E+03 -0.37422473845E+03 -0.47378663699E+03  0.70289179136E+03  0.12699999809E+01 0. -1.
       -4    1    3    3    0  502  0.35991294114E+03  0.37422473845E+03 -0.78534142759E+02  0.52511970497E+03  0.12699999809E+01 0.  1.
</event>
<event>
 5   0  0.5409500E-04  0.1098883E+04  0.7818609E-02  0.9206281E-01
       -3   -1    0    0    0  501  0.00000000000E+00  0.00000000000E+00  0.35653318315E+03  0.35653319745E+03  0.10100000352E+00 0. -1.
        3   -1    0    0  501    0  0.00000000000E+00  0.00000000000E+00 -0.84672661675E+03  0.84672662277E+03  0.10100000352E+00 0.  1.
    10030    2    1    2    0    0  0.00000000000E+00  0.00000000000E+00 -0.49019343360E+03  0.12032598202E+04  0.10988833389E+04 0.  0.
        1    1    3    3  502    0  0.44438888705E+03 -0.21979753475E+03  0.14240534991E+02  0.49597906415E+03  0.50400001928E-02 0. -1.
       -1    1    3    3    0  502 -0.44438888705E+03  0.21979753475E+03 -0.50443396859E+03  0.70728075607E+03  0.50400001928E-02 0.  1.
</event>
<event>
 5   0  0.1372794E-03  0.1102250E+04  0.7818609E-02  0.9203001E-01
        2   -1    0    0  501    0  0.00000000000E+00  0.00000000000E+00  0.12611605090E+04  0.12611605090E+04  0.25500000920E-02 0.  1.
       -2   -1    0    0    0  501  0.00000000000E+00  0.00000000000E+00 -0.24084077420E+03  0.24084077422E+03  0.25500000920E-02 0. -1.
    10030    2    1    2    0    0  0.00000000000E+00  0.00000000000E+00  0.10203197348E+04  0.15020012832E+04  0.11022501955E+04 0.  0.
        4    1    3    3  502    0  0.30779855823E+03  0.42318513558E+03  0.74583312105E+03  0.91109509316E+03  0.12699999809E+01 0.  1.
       -4    1    3    3    0  502 -0.30779855823E+03 -0.42318513558E+03  0.27448661376E+03  0.59090619007E+03  0.12699999809E+01 0. -1.
</event>
<event>
 5   0  0.1402775E-03  0.1099743E+04  0.7818609E-02  0.9205443E-01
        2   -1    0    0  501    0  0.00000000000E+00  0.00000000000E+00  0.13661661783E+04  0.13661661783E+04  0.25500000920E-02 0.  1.
       -2   -1    0    0    0  501  0.00000000000E+00  0.00000000000E+00 -0.22131890566E+03  0.22131890567E+03  0.25500000920E-02 0. -1.
    10030    2    1    2    0    0  0.00000000000E+00  0.00000000000E+00  0.11448472727E+04  0.15874850840E+04  0.10997425218E+04 0.  0.
        5    1    3    3  502    0 -0.43136554669E+03 -0.18459050446E+03  0.98625049941E+03  0.10921822315E+04  0.46999998093E+01 0.  1.
       -5    1    3    3    0  502  0.43136554669E+03  0.18459050446E+03  0.15859677324E+03  0.49530285249E+03  0.46999998093E+01 0. -1.
</event>
<event>
 5   0  0.8009636E-04  0.1123004E+04  0.7818609E-02  0.9183056E-01
       -1   -1    0    0    0  501  0.00000000000E+00  0.00000000000E+00  0.66619232980E+03  0.66619232982E+03  0.50400001928E-02 0.  1.
        1   -1    0    0  501    0  0.00000000000E+00  0.00000000000E+00 -0.47326347150E+03  0.47326347153E+03  0.50400001928E-02 0. -1.
    10030    2    1    2    0    0  0.00000000000E+00  0.00000000000E+00  0.19292885830E+03  0.11394558013E+04  0.11230039977E+04 0.  0.
        1    1    3    3  502    0 -0.36968762859E+03  0.13414430899E+03 -0.31018217515E+03  0.50087585305E+03  0.50400001928E-02 0. -1.
       -1    1    3    3    0  502  0.36968762859E+03 -0.13414430899E+03  0.50311103345E+03  0.63857994830E+03  0.50400001928E-02 0.  1.
</event>
<event>
 5   0  0.1372794E-03  0.1098071E+04  0.7818609E-02  0.9207074E-01
        2   -1    0    0  501    0  0.00000000000E+00  0.00000000000E+00  0.65381319698E+03  0.65381319698E+03  0.25500000920E-02 0.  1.
       -2   -1    0    0    0  501  0.00000000000E+00  0.00000000000E+00 -0.46104914192E+03  0.46104914193E+03  0.25500000920E-02 0. -1.
    10030    2    1    2    0    0  0.00000000000E+00  0.00000000000E+00  0.19276405506E+03  0.11148623389E+04  0.10980710605E+04 0.  0.
        4    1    3    3  502    0 -0.30350327274E+02  0.16128387571E+03 -0.43556176631E+03  0.46545600877E+03  0.12699999809E+01 0. -1.
       -4    1    3    3    0  502  0.30350327274E+02 -0.16128387571E+03  0.62832582137E+03  0.64940633014E+03  0.12699999809E+01 0.  1.
</event>
<event>
 5   0  0.5409500E-04  0.1099893E+04  0.7818609E-02  0.9205296E-01
        3   -1    0    0  501    0  0.00000000000E+00  0.00000000000E+00  0.81163929865E+03  0.81163930493E+03  0.10100000352E+00 0. -1.
       -3   -1    0    0    0  501  0.00000000000E+00  0.00000000000E+00 -0.37262991246E+03  0.37262992615E+03  0.10100000352E+00 0.  1.
    10030    2    1    2    0    0  0.00000000000E+00  0.00000000000E+00  0.43900938619E+03  0.11842692311E+04  0.10998928905E+04 0.  0.
        1    1    3    3  502    0 -0.39010591931E+03  0.17162037069E+03  0.59373792387E+03  0.73086312138E+03  0.50400001928E-02 0. -1.
       -1    1    3    3    0  502  0.39010591931E+03 -0.17162037069E+03 -0.15472853768E+03  0.45340610970E+03  0.50400001928E-02 0.  1.
</event>
<event>
 5   0  0.8150924E-04  0.1101278E+04  0.7818609E-02  0.9203947E-01
       -1   -1    0    0    0  501  0.00000000000E+00  0.00000000000E+00  0.43008382747E+03  0.43008382750E+03  0.50400001928E-02 0.  1.
        1   -1    0    0  501    0  0.00000000000E+00  0.00000000000E+00 -0.70498677274E+03  0.70498677276E+03  0.50400001928E-02 0. -1.
    10030    2    1    2    0    0  0.00000000000E+00  0.00000000000E+00 -0.27490294527E+03  0.11350706003E+04  0.11012781839E+04 0.  0.
        3    1    3    3  502    0 -0.21407537302E+03  0.30082508156E+03 -0.55849520756E+03  0.66950795521E+03  0.10100000352E+00 0. -1.
       -3    1    3    3    0  502  0.21407537302E+03 -0.30082508156E+03  0.28359226229E+03  0.46556264504E+03  0.10100000352E+00 0.  1.
</event>
<event>
 5   0  0.8341767E-04  0.1096502E+04  0.7818609E-02  0.9208608E-01
       -1   -1    0    0    0  501  0.00000000000E+00  0.00000000000E+00  0.48222469925E+03  0.48222469928E+03  0.50400001928E-02 0. -1.
        1   -1    0    0  501    0  0.00000000000E+00  0.00000000000E+00 -0.62331772528E+03  0.62331772530E+03  0.50400001928E-02 0.  1.
    10030    2    1    2    0    0  0.00000000000E+00  0.00000000000E+00 -0.14109302602E+03  0.11055424246E+04  0.10965020796E+04 0.  0.
        2    1    3    3  502    0  0.49452467992E+03 -0.12666807499E+03 -0.27214438751E+03  0.57849980806E+03  0.25500000920E-02 0.  1.
       -2    1    3    3    0  502 -0.49452467992E+03  0.12666807499E+03  0.13105136148E+03  0.52704261652E+03  0.25500000920E-02 0. -1.
</event>
<event>
 5   0  0.8341767E-04  0.1066053E+04  0.7818609E-02  0.9238926E-01
       -1   -1    0    0    0  501  0.00000000000E+00  0.00000000000E+00  0.22177423304E+03  0.22177423310E+03  0.50400001928E-02 0.  1.
        1   -1    0    0  501    0  0.00000000000E+00  0.00000000000E+00 -0.12811098046E+04  0.12811098046E+04  0.50400001928E-02 0. -1.
    10030    2    1    2    0    0  0.00000000000E+00  0.00000000000E+00 -0.10593355716E+04  0.15028840377E+04  0.10660528025E+04 0.  0.
        2    1    3    3  502    0 -0.50945979558E+03  0.15354987090E+03 -0.48530388138E+03  0.72017130146E+03  0.25500000920E-02 0.  1.
       -2    1    3    3    0  502  0.50945979558E+03 -0.15354987090E+03 -0.57403169021E+03  0.78271273628E+03  0.25500000920E-02 0. -1.
</event>
<event>
 5   0  0.8009636E-04  0.1105249E+04  0.7818609E-02  0.9200091E-01
        1   -1    0    0  501    0  0.00000000000E+00  0.00000000000E+00  0.86895133837E+03  0.86895133839E+03  0.50400001928E-02 0. -1.
       -1   -1    0    0    0  501  0.00000000000E+00  0.00000000000E+00 -0.35145078030E+03  0.35145078034E+03  0.50400001928E-02 0.  1.
    10030    2    1    2    0    0  0.00000000000E+00  0.00000000000E+00  0.51750055807E+03  0.12204021187E+04  0.11052486163E+04 0.  0.
        1    1    3    3  502    0 -0.42148068623E+03  0.15583619313E+03  0.61391920063E+03  0.76080725081E+03  0.50400001928E-02 0. -1.
       -1    1    3    3    0  502  0.42148068623E+03 -0.15583619313E+03 -0.96418642563E+02  0.45959486791E+03  0.50400001928E-02 0.  1.
</event>
<event>
 5   0  0.8305271E-04  0.1109481E+04  0.7818609E-02  0.9196000E-01
        1   -1    0    0  501    0  0.00000000000E+00  0.00000000000E+00  0.68876807833E+03  0.68876807834E+03  0.50400001928E-02 0.  1.
       -1   -1    0    0    0  501  0.00000000000E+00  0.00000000000E+00 -0.44679309044E+03  0.44679309047E+03  0.50400001928E-02 0. -1.
    10030    2    1    2    0    0  0.00000000000E+00  0.00000000000E+00  0.24197498789E+03  0.11355611688E+04  0.11094806323E+04 0.  0.
        5    1    3    3  502    0 -0.32253414470E+03 -0.19561197836E+03  0.53726982395E+03  0.65648554767E+03  0.46999998093E+01 0.  1.
       -5    1    3    3    0  502  0.32253414470E+03  0.19561197836E+03 -0.29529483606E+03  0.47907562115E+03  0.46999998093E+01 0. -1.
</event>
<event>
 5   0  0.8341767E-04  0.1093446E+04  0.7818609E-02  0.9211604E-01
       -1   -1    0    0    0  501  0.00000000000E+00  0.00000000000E+00  0.30510862390E+03  0.30510862394E+03  0.50400001928E-02 0.  1.
        1   -1    0    0  501    0  0.00000000000E+00  0.00000000000E+00 -0.97967077006E+03  0.97967077007E+03  0.50400001928E-02 0. -1.
    10030    2    1    2    0    0  0.00000000000E+00  0.00000000000E+00 -0.67456214616E+03  0.12847793940E+04  0.10934459302E+04 0.  0.
        2    1    3    3  502    0  0.45474739806E+03  0.25781681711E+03 -0.14913237673E+03  0.54360387510E+03  0.25500000920E-02 0.  1.
       -2    1    3    3    0  502 -0.45474739806E+03 -0.25781681711E+03 -0.52542976943E+03  0.74117551892E+03  0.25500000920E-02 0. -1.
</event>
<event>
 5   0  0.1372794E-03  0.1098741E+04  0.7818609E-02  0.9206420E-01
        2   -1    0    0  501    0  0.00000000000E+00  0.00000000000E+00  0.82148099383E+03  0.82148099384E+03  0.25500000920E-02 0.  1.
       -2   -1    0    0    0  501  0.00000000000E+00  0.00000000000E+00 -0.36739486605E+03  0.36739486606E+03  0.25500000920E-02 0. -1.
    10030    2    1    2    0    0  0.00000000000E+00  0.00000000000E+00  0.45408612778E+03  0.11888758599E+04  0.10987409152E+04 0.  0.
        4    1    3    3  502    0  0.35306938919E+03 -0.15126194353E+03 -0.19794751402E+03  0.43211456855E+03  0.12699999809E+01 0. -1.
       -4    1    3    3    0  502 -0.35306938919E+03  0.15126194353E+03  0.65203364180E+03  0.75676129135E+03  0.12699999809E+01 0.  1.
</event>
<event>
 5   0  0.1372794E-03  0.1098088E+04  0.7818609E-02  0.9207058E-01
       -2   -1    0    0    0  501  0.00000000000E+00  0.00000000000E+00  0.17759598319E+03  0.17759598321E+03  0.25500000920E-02 0.  1.
        2   -1    0    0  501    0  0.00000000000E+00  0.00000000000E+00 -0.16973868446E+04  0.16973868446E+04  0.25500000920E-02 0. -1.
    10030    2    1    2    0    0  0.00000000000E+00  0.00000000000E+00 -0.15197908615E+04  0.18749828279E+04  0.10980875840E+04 0.  0.
        4    1    3    3  502    0 -0.41547849596E+03  0.25569536668E+03 -0.11899850068E+04  0.12861059173E+04  0.12699999809E+01 0. -1.
       -4    1    3    3    0  502  0.41547849596E+03 -0.25569536668E+03 -0.32980585464E+03  0.58887691057E+03  0.12699999809E+01 0.  1.
</event>
<event>
 5   0  0.1425432E-03  0.1095685E+04  0.7818609E-02  0.9209408E-01
       -2   -1    0    0    0  501  0.00000000000E+00  0.00000000000E+00  0.27982196435E+03  0.27982196436E+03  0.25500000920E-02 0.  1.
        2   -1    0    0  501    0  0.00000000000E+00  0.00000000000E+00 -0.10725797262E+04  0.10725797262E+04  0.25500000920E-02 0. -1.
    10030    2    1    2    0    0  0.00000000000E+00  0.00000000000E+00 -0.79275776184E+03  0.13524016905E+04  0.10956849290E+04 0.  0.
        1    1    3    3  502    0  0.37886269834E+03 -0.32193495824E+03 -0.68040772681E+03  0.84269433145E+03  0.50400001928E-02 0. -1.
       -1    1    3    3    0  502 -0.37886269834E+03  0.32193495824E+03 -0.11235003503E+03  0.50970735910E+03  0.50400001928E-02 0.  1.
</event>
<event>
 5   0  0.7946038E-04  0.1100772E+04  0.7818609E-02  0.9204440E-01
        1   -1    0    0  501    0  0.00000000000E+00  0.00000000000E+00  0.61285751596E+03  0.61285751598E+03  0.50400001928E-02 0. -1.
       -1   -1    0    0    0  501  0.00000000000E+00  0.00000000000E+00 -0.49428236449E+03  0.49428236451E+03  0.50400001928E-02 0.  1.
    10030    2    1    2    0    0  0.00000000000E+00  0.00000000000E+00  0.11857515147E+03  0.11071398805E+04  0.11007718421E+04 0.  0.
        4    1    3    3  502    0 -0.44669817058E+03  0.32150724398E+03  0.55154584992E+02  0.55312729518E+03  0.12699999809E+01 0. -1.
       -4    1    3    3    0  502  0.44669817058E+03 -0.32150724398E+03  0.63420566481E+02  0.55401258531E+03  0.12699999809E+01 0.  1.
</event>
<event>
 5   0  0.7946038E-04  0.1097714E+04  0.7818609E-02  0.9207422E-01
        1   -1    0    0  501    0  0.00000000000E+00  0.00000000000E+00  0.16093437069E+04  0.16093437069E+04  0.50400001928E-02 0.  1.
       -1   -1    0    0    0  501  0.00000000000E+00  0.00000000000E+00 -0.18718452676E+03  0.18718452683E+03  0.50400001928E-02 0. -1.
    10030    2    1    2    0    0  0.00000000000E+00  0.00000000000E+00  0.14221591802E+04  0.17965282338E+04  0.10977144260E+04 0.  0.
        4    1    3    3  502    0  0.38292738131E+03  0.38276950326E+03  0.56381437231E+03  0.78168672197E+03  0.12699999809E+01 0. -1.
       -4    1    3    3    0  502 -0.38292738131E+03 -0.38276950326E+03  0.85834480785E+03  0.10148415118E+04  0.12699999809E+01 0.  1.
</event>
<event>
 5   0  0.1402775E-03  0.1095187E+04  0.7818609E-02  0.9209896E-01
       -2   -1    0    0    0  501  0.00000000000E+00  0.00000000000E+00  0.17809125831E+03  0.17809125832E+03  0.25500000920E-02 0. -1.
        2   -1    0    0  501    0  0.00000000000E+00  0.00000000000E+00 -0.16837360313E+04  0.16837360313E+04  0.25500000920E-02 0.  1.
    10030    2    1    2    0    0  0.00000000000E+00  0.00000000000E+00 -0.15056447730E+04  0.18618272896E+04  0.10951870497E+04 0.  0.
        5    1    3    3  502    0  0.22752444868E+03 -0.49651332089E+03 -0.68602858079E+03  0.87689803069E+03  0.46999998093E+01 0. -1.
       -5    1    3    3    0  502 -0.22752444868E+03  0.49651332089E+03 -0.81961619217E+03  0.98492925890E+03  0.46999998093E+01 0.  1.
</event>
<event>
 5   0  0.8305271E-04  0.1098673E+04  0.7818609E-02  0.9206486E-01
        1   -1    0    0  501    0  0.00000000000E+00  0.00000000000E+00  0.12778918277E+04  0.12778918277E+04  0.50400001928E-02 0. -1.
       -1   -1    0    0    0  501  0.00000000000E+00  0.00000000000E+00 -0.23614718288E+03  0.23614718294E+03  0.50400001928E-02 0.  1.
    10030    2    1    2    0    0  0.00000000000E+00  0.00000000000E+00  0.10417446448E+04  0.15140390106E+04  0.10986729362E+04 0.  0.
        5    1    3    3  502    0  0.30666453167E+03 -0.21489191207E+03  0.10747207518E+04  0.11380986131E+04  0.46999998093E+01 0. -1.
       -5    1    3    3    0  502 -0.30666453167E+03  0.21489191207E+03 -0.32976106980E+02  0.37594039752E+03  0.46999998093E+01 0.  1.
</event>
<event>
 5   0  0.8305271E-04  0.1099793E+04  0.7818609E-02  0.9205394E-01
        1   -1    0    0  501    0  0.00000000000E+00  0.00000000000E+00  0.43395199894E+03  0.43395199897E+03  0.50400001928E-02 0. -1.
       -1   -1    0    0    0  501  0.00000000000E+00  0.00000000000E+00 -0.69681926097E+03  0.69681926099E+03  0.50400001928E-02 0.  1.
    10030    2    1    2    0    0  0.00000000000E+00  0.00000000000E+00 -0.26286726203E+03  0.11307712600E+04  0.10997929100E+04 0.  0.
        5    1    3    3  502    0  0.41133102137E+03 -0.24048364052E+03 -0.41364345706E+03  0.63099016638E+03  0.46999998093E+01 0.  1.
       -5    1    3    3    0  502 -0.41133102137E+03  0.24048364052E+03  0.15077619503E+03  0.49978109357E+03  0.46999998093E+01 0. -1.
</event>
<event>
 5   0  0.1396936E-03  0.1100619E+04  0.7818609E-02  0.9204589E-01
        2   -1    0    0  501    0  0.00000000000E+00  0.00000000000E+00  0.11338609756E+04  0.11338609756E+04  0.25500000920E-02 0.  1.
       -2   -1    0    0    0  501  0.00000000000E+00  0.00000000000E+00 -0.26708783357E+03  0.26708783358E+03  0.25500000920E-02 0. -1.
    10030    2    1    2    0    0  0.00000000000E+00  0.00000000000E+00  0.86677314207E+03  0.14009488092E+04  0.11006188651E+04 0.  0.
        2    1    3    3  502    0  0.34056130661E+03 -0.40193634737E+03  0.23090104609E+03  0.57519572668E+03  0.25500000920E-02 0. -1.
       -2    1    3    3    0  502 -0.34056130661E+03  0.40193634737E+03  0.63587209598E+03  0.82575308256E+03  0.25500000920E-02 0.  1.
</event>
<event>
 5   0  0.8150924E-04  0.1103695E+04  0.7818609E-02  0.9201598E-01
       -1   -1    0    0    0  501  0.00000000000E+00  0.00000000000E+00  0.83898185595E+03  0.83898185596E+03  0.50400001928E-02 0. -1.
        1   -1    0    0  501    0  0.00000000000E+00  0.00000000000E+00 -0.36298243790E+03  0.36298243794E+03  0.50400001928E-02 0.  1.
    10030    2    1    2    0    0  0.00000000000E+00  0.00000000000E+00  0.47599941805E+03  0.12019642939E+04  0.11036950294E+04 0.  0.
        3    1    3    3  502    0  0.12295165421E+03  0.82533870552E+02 -0.34094051160E+03  0.37171143608E+03  0.10100000352E+00 0.  1.
       -3    1    3    3    0  502 -0.12295165421E+03 -0.82533870552E+02  0.81693992965E+03  0.83025285782E+03  0.10100000352E+00 0. -1.
</event>
<event>
 5   0  0.1429680E-03  0.1100567E+04  0.7818609E-02  0.9204639E-01
       -2   -1    0    0    0  501  0.00000000000E+00  0.00000000000E+00  0.87032794088E+03  0.87032794088E+03  0.25500000920E-02 0. -1.
        2   -1    0    0  501    0  0.00000000000E+00  0.00000000000E+00 -0.34792885498E+03  0.34792885499E+03  0.25500000920E-02 0.  1.
    10030    2    1    2    0    0  0.00000000000E+00  0.00000000000E+00  0.52239908590E+03  0.12182567959E+04  0.11005674971E+04 0.  0.
        3    1    3    3  502    0  0.33971201054E+03 -0.16219236584E+03 -0.18309610584E+03  0.41861056821E+03  0.10100000352E+00 0.  1.
       -3    1    3    3    0  502 -0.33971201054E+03  0.16219236584E+03  0.70549519174E+03  0.79964622766E+03  0.10100000352E+00 0. -1.
</event>
<event>
 5   0  0.5409500E-04  0.1086238E+04  0.7818609E-02  0.9218710E-01
        3   -1    0    0  501    0  0.00000000000E+00  0.00000000000E+00  0.32763822655E+03  0.32763824212E+03  0.10100000352E+00 0.  1.
       -3   -1    0    0    0  501  0.00000000000E+00  0.00000000000E+00 -0.90031734777E+03  0.90031735343E+03  0.10100000352E+00 0. -1.
    10030    2    1    2    0    0  0.00000000000E+00  0.00000000000E+00 -0.57267912122E+03  0.12279555955E+04  0.10862382652E+04 0.  0.
        1    1    3    3  502    0 -0.24319512990E+03  0.48108555710E+03 -0.21142787749E+03  0.57904139045E+03  0.50400001928E-02 0. -1.
       -1    1    3    3    0  502  0.24319512990E+03 -0.48108555710E+03 -0.36125124373E+03  0.64891420510E+03  0.50400001928E-02 0.  1.
</event>
<event>
 5   0  0.1372794E-03  0.1100863E+04  0.7818609E-02  0.9204351E-01
        2   -1    0    0  501    0  0.00000000000E+00  0.00000000000E+00  0.49951615475E+03  0.49951615476E+03  0.25500000920E-02 0. -1.
       -2   -1    0    0    0  501  0.00000000000E+00  0.00000000000E+00 -0.60653673421E+03  0.60653673421E+03  0.25500000920E-02 0.  1.
    10030    2    1    2    0    0  0.00000000000E+00  0.00000000000E+00 -0.10702057945E+03  0.11060528890E+04  0.11008631108E+04 0.  0.
        4    1    3    3  502    0 -0.50700533666E+03 -0.20120076960E+03  0.20574177567E+02  0.54585810498E+03  0.12699999809E+01 0. -1.
       -4    1    3    3    0  502  0.50700533666E+03  0.20120076960E+03 -0.12759475702E+03  0.56019478399E+03  0.12699999809E+01 0.  1.
</event>
<event>
 5   0  0.1372794E-03  0.1100890E+04  0.7818609E-02  0.9204324E-01
       -2   -1    0    0    0  501  0.00000000000E+00  0.00000000000E+00  0.39270447651E+03  0.39270447652E+03  0.25500000920E-02 0.  1.
        2   -1    0    0  501    0  0.00000000000E+00  0.00000000000E+00 -0.77154698533E+03  0.77154698534E+03  0.25500000920E-02 0. -1.
    10030    2    1    2    0    0  0.00000000000E+00  0.00000000000E+00 -0.37884250882E+03  0.11642514619E+04  0.11008904668E+04 0.  0.
        4    1    3    3  502    0  0.28635418029E+03  0.50869930214E+02 -0.68365325636E+03  0.74294673712E+03  0.12699999809E+01 0. -1.
       -4    1    3    3    0  502 -0.28635418029E+03 -0.50869930214E+02  0.30481074754E+03  0.42130472474E+03  0.12699999809E+01 0.  1.
</event>
<event>
 5   0  0.8341767E-04  0.1099269E+04  0.7818609E-02  0.9205905E-01
        1   -1    0    0  501    0  0.00000000000E+00  0.00000000000E+00  0.92745968021E+03  0.92745968023E+03  0.50400001928E-02 0. -1.
       -1   -1    0    0    0  501  0.00000000000E+00  0.00000000000E+00 -0.32572619916E+03  0.32572619920E+03  0.50400001928E-02 0.  1.
    10030    2    1    2    0    0  0.00000000000E+00  0.00000000000E+00  0.60173348105E+03  0.12531858794E+04  0.10992686961E+04 0.  0.
        2    1    3    3  502    0  0.54515070691E+03 -0.64843172662E+02  0.33111453555E+03  0.64111681146E+03  0.25500000920E-02 0. -1.
       -2    1    3    3    0  502 -0.54515070691E+03  0.64843172662E+02  0.27061894551E+03  0.61206906796E+03  0.25500000920E-02 0.  1.
</event>
<event>
 5   0  0.1425432E-03  0.1111239E+04  0.7818609E-02  0.9194307E-01
        2   -1    0    0  501    0  0.00000000000E+00  0.00000000000E+00  0.11773237447E+04  0.11773237447E+04  0.25500000920E-02 0.  1.
       -2   -1    0    0    0  501  0.00000000000E+00  0.00000000000E+00 -0.26221568564E+03  0.26221568565E+03  0.25500000920E-02 0. -1.
    10030    2    1    2    0    0  0.00000000000E+00  0.00000000000E+00  0.91510805908E+03  0.14395394304E+04  0.11112385036E+04 0.  0.
        1    1    3    3  502    0  0.79414028687E+02 -0.17823576034E+03  0.11314778625E+04  0.11481797453E+04  0.50400001928E-02 0.  1.
       -1    1    3    3    0  502 -0.79414028687E+02  0.17823576034E+03 -0.21636980342E+03  0.29135968505E+03  0.50400001928E-02 0. -1.
</event>
<event>
 5   0  0.8009636E-04  0.1087095E+04  0.7818609E-02  0.9217862E-01
        1   -1    0    0  501    0  0.00000000000E+00  0.00000000000E+00  0.88046192776E+03  0.88046192777E+03  0.50400001928E-02 0. -1.
       -1   -1    0    0    0  501  0.00000000000E+00  0.00000000000E+00 -0.33555548152E+03  0.33555548156E+03  0.50400001928E-02 0.  1.
    10030    2    1    2    0    0  0.00000000000E+00  0.00000000000E+00  0.54490644624E+03  0.12160174093E+04  0.10870948922E+04 0.  0.
        1    1    3    3  502    0  0.51565845962E+03  0.16231674013E+03  0.20924075611E+03  0.57968272800E+03  0.50400001928E-02 0.  1.
       -1    1    3    3    0  502 -0.51565845962E+03 -0.16231674013E+03  0.33566569013E+03  0.63633468133E+03  0.50400001928E-02 0. -1.
</event>
<event>
 5   0  0.8305271E-04  0.1108080E+04  0.7818609E-02  0.9197352E-01
        1   -1    0    0  501    0  0.00000000000E+00  0.00000000000E+00  0.58501507671E+03  0.58501507674E+03  0.50400001928E-02 0.  1.
       -1   -1    0    0    0  501  0.00000000000E+00  0.00000000000E+00 -0.52470540394E+03  0.52470540397E+03  0.50400001928E-02 0. -1.
    10030    2    1    2    0    0  0.00000000000E+00  0.00000000000E+00  0.60309672770E+02  0.11097204807E+04  0.11080804523E+04 0.  0.
        5    1    3    3  502    0 -0.45464974304E+03 -0.10860678554E+03 -0.26766832721E+03  0.53867452705E+03  0.46999998093E+01 0. -1.
       -5    1    3    3    0  502  0.45464974304E+03  0.10860678554E+03  0.32797799998E+03  0.57104595365E+03  0.46999998093E+01 0.  1.
</event>
<event>
 5   0  0.1425432E-03  0.1100805E+04  0.7818609E-02  0.9204408E-01
        2   -1    0    0  501    0  0.00000000000E+00  0.00000000000E+00  0.59546960061E+03  0.59546960061E+03  0.25500000920E-02 0.  1.
       -2   -1    0    0    0  501  0.00000000000E+00  0.00000000000E+00 -0.50874595387E+03  0.50874595388E+03  0.25500000920E-02 0. -1.
    10030    2    1    2    0    0  0.00000000000E+00  0.00000000000E+00  0.86723646737E+02  0.11042155545E+04  0.11008047056E+04 0.  0.
        1    1    3    3  502    0  0.33127815451E+03 -0.43269129549E+03  0.12090449819E+03  0.55819787760E+03  0.50400001928E-02 0.  1.
       -1    1    3    3    0  502 -0.33127815451E+03  0.43269129549E+03 -0.34180851451E+02  0.54601767689E+03  0.50400001928E-02 0. -1.
</event>
<event>
 5   0  0.8305271E-04  0.1102942E+04  0.7818609E-02  0.9202329E-01
        1   -1    0    0  501    0  0.00000000000E+00  0.00000000000E+00  0.70336508875E+03  0.70336508877E+03  0.50400001928E-02 0.  1.
       -1   -1    0    0    0  501  0.00000000000E+00  0.00000000000E+00 -0.43237928958E+03  0.43237928961E+03  0.50400001928E-02 0. -1.
    10030    2    1    2    0    0  0.00000000000E+00  0.00000000000E+00  0.27098579917E+03  0.11357443784E+04  0.11029424235E+04 0.  0.
        5    1    3    3  502    0  0.15367004306E+02  0.29190833973E+03 -0.34601594236E+03  0.45298537062E+03  0.46999998093E+01 0. -1.
       -5    1    3    3    0  502 -0.15367004306E+02 -0.29190833973E+03  0.61700174153E+03  0.68275900776E+03  0.46999998093E+01 0.  1.
</event>
<event>
 5   0  0.8150924E-04  0.1116469E+04  0.7818609E-02  0.9189287E-01
       -1   -1    0    0    0  501  0.00000000000E+00  0.00000000000E+00  0.17808086575E+03  0.17808086582E+03  0.50400001928E-02 0.  1.
        1   -1    0    0  501    0  0.00000000000E+00  0.00000000000E+00 -0.17499127835E+04  0.17499127836E+04  0.50400001928E-02 0. -1.
    10030    2    1    2    0    0  0.00000000000E+00  0.00000000000E+00 -0.15718319178E+04  0.19279936494E+04  0.11164694058E+04 0.  0.
        3    1    3    3  502    0  0.53005753109E+03  0.10440139471E+03 -0.10286948210E+04  0.11619267113E+04  0.10100000352E+00 0. -1.
       -3    1    3    3    0  502 -0.53005753109E+03 -0.10440139471E+03 -0.54313709685E+03  0.76606693811E+03  0.10100000352E+00 0.  1.
</event>
<event>
 5   0  0.7946038E-04  0.1099279E+04  0.7818609E-02  0.9205895E-01
        1   -1    0    0  501    0  0.00000000000E+00  0.00000000000E+00  0.11240294097E+04  0.11240294097E+04  0.50400001928E-02 0.  1.
       -1   -1    0    0    0  501  0.00000000000E+00  0.00000000000E+00 -0.26876839161E+03  0.26876839166E+03  0.50400001928E-02 0. -1.
    10030    2    1    2    0    0  0.00000000000E+00  0.00000000000E+00  0.85526101808E+03  0.13927978014E+04  0.10992789939E+04 0.  0.
        4    1    3    3  502    0  0.21141111353E+03  0.39985603749E+03  0.82329989966E+03  0.93936353310E+03  0.12699999809E+01 0.  1.
       -4    1    3    3    0  502 -0.21141111353E+03 -0.39985603749E+03  0.31961118417E+02  0.45343426826E+03  0.12699999809E+01 0. -1.
</event>
<event>
 5   0  0.1402775E-03  0.1130425E+04  0.7818609E-02  0.9176034E-01
        2   -1    0    0  501    0  0.00000000000E+00  0.00000000000E+00  0.14632757848E+04  0.14632757848E+04  0.25500000920E-02 0.  1.
       -2   -1    0    0    0  501  0.00000000000E+00  0.00000000000E+00 -0.21832199097E+03  0.21832199099E+03  0.25500000920E-02 0. -1.
    10030    2    1    2    0    0  0.00000000000E+00  0.00000000000E+00  0.12449537939E+04  0.16815977758E+04  0.11304251991E+04 0.  0.
        5    1    3    3  502    0  0.16703159065E+02 -0.53666221829E+03  0.88505838758E+03  0.10351984213E+04  0.46999998093E+01 0.  1.
       -5    1    3    3    0  502 -0.16703159065E+02  0.53666221829E+03  0.35989540628E+03  0.64639935452E+03  0.46999998093E+01 0. -1.
</event>
<event>
 5   0  0.1425432E-03  0.1100108E+04  0.7818609E-02  0.9205086E-01
       -2   -1    0    0    0  501  0.00000000000E+00  0.00000000000E+00  0.75682843317E+03  0.75682843317E+03  0.25500000920E-02 0.  1.
        2   -1    0    0  501    0  0.00000000000E+00  0.00000000000E+00 -0.39977290678E+03  0.39977290679E+03  0.25500000920E-02 0. -1.
    10030    2    1    2    0    0  0.00000000000E+00  0.00000000000E+00  0.35705552639E+03  0.11566013400E+04  0.11001081813E+04 0.  0.
        1    1    3    3  502    0 -0.43091609580E+03 -0.93159660150E+02  0.52434454855E+03  0.68505810667E+03  0.50400001928E-02 0.  1.
       -1    1    3    3    0  502  0.43091609580E+03  0.93159660150E+02 -0.16728902215E+03  0.47154323329E+03  0.50400001928E-02 0. -1.
</event>
<event>
 5   0  0.8341767E-04  0.1102230E+04  0.7818609E-02  0.9203021E-01
       -1   -1    0    0    0  501  0.00000000000E+00  0.00000000000E+00  0.50992268690E+03  0.50992268692E+03  0.50400001928E-02 0. -1.
        1   -1    0    0  501    0  0.00000000000E+00  0.00000000000E+00 -0.59563516989E+03  0.59563516991E+03  0.50400001928E-02 0.  1.
    10030    2    1    2    0    0  0.00000000000E+00  0.00000000000E+00 -0.85712482991E+02  0.11055578568E+04  0.11022302595E+04 0.  0.
        2    1    3    3  502    0  0.11737267930E+03  0.10465742956E+03 -0.57265382515E+03  0.59385345572E+03  0.25500000920E-02 0.  1.
       -2    1    3    3    0  502 -0.11737267930E+03 -0.10465742956E+03  0.48694134216E+03  0.51170440111E+03  0.25500000920E-02 0. -1.
</event>
<event>
 5   0  0.8305271E-04  0.1096959E+04  0.7818609E-02  0.9208161E-01
       -1   -1    0    0    0  501  0.00000000000E+00  0.00000000000E+00  0.77511256320E+03  0.77511256322E+03  0.50400001928E-02 0.  1.
        1   -1    0    0  501    0  0.00000000000E+00  0.00000000000E+00 -0.38811071946E+03  0.38811071949E+03  0.50400001928E-02 0. -1.
    10030    2    1    2    0    0  0.00000000000E+00  0.00000000000E+00  0.38700184374E+03  0.11632232827E+04  0.10969585126E+04 0.  0.
        5    1    3    3  502    0  0.44451485689E+03 -0.11922386541E+03 -0.12284843165E+03  0.47636290287E+03  0.46999998093E+01 0. -1.
       -5    1    3    3    0  502 -0.44451485689E+03  0.11922386541E+03  0.50985027539E+03  0.68686037984E+03  0.46999998093E+01 0.  1.
</event>
<event>
 5   0  0.1429680E-03  0.1099543E+04  0.7818609E-02  0.9205637E-01
        2   -1    0    0  501    0  0.00000000000E+00  0.00000000000E+00  0.19436412198E+04  0.19436412198E+04  0.25500000920E-02 0.  1.
       -2   -1    0    0    0  501  0.00000000000E+00  0.00000000000E+00 -0.15550654051E+03  0.15550654053E+03  0.25500000920E-02 0. -1.
    10030    2    1    2    0    0  0.00000000000E+00  0.00000000000E+00  0.17881346793E+04  0.20991477604E+04  0.10995434000E+04 0.  0.
        3    1    3    3  502    0  0.47263387892E+03 -0.23728754318E+03  0.60731471425E+03  0.80530698122E+03  0.10100000352E+00 0. -1.
       -3    1    3    3    0  502 -0.47263387892E+03  0.23728754318E+03  0.11808199651E+04  0.12938407791E+04  0.10100000352E+00 0.  1.
</event>
<event>
 5   0  0.1425432E-03  0.1097066E+04  0.7818609E-02  0.9208056E-01
        2   -1    0    0  501    0  0.00000000000E+00  0.00000000000E+00  0.57984209489E+03  0.57984209490E+03  0.25500000920E-02 0.  1.
       -2   -1    0    0    0  501  0.00000000000E+00  0.00000000000E+00 -0.51891423861E+03  0.51891423861E+03  0.25500000920E-02 0. -1.
    10030    2    1    2    0    0  0.00000000000E+00  0.00000000000E+00  0.60927856284E+02  0.10987563335E+04  0.10970657577E+04 0.  0.
        1    1    3    3  502    0  0.15114725214E+02  0.80332053186E+02  0.57370795027E+03  0.57950194643E+03  0.50400001928E-02 0.  1.
       -1    1    3    3    0  502 -0.15114725214E+02 -0.80332053186E+02 -0.51278009399E+03  0.51925438708E+03  0.50400001928E-02 0. -1.
</event>
<event>
 5   0  0.5409500E-04  0.1103664E+04  0.7818609E-02  0.9201628E-01
        3   -1    0    0  501    0  0.00000000000E+00  0.00000000000E+00  0.35168018941E+03  0.35168020392E+03  0.10100000352E+00 0.  1.
       -3   -1    0    0    0  501  0.00000000000E+00  0.00000000000E+00 -0.86589565970E+03  0.86589566559E+03  0.10100000352E+00 0. -1.
    10030    2    1    2    0    0  0.00000000000E+00  0.00000000000E+00 -0.51421547029E+03  0.12175758695E+04  0.11036636481E+04 0.  0.
        5    1    3    3  502    0  0.21776465300E+03  0.28808511367E+03  0.20318696304E+03  0.41439294005E+03  0.46999998093E+01 0. -1.
       -5    1    3    3    0  502 -0.21776465300E+03 -0.28808511367E+03 -0.71740243333E+03  0.80318292945E+03  0.46999998093E+01 0.  1.
</event>
<event>
 5   0  0.8305271E-04  0.1103628E+04  0.7818609E-02  0.9201663E-01
        1   -1    0    0  501    0  0.00000000000E+00  0.00000000000E+00  0.74604857967E+03  0.74604857969E+03  0.50400001928E-02 0.  1.
       -1   -1    0    0    0  501  0.00000000000E+00  0.00000000000E+00 -0.40814824228E+03  0.40814824231E+03  0.50400001928E-02 0. -1.
    10030    2    1    2    0    0  0.00000000000E+00  0.00000000000E+00  0.33790033739E+03  0.11541968220E+04  0.11036275032E+04 0.  0.
        5    1    3    3  502    0  0.19135009579E+03  0.51753798011E+03  0.16477913086E+03  0.57587730636E+03  0.46999998093E+01 0.  1.
       -5    1    3    3    0  502 -0.19135009579E+03 -0.51753798011E+03  0.17312120653E+03  0.57831951564E+03  0.46999998093E+01 0. -1.
</event>
<event>
 5   0  0.8341767E-04  0.1091839E+04  0.7818609E-02  0.9213182E-01
       -1   -1    0    0    0  501  0.00000000000E+00  0.00000000000E+00  0.27694013216E+03  0.27694013220E+03  0.50400001928E-02 0.  1.
        1   -1    0    0  501    0  0.00000000000E+00  0.00000000000E+00 -0.10761471455E+04  0.10761471455E+04  0.50400001928E-02 0. -1.
    10030    2    1    2    0    0  0.00000000000E+00  0.00000000000E+00 -0.79920701334E+03  0.13530872777E+04  0.10918394254E+04 0.  0.
        2    1    3    3  502    0 -0.27653443833E+03 -0.20756567997E+03 -0.92314841451E+03  0.98577776517E+03  0.25500000920E-02 0. -1.
       -2    1    3    3    0  502  0.27653443833E+03  0.20756567997E+03  0.12394140116E+03  0.36730951255E+03  0.25500000920E-02 0.  1.
</event>
<event>
 5   0  0.8305271E-04  0.1101813E+04  0.7818609E-02  0.9203427E-01
        1   -1    0    0  501    0  0.00000000000E+00  0.00000000000E+00  0.12557767654E+04  0.12557767654E+04  0.50400001928E-02 0. -1.
       -1   -1    0    0    0  501  0.00000000000E+00  0.00000000000E+00 -0.24168129082E+03  0.24168129087E+03  0.50400001928E-02 0.  1.
    10030    2    1    2    0    0  0.00000000000E+00  0.00000000000E+00  0.10140954746E+04  0.14974580563E+04  0.11018125969E+04 0.  0.
        5    1    3    3  502    0  0.12273697338E+03 -0.47678129103E+03  0.84296720951E+03  0.97621748111E+03  0.46999998093E+01 0. -1.
       -5    1    3    3    0  502 -0.12273697338E+03  0.47678129103E+03  0.17112826507E+03  0.52124057518E+03  0.46999998093E+01 0.  1.
</event>
<event>
 5   0  0.8341767E-04  0.1102181E+04  0.7818609E-02  0.9203068E-01
       -1   -1    0    0    0  501  0.00000000000E+00  0.00000000000E+00  0.26987328936E+03  0.26987328941E+03  0.50400001928E-02 0. -1.
        1   -1    0    0  501    0  0.00000000000E+00  0.00000000000E+00 -0.11253464168E+04  0.11253464168E+04  0.50400001928E-02 0.  1.
    10030    2    1    2    0    0  0.00000000000E+00  0.00000000000E+00 -0.85547312742E+03  0.13952197062E+04  0.11021813630E+04 0.  0.
        2    1    3    3  502    0 -0.37323339185E+02 -0.54020199000E+03 -0.29808688771E+03  0.61811569651E+03  0.25500000920E-02 0. -1.
       -2    1    3    3    0  502  0.37323339185E+02  0.54020199000E+03 -0.55738623971E+03  0.77710400969E+03  0.25500000920E-02 0.  1.
</event>
<event>
 5   0  0.8305271E-04  0.1097925E+04  0.7818609E-02  0.9207217E-01
       -1   -1    0    0    0  501  0.00000000000E+00  0.00000000000E+00  0.20237087702E+03  0.20237087708E+03  0.50400001928E-02 0.  1.
        1   -1    0    0  501    0  0.00000000000E+00  0.00000000000E+00 -0.14891462530E+04  0.14891462530E+04  0.50400001928E-02 0. -1.
    10030    2    1    2    0    0  0.00000000000E+00  0.00000000000E+00 -0.12867753760E+04  0.16915171301E+04  0.10979250125E+04 0.  0.
        5    1    3    3  502    0 -0.50285039769E+03 -0.71443705383E+02 -0.32252179596E+03  0.60166861673E+03  0.46999998093E+01 0.  1.
       -5    1    3    3    0  502  0.50285039769E+03  0.71443705383E+02 -0.96425358000E+03  0.10898485133E+04  0.46999998093E+01 0. -1.
</event>
<event>
 5   0  0.5409500E-04  0.1106843E+04  0.7818609E-02  0.9198548E-01
       -4   -1    0    0    0  501  0.00000000000E+00  0.00000000000E+00  0.32907020976E+03  0.32907266045E+03  0.12699999809E+01 0. -1.
        4   -1    0    0  501    0  0.00000000000E+00  0.00000000000E+00 -0.93072249401E+03  0.93072336049E+03  0.12699999809E+01 0.  1.
    10030    2    1    2    0    0  0.00000000000E+00  0.00000000000E+00 -0.60165228425E+03  0.12597960209E+04  0.11068426009E+04 0.  0.
        5    1    3    3  502    0 -0.25273215497E+03  0.48936910820E+03 -0.36209179482E+03  0.65915720741E+03  0.46999998093E+01 0.  1.
       -5    1    3    3    0  502  0.25273215497E+03 -0.48936910820E+03 -0.23956048943E+03  0.60063881352E+03  0.46999998093E+01 0. -1.
</event>
<event>
 5   0  0.1429680E-03  0.1097803E+04  0.7818609E-02  0.9207336E-01
       -2   -1    0    0    0  501  0.00000000000E+00  0.00000000000E+00  0.75661142341E+03  0.75661142341E+03  0.25500000920E-02 0.  1.
        2   -1    0    0  501    0  0.00000000000E+00  0.00000000000E+00 -0.39821359975E+03  0.39821359976E+03  0.25500000920E-02 0. -1.
    10030    2    1    2    0    0  0.00000000000E+00  0.00000000000E+00  0.35839782366E+03  0.11548250232E+04  0.10978031855E+04 0.  0.
        3    1    3    3  502    0 -0.10544584279E+03  0.13625126773E+03  0.72743087048E+03  0.74755529244E+03  0.10100000352E+00 0.  1.
       -3    1    3    3    0  502  0.10544584279E+03 -0.13625126773E+03 -0.36903304683E+03  0.40726973073E+03  0.10100000352E+00 0. -1.
</event>
<event>
 5   0  0.1396936E-03  0.1096942E+04  0.7818609E-02  0.9208178E-01
        2   -1    0    0  501    0  0.00000000000E+00  0.00000000000E+00  0.15870941965E+04  0.15870941965E+04  0.25500000920E-02 0.  1.
       -2   -1    0    0    0  501  0.00000000000E+00  0.00000000000E+00 -0.18954162840E+03  0.18954162842E+03  0.25500000920E-02 0. -1.
    10030    2    1    2    0    0  0.00000000000E+00  0.00000000000E+00  0.13975525681E+04  0.17766358250E+04  0.10969419647E+04 0.  0.
        2    1    3    3  502    0  0.20027066713E+02  0.53246640598E+03  0.90932058387E+03  0.10539380822E+04  0.25500000920E-02 0.  1.
       -2    1    3    3    0  502 -0.20027066713E+02 -0.53246640598E+03  0.48823198427E+03  0.72269774274E+03  0.25500000920E-02 0. -1.
</event>
<event>
 5   0  0.1425432E-03  0.1101284E+04  0.7818609E-02  0.9203941E-01
       -2   -1    0    0    0  501  0.00000000000E+00  0.00000000000E+00  0.56958986889E+03  0.56958986889E+03  0.25500000920E-02 0. -1.
        2   -1    0    0  501    0  0.00000000000E+00  0.00000000000E+00 -0.53232440367E+03  0.53232440368E+03  0.25500000920E-02 0.  1.
    10030    2    1    2    0    0  0.00000000000E+00  0.00000000000E+00  0.37265465210E+02  0.11019142726E+04  0.11012839548E+04 0.  0.
        1    1    3    3  502    0 -0.12449647935E+03 -0.37753356083E+03  0.39986999978E+03  0.56385013937E+03  0.50400001928E-02 0. -1.
       -1    1    3    3    0  502  0.12449647935E+03  0.37753356083E+03 -0.36260453457E+03  0.53806413320E+03  0.50400001928E-02 0.  1.
</event>
<event>
 5   0  0.8341767E-04  0.1107854E+04  0.7818609E-02  0.9197571E-01
       -1   -1    0    0    0  501  0.00000000000E+00  0.00000000000E+00  0.76952202615E+03  0.76952202617E+03  0.50400001928E-02 0. -1.
        1   -1    0    0  501    0  0.00000000000E+00  0.00000000000E+00 -0.39873438930E+03  0.39873438933E+03  0.50400001928E-02 0.  1.
    10030    2    1    2    0    0  0.00000000000E+00  0.00000000000E+00  0.37078763685E+03  0.11682564155E+04  0.11078535917E+04 0.  0.
        2    1    3    3  502    0  0.33406694031E+03  0.31581572213E+03 -0.14047681226E+03  0.48070159740E+03  0.25500000920E-02 0.  1.
       -2    1    3    3    0  502 -0.33406694031E+03 -0.31581572213E+03  0.51126444911E+03  0.68755481810E+03  0.25500000920E-02 0. -1.
</event>
<event>
 5   0  0.1372794E-03  0.1135732E+04  0.7818609E-02  0.9171048E-01
       -2   -1    0    0    0  501  0.00000000000E+00  0.00000000000E+00  0.81462990125E+03  0.81462990126E+03  0.25500000920E-02 0. -1.
        2   -1    0    0  501    0  0.00000000000E+00  0.00000000000E+00 -0.39585053076E+03  0.39585053077E+03  0.25500000920E-02 0.  1.
    10030    2    1    2    0    0  0.00000000000E+00  0.00000000000E+00  0.41877937049E+03  0.12104804320E+04  0.11357317972E+04 0.  0.
        4    1    3    3  502    0  0.52631682350E+03  0.19703494934E+03  0.29622516500E+03  0.63528193051E+03  0.12699999809E+01 0.  1.
       -4    1    3    3    0  502 -0.52631682350E+03 -0.19703494934E+03  0.12255420549E+03  0.57519850151E+03  0.12699999809E+01 0. -1.
</event>
<event>
 5   0  0.8009636E-04  0.1112505E+04  0.7818609E-02  0.9193089E-01
        1   -1    0    0  501    0  0.00000000000E+00  0.00000000000E+00  0.11611741264E+04  0.11611741264E+04  0.50400001928E-02 0. -1.
       -1   -1    0    0    0  501  0.00000000000E+00  0.00000000000E+00 -0.26646877861E+03  0.26646877866E+03  0.50400001928E-02 0.  1.
    10030    2    1    2    0    0  0.00000000000E+00  0.00000000000E+00  0.89470534778E+03  0.14276429051E+04  0.11125046539E+04 0.  0.
        1    1    3    3  502    0 -0.73643434762E+02 -0.54070448296E+03  0.58575524718E+03  0.80055849443E+03  0.50400001928E-02 0. -1.
       -1    1    3    3    0  502  0.73643434762E+02  0.54070448296E+03  0.30895010060E+03  0.62708441064E+03  0.50400001928E-02 0.  1.
</event>
<event>
 5   0  0.7946038E-04  0.1098355E+04  0.7818609E-02  0.9206797E-01
        1   -1    0    0  501    0  0.00000000000E+00  0.00000000000E+00  0.12659689903E+04  0.12659689903E+04  0.50400001928E-02 0. -1.
       -1   -1    0    0    0  501  0.00000000000E+00  0.00000000000E+00 -0.23823318896E+03  0.23823318901E+03  0.50400001928E-02 0.  1.
    10030    2    1    2    0    0  0.00000000000E+00  0.00000000000E+00  0.10277358014E+04  0.15042021793E+04  0.10983548238E+04 0.  0.
        4    1    3    3  502    0 -0.30532182764E+03  0.84914505919E+02 -0.10037037441E+03  0.33242700959E+03  0.12699999809E+01 0.  1.
       -4    1    3    3    0  502  0.30532182764E+03 -0.84914505919E+02  0.11281061758E+04  0.11717751698E+04  0.12699999809E+01 0. -1.
</event>
<event>
 5   0  0.1429680E-03  0.1103432E+04  0.7818609E-02  0.9201853E-01
        2   -1    0    0  501    0  0.00000000000E+00  0.00000000000E+00  0.11316876633E+04  0.11316876633E+04  0.25500000920E-02 0. -1.
       -2   -1    0    0    0  501  0.00000000000E+00  0.00000000000E+00 -0.26897044011E+03  0.26897044012E+03  0.25500000920E-02 0.  1.
    10030    2    1    2    0    0  0.00000000000E+00  0.00000000000E+00  0.86271722319E+03  0.14006581034E+04  0.11034319714E+04 0.  0.
        3    1    3    3  502    0  0.34092245059E+03  0.43348603703E+03  0.45151943391E+03  0.71274684918E+03  0.10100000352E+00 0. -1.
       -3    1    3    3    0  502 -0.34092245059E+03 -0.43348603703E+03  0.41119778927E+03  0.68791125424E+03  0.10100000352E+00 0.  1.
</event>
<event>
 5   0  0.8305271E-04  0.1100314E+04  0.7818609E-02  0.9204886E-01
        1   -1    0    0  501    0  0.00000000000E+00  0.00000000000E+00  0.30878664570E+03  0.30878664574E+03  0.50400001928E-02 0. -1.
       -1   -1    0    0    0  501  0.00000000000E+00  0.00000000000E+00 -0.98020013088E+03  0.98020013089E+03  0.50400001928E-02 0.  1.
    10030    2    1    2    0    0  0.00000000000E+00  0.00000000000E+00 -0.67141348518E+03  0.12889867766E+04  0.11003139744E+04 0.  0.
        5    1    3    3  502    0  0.40779101353E+03  0.13920804186E+03 -0.73637446563E+03  0.85319507339E+03  0.46999998093E+01 0.  1.
       -5    1    3    3    0  502 -0.40779101353E+03 -0.13920804186E+03  0.64960980449E+02  0.43579170324E+03  0.46999998093E+01 0. -1.
</event>
<event>
 5   0  0.1429680E-03  0.1104110E+04  0.7818609E-02  0.9201195E-01
        2   -1    0    0  501    0  0.00000000000E+00  0.00000000000E+00  0.58245653460E+03  0.58245653461E+03  0.25500000920E-02 0.  1.
       -2   -1    0    0    0  501  0.00000000000E+00  0.00000000000E+00 -0.52324019471E+03  0.52324019472E+03  0.25500000920E-02 0. -1.
    10030    2    1    2    0    0  0.00000000000E+00  0.00000000000E+00  0.59216339887E+02  0.11056967293E+04  0.11041099050E+04 0.  0.
        3    1    3    3  502    0  0.12709262984E+03 -0.12356402262E+03 -0.49396638987E+03  0.52480797324E+03  0.10100000352E+00 0. -1.
       -3    1    3    3    0  502 -0.12709262984E+03  0.12356402262E+03  0.55318272976E+03  0.58088875609E+03  0.10100000352E+00 0.  1.
</event>
<event>
 5   0  0.7946038E-04  0.1091026E+04  0.7818609E-02  0.9213983E-01
        1   -1    0    0  501    0  0.00000000000E+00  0.00000000000E+00  0.16556357969E+04  0.16556357969E+04  0.50400001928E-02 0. -1.
       -1   -1    0    0    0  501  0.00000000000E+00  0.00000000000E+00 -0.17974034894E+03  0.17974034901E+03  0.50400001928E-02 0.  1.
    10030    2    1    2    0    0  0.00000000000E+00  0.00000000000E+00  0.14758954479E+04  0.18353761459E+04  0.10910262250E+04 0.  0.
        4    1    3    3  502    0 -0.44720290902E+03  0.14810877339E+03  0.27523395773E+03  0.54560241475E+03  0.12699999809E+01 0.  1.
       -4    1    3    3    0  502  0.44720290902E+03 -0.14810877339E+03  0.12006614902E+04  0.12897737312E+04  0.12699999809E+01 0. -1.
</event>
<event>
 5   0  0.8305271E-04  0.1086128E+04  0.7818609E-02  0.9218819E-01
       -1   -1    0    0    0  501  0.00000000000E+00  0.00000000000E+00  0.16845449095E+03  0.16845449102E+03  0.50400001928E-02 0.  1.
        1   -1    0    0  501    0  0.00000000000E+00  0.00000000000E+00 -0.17507299666E+04  0.17507299666E+04  0.50400001928E-02 0. -1.
    10030    2    1    2    0    0  0.00000000000E+00  0.00000000000E+00 -0.15822754757E+04  0.19191844577E+04  0.10861276636E+04 0.  0.
        5    1    3    3  502    0 -0.47419463477E+03 -0.17085936833E+03 -0.43403483226E+03  0.66517802204E+03  0.46999998093E+01 0.  1.
       -5    1    3    3    0  502  0.47419463477E+03  0.17085936833E+03 -0.11482406434E+04  0.12540064356E+04  0.46999998093E+01 0. -1.
</event>
<event>
 5   0  0.1402775E-03  0.1116299E+04  0.7818609E-02  0.9189450E-01
        2   -1    0    0  501    0  0.00000000000E+00  0.00000000000E+00  0.13229219770E+04  0.13229219770E+04  0.25500000920E-02 0.  1.
       -2   -1    0    0    0  501  0.00000000000E+00  0.00000000000E+00 -0.23548685320E+03  0.23548685321E+03  0.25500000920E-02 0. -1.
    10030    2    1    2    0    0  0.00000000000E+00  0.00000000000E+00  0.10874351238E+04  0.15584088302E+04  0.11162987654E+04 0.  0.
        5    1    3    3  502    0 -0.12817712519E+03 -0.33969654454E+03  0.11354937732E+04  0.11921372894E+04  0.46999998093E+01 0.  1.
       -5    1    3    3    0  502  0.12817712519E+03  0.33969654454E+03 -0.48058649444E+02  0.36627154077E+03  0.46999998093E+01 0. -1.
</event>
<event>
 5   0  0.8009636E-04  0.1096647E+04  0.7818609E-02  0.9208466E-01
        1   -1    0    0  501    0  0.00000000000E+00  0.00000000000E+00  0.13482313581E+03  0.13482313591E+03  0.50400001928E-02 0.  1.
       -1   -1    0    0    0  501  0.00000000000E+00  0.00000000000E+00 -0.22300243470E+04  0.22300243470E+04  0.50400001928E-02 0. -1.
    10030    2    1    2    0    0  0.00000000000E+00  0.00000000000E+00 -0.20952012112E+04  0.23648474829E+04  0.10966473919E+04 0.  0.
        1    1    3    3  502    0 -0.16209283670E+03  0.35768565173E+03 -0.18728297003E+04  0.19135579948E+04  0.50400001928E-02 0. -1.
       -1    1    3    3    0  502  0.16209283670E+03 -0.35768565173E+03 -0.22237151083E+03  0.45128948804E+03  0.50400001928E-02 0.  1.
</event>
<event>
 5   0  0.1402775E-03  0.1103205E+04  0.7818609E-02  0.9202074E-01
        2   -1    0    0  501    0  0.00000000000E+00  0.00000000000E+00  0.17620540217E+04  0.17620540217E+04  0.25500000920E-02 0. -1.
       -2   -1    0    0    0  501  0.00000000000E+00  0.00000000000E+00 -0.17267645917E+03  0.17267645919E+03  0.25500000920E-02 0.  1.
    10030    2    1    2    0    0  0.00000000000E+00  0.00000000000E+00  0.15893775625E+04  0.19347304809E+04  0.11032048755E+04 0.  0.
        5    1    3    3  502    0 -0.83793914016E+02  0.42143304616E+03  0.14012278867E+04  0.14656360097E+04  0.46999998093E+01 0. -1.
       -5    1    3    3    0  502  0.83793914016E+02 -0.42143304616E+03  0.18814967585E+03  0.46909447123E+03  0.46999998093E+01 0.  1.
</event>
<event>
 5   0  0.8341767E-04  0.1094608E+04  0.7818609E-02  0.9210463E-01
        1   -1    0    0  501    0  0.00000000000E+00  0.00000000000E+00  0.13436530734E+04  0.13436530734E+04  0.50400001928E-02 0. -1.
       -1   -1    0    0    0  501  0.00000000000E+00  0.00000000000E+00 -0.22293094731E+03  0.22293094737E+03  0.50400001928E-02 0.  1.
    10030    2    1    2    0    0  0.00000000000E+00  0.00000000000E+00  0.11207221261E+04  0.15665840208E+04  0.10946083365E+04 0.  0.
        2    1    3    3  502    0  0.44224225565E+03  0.32118361089E+03  0.60096045160E+03  0.81233649984E+03  0.25500000920E-02 0.  1.
       -2    1    3    3    0  502 -0.44224225565E+03 -0.32118361089E+03  0.51976167451E+03  0.75424752096E+03  0.25500000920E-02 0. -1.
</event>
<event>
 5   0  0.8150924E-04  0.1105128E+04  0.7818609E-02  0.9200209E-01
       -1   -1    0    0    0  501  0.00000000000E+00  0.00000000000E+00  0.24973474150E+03  0.24973474155E+03  0.50400001928E-02 0.  1.
        1   -1    0    0  501    0  0.00000000000E+00  0.00000000000E+00 -0.12226041040E+04  0.12226041040E+04  0.50400001928E-02 0. -1.
    10030    2    1    2    0    0  0.00000000000E+00  0.00000000000E+00 -0.97286936249E+03  0.14723388455E+04  0.11051275400E+04 0.  0.
        3    1    3    3  502    0 -0.33655911681E+03  0.20034238270E+03 -0.10057120728E+04  0.10792895316E+04  0.10100000352E+00 0. -1.
       -3    1    3    3    0  502  0.33655911681E+03 -0.20034238270E+03  0.32842710279E+02  0.39304931400E+03  0.10100000352E+00 0.  1.
</event>
<event>
 5   0  0.8305271E-04  0.1102169E+04  0.7818609E-02  0.9203080E-01
        1   -1    0    0  501    0  0.00000000000E+00  0.00000000000E+00  0.15115187927E+04  0.15115187927E+04  0.50400001928E-02 0. -1.
       -1   -1    0    0    0  501  0.00000000000E+00  0.00000000000E+00 -0.20091996451E+03  0.20091996457E+03  0.50400001928E-02 0.  1.
    10030    2    1    2    0    0  0.00000000000E+00  0.00000000000E+00  0.13105988282E+04  0.17124387573E+04  0.11021693196E+04 0.  0.
        5    1    3    3  502    0 -0.26491640220E+03 -0.25323103962E+03  0.15889636955E+02  0.36685314520E+03  0.46999998093E+01 0.  1.
       -5    1    3    3    0  502  0.26491640220E+03  0.25323103962E+03  0.12947091913E+04  0.13455856121E+04  0.46999998093E+01 0. -1.
</event>
<event>
 5   0  0.1396936E-03  0.1105749E+04  0.7818609E-02  0.9199607E-01
        2   -1    0    0  501    0  0.00000000000E+00  0.00000000000E+00  0.86907680958E+03  0.86907680958E+03  0.25500000920E-02 0.  1.
       -2   -1    0    0    0  501  0.00000000000E+00  0.00000000000E+00 -0.35171818925E+03  0.35171818926E+03  0.25500000920E-02 0. -1.
    10030    2    1    2    0    0  0.00000000000E+00  0.00000000000E+00  0.51735862033E+03  0.12207949988E+04  0.11057488355E+04 0.  0.
        2    1    3    3  502    0 -0.41876047989E+02 -0.10306218188E+02  0.86721702283E+03  0.86828865375E+03  0.25500000920E-02 0.  1.
       -2    1    3    3    0  502  0.41876047989E+02  0.10306218188E+02 -0.34985840250E+03  0.35250634510E+03  0.25500000920E-02 0. -1.
</event>
<event>
 5   0  0.1425432E-03  0.1105123E+04  0.7818609E-02  0.9200213E-01
       -2   -1    0    0    0  501  0.00000000000E+00  0.00000000000E+00  0.16665565952E+03  0.16665565954E+03  0.25500000920E-02 0.  1.
        2   -1    0    0  501    0  0.00000000000E+00  0.00000000000E+00 -0.18320655202E+04  0.18320655202E+04  0.25500000920E-02 0. -1.
    10030    2    1    2    0    0  0.00000000000E+00  0.00000000000E+00 -0.16654098607E+04  0.19987211797E+04  0.11051227761E+04 0.  0.
        1    1    3    3  502    0  0.31954731244E+03  0.42836147647E+03 -0.57872718109E+03  0.78773675144E+03  0.50400001928E-02 0.  1.
       -1    1    3    3    0  502 -0.31954731244E+03 -0.42836147647E+03 -0.10866826796E+04  0.12109844283E+04  0.50400001928E-02 0. -1.
</event>
<event>
 5   0  0.8009636E-04  0.1098803E+04  0.7818609E-02  0.9206360E-01
        1   -1    0    0  501    0  0.00000000000E+00  0.00000000000E+00  0.15454057965E+04  0.15454057966E+04  0.50400001928E-02 0.  1.
       -1   -1    0    0    0  501  0.00000000000E+00  0.00000000000E+00 -0.19531560041E+03  0.19531560047E+03  0.50400001928E-02 0. -1.
    10030    2    1    2    0    0  0.00000000000E+00  0.00000000000E+00  0.13500901961E+04  0.17407213970E+04  0.10988027322E+04 0.  0.
        1    1    3    3  502    0  0.44642878847E+03  0.20293069030E+03  0.10674735327E+04  0.11747251897E+04  0.50400001928E-02 0.  1.
       -1    1    3    3    0  502 -0.44642878847E+03 -0.20293069030E+03  0.28261666340E+03  0.56599620731E+03  0.50400001928E-02 0. -1.
</event>
<event>
 5   0  0.8150924E-04  0.1100057E+04  0.7818609E-02  0.9205137E-01
        1   -1    0    0  501    0  0.00000000000E+00  0.00000000000E+00  0.67578868942E+03  0.67578868944E+03  0.50400001928E-02 0.  1.
       -1   -1    0    0    0  501  0.00000000000E+00  0.00000000000E+00 -0.44767128908E+03  0.44767128910E+03  0.50400001928E-02 0. -1.
    10030    2    1    2    0    0  0.00000000000E+00  0.00000000000E+00  0.22811740034E+03  0.11234599785E+04  0.11000567145E+04 0.  0.
        3    1    3    3  502    0  0.18187398527E+03 -0.35289539583E+03 -0.27472093763E+03  0.48278868119E+03  0.10100000352E+00 0. -1.
       -3    1    3    3    0  502 -0.18187398527E+03  0.35289539583E+03  0.50283833797E+03  0.64067129735E+03  0.10100000352E+00 0.  1.
</event>
<event>
 5   0  0.8150924E-04  0.1102840E+04  0.7818609E-02  0.9202428E-01
        1   -1    0    0  501    0  0.00000000000E+00  0.00000000000E+00  0.53821948821E+03  0.53821948824E+03  0.50400001928E-02 0. -1.
       -1   -1    0    0    0  501  0.00000000000E+00  0.00000000000E+00 -0.56494466437E+03  0.56494466439E+03  0.50400001928E-02 0.  1.
    10030    2    1    2    0    0  0.00000000000E+00  0.00000000000E+00 -0.26725176153E+02  0.11031641526E+04  0.11028403840E+04 0.  0.
        3    1    3    3  502    0  0.19225465884E+03  0.37338290000E+03 -0.37080147429E+03  0.56024136530E+03  0.10100000352E+00 0.  1.
       -3    1    3    3    0  502 -0.19225465884E+03 -0.37338290000E+03  0.34407629813E+03  0.54292278733E+03  0.10100000352E+00 0. -1.
</event>
<event>
 5   0  0.8341767E-04  0.1102164E+04  0.7818609E-02  0.9203085E-01
        1   -1    0    0  501    0  0.00000000000E+00  0.00000000000E+00  0.36899664306E+03  0.36899664309E+03  0.50400001928E-02 0.  1.
       -1   -1    0    0    0  501  0.00000000000E+00  0.00000000000E+00 -0.82301999751E+03  0.82301999752E+03  0.50400001928E-02 0. -1.
    10030    2    1    2    0    0  0.00000000000E+00  0.00000000000E+00 -0.45402335445E+03  0.11920166406E+04  0.11021644456E+04 0.  0.
        2    1    3    3  502    0 -0.89427901956E+01 -0.54402345319E+03 -0.13241623944E+03  0.55997817063E+03  0.25500000920E-02 0.  1.
       -2    1    3    3    0  502  0.89427901956E+01  0.54402345319E+03 -0.32160711500E+03  0.63203846998E+03  0.25500000920E-02 0. -1.
</event>
<event>
 5   0  0.1425432E-03  0.1097425E+04  0.7818609E-02  0.9207705E-01
        2   -1    0    0  501    0  0.00000000000E+00  0.00000000000E+00  0.82878707624E+03  0.82878707625E+03  0.25500000920E-02 0.  1.
       -2   -1    0    0    0  501  0.00000000000E+00  0.00000000000E+00 -0.36328456137E+03  0.36328456137E+03  0.25500000920E-02 0. -1.
    10030    2    1    2    0    0  0.00000000000E+00  0.00000000000E+00  0.46550251488E+03  0.11920716376E+04  0.10974252584E+04 0.  0.
        1    1    3    3  502    0  0.53097101167E+03 -0.17489991771E+02  0.83617292282E+02  0.53779918802E+03  0.50400001928E-02 0. -1.
       -1    1    3    3    0  502 -0.53097101167E+03  0.17489991771E+02  0.38188522260E+03  0.65427244960E+03  0.50400001928E-02 0.  1.
</event>
<event>
 5   0  0.1429680E-03  0.1100090E+04  0.7818609E-02  0.9205104E-01
       -2   -1    0    0    0  501  0.00000000000E+00  0.00000000000E+00  0.10814084215E+03  0.10814084218E+03  0.25500000920E-02 0. -1.
        2   -1    0    0  501    0  0.00000000000E+00  0.00000000000E+00 -0.27977373390E+04  0.27977373390E+04  0.25500000920E-02 0.  1.
    10030    2    1    2    0    0  0.00000000000E+00  0.00000000000E+00 -0.26895964968E+04  0.29058781812E+04  0.11000903090E+04 0.  0.
        3    1    3    3  502    0 -0.17521458167E+03 -0.52121911988E+03 -0.13802514637E+04  0.14857535575E+04  0.10100000352E+00 0. -1.
       -3    1    3    3    0  502  0.17521458167E+03  0.52121911988E+03 -0.13093450332E+04  0.14201246237E+04  0.10100000352E+00 0.  1.
</event>
<event>
 5   0  0.8150924E-04  0.1101125E+04  0.7818609E-02  0.9204096E-01
       -1   -1    0    0    0  501  0.00000000000E+00  0.00000000000E+00  0.48888324659E+03  0.48888324662E+03  0.50400001928E-02 0.  1.
        1   -1    0    0  501    0  0.00000000000E+00  0.00000000000E+00 -0.62002303709E+03  0.62002303711E+03  0.50400001928E-02 0. -1.
    10030    2    1    2    0    0  0.00000000000E+00  0.00000000000E+00 -0.13113979050E+03  0.11089062837E+04  0.11011246530E+04 0.  0.
        3    1    3    3  502    0  0.27445117081E+03 -0.45656814836E+03 -0.20562444233E+03  0.57101605997E+03  0.10100000352E+00 0.  1.
       -3    1    3    3    0  502 -0.27445117081E+03  0.45656814836E+03  0.74484651839E+02  0.53789022376E+03  0.10100000352E+00 0. -1.
</event>
<event>
 5   0  0.1372794E-03  0.1092491E+04  0.7818609E-02  0.9212541E-01
       -2   -1    0    0    0  501  0.00000000000E+00  0.00000000000E+00  0.41040793887E+03  0.41040793888E+03  0.25500000920E-02 0.  1.
        2   -1    0    0  501    0  0.00000000000E+00  0.00000000000E+00 -0.72704309633E+03  0.72704309634E+03  0.25500000920E-02 0. -1.
    10030    2    1    2    0    0  0.00000000000E+00  0.00000000000E+00 -0.31663515746E+03  0.11374510352E+04  0.10924912057E+04 0.  0.
        4    1    3    3  502    0  0.31632971412E+03  0.28212079909E+03 -0.51706410248E+03  0.66859070610E+03  0.12699999809E+01 0. -1.
       -4    1    3    3    0  502 -0.31632971412E+03 -0.28212079909E+03  0.20042894502E+03  0.46886032911E+03  0.12699999809E+01 0.  1.
</event>
<event>
 5   0  0.8150924E-04  0.1101091E+04  0.7818609E-02  0.9204129E-01
       -1   -1    0    0    0  501  0.00000000000E+00  0.00000000000E+00  0.18458617408E+03  0.18458617414E+03  0.50400001928E-02 0. -1.
        1   -1    0    0  501    0  0.00000000000E+00  0.00000000000E+00 -0.16420526387E+04  0.16420526387E+04  0.50400001928E-02 0.  1.
    10030    2    1    2    0    0  0.00000000000E+00  0.00000000000E+00 -0.14574664646E+04  0.18266388128E+04  0.11010907579E+04 0.  0.
        3    1    3    3  502    0  0.31906982226E+03 -0.17025525044E+03 -0.40109421075E+02  0.36386972619E+03  0.10100000352E+00 0. -1.
       -3    1    3    3    0  502 -0.31906982226E+03  0.17025525044E+03 -0.14173570435E+04  0.14627690866E+04  0.10100000352E+00 0.  1.
</event>
<event>
 5   0  0.8150924E-04  0.1094797E+04  0.7818609E-02  0.9210278E-01
       -1   -1    0    0    0  501  0.00000000000E+00  0.00000000000E+00  0.42926049110E+03  0.42926049113E+03  0.50400001928E-02 0. -1.
        1   -1    0    0  501    0  0.00000000000E+00  0.00000000000E+00 -0.69805015855E+03  0.69805015857E+03  0.50400001928E-02 0.  1.
    10030    2    1    2    0    0  0.00000000000E+00  0.00000000000E+00 -0.26878966746E+03  0.11273106497E+04  0.10947974313E+04 0.  0.
        3    1    3    3  502    0 -0.26647981697E+03 -0.16467624136E+03  0.32784158672E+03  0.45344224936E+03  0.10100000352E+00 0. -1.
       -3    1    3    3    0  502  0.26647981697E+03  0.16467624136E+03 -0.59663125417E+03  0.67386840034E+03  0.10100000352E+00 0.  1.
</event>
<event>
 5   0  0.1402775E-03  0.1095015E+04  0.7818609E-02  0.9210064E-01
        2   -1    0    0  501    0  0.00000000000E+00  0.00000000000E+00  0.87477386206E+03  0.87477386206E+03  0.25500000920E-02 0. -1.
       -2   -1    0    0    0  501  0.00000000000E+00  0.00000000000E+00 -0.34267635892E+03  0.34267635893E+03  0.25500000920E-02 0.  1.
    10030    2    1    2    0    0  0.00000000000E+00  0.00000000000E+00  0.53209750314E+03  0.12174502210E+04  0.10950147432E+04 0.  0.
        5    1    3    3  502    0 -0.43366503502E+03  0.31120016334E+02 -0.10388295908E+03  0.44704314915E+03  0.46999998093E+01 0.  1.
       -5    1    3    3    0  502  0.43366503502E+03 -0.31120016334E+02  0.63598046222E+03  0.77040707184E+03  0.46999998093E+01 0. -1.
</event>
<event>
 5   0  0.7946038E-04  0.1079175E+04  0.7818609E-02  0.9225731E-01
        1   -1    0    0  501    0  0.00000000000E+00  0.00000000000E+00  0.61850345884E+03  0.61850345887E+03  0.50400001928E-02 0.  1.
       -1   -1    0    0    0  501  0.00000000000E+00  0.00000000000E+00 -0.47074045179E+03  0.47074045181E+03  0.50400001928E-02 0. -1.
    10030    2    1    2    0    0  0.00000000000E+00  0.00000000000E+00  0.14776300706E+03  0.10892439107E+04  0.10791748657E+04 0.  0.
        4    1    3    3  502    0  0.48196422581E+03 -0.24255040220E+03  0.68103389032E+02  0.54383811660E+03  0.12699999809E+01 0.  1.
       -4    1    3    3    0  502 -0.48196422581E+03  0.24255040220E+03  0.79659618026E+02  0.54540579408E+03  0.12699999809E+01 0. -1.
</event>
<event>
 5   0  0.8150924E-04  0.1097891E+04  0.7818609E-02  0.9207250E-01
       -1   -1    0    0    0  501  0.00000000000E+00  0.00000000000E+00  0.67400071730E+03  0.67400071732E+03  0.50400001928E-02 0.  1.
        1   -1    0    0  501    0  0.00000000000E+00  0.00000000000E+00 -0.44709308172E+03  0.44709308175E+03  0.50400001928E-02 0. -1.
    10030    2    1    2    0    0  0.00000000000E+00  0.00000000000E+00  0.22690763558E+03  0.11210937991E+04  0.10978908102E+04 0.  0.
        3    1    3    3  502    0 -0.51718839533E+02 -0.16928443619E+02  0.67123953728E+03  0.67344185879E+03  0.10100000352E+00 0.  1.
       -3    1    3    3    0  502  0.51718839533E+02  0.16928443619E+02 -0.44433190170E+03  0.44765194028E+03  0.10100000352E+00 0. -1.
</event>
<event>
 5   0  0.1396936E-03  0.1100889E+04  0.7818609E-02  0.9204326E-01
       -2   -1    0    0    0  501  0.00000000000E+00  0.00000000000E+00  0.34769071614E+03  0.34769071615E+03  0.25500000920E-02 0. -1.
        2   -1    0    0  501    0  0.00000000000E+00  0.00000000000E+00 -0.87143329777E+03  0.87143329778E+03  0.25500000920E-02 0.  1.
    10030    2    1    2    0    0  0.00000000000E+00  0.00000000000E+00 -0.52374258164E+03  0.12191240139E+04  0.11008892176E+04 0.  0.
        2    1    3    3  502    0  0.29031110408E+03 -0.51961869097E+02 -0.77655436195E+03  0.83067276954E+03  0.25500000920E-02 0.  1.
       -2    1    3    3    0  502 -0.29031110408E+03  0.51961869097E+02  0.25281178031E+03  0.38845124438E+03  0.25500000920E-02 0. -1.
</event>
<event>
 5   0  0.7946038E-04  0.1088391E+04  0.7818609E-02  0.9216581E-01
        1   -1    0    0  501    0  0.00000000000E+00  0.00000000000E+00  0.16046396369E+04  0.16046396369E+04  0.50400001928E-02 0. -1.
       -1   -1    0    0    0  501  0.00000000000E+00  0.00000000000E+00 -0.18455795114E+03  0.18455795121E+03  0.50400001928E-02 0.  1.
    10030    2    1    2    0    0  0.00000000000E+00  0.00000000000E+00  0.14200816858E+04  0.17891975881E+04  0.10883914806E+04 0.  0.
        4    1    3    3  502    0 -0.44394670929E+03  0.28446464577E+03  0.93143938610E+03  0.10703222684E+04  0.12699999809E+01 0. -1.
       -4    1    3    3    0  502  0.44394670929E+03 -0.28446464577E+03  0.48864229970E+03  0.71887531974E+03  0.12699999809E+01 0.  1.
</event>
<event>
 5   0  0.1425432E-03  0.1084921E+04  0.7818609E-02  0.9220015E-01
       -2   -1    0    0    0  501  0.00000000000E+00  0.00000000000E+00  0.25447250782E+03  0.25447250783E+03  0.25500000920E-02 0.  1.
        2   -1    0    0  501    0  0.00000000000E+00  0.00000000000E+00 -0.11563662744E+04  0.11563662744E+04  0.25500000920E-02 0. -1.
    10030    2    1    2    0    0  0.00000000000E+00  0.00000000000E+00 -0.90189376658E+03  0.14108387822E+04  0.10849210585E+04 0.  0.
        1    1    3    3  502    0  0.13358906390E+01  0.25528055328E+03  0.17147609211E+03  0.30752885340E+03  0.50400001928E-02 0.  1.
       -1    1    3    3    0  502 -0.13358906390E+01 -0.25528055328E+03 -0.10733698587E+04  0.11033099288E+04  0.50400001928E-02 0. -1.
</event>
<event>
 5   0  0.5409500E-04  0.1098675E+04  0.7818609E-02  0.9206485E-01
       -4   -1    0    0    0  501  0.00000000000E+00  0.00000000000E+00  0.38903884270E+03  0.38904091563E+03  0.12699999809E+01 0. -1.
        4   -1    0    0  501    0  0.00000000000E+00  0.00000000000E+00 -0.77568004203E+03  0.77568108170E+03  0.12699999809E+01 0.  1.
    10030    2    1    2    0    0  0.00000000000E+00  0.00000000000E+00 -0.38664119933E+03  0.11647219973E+04  0.10986746170E+04 0.  0.
        5    1    3    3  502    0 -0.43436359550E+03  0.28265410854E+03 -0.38643719001E+03  0.64646799610E+03  0.46999998093E+01 0.  1.
       -5    1    3    3    0  502  0.43436359550E+03 -0.28265410854E+03 -0.20400931591E+00  0.51825400122E+03  0.46999998093E+01 0. -1.
</event>
<event>
 5   0  0.7946038E-04  0.1108090E+04  0.7818609E-02  0.9197342E-01
        1   -1    0    0  501    0  0.00000000000E+00  0.00000000000E+00  0.49518878091E+03  0.49518878094E+03  0.50400001928E-02 0. -1.
       -1   -1    0    0    0  501  0.00000000000E+00  0.00000000000E+00 -0.61989684887E+03  0.61989684889E+03  0.50400001928E-02 0.  1.
    10030    2    1    2    0    0  0.00000000000E+00  0.00000000000E+00 -0.12470806796E+03  0.11150856298E+04  0.11080901857E+04 0.  0.
        4    1    3    3  502    0 -0.35007860759E+03  0.32088384708E+03 -0.34953765340E+03  0.58966063024E+03  0.12699999809E+01 0.  1.
       -4    1    3    3    0  502  0.35007860759E+03 -0.32088384708E+03  0.22482958544E+03  0.52542499959E+03  0.12699999809E+01 0. -1.
</event>
<event>
 5   0  0.1429680E-03  0.1099902E+04  0.7818609E-02  0.9205288E-01
        2   -1    0    0  501    0  0.00000000000E+00  0.00000000000E+00  0.61142571216E+03  0.61142571216E+03  0.25500000920E-02 0.  1.
       -2   -1    0    0    0  501  0.00000000000E+00  0.00000000000E+00 -0.49465697106E+03  0.49465697107E+03  0.25500000920E-02 0. -1.
    10030    2    1    2    0    0  0.00000000000E+00  0.00000000000E+00  0.11676874110E+03  0.11060826832E+04  0.10999017971E+04 0.  0.
        3    1    3    3  502    0  0.41513825632E+01  0.21817669082E+03  0.56602570855E+03  0.60663285052E+03  0.10100000352E+00 0.  1.
       -3    1    3    3    0  502 -0.41513825632E+01 -0.21817669082E+03 -0.44925696745E+03  0.49944983271E+03  0.10100000352E+00 0. -1.
</event>
<event>
 5   0  0.8150924E-04  0.1100940E+04  0.7818609E-02  0.9204276E-01
       -1   -1    0    0    0  501  0.00000000000E+00  0.00000000000E+00  0.50683100199E+03  0.50683100201E+03  0.50400001928E-02 0.  1.
        1   -1    0    0  501    0  0.00000000000E+00  0.00000000000E+00 -0.59786685839E+03  0.59786685841E+03  0.50400001928E-02 0. -1.
    10030    2    1    2    0    0  0.00000000000E+00  0.00000000000E+00 -0.91035856399E+02  0.11046978604E+04  0.11009404324E+04 0.  0.
        3    1    3    3  502    0 -0.31623356992E+03  0.44585526058E+03  0.19718302274E+02  0.54697294794E+03  0.10100000352E+00 0. -1.
       -3    1    3    3    0  502  0.31623356992E+03 -0.44585526058E+03 -0.11075415867E+03  0.55772491248E+03  0.10100000352E+00 0.  1.
</event>
<event>
 5   0  0.1396936E-03  0.1097495E+04  0.7818609E-02  0.9207637E-01
       -2   -1    0    0    0  501  0.00000000000E+00  0.00000000000E+00  0.17102085033E+03  0.17102085034E+03  0.25500000920E-02 0. -1.
        2   -1    0    0  501    0  0.00000000000E+00  0.00000000000E+00 -0.17607442785E+04  0.17607442785E+04  0.25500000920E-02 0.  1.
    10030    2    1    2    0    0  0.00000000000E+00  0.00000000000E+00 -0.15897234282E+04  0.19317651288E+04  0.10974953006E+04 0.  0.
        2    1    3    3  502    0 -0.23007781866E+03 -0.46487144348E+03 -0.47958836681E+03  0.70643206552E+03  0.25500000920E-02 0. -1.
       -2    1    3    3    0  502  0.23007781866E+03  0.46487144348E+03 -0.11101350613E+04  0.12253330633E+04  0.25500000920E-02 0.  1.
</event>
<event>
 5   0  0.1429680E-03  0.1097475E+04  0.7818609E-02  0.9207656E-01
        2   -1    0    0  501    0  0.00000000000E+00  0.00000000000E+00  0.13407808833E+04  0.13407808833E+04  0.25500000920E-02 0. -1.
       -2   -1    0    0    0  501  0.00000000000E+00  0.00000000000E+00 -0.22458019476E+03  0.22458019478E+03  0.25500000920E-02 0.  1.
    10030    2    1    2    0    0  0.00000000000E+00  0.00000000000E+00  0.11162006886E+04  0.15653610781E+04  0.10974749782E+04 0.  0.
        3    1    3    3  502    0 -0.35654118514E+02  0.27090631425E+03 -0.12064581364E+03  0.29869193129E+03  0.10100000352E+00 0.  1.
       -3    1    3    3    0  502  0.35654118514E+02 -0.27090631425E+03  0.12368465022E+04  0.12666691468E+04  0.10100000352E+00 0. -1.
</event>
<event>
 5   0  0.1396936E-03  0.1098753E+04  0.7818609E-02  0.9206408E-01
        2   -1    0    0  501    0  0.00000000000E+00  0.00000000000E+00  0.57697729847E+03  0.57697729848E+03  0.25500000920E-02 0. -1.
       -2   -1    0    0    0  501  0.00000000000E+00  0.00000000000E+00 -0.52309573869E+03  0.52309573870E+03  0.25500000920E-02 0.  1.
    10030    2    1    2    0    0  0.00000000000E+00  0.00000000000E+00  0.53881559780E+02  0.11000730372E+04  0.10987526858E+04 0.  0.
        2    1    3    3  502    0  0.15988836282E+03  0.44784669370E+03 -0.24849600164E+03  0.53654562943E+03  0.25500000920E-02 0.  1.
       -2    1    3    3    0  502 -0.15988836282E+03 -0.44784669370E+03  0.30237756142E+03  0.56352740775E+03  0.25500000920E-02 0. -1.
</event>
<event>
 5   0  0.1396936E-03  0.1098419E+04  0.7818609E-02  0.9206734E-01
       -2   -1    0    0    0  501  0.00000000000E+00  0.00000000000E+00  0.38837876230E+03  0.38837876230E+03  0.25500000920E-02 0.  1.
        2   -1    0    0  501    0  0.00000000000E+00  0.00000000000E+00 -0.77664189334E+03  0.77664189334E+03  0.25500000920E-02 0. -1.
    10030    2    1    2    0    0  0.00000000000E+00  0.00000000000E+00 -0.38826313104E+03  0.11650206556E+04  0.10984192593E+04 0.  0.
        2    1    3    3  502    0 -0.10294028939E+03  0.17102330563E+03 -0.73680469247E+03  0.76336546235E+03  0.25500000920E-02 0. -1.
       -2    1    3    3    0  502  0.10294028939E+03 -0.17102330563E+03  0.34854156143E+03  0.40165519329E+03  0.25500000920E-02 0.  1.
</event>
<event>
 5   0  0.8305271E-04  0.1096766E+04  0.7818609E-02  0.9208350E-01
        1   -1    0    0  501    0  0.00000000000E+00  0.00000000000E+00  0.55505516558E+03  0.55505516561E+03  0.50400001928E-02 0. -1.
       -1   -1    0    0    0  501  0.00000000000E+00  0.00000000000E+00 -0.54179119012E+03  0.54179119014E+03  0.50400001928E-02 0.  1.
    10030    2    1    2    0    0  0.00000000000E+00  0.00000000000E+00  0.13263975465E+02  0.10968463557E+04  0.10967661533E+04 0.  0.
        5    1    3    3  502    0  0.40000140841E+02 -0.45259573876E+03  0.31367071637E+03  0.55213614473E+03  0.46999998093E+01 0. -1.
       -5    1    3    3    0  502 -0.40000140841E+02  0.45259573876E+03 -0.30040674090E+03  0.54471021102E+03  0.46999998093E+01 0.  1.
</event>
<event>
 5   0  0.7946038E-04  0.1098703E+04  0.7818609E-02  0.9206457E-01
        1   -1    0    0  501    0  0.00000000000E+00  0.00000000000E+00  0.87464657412E+03  0.87464657413E+03  0.50400001928E-02 0. -1.
       -1   -1    0    0    0  501  0.00000000000E+00  0.00000000000E+00 -0.34503897322E+03  0.34503897325E+03  0.50400001928E-02 0.  1.
    10030    2    1    2    0    0  0.00000000000E+00  0.00000000000E+00  0.52960760090E+03  0.12196855474E+04  0.10987031553E+04 0.  0.
        4    1    3    3  502    0 -0.41760243246E+03 -0.17599313195E+03 -0.79904268791E+02  0.46016483912E+03  0.12699999809E+01 0. -1.
       -4    1    3    3    0  502  0.41760243246E+03  0.17599313195E+03  0.60951186969E+03  0.75952070827E+03  0.12699999809E+01 0.  1.
</event>
<event>
 5   0  0.1396936E-03  0.1096420E+04  0.7818609E-02  0.9208688E-01
       -2   -1    0    0    0  501  0.00000000000E+00  0.00000000000E+00  0.32149878293E+03  0.32149878294E+03  0.25500000920E-02 0. -1.
        2   -1    0    0  501    0  0.00000000000E+00  0.00000000000E+00 -0.93479180313E+03  0.93479180313E+03  0.25500000920E-02 0.  1.
    10030    2    1    2    0    0  0.00000000000E+00  0.00000000000E+00 -0.61329302020E+03  0.12562905861E+04  0.10964204066E+04 0.  0.
        2    1    3    3  502    0  0.42281822333E+03  0.23621902391E+03 -0.60092091836E+03  0.77180349012E+03  0.25500000920E-02 0.  1.
       -2    1    3    3    0  502 -0.42281822333E+03 -0.23621902391E+03 -0.12372101838E+02  0.48448709595E+03  0.25500000920E-02 0. -1.
</event>
<event>
 5   0  0.1396936E-03  0.1066699E+04  0.7818609E-02  0.9238271E-01
        2   -1    0    0  501    0  0.00000000000E+00  0.00000000000E+00  0.74240266141E+03  0.74240266142E+03  0.25500000920E-02 0. -1.
       -2   -1    0    0    0  501  0.00000000000E+00  0.00000000000E+00 -0.38316370604E+03  0.38316370605E+03  0.25500000920E-02 0.  1.
    10030    2    1    2    0    0  0.00000000000E+00  0.00000000000E+00  0.35923895537E+03  0.11255663675E+04  0.10666991237E+04 0.  0.
        2    1    3    3  502    0 -0.45950293266E+03 -0.16230441952E+02 -0.10558430386E+03  0.47175673562E+03  0.25500000920E-02 0.  1.
       -2    1    3    3    0  502  0.45950293266E+03  0.16230441952E+02  0.46482325923E+03  0.65380963185E+03  0.25500000920E-02 0. -1.
</event>
<event>
 5   0  0.5409500E-04  0.1107748E+04  0.7818609E-02  0.9197672E-01
        3   -1    0    0  501    0  0.00000000000E+00  0.00000000000E+00  0.29759334388E+03  0.29759336102E+03  0.10100000352E+00 0. -1.
       -3   -1    0    0    0  501  0.00000000000E+00  0.00000000000E+00 -0.10308584592E+04  0.10308584642E+04  0.10100000352E+00 0.  1.
    10030    2    1    2    0    0  0.00000000000E+00  0.00000000000E+00 -0.73326511536E+03  0.13284518252E+04  0.11077484022E+04 0.  0.
        4    1    3    3  502    0 -0.15816220919E+03  0.51536211691E+03 -0.51908947953E+03  0.74837750943E+03  0.12699999809E+01 0.  1.
       -4    1    3    3    0  502  0.15816220919E+03 -0.51536211691E+03 -0.21417563584E+03  0.58007431579E+03  0.12699999809E+01 0. -1.
</event>
<event>
 5   0  0.1429680E-03  0.1100875E+04  0.7818609E-02  0.9204339E-01
       -2   -1    0    0    0  501  0.00000000000E+00  0.00000000000E+00  0.64118896352E+03  0.64118896353E+03  0.25500000920E-02 0.  1.
        2   -1    0    0  501    0  0.00000000000E+00  0.00000000000E+00 -0.47253095018E+03  0.47253095018E+03  0.25500000920E-02 0. -1.
    10030    2    1    2    0    0  0.00000000000E+00  0.00000000000E+00  0.16865801335E+03  0.11137199137E+04  0.11008753430E+04 0.  0.
        3    1    3    3  502    0 -0.38713917205E+03  0.57835188318E+02 -0.30717455390E+03  0.49757196898E+03  0.10100000352E+00 0. -1.
       -3    1    3    3    0  502  0.38713917205E+03 -0.57835188318E+02  0.47583256725E+03  0.61614794474E+03  0.10100000352E+00 0.  1.
</event>
<event>
 5   0  0.5409500E-04  0.1094591E+04  0.7818609E-02  0.9210480E-01
       -4   -1    0    0    0  501  0.00000000000E+00  0.00000000000E+00  0.43398393055E+03  0.43398578880E+03  0.12699999809E+01 0. -1.
        4   -1    0    0  501    0  0.00000000000E+00  0.00000000000E+00 -0.69018872866E+03  0.69018989711E+03  0.12699999809E+01 0.  1.
    10030    2    1    2    0    0  0.00000000000E+00  0.00000000000E+00 -0.25620479811E+03  0.11241756859E+04  0.10945912818E+04 0.  0.
        1    1    3    3  502    0 -0.13750077461E+03 -0.38744103624E+03  0.24293120695E+03  0.47752758132E+03  0.50400001928E-02 0. -1.
       -1    1    3    3    0  502  0.13750077461E+03  0.38744103624E+03 -0.49913600506E+03  0.64664810458E+03  0.50400001928E-02 0.  1.
</event>
<event>
 5   0  0.8009636E-04  0.1099025E+04  0.7818609E-02  0.9206143E-01
        1   -1    0    0  501    0  0.00000000000E+00  0.00000000000E+00  0.14548674167E+04  0.14548674167E+04  0.50400001928E-02 0.  1.
       -1   -1    0    0    0  501  0.00000000000E+00  0.00000000000E+00 -0.20755431113E+03  0.20755431119E+03  0.50400001928E-02 0. -1.
    10030    2    1    2    0    0  0.00000000000E+00  0.00000000000E+00  0.12473131056E+04  0.16624217279E+04  0.10990250307E+04 0.  0.
        1    1    3    3  502    0 -0.35159046573E+03  0.42027353602E+03  0.68635887163E+03  0.87825634149E+03  0.50400001928E-02 0.  1.
       -1    1    3    3    0  502  0.35159046573E+03 -0.42027353602E+03  0.56095423395E+03  0.78416538643E+03  0.50400001928E-02 0. -1.
</event>
<event>
 5   0  0.1396936E-03  0.1097551E+04  0.7818609E-02  0.9207582E-01
       -2   -1    0    0    0  501  0.00000000000E+00  0.00000000000E+00  0.38160712583E+03  0.38160712584E+03  0.25500000920E-02 0. -1.
        2   -1    0    0  501    0  0.00000000000E+00  0.00000000000E+00 -0.78917413220E+03  0.78917413220E+03  0.25500000920E-02 0.  1.
    10030    2    1    2    0    0  0.00000000000E+00  0.00000000000E+00 -0.40756700637E+03  0.11707812580E+04  0.10975508596E+04 0.  0.
        2    1    3    3  502    0 -0.11256552280E+03  0.29557613504E+03 -0.68216769482E+03  0.75192354159E+03  0.25500000920E-02 0.  1.
       -2    1    3    3    0  502  0.11256552280E+03 -0.29557613504E+03  0.27460068845E+03  0.41885771645E+03  0.25500000920E-02 0. -1.
</event>
<event>
 5   0  0.1402775E-03  0.1098634E+04  0.7818609E-02  0.9206525E-01
       -2   -1    0    0    0  501  0.00000000000E+00  0.00000000000E+00  0.12386692520E+03  0.12386692523E+03  0.25500000920E-02 0. -1.
        2   -1    0    0  501    0  0.00000000000E+00  0.00000000000E+00 -0.24360738740E+04  0.24360738740E+04  0.25500000920E-02 0.  1.
    10030    2    1    2    0    0  0.00000000000E+00  0.00000000000E+00 -0.23122069488E+04  0.25599407993E+04  0.10986336612E+04 0.  0.
        5    1    3    3  502    0  0.12531754814E+03 -0.25960509897E+03 -0.66597767406E+02  0.29589972610E+03  0.46999998093E+01 0. -1.
       -5    1    3    3    0  502 -0.12531754814E+03  0.25960509897E+03 -0.22456091814E+04  0.22640410732E+04  0.46999998093E+01 0.  1.
</event>
<event>
 5   0  0.5409500E-04  0.1099228E+04  0.7818609E-02  0.9205945E-01
        4   -1    0    0  501    0  0.00000000000E+00  0.00000000000E+00  0.20720942775E+03  0.20721331967E+03  0.12699999809E+01 0. -1.
       -4   -1    0    0    0  501  0.00000000000E+00  0.00000000000E+00 -0.14578093825E+04  0.14578099356E+04  0.12699999809E+01 0.  1.
    10030    2    1    2    0    0  0.00000000000E+00  0.00000000000E+00 -0.12505999547E+04  0.16650232553E+04  0.10992279991E+04 0.  0.
        1    1    3    3  502    0 -0.40788590724E+03  0.19909786276E+03 -0.10947770449E+04  0.11851361316E+04  0.50400001928E-02 0.  1.
       -1    1    3    3    0  502  0.40788590724E+03 -0.19909786276E+03 -0.15582290977E+03  0.47988712372E+03  0.50400001928E-02 0. -1.
</event>
<event>
 5   0  0.8305271E-04  0.1095614E+04  0.7818609E-02  0.9209478E-01
        1   -1    0    0  501    0  0.00000000000E+00  0.00000000000E+00  0.61876397227E+03  0.61876397229E+03  0.50400001928E-02 0.  1.
       -1   -1    0    0    0  501  0.00000000000E+00  0.00000000000E+00 -0.48498684862E+03  0.48498684864E+03  0.50400001928E-02 0. -1.
    10030    2    1    2    0    0  0.00000000000E+00  0.00000000000E+00  0.13377712365E+03  0.11037508209E+04  0.10956137804E+04 0.  0.
        5    1    3    3  502    0  0.45412271439E+03  0.30256841559E+03  0.18624367236E+02  0.54602567971E+03  0.46999998093E+01 0. -1.
       -5    1    3    3    0  502 -0.45412271439E+03 -0.30256841559E+03  0.11515275641E+03  0.55772514122E+03  0.46999998093E+01 0.  1.
</event>
<event>
 5   0  0.1372794E-03  0.1100035E+04  0.7818609E-02  0.9205158E-01
        2   -1    0    0  501    0  0.00000000000E+00  0.00000000000E+00  0.28103685805E+03  0.28103685806E+03  0.25500000920E-02 0.  1.
       -2   -1    0    0    0  501  0.00000000000E+00  0.00000000000E+00 -0.10764387926E+04  0.10764387926E+04  0.25500000920E-02 0. -1.
    10030    2    1    2    0    0  0.00000000000E+00  0.00000000000E+00 -0.79540193458E+03  0.13574756507E+04  0.11000345016E+04 0.  0.
        4    1    3    3  502    0  0.19907233716E+03 -0.23504078227E+03 -0.96002261889E+03  0.10082256724E+04  0.12699999809E+01 0. -1.
       -4    1    3    3    0  502 -0.19907233716E+03  0.23504078227E+03  0.16462068430E+03  0.34924997832E+03  0.12699999809E+01 0.  1.
</event>
<event>
 5   0  0.8150924E-04  0.1098175E+04  0.7818609E-02  0.9206973E-01
        1   -1    0    0  501    0  0.00000000000E+00  0.00000000000E+00  0.31561529746E+03  0.31561529750E+03  0.50400001928E-02 0. -1.
       -1   -1    0    0    0  501  0.00000000000E+00  0.00000000000E+00 -0.95526756578E+03  0.95526756579E+03  0.50400001928E-02 0.  1.
    10030    2    1    2    0    0  0.00000000000E+00  0.00000000000E+00 -0.63965226832E+03  0.12708828633E+04  0.10981749532E+04 0.  0.
        3    1    3    3  502    0  0.10142709909E+03  0.12139507713E+03  0.28867335078E+03  0.32917553802E+03  0.10100000352E+00 0. -1.
       -3    1    3    3    0  502 -0.10142709909E+03 -0.12139507713E+03 -0.92832561910E+03  0.94170732526E+03  0.10100000352E+00 0.  1.
</event>
<event>
 5   0  0.8341767E-04  0.1093966E+04  0.7818609E-02  0.9211094E-01
        1   -1    0    0  501    0  0.00000000000E+00  0.00000000000E+00  0.26679031354E+04  0.26679031354E+04  0.50400001928E-02 0. -1.
       -1   -1    0    0    0  501  0.00000000000E+00  0.00000000000E+00 -0.11214430236E+03  0.11214430248E+03  0.50400001928E-02 0.  1.
    10030    2    1    2    0    0  0.00000000000E+00  0.00000000000E+00  0.25557588331E+04  0.27800474379E+04  0.10939655133E+04 0.  0.
        2    1    3    3  502    0 -0.42211645797E+02 -0.98516614171E+02 -0.85198280729E+02  0.13691637358E+03  0.25500000920E-02 0.  1.
       -2    1    3    3    0  502  0.42211645797E+02  0.98516614171E+02  0.26409571138E+04  0.26431310643E+04  0.25500000920E-02 0. -1.
</event>
<event>
 5   0  0.1396936E-03  0.1083879E+04  0.7818609E-02  0.9221048E-01
        2   -1    0    0  501    0  0.00000000000E+00  0.00000000000E+00  0.13800229887E+04  0.13800229887E+04  0.25500000920E-02 0. -1.
       -2   -1    0    0    0  501  0.00000000000E+00  0.00000000000E+00 -0.21282141758E+03  0.21282141760E+03  0.25500000920E-02 0.  1.
    10030    2    1    2    0    0  0.00000000000E+00  0.00000000000E+00  0.11672015711E+04  0.15928444063E+04  0.10838790500E+04 0.  0.
        2    1    3    3  502    0 -0.68866677711E+02 -0.42548647101E+03  0.10083370240E+03  0.44266103494E+03  0.25500000920E-02 0.  1.
       -2    1    3    3    0  502  0.68866677711E+02  0.42548647101E+03  0.10663678687E+04  0.11501833713E+04  0.25500000920E-02 0. -1.
</event>
<event>
 5   0  0.1402775E-03  0.1114605E+04  0.7818609E-02  0.9191073E-01
       -2   -1    0    0    0  501  0.00000000000E+00  0.00000000000E+00  0.31089003067E+03  0.31089003068E+03  0.25500000920E-02 0. -1.
        2   -1    0    0  501    0  0.00000000000E+00  0.00000000000E+00 -0.99902148303E+03  0.99902148303E+03  0.25500000920E-02 0.  1.
    10030    2    1    2    0    0  0.00000000000E+00  0.00000000000E+00 -0.68813145236E+03  0.13099115137E+04  0.11146045388E+04 0.  0.
        5    1    3    3  502    0  0.23436486273E+03  0.50540233079E+02  0.24715851425E+03  0.34436989591E+03  0.46999998093E+01 0. -1.
       -5    1    3    3    0  502 -0.23436486273E+03 -0.50540233079E+02 -0.93528996662E+03  0.96554161780E+03  0.46999998093E+01 0.  1.
</event>
<event>
 5   0  0.7946038E-04  0.1103963E+04  0.7818609E-02  0.9201338E-01
        1   -1    0    0  501    0  0.00000000000E+00  0.00000000000E+00  0.42560904612E+03  0.42560904615E+03  0.50400001928E-02 0. -1.
       -1   -1    0    0    0  501  0.00000000000E+00  0.00000000000E+00 -0.71587606319E+03  0.71587606320E+03  0.50400001928E-02 0.  1.
    10030    2    1    2    0    0  0.00000000000E+00  0.00000000000E+00 -0.29026701707E+03  0.11414851094E+04  0.11039625509E+04 0.  0.
        4    1    3    3  502    0  0.32870749807E+03  0.41549917477E+03 -0.30529680579E+03  0.61147030676E+03  0.12699999809E+01 0.  1.
       -4    1    3    3    0  502 -0.32870749807E+03 -0.41549917477E+03  0.15029788719E+02  0.53001480260E+03  0.12699999809E+01 0. -1.
</event>
<event>
 5   0  0.1402775E-03  0.1101189E+04  0.7818609E-02  0.9204034E-01
        2   -1    0    0  501    0  0.00000000000E+00  0.00000000000E+00  0.13487577810E+04  0.13487577810E+04  0.25500000920E-02 0.  1.
       -2   -1    0    0    0  501  0.00000000000E+00  0.00000000000E+00 -0.22476543129E+03  0.22476543131E+03  0.25500000920E-02 0. -1.
    10030    2    1    2    0    0  0.00000000000E+00  0.00000000000E+00  0.11239923497E+04  0.15735232123E+04  0.11011886748E+04 0.  0.
        5    1    3    3  502    0 -0.10667872506E+03  0.18306547520E+03  0.12881390732E+04  0.13054568857E+04  0.46999998093E+01 0.  1.
       -5    1    3    3    0  502  0.10667872506E+03 -0.18306547520E+03 -0.16414672352E+03  0.26806632655E+03  0.46999998093E+01 0. -1.
</event>
<event>
 5   0  0.8150924E-04  0.1105114E+04  0.7818609E-02  0.9200222E-01
        1   -1    0    0  501    0  0.00000000000E+00  0.00000000000E+00  0.65221018266E+03  0.65221018268E+03  0.50400001928E-02 0. -1.
       -1   -1    0    0    0  501  0.00000000000E+00  0.00000000000E+00 -0.46813017869E+03  0.46813017872E+03  0.50400001928E-02 0.  1.
    10030    2    1    2    0    0  0.00000000000E+00  0.00000000000E+00  0.18408000397E+03  0.11203403614E+04  0.11051140563E+04 0.  0.
        3    1    3    3  502    0 -0.82583369261E+02 -0.35023891867E+03 -0.33306064972E+03  0.49032307678E+03  0.10100000352E+00 0.  1.
       -3    1    3    3    0  502  0.82583369261E+02  0.35023891867E+03  0.51714065369E+03  0.63001728463E+03  0.10100000352E+00 0. -1.
</event>
<event>
 5   0  0.1396936E-03  0.1096188E+04  0.7818609E-02  0.9208916E-01
        2   -1    0    0  501    0  0.00000000000E+00  0.00000000000E+00  0.82045709211E+03  0.82045709212E+03  0.25500000920E-02 0. -1.
       -2   -1    0    0    0  501  0.00000000000E+00  0.00000000000E+00 -0.36614569862E+03  0.36614569863E+03  0.25500000920E-02 0.  1.
    10030    2    1    2    0    0  0.00000000000E+00  0.00000000000E+00  0.45431139349E+03  0.11866027907E+04  0.10961876394E+04 0.  0.
        2    1    3    3  502    0 -0.13539618644E+03 -0.23728679120E+03  0.74149922516E+03  0.79022670766E+03  0.25500000920E-02 0. -1.
       -2    1    3    3    0  502  0.13539618644E+03  0.23728679120E+03 -0.28718783167E+03  0.39637608309E+03  0.25500000920E-02 0.  1.
</event>
<event>
 5   0  0.1429680E-03  0.1108585E+04  0.7818609E-02  0.9196865E-01
       -2   -1    0    0    0  501  0.00000000000E+00  0.00000000000E+00  0.25848683058E+03  0.25848683059E+03  0.25500000920E-02 0.  1.
        2   -1    0    0  501    0  0.00000000000E+00  0.00000000000E+00 -0.11886103942E+04  0.11886103942E+04  0.25500000920E-02 0. -1.
    10030    2    1    2    0    0  0.00000000000E+00  0.00000000000E+00 -0.93012356364E+03  0.14470972248E+04  0.11085849243E+04 0.  0.
        3    1    3    3  502    0  0.50895994932E+03  0.53244270929E+02 -0.74309002631E+03  0.90225161668E+03  0.10100000352E+00 0. -1.
       -3    1    3    3    0  502 -0.50895994932E+03 -0.53244270929E+02 -0.18703353733E+03  0.54484560812E+03  0.10100000352E+00 0.  1.
</event>
<event>
 5   0  0.1425432E-03  0.1086025E+04  0.7818609E-02  0.9218921E-01
        2   -1    0    0  501    0  0.00000000000E+00  0.00000000000E+00  0.78526230107E+03  0.78526230108E+03  0.25500000920E-02 0.  1.
       -2   -1    0    0    0  501  0.00000000000E+00  0.00000000000E+00 -0.37549586165E+03  0.37549586166E+03  0.25500000920E-02 0. -1.
    10030    2    1    2    0    0  0.00000000000E+00  0.00000000000E+00  0.40976643942E+03  0.11607581627E+04  0.10860253116E+04 0.  0.
        1    1    3    3  502    0  0.48286306745E+03  0.16217029836E+03  0.37679164648E+01  0.50938212061E+03  0.50400001928E-02 0. -1.
       -1    1    3    3    0  502 -0.48286306745E+03 -0.16217029836E+03  0.40599852296E+03  0.65137604212E+03  0.50400001928E-02 0.  1.
</event>
<event>
 5   0  0.8009636E-04  0.1127628E+04  0.7818609E-02  0.9178675E-01
        1   -1    0    0  501    0  0.00000000000E+00  0.00000000000E+00  0.67715120264E+03  0.67715120265E+03  0.50400001928E-02 0. -1.
       -1   -1    0    0    0  501  0.00000000000E+00  0.00000000000E+00 -0.46944609662E+03  0.46944609664E+03  0.50400001928E-02 0.  1.
    10030    2    1    2    0    0  0.00000000000E+00  0.00000000000E+00  0.20770510602E+03  0.11465972993E+04  0.11276275785E+04 0.  0.
        1    1    3    3  502    0  0.14584316218E+03  0.52924419755E+03 -0.26825344027E+02  0.54962646197E+03  0.50400001928E-02 0.  1.
       -1    1    3    3    0  502 -0.14584316218E+03 -0.52924419755E+03  0.23453045005E+03  0.59697083733E+03  0.50400001928E-02 0. -1.
</event>
<event>
 5   0  0.1429680E-03  0.1055089E+04  0.7818609E-02  0.9250105E-01
        2   -1    0    0  501    0  0.00000000000E+00  0.00000000000E+00  0.64412698000E+03  0.64412698000E+03  0.25500000920E-02 0.  1.
       -2   -1    0    0    0  501  0.00000000000E+00  0.00000000000E+00 -0.43206284187E+03  0.43206284188E+03  0.25500000920E-02 0. -1.
    10030    2    1    2    0    0  0.00000000000E+00  0.00000000000E+00  0.21206413813E+03  0.10761898219E+04  0.10550892541E+04 0.  0.
        3    1    3    3  502    0  0.17073484922E+02 -0.39433947114E+02  0.64233887176E+03  0.64377463172E+03  0.10100000352E+00 0.  1.
       -3    1    3    3    0  502 -0.17073484922E+02  0.39433947114E+02 -0.43027473363E+03  0.43241519016E+03  0.10100000352E+00 0. -1.
</event>
<event>
 5   0  0.7946038E-04  0.1100959E+04  0.7818609E-02  0.9204258E-01
        1   -1    0    0  501    0  0.00000000000E+00  0.00000000000E+00  0.38058799598E+03  0.38058799602E+03  0.50400001928E-02 0.  1.
       -1   -1    0    0    0  501  0.00000000000E+00  0.00000000000E+00 -0.79620915069E+03  0.79620915070E+03  0.50400001928E-02 0. -1.
    10030    2    1    2    0    0  0.00000000000E+00  0.00000000000E+00 -0.41562115470E+03  0.11767971467E+04  0.11009589367E+04 0.  0.
        4    1    3    3  502    0  0.45748852341E+03  0.22344952264E+03  0.15891741308E+02  0.50939140016E+03  0.12699999809E+01 0.  1.
       -4    1    3    3    0  502 -0.45748852341E+03 -0.22344952264E+03 -0.43151289601E+03  0.66740574656E+03  0.12699999809E+01 0. -1.
</event>
<event>
 5   0  0.1402775E-03  0.1108541E+04  0.7818609E-02  0.9196907E-01
       -2   -1    0    0    0  501  0.00000000000E+00  0.00000000000E+00  0.15520027415E+04  0.15520027415E+04  0.25500000920E-02 0.  1.
        2   -1    0    0  501    0  0.00000000000E+00  0.00000000000E+00 -0.19794796979E+03  0.19794796980E+03  0.25500000920E-02 0. -1.
    10030    2    1    2    0    0  0.00000000000E+00  0.00000000000E+00  0.13540547717E+04  0.17499507113E+04  0.11085410084E+04 0.  0.
        5    1    3    3  502    0 -0.33160571262E+02 -0.40872065236E+03  0.88392109291E+02  0.41950858171E+03  0.46999998093E+01 0. -1.
       -5    1    3    3    0  502  0.33160571262E+02  0.40872065236E+03  0.12656626624E+04  0.13304421296E+04  0.46999998093E+01 0.  1.
</event>
<event>
 5   0  0.7946038E-04  0.1098493E+04  0.7818609E-02  0.9206662E-01
        1   -1    0    0  501    0  0.00000000000E+00  0.00000000000E+00  0.57439212070E+03  0.57439212073E+03  0.50400001928E-02 0. -1.
       -1   -1    0    0    0  501  0.00000000000E+00  0.00000000000E+00 -0.52520172550E+03  0.52520172552E+03  0.50400001928E-02 0.  1.
    10030    2    1    2    0    0  0.00000000000E+00  0.00000000000E+00  0.49190395206E+02  0.10995938462E+04  0.10984930276E+04 0.  0.
        4    1    3    3  502    0  0.17017086418E+03  0.46344751925E+03 -0.21632917674E+03  0.53901915711E+03  0.12699999809E+01 0. -1.
       -4    1    3    3    0  502 -0.17017086418E+03 -0.46344751925E+03  0.26551957195E+03  0.56057468914E+03  0.12699999809E+01 0.  1.
</event>
<event>
 5   0  0.8150924E-04  0.1098186E+04  0.7818609E-02  0.9206962E-01
        1   -1    0    0  501    0  0.00000000000E+00  0.00000000000E+00  0.49433414185E+03  0.49433414188E+03  0.50400001928E-02 0. -1.
       -1   -1    0    0    0  501  0.00000000000E+00  0.00000000000E+00 -0.60991772384E+03  0.60991772386E+03  0.50400001928E-02 0.  1.
    10030    2    1    2    0    0  0.00000000000E+00  0.00000000000E+00 -0.11558358199E+03  0.11042518657E+04  0.10981860583E+04 0.  0.
        3    1    3    3  502    0  0.39410096687E+03  0.23330259378E+03  0.24679631188E+03  0.52024427158E+03  0.10100000352E+00 0. -1.
       -3    1    3    3    0  502 -0.39410096687E+03 -0.23330259378E+03 -0.36237989388E+03  0.58400759416E+03  0.10100000352E+00 0.  1.
</event>
<event>
 5   0  0.1425432E-03  0.1095359E+04  0.7818609E-02  0.9209727E-01
        2   -1    0    0  501    0  0.00000000000E+00  0.00000000000E+00  0.34356326288E+03  0.34356326289E+03  0.25500000920E-02 0.  1.
       -2   -1    0    0    0  501  0.00000000000E+00  0.00000000000E+00 -0.87306471713E+03  0.87306471714E+03  0.25500000920E-02 0. -1.
    10030    2    1    2    0    0  0.00000000000E+00  0.00000000000E+00 -0.52950145425E+03  0.12166279800E+04  0.10953592341E+04 0.  0.
        1    1    3    3  502    0  0.12271228635E+03  0.47065856424E+03  0.14864492970E+02  0.48661971033E+03  0.50400001928E-02 0.  1.
       -1    1    3    3    0  502 -0.12271228635E+03 -0.47065856424E+03 -0.54436594722E+03  0.73000826970E+03  0.50400001928E-02 0. -1.
</event>
<event>
 5   0  0.1372794E-03  0.1100377E+04  0.7818609E-02  0.9204825E-01
       -2   -1    0    0    0  501  0.00000000000E+00  0.00000000000E+00  0.58368763236E+03  0.58368763236E+03  0.25500000920E-02 0.  1.
        2   -1    0    0  501    0  0.00000000000E+00  0.00000000000E+00 -0.51861155956E+03  0.51861155957E+03  0.25500000920E-02 0. -1.
    10030    2    1    2    0    0  0.00000000000E+00  0.00000000000E+00  0.65076072792E+02  0.11022991919E+04  0.11003765779E+04 0.  0.
        4    1    3    3  502    0  0.37417909615E+03  0.30234780137E+03  0.29999019897E+03  0.56693908082E+03  0.12699999809E+01 0.  1.
       -4    1    3    3    0  502 -0.37417909615E+03 -0.30234780137E+03 -0.23491412618E+03  0.53536011111E+03  0.12699999809E+01 0. -1.
</event>
<event>
 5   0  0.1429680E-03  0.1099721E+04  0.7818609E-02  0.9205464E-01
        2   -1    0    0  501    0  0.00000000000E+00  0.00000000000E+00  0.52590421471E+03  0.52590421471E+03  0.25500000920E-02 0.  1.
       -2   -1    0    0    0  501  0.00000000000E+00  0.00000000000E+00 -0.57490785046E+03  0.57490785047E+03  0.25500000920E-02 0. -1.
    10030    2    1    2    0    0  0.00000000000E+00  0.00000000000E+00 -0.49003635758E+02  0.11008120652E+04  0.10997208039E+04 0.  0.
        3    1    3    3  502    0  0.10610668926E+03 -0.39773962419E+03  0.34040211694E+03  0.53416200686E+03  0.10100000352E+00 0.  1.
       -3    1    3    3    0  502 -0.10610668926E+03  0.39773962419E+03 -0.38940575270E+03  0.56665005832E+03  0.10100000352E+00 0. -1.
</event>
<event>
 5   0  0.8341767E-04  0.1102126E+04  0.7818609E-02  0.9203122E-01
        1   -1    0    0  501    0  0.00000000000E+00  0.00000000000E+00  0.96144934833E+03  0.96144934834E+03  0.50400001928E-02 0. -1.
       -1   -1    0    0    0  501  0.00000000000E+00  0.00000000000E+00 -0.31584657733E+03  0.31584657737E+03  0.50400001928E-02 0.  1.
    10030    2    1    2    0    0  0.00000000000E+00  0.00000000000E+00  0.64560277100E+03  0.12772959257E+04  0.11021261016E+04 0.  0.
        2    1    3    3  502    0 -0.30949161728E+03 -0.24566445573E+03 -0.12234913588E+03  0.41364888134E+03  0.25500000920E-02 0.  1.
       -2    1    3    3    0  502  0.30949161728E+03  0.24566445573E+03  0.76795190688E+03  0.86364704438E+03  0.25500000920E-02 0. -1.
</event>
<event>
 5   0  0.8341767E-04  0.1099041E+04  0.7818609E-02  0.9206128E-01
       -1   -1    0    0    0  501  0.00000000000E+00  0.00000000000E+00  0.11140593872E+04  0.11140593872E+04  0.50400001928E-02 0.  1.
        1   -1    0    0  501    0  0.00000000000E+00  0.00000000000E+00 -0.27105603603E+03  0.27105603607E+03  0.50400001928E-02 0. -1.
    10030    2    1    2    0    0  0.00000000000E+00  0.00000000000E+00  0.84300335119E+03  0.13851154233E+04  0.10990405296E+04 0.  0.
        2    1    3    3  502    0 -0.32293029740E+02  0.47512616664E+03  0.75930665264E+02  0.48223767992E+03  0.25500000920E-02 0. -1.
       -2    1    3    3    0  502  0.32293029740E+02 -0.47512616664E+03  0.76707268592E+03  0.90287774338E+03  0.25500000920E-02 0.  1.
</event>
<event>
 5   0  0.1402775E-03  0.1103460E+04  0.7818609E-02  0.9201826E-01
        2   -1    0    0  501    0  0.00000000000E+00  0.00000000000E+00  0.10851058452E+04  0.10851058452E+04  0.25500000920E-02 0. -1.
       -2   -1    0    0    0  501  0.00000000000E+00  0.00000000000E+00 -0.28053122496E+03  0.28053122497E+03  0.25500000920E-02 0.  1.
    10030    2    1    2    0    0  0.00000000000E+00  0.00000000000E+00  0.80457462021E+03  0.13656370701E+04  0.11034601433E+04 0.  0.
        5    1    3    3  502    0 -0.51724836419E+03 -0.16622746360E+03  0.52103547771E+03  0.75277984759E+03  0.46999998093E+01 0. -1.
       -5    1    3    3    0  502  0.51724836419E+03  0.16622746360E+03  0.28353914250E+03  0.61285722255E+03  0.46999998093E+01 0.  1.
</event>
<event>
 5   0  0.8009636E-04  0.1100935E+04  0.7818609E-02  0.9204281E-01
        1   -1    0    0  501    0  0.00000000000E+00  0.00000000000E+00  0.23484568052E+04  0.23484568052E+04  0.50400001928E-02 0.  1.
       -1   -1    0    0    0  501  0.00000000000E+00  0.00000000000E+00 -0.12902711928E+03  0.12902711938E+03  0.50400001928E-02 0. -1.
    10030    2    1    2    0    0  0.00000000000E+00  0.00000000000E+00  0.22194296859E+04  0.24774839246E+04  0.11009352687E+04 0.  0.
        1    1    3    3  502    0 -0.15299459974E+03 -0.47802976406E+03  0.60104326752E+03  0.78305351817E+03  0.50400001928E-02 0. -1.
       -1    1    3    3    0  502  0.15299459974E+03  0.47802976406E+03  0.16183864184E+04  0.16944304064E+04  0.50400001928E-02 0.  1.
</event>
<event>
 5   0  0.1429680E-03  0.1088694E+04  0.7818609E-02  0.9216282E-01
        2   -1    0    0  501    0  0.00000000000E+00  0.00000000000E+00  0.66005489340E+03  0.66005489341E+03  0.25500000920E-02 0.  1.
       -2   -1    0    0    0  501  0.00000000000E+00  0.00000000000E+00 -0.44892254891E+03  0.44892254891E+03  0.25500000920E-02 0. -1.
    10030    2    1    2    0    0  0.00000000000E+00  0.00000000000E+00  0.21113234450E+03  0.11089774423E+04  0.10886937589E+04 0.  0.
        3    1    3    3  502    0 -0.20497934289E+03 -0.28491636119E+03  0.52939467803E+03  0.63517918670E+03  0.10100000352E+00 0.  1.
       -3    1    3    3    0  502  0.20497934289E+03  0.28491636119E+03 -0.31826233353E+03  0.47379825562E+03  0.10100000352E+00 0. -1.
</event>
<event>
 5   0  0.8341767E-04  0.1099100E+04  0.7818609E-02  0.9206069E-01
        1   -1    0    0  501    0  0.00000000000E+00  0.00000000000E+00  0.97300174288E+03  0.97300174289E+03  0.50400001928E-02 0.  1.
       -1   -1    0    0    0  501  0.00000000000E+00  0.00000000000E+00 -0.31038522227E+03  0.31038522231E+03  0.50400001928E-02 0. -1.
    10030    2    1    2    0    0  0.00000000000E+00  0.00000000000E+00  0.66261652060E+03  0.12833869652E+04  0.10991002907E+04 0.  0.
        2    1    3    3  502    0  0.34641772781E+03 -0.11282403075E+03 -0.14910103222E+03  0.39365673101E+03  0.25500000920E-02 0. -1.
       -2    1    3    3    0  502 -0.34641772781E+03  0.11282403075E+03  0.81171755283E+03  0.88973023419E+03  0.25500000920E-02 0.  1.
</event>
<event>
 5   0  0.7946038E-04  0.1096439E+04  0.7818609E-02  0.9208670E-01
       -1   -1    0    0    0  501  0.00000000000E+00  0.00000000000E+00  0.63012218145E+03  0.63012218147E+03  0.50400001928E-02 0. -1.
        1   -1    0    0  501    0  0.00000000000E+00  0.00000000000E+00 -0.47696218324E+03  0.47696218327E+03  0.50400001928E-02 0.  1.
    10030    2    1    2    0    0  0.00000000000E+00  0.00000000000E+00  0.15315999821E+03  0.11070843647E+04  0.10964386921E+04 0.  0.
        4    1    3    3  502    0 -0.20346431254E+03  0.49904828362E+03  0.17803404507E+03  0.56757788009E+03  0.12699999809E+01 0. -1.
       -4    1    3    3    0  502  0.20346431254E+03 -0.49904828362E+03 -0.24874046858E+02  0.53950648465E+03  0.12699999809E+01 0.  1.
</event>
<event>
 5   0  0.8305271E-04  0.1101287E+04  0.7818609E-02  0.9203938E-01
       -1   -1    0    0    0  501  0.00000000000E+00  0.00000000000E+00  0.31400450410E+03  0.31400450414E+03  0.50400001928E-02 0. -1.
        1   -1    0    0  501    0  0.00000000000E+00  0.00000000000E+00 -0.96561746649E+03  0.96561746650E+03  0.50400001928E-02 0.  1.
    10030    2    1    2    0    0  0.00000000000E+00  0.00000000000E+00 -0.65161296238E+03  0.12796219706E+04  0.11012869449E+04 0.  0.
        5    1    3    3  502    0  0.52265979113E+03  0.16758443526E+03 -0.27478261039E+03  0.61382845582E+03  0.46999998093E+01 0.  1.
       -5    1    3    3    0  502 -0.52265979113E+03 -0.16758443526E+03 -0.37683035200E+03  0.66579351483E+03  0.46999998093E+01 0. -1.
</event>
<event>
 5   0  0.1372794E-03  0.1098822E+04  0.7818609E-02  0.9206341E-01
        2   -1    0    0  501    0  0.00000000000E+00  0.00000000000E+00  0.12056637293E+04  0.12056637293E+04  0.25500000920E-02 0. -1.
       -2   -1    0    0    0  501  0.00000000000E+00  0.00000000000E+00 -0.25036197459E+03  0.25036197461E+03  0.25500000920E-02 0.  1.
    10030    2    1    2    0    0  0.00000000000E+00  0.00000000000E+00  0.95530175472E+03  0.14560257039E+04  0.10988218272E+04 0.  0.
        4    1    3    3  502    0 -0.34890679123E+03 -0.35703902046E+03  0.78166317863E+03  0.92747600984E+03  0.12699999809E+01 0. -1.
       -4    1    3    3    0  502  0.34890679123E+03  0.35703902046E+03  0.17363857608E+03  0.52854969408E+03  0.12699999809E+01 0.  1.
</event>
<event>
 5   0  0.8305271E-04  0.1101997E+04  0.7818609E-02  0.9203248E-01
        1   -1    0    0  501    0  0.00000000000E+00  0.00000000000E+00  0.55080342640E+03  0.55080342643E+03  0.50400001928E-02 0. -1.
       -1   -1    0    0    0  501  0.00000000000E+00  0.00000000000E+00 -0.55119367416E+03  0.55119367418E+03  0.50400001928E-02 0.  1.
    10030    2    1    2    0    0  0.00000000000E+00  0.00000000000E+00 -0.39024775171E+00  0.11019971006E+04  0.11019970315E+04 0.  0.
        5    1    3    3  502    0 -0.29349389043E+03  0.24460432157E+03 -0.39719305369E+03  0.55113913829E+03  0.46999998093E+01 0.  1.
       -5    1    3    3    0  502  0.29349389043E+03 -0.24460432157E+03  0.39680280594E+03  0.55085796232E+03  0.46999998093E+01 0. -1.
</event>
<event>
 5   0  0.1396936E-03  0.1099760E+04  0.7818609E-02  0.9205426E-01
        2   -1    0    0  501    0  0.00000000000E+00  0.00000000000E+00  0.65495688349E+03  0.65495688350E+03  0.25500000920E-02 0.  1.
       -2   -1    0    0    0  501  0.00000000000E+00  0.00000000000E+00 -0.46166116381E+03  0.46166116382E+03  0.25500000920E-02 0. -1.
    10030    2    1    2    0    0  0.00000000000E+00  0.00000000000E+00  0.19329571968E+03  0.11166180473E+04  0.10997602595E+04 0.  0.
        2    1    3    3  502    0 -0.32010514128E+03  0.11931578144E+03 -0.34084520579E+03  0.48257539462E+03  0.25500000920E-02 0. -1.
       -2    1    3    3    0  502  0.32010514128E+03 -0.11931578144E+03  0.53414092547E+03  0.63404265270E+03  0.25500000920E-02 0.  1.
</event>
<event>
 5   0  0.8341767E-04  0.1101387E+04  0.7818609E-02  0.9203841E-01
       -1   -1    0    0    0  501  0.00000000000E+00  0.00000000000E+00  0.41303059908E+03  0.41303059911E+03  0.50400001928E-02 0. -1.
        1   -1    0    0  501    0  0.00000000000E+00  0.00000000000E+00 -0.73423993468E+03  0.73423993470E+03  0.50400001928E-02 0.  1.
    10030    2    1    2    0    0  0.00000000000E+00  0.00000000000E+00 -0.32120933560E+03  0.11472705338E+04  0.11013874162E+04 0.  0.
        2    1    3    3  502    0  0.28190492122E+03  0.37373880469E+03  0.14149896788E+03  0.48905320432E+03  0.25500000920E-02 0. -1.
       -2    1    3    3    0  502 -0.28190492122E+03 -0.37373880469E+03 -0.46270830348E+03  0.65821732950E+03  0.25500000920E-02 0.  1.
</event>
<event>
 5   0  0.8009636E-04  0.1103605E+04  0.7818609E-02  0.9201685E-01
        1   -1    0    0  501    0  0.00000000000E+00  0.00000000000E+00  0.21897166161E+04  0.21897166161E+04  0.50400001928E-02 0.  1.
       -1   -1    0    0    0  501  0.00000000000E+00  0.00000000000E+00 -0.13905277620E+03  0.13905277629E+03  0.50400001928E-02 0. -1.
    10030    2    1    2    0    0  0.00000000000E+00  0.00000000000E+00  0.20506638399E+04  0.23287693924E+04  0.11036053184E+04 0.  0.
        1    1    3    3  502    0 -0.10547137183E+03 -0.25679715998E+03  0.19039184344E+02  0.27826512936E+03  0.50400001928E-02 0. -1.
       -1    1    3    3    0  502  0.10547137183E+03  0.25679715998E+03  0.20316246556E+04  0.20505042631E+04  0.50400001928E-02 0.  1.
</event>
<event>
 5   0  0.1396936E-03  0.1098166E+04  0.7818609E-02  0.9206981E-01
       -2   -1    0    0    0  501  0.00000000000E+00  0.00000000000E+00  0.27231695363E+03  0.27231695364E+03  0.25500000920E-02 0. -1.
        2   -1    0    0  501    0  0.00000000000E+00  0.00000000000E+00 -0.11071366571E+04  0.11071366571E+04  0.25500000920E-02 0.  1.
    10030    2    1    2    0    0  0.00000000000E+00  0.00000000000E+00 -0.83481970345E+03  0.13794536107E+04  0.10981658922E+04 0.  0.
        2    1    3    3  502    0  0.42560664406E+03 -0.13945323532E+02 -0.85283444449E+03  0.95323768139E+03  0.25500000920E-02 0.  1.
       -2    1    3    3    0  502 -0.42560664406E+03  0.13945323532E+02  0.18014741042E+02  0.42621592933E+03  0.25500000920E-02 0. -1.
</event>
<event>
 5   0  0.1372794E-03  0.1110529E+04  0.7818609E-02  0.9194990E-01
        2   -1    0    0  501    0  0.00000000000E+00  0.00000000000E+00  0.61478844840E+03  0.61478844840E+03  0.25500000920E-02 0.  1.
       -2   -1    0    0    0  501  0.00000000000E+00  0.00000000000E+00 -0.50150353375E+03  0.50150353376E+03  0.25500000920E-02 0. -1.
    10030    2    1    2    0    0  0.00000000000E+00  0.00000000000E+00  0.11328491465E+03  0.11162919822E+04  0.11105288459E+04 0.  0.
        4    1    3    3  502    0 -0.32822809552E+03 -0.18369832539E+03 -0.35393558649E+03  0.51647920551E+03  0.12699999809E+01 0. -1.
       -4    1    3    3    0  502  0.32822809552E+03  0.18369832539E+03  0.46722050114E+03  0.59981277665E+03  0.12699999809E+01 0.  1.
</event>
<event>
 5   0  0.8341767E-04  0.1097628E+04  0.7818609E-02  0.9207506E-01
       -1   -1    0    0    0  501  0.00000000000E+00  0.00000000000E+00  0.17239470130E+03  0.17239470137E+03  0.50400001928E-02 0. -1.
        1   -1    0    0  501    0  0.00000000000E+00  0.00000000000E+00 -0.17471361226E+04  0.17471361226E+04  0.50400001928E-02 0.  1.
    10030    2    1    2    0    0  0.00000000000E+00  0.00000000000E+00 -0.15747414213E+04  0.19195308240E+04  0.10976283707E+04 0.  0.
        2    1    3    3  502    0  0.24182917076E+03  0.43050272120E+03 -0.12062912495E+04  0.13034387286E+04  0.25500000920E-02 0.  1.
       -2    1    3    3    0  502 -0.24182917076E+03 -0.43050272120E+03 -0.36845017184E+03  0.61609209533E+03  0.25500000920E-02 0. -1.
</event>
<event>
 5   0  0.8009636E-04  0.1100285E+04  0.7818609E-02  0.9204914E-01
        1   -1    0    0  501    0  0.00000000000E+00  0.00000000000E+00  0.15108852329E+04  0.15108852329E+04  0.50400001928E-02 0.  1.
       -1   -1    0    0    0  501  0.00000000000E+00  0.00000000000E+00 -0.20031756392E+03  0.20031756398E+03  0.50400001928E-02 0. -1.
    10030    2    1    2    0    0  0.00000000000E+00  0.00000000000E+00  0.13105676690E+04  0.17112027969E+04  0.11002851435E+04 0.  0.
        1    1    3    3  502    0  0.48508887141E+03 -0.10789222509E+03  0.10223488098E+04  0.11367273351E+04  0.50400001928E-02 0.  1.
       -1    1    3    3    0  502 -0.48508887141E+03  0.10789222509E+03  0.28821885919E+03  0.57447546181E+03  0.50400001928E-02 0. -1.
</event>
<event>
 5   0  0.7946038E-04  0.1099178E+04  0.7818609E-02  0.9205994E-01
        1   -1    0    0  501    0  0.00000000000E+00  0.00000000000E+00  0.80625403618E+03  0.80625403619E+03  0.50400001928E-02 0. -1.
       -1   -1    0    0    0  501  0.00000000000E+00  0.00000000000E+00 -0.37463114428E+03  0.37463114432E+03  0.50400001928E-02 0.  1.
    10030    2    1    2    0    0  0.00000000000E+00  0.00000000000E+00  0.43162289189E+03  0.11808851805E+04  0.10991776420E+04 0.  0.
        4    1    3    3  502    0 -0.10861174767E+03  0.53287338748E+03  0.13056783954E+03  0.55928537656E+03  0.12699999809E+01 0.  1.
       -4    1    3    3    0  502  0.10861174767E+03 -0.53287338748E+03  0.30105505235E+03  0.62159980394E+03  0.12699999809E+01 0. -1.
</event>
<event>
 5   0  0.1372794E-03  0.1090896E+04  0.7818609E-02  0.9214111E-01
        2   -1    0    0  501    0  0.00000000000E+00  0.00000000000E+00  0.69314151651E+03  0.69314151651E+03  0.25500000920E-02 0. -1.
       -2   -1    0    0    0  501  0.00000000000E+00  0.00000000000E+00 -0.42922452627E+03  0.42922452628E+03  0.25500000920E-02 0.  1.
    10030    2    1    2    0    0  0.00000000000E+00  0.00000000000E+00  0.26391699024E+03  0.11223660428E+04  0.10908956670E+04 0.  0.
        4    1    3    3  502    0 -0.81495180053E+02 -0.23186117792E+03  0.63294593495E+03  0.67898692157E+03  0.12699999809E+01 0. -1.
       -4    1    3    3    0  502  0.81495180053E+02  0.23186117792E+03 -0.36902894471E+03  0.44337912122E+03  0.12699999809E+01 0.  1.
</event>
<event>
 5   0  0.8150924E-04  0.1100189E+04  0.7818609E-02  0.9205007E-01
       -1   -1    0    0    0  501  0.00000000000E+00  0.00000000000E+00  0.24581412843E+03  0.24581412848E+03  0.50400001928E-02 0.  1.
        1   -1    0    0  501    0  0.00000000000E+00  0.00000000000E+00 -0.12310282669E+04  0.12310282669E+04  0.50400001928E-02 0. -1.
    10030    2    1    2    0    0  0.00000000000E+00  0.00000000000E+00 -0.98521413845E+03  0.14768423954E+04  0.11001893301E+04 0.  0.
        3    1    3    3  502    0  0.15741584044E+03 -0.18879691313E+03  0.16798895800E+03  0.29773196241E+03  0.10100000352E+00 0.  1.
       -3    1    3    3    0  502 -0.15741584044E+03  0.18879691313E+03 -0.11532030965E+04  0.11791104330E+04  0.10100000352E+00 0. -1.
</event>
<event>
 5   0  0.8009636E-04  0.1097310E+04  0.7818609E-02  0.9207818E-01
       -1   -1    0    0    0  501  0.00000000000E+00  0.00000000000E+00  0.37605473322E+03  0.37605473326E+03  0.50400001928E-02 0. -1.
        1   -1    0    0  501    0  0.00000000000E+00  0.00000000000E+00 -0.80047492514E+03  0.80047492515E+03  0.50400001928E-02 0.  1.
    10030    2    1    2    0    0  0.00000000000E+00  0.00000000000E+00 -0.42442019192E+03  0.11765296584E+04  0.10973101375E+04 0.  0.
        1    1    3    3  502    0  0.46433825226E+03 -0.19016581240E+03 -0.45015350339E+03  0.67410030809E+03  0.50400001928E-02 0. -1.
       -1    1    3    3    0  502 -0.46433825226E+03  0.19016581240E+03  0.25733311476E+02  0.50242935032E+03  0.50400001928E-02 0.  1.
</event>
<event>
 5   0  0.8009636E-04  0.1074709E+04  0.7818609E-02  0.9230199E-01
       -1   -1    0    0    0  501  0.00000000000E+00  0.00000000000E+00  0.14387128394E+03  0.14387128403E+03  0.50400001928E-02 0.  1.
        1   -1    0    0  501    0  0.00000000000E+00  0.00000000000E+00 -0.20070022806E+04  0.20070022806E+04  0.50400001928E-02 0. -1.
    10030    2    1    2    0    0  0.00000000000E+00  0.00000000000E+00 -0.18631309966E+04  0.21508735646E+04  0.10747092538E+04 0.  0.
        1    1    3    3  502    0  0.38897562317E+03 -0.33989258887E+03 -0.12278807136E+04  0.13321111268E+04  0.50400001928E-02 0. -1.
       -1    1    3    3    0  502 -0.38897562317E+03  0.33989258887E+03 -0.63525028306E+03  0.81876243779E+03  0.50400001928E-02 0.  1.
</event>
<event>
 5   0  0.1372794E-03  0.1098203E+04  0.7818609E-02  0.9206945E-01
        2   -1    0    0  501    0  0.00000000000E+00  0.00000000000E+00  0.80108396099E+03  0.80108396099E+03  0.25500000920E-02 0. -1.
       -2   -1    0    0    0  501  0.00000000000E+00  0.00000000000E+00 -0.37638041400E+03  0.37638041401E+03  0.25500000920E-02 0.  1.
    10030    2    1    2    0    0  0.00000000000E+00  0.00000000000E+00  0.42470354699E+03  0.11774643750E+04  0.10982027370E+04 0.  0.
        4    1    3    3  502    0  0.35744707948E+01 -0.28263072456E+03  0.71709159615E+03  0.77078847518E+03  0.12699999809E+01 0. -1.
       -4    1    3    3    0  502 -0.35744707948E+01  0.28263072456E+03 -0.29238804915E+03  0.40667589982E+03  0.12699999809E+01 0.  1.
</event>
<event>
 5   0  0.1429680E-03  0.1100527E+04  0.7818609E-02  0.9204679E-01
       -2   -1    0    0    0  501  0.00000000000E+00  0.00000000000E+00  0.36198310527E+03  0.36198310528E+03  0.25500000920E-02 0.  1.
        2   -1    0    0  501    0  0.00000000000E+00  0.00000000000E+00 -0.83647482722E+03  0.83647482722E+03  0.25500000920E-02 0. -1.
    10030    2    1    2    0    0  0.00000000000E+00  0.00000000000E+00 -0.47449172194E+03  0.11984579325E+04  0.11005267020E+04 0.  0.
        3    1    3    3  502    0  0.28582640918E+03  0.29195610325E+03  0.16413758074E+03  0.44031381766E+03  0.10100000352E+00 0.  1.
       -3    1    3    3    0  502 -0.28582640918E+03 -0.29195610325E+03 -0.63862930269E+03  0.75814411484E+03  0.10100000352E+00 0. -1.
</event>
<event>
 5   0  0.1402775E-03  0.1097567E+04  0.7818609E-02  0.9207567E-01
       -2   -1    0    0    0  501  0.00000000000E+00  0.00000000000E+00  0.20120898596E+03  0.20120898598E+03  0.25500000920E-02 0. -1.
        2   -1    0    0  501    0  0.00000000000E+00  0.00000000000E+00 -0.14967686102E+04  0.14967686102E+04  0.25500000920E-02 0.  1.
    10030    2    1    2    0    0  0.00000000000E+00  0.00000000000E+00 -0.12955596243E+04  0.16979775962E+04  0.10975669352E+04 0.  0.
        5    1    3    3  502    0  0.11743966686E+03 -0.51841065429E+03 -0.43679468712E+03  0.68800680994E+03  0.46999998093E+01 0. -1.
       -5    1    3    3    0  502 -0.11743966686E+03  0.51841065429E+03 -0.85876493714E+03  0.10099707863E+04  0.46999998093E+01 0.  1.
</event>
<event>
 5   0  0.1429680E-03  0.1105241E+04  0.7818609E-02  0.9200099E-01
       -2   -1    0    0    0  501  0.00000000000E+00  0.00000000000E+00  0.35905152712E+03  0.35905152713E+03  0.25500000920E-02 0. -1.
        2   -1    0    0  501    0  0.00000000000E+00  0.00000000000E+00 -0.85054489899E+03  0.85054489899E+03  0.25500000920E-02 0.  1.
    10030    2    1    2    0    0  0.00000000000E+00  0.00000000000E+00 -0.49149337186E+03  0.12095964261E+04  0.11052410504E+04 0.  0.
        3    1    3    3  502    0 -0.24987425602E+03  0.61586950946E+02 -0.78096030955E+03  0.82227070460E+03  0.10100000352E+00 0.  1.
       -3    1    3    3    0  502  0.24987425602E+03 -0.61586950946E+02  0.28946693768E+03  0.38732572153E+03  0.10100000352E+00 0. -1.
</event>
<event>
 5   0  0.8305271E-04  0.1099021E+04  0.7818609E-02  0.9206146E-01
        1   -1    0    0  501    0  0.00000000000E+00  0.00000000000E+00  0.29785031141E+03  0.29785031145E+03  0.50400001928E-02 0.  1.
       -1   -1    0    0    0  501  0.00000000000E+00  0.00000000000E+00 -0.10138046926E+04  0.10138046926E+04  0.50400001928E-02 0. -1.
    10030    2    1    2    0    0  0.00000000000E+00  0.00000000000E+00 -0.71595438120E+03  0.13116550041E+04  0.10990214619E+04 0.  0.
        5    1    3    3  502    0  0.31873796700E+02  0.11008870904E+03  0.28340281618E+03  0.30573633901E+03  0.46999998093E+01 0.  1.
       -5    1    3    3    0  502 -0.31873796700E+02 -0.11008870904E+03 -0.99935719738E+03  0.10059186651E+04  0.46999998093E+01 0. -1.
</event>
<event>
 5   0  0.1402775E-03  0.1100694E+04  0.7818609E-02  0.9204516E-01
        2   -1    0    0  501    0  0.00000000000E+00  0.00000000000E+00  0.10292001812E+04  0.10292001812E+04  0.25500000920E-02 0.  1.
       -2   -1    0    0    0  501  0.00000000000E+00  0.00000000000E+00 -0.29428835514E+03  0.29428835515E+03  0.25500000920E-02 0. -1.
    10030    2    1    2    0    0  0.00000000000E+00  0.00000000000E+00  0.73491182602E+03  0.13234885363E+04  0.11006936512E+04 0.  0.
        5    1    3    3  502    0 -0.12607092649E+02  0.21466098323E+01  0.10289973579E+04  0.10290875567E+04  0.46999998093E+01 0.  1.
       -5    1    3    3    0  502  0.12607092649E+02 -0.21466098323E+01 -0.29408553192E+03  0.29440097962E+03  0.46999998093E+01 0. -1.
</event>
<event>
 5   0  0.1396936E-03  0.1092267E+04  0.7818609E-02  0.9212762E-01
        2   -1    0    0  501    0  0.00000000000E+00  0.00000000000E+00  0.12658645595E+04  0.12658645595E+04  0.25500000920E-02 0.  1.
       -2   -1    0    0    0  501  0.00000000000E+00  0.00000000000E+00 -0.23561910479E+03  0.23561910480E+03  0.25500000920E-02 0. -1.
    10030    2    1    2    0    0  0.00000000000E+00  0.00000000000E+00  0.10302454547E+04  0.15014836643E+04  0.10922671364E+04 0.  0.
        2    1    3    3  502    0 -0.22635208338E+03 -0.91660676702E+02  0.11866283456E+04  0.12114965027E+04  0.25500000920E-02 0.  1.
       -2    1    3    3    0  502  0.22635208338E+03  0.91660676702E+02 -0.15638289096E+03  0.28998716161E+03  0.25500000920E-02 0. -1.
</event>
<event>
 5   0  0.1402775E-03  0.1099506E+04  0.7818609E-02  0.9205674E-01
       -2   -1    0    0    0  501  0.00000000000E+00  0.00000000000E+00  0.36325349652E+03  0.36325349653E+03  0.25500000920E-02 0. -1.
        2   -1    0    0  501    0  0.00000000000E+00  0.00000000000E+00 -0.83200384301E+03  0.83200384302E+03  0.25500000920E-02 0.  1.
    10030    2    1    2    0    0  0.00000000000E+00  0.00000000000E+00 -0.46875034650E+03  0.11952573395E+04  0.10995058983E+04 0.  0.
        5    1    3    3  502    0 -0.53683772195E+03 -0.98905164729E+02 -0.16367911243E+03  0.56990342442E+03  0.46999998093E+01 0. -1.
       -5    1    3    3    0  502  0.53683772195E+03  0.98905164729E+02 -0.30507123406E+03  0.62535391513E+03  0.46999998093E+01 0.  1.
</event>
<event>
 5   0  0.8009636E-04  0.1102099E+04  0.7818609E-02  0.9203148E-01
       -1   -1    0    0    0  501  0.00000000000E+00  0.00000000000E+00  0.25340293316E+03  0.25340293321E+03  0.50400001928E-02 0. -1.
        1   -1    0    0  501    0  0.00000000000E+00  0.00000000000E+00 -0.11983121839E+04  0.11983121839E+04  0.50400001928E-02 0.  1.
    10030    2    1    2    0    0  0.00000000000E+00  0.00000000000E+00 -0.94490925078E+03  0.14517151171E+04  0.11020994915E+04 0.  0.
        1    1    3    3  502    0 -0.35107594438E+03 -0.18767453207E+03 -0.97435053311E+03  0.10525374151E+04  0.50400001928E-02 0.  1.
       -1    1    3    3    0  502  0.35107594438E+03  0.18767453207E+03  0.29441282332E+02  0.39917770209E+03  0.50400001928E-02 0. -1.
</event>
<event>
 5   0  0.1396936E-03  0.1098315E+04  0.7818609E-02  0.9206836E-01
       -2   -1    0    0    0  501  0.00000000000E+00  0.00000000000E+00  0.14053141914E+03  0.14053141916E+03  0.25500000920E-02 0.  1.
        2   -1    0    0  501    0  0.00000000000E+00  0.00000000000E+00 -0.21459528234E+04  0.21459528234E+04  0.25500000920E-02 0. -1.
    10030    2    1    2    0    0  0.00000000000E+00  0.00000000000E+00 -0.20054214043E+04  0.22864842426E+04  0.10983147012E+04 0.  0.
        2    1    3    3  502    0  0.35259959300E+03 -0.41768512611E+03 -0.89281829708E+03  0.10468580845E+04  0.25500000920E-02 0.  1.
       -2    1    3    3    0  502 -0.35259959300E+03  0.41768512611E+03 -0.11126031072E+04  0.12396261580E+04  0.25500000920E-02 0. -1.
</event>
<event>
 5   0  0.8305271E-04  0.1083332E+04  0.7818609E-02  0.9221592E-01
       -1   -1    0    0    0  501  0.00000000000E+00  0.00000000000E+00  0.17885133243E+03  0.17885133250E+03  0.50400001928E-02 0. -1.
        1   -1    0    0  501    0  0.00000000000E+00  0.00000000000E+00 -0.16404797336E+04  0.16404797336E+04  0.50400001928E-02 0.  1.
    10030    2    1    2    0    0  0.00000000000E+00  0.00000000000E+00 -0.14616284012E+04  0.18193310661E+04  0.10833318720E+04 0.  0.
        5    1    3    3  502    0 -0.17383931447E+03  0.42009811979E+03 -0.12252421915E+04  0.13068829540E+04  0.46999998093E+01 0.  1.
       -5    1    3    3    0  502  0.17383931447E+03 -0.42009811979E+03 -0.23638620963E+03  0.51244811211E+03  0.46999998093E+01 0. -1.
</event>
<event>
 5   0  0.8150924E-04  0.1095687E+04  0.7818609E-02  0.9209406E-01
       -1   -1    0    0    0  501  0.00000000000E+00  0.00000000000E+00  0.42944275238E+03  0.42944275241E+03  0.50400001928E-02 0. -1.
        1   -1    0    0  501    0  0.00000000000E+00  0.00000000000E+00 -0.69888794780E+03  0.69888794781E+03  0.50400001928E-02 0.  1.
    10030    2    1    2    0    0  0.00000000000E+00  0.00000000000E+00 -0.26944519542E+03  0.11283307002E+04  0.10956867507E+04 0.  0.
        3    1    3    3  502    0  0.27378349928E+03  0.19252907694E+03  0.31191271272E+03  0.45750890757E+03  0.10100000352E+00 0.  1.
       -3    1    3    3    0  502 -0.27378349928E+03 -0.19252907694E+03 -0.58135790814E+03  0.67082179266E+03  0.10100000352E+00 0. -1.
</event>
<event>
 5   0  0.1372794E-03  0.1095380E+04  0.7818609E-02  0.9209707E-01
       -2   -1    0    0    0  501  0.00000000000E+00  0.00000000000E+00  0.26332209178E+03  0.26332209179E+03  0.25500000920E-02 0.  1.
        2   -1    0    0  501    0  0.00000000000E+00  0.00000000000E+00 -0.11391532114E+04  0.11391532114E+04  0.25500000920E-02 0. -1.
    10030    2    1    2    0    0  0.00000000000E+00  0.00000000000E+00 -0.87583111961E+03  0.14024753032E+04  0.10953797634E+04 0.  0.
        4    1    3    3  502    0 -0.20168059222E+03 -0.24658388572E+03 -0.10083334959E+04  0.10574576709E+04  0.12699999809E+01 0. -1.
       -4    1    3    3    0  502  0.20168059222E+03  0.24658388572E+03  0.13250237625E+03  0.34501763228E+03  0.12699999809E+01 0.  1.
</event>
<event>
 5   0  0.8150924E-04  0.1102435E+04  0.7818609E-02  0.9202821E-01
        1   -1    0    0  501    0  0.00000000000E+00  0.00000000000E+00  0.93782305075E+03  0.93782305077E+03  0.50400001928E-02 0. -1.
       -1   -1    0    0    0  501  0.00000000000E+00  0.00000000000E+00 -0.32398543181E+03  0.32398543185E+03  0.50400001928E-02 0.  1.
    10030    2    1    2    0    0  0.00000000000E+00  0.00000000000E+00  0.61383761894E+03  0.12618084826E+04  0.11024354967E+04 0.  0.
        3    1    3    3  502    0  0.33015005538E+02 -0.71322539485E+02 -0.31753955098E+03  0.32712118835E+03  0.10100000352E+00 0.  1.
       -3    1    3    3    0  502 -0.33015005538E+02  0.71322539485E+02  0.93137716992E+03  0.93468729427E+03  0.10100000352E+00 0. -1.
</event>
<event>
 5   0  0.7946038E-04  0.1098119E+04  0.7818609E-02  0.9207027E-01
       -1   -1    0    0    0  501  0.00000000000E+00  0.00000000000E+00  0.60542509324E+03  0.60542509326E+03  0.50400001928E-02 0.  1.
        1   -1    0    0  501    0  0.00000000000E+00  0.00000000000E+00 -0.49794195499E+03  0.49794195502E+03  0.50400001928E-02 0. -1.
    10030    2    1    2    0    0  0.00000000000E+00  0.00000000000E+00  0.10748313825E+03  0.11033670483E+04  0.10981194007E+04 0.  0.
        4    1    3    3  502    0  0.52281944537E+03  0.16746968813E+03  0.62653722147E+02  0.55255169052E+03  0.12699999809E+01 0. -1.
       -4    1    3    3    0  502 -0.52281944537E+03 -0.16746968813E+03  0.44829416102E+02  0.55081535776E+03  0.12699999809E+01 0.  1.
</event>
<event>
 5   0  0.8150924E-04  0.1101803E+04  0.7818609E-02  0.9203437E-01
        1   -1    0    0  501    0  0.00000000000E+00  0.00000000000E+00  0.83606425887E+03  0.83606425889E+03  0.50400001928E-02 0.  1.
       -1   -1    0    0    0  501  0.00000000000E+00  0.00000000000E+00 -0.36300117518E+03  0.36300117522E+03  0.50400001928E-02 0. -1.
    10030    2    1    2    0    0  0.00000000000E+00  0.00000000000E+00  0.47306308369E+03  0.11990654341E+04  0.11018027201E+04 0.  0.
        3    1    3    3  502    0 -0.36334368387E+03  0.28173057463E+03 -0.93741031767E+02  0.46923143600E+03  0.10100000352E+00 0. -1.
       -3    1    3    3    0  502  0.36334368387E+03 -0.28173057463E+03  0.56680411546E+03  0.72983399811E+03  0.10100000352E+00 0.  1.
</event>
<event>
 5   0  0.1402775E-03  0.1099826E+04  0.7818609E-02  0.9205361E-01
       -2   -1    0    0    0  501  0.00000000000E+00  0.00000000000E+00  0.23153510947E+03  0.23153510948E+03  0.25500000920E-02 0.  1.
        2   -1    0    0  501    0  0.00000000000E+00  0.00000000000E+00 -0.13060844449E+04  0.13060844449E+04  0.25500000920E-02 0. -1.
    10030    2    1    2    0    0  0.00000000000E+00  0.00000000000E+00 -0.10745493355E+04  0.15376195544E+04  0.10998261771E+04 0.  0.
        5    1    3    3  502    0 -0.39134526497E+03  0.35157705742E+03 -0.76107196618E+03  0.92520817735E+03  0.46999998093E+01 0.  1.
       -5    1    3    3    0  502  0.39134526497E+03 -0.35157705742E+03 -0.31347736930E+03  0.61241137708E+03  0.46999998093E+01 0. -1.
</event>
<event>
 5   0  0.7946038E-04  0.1090770E+04  0.7818609E-02  0.9214235E-01
       -1   -1    0    0    0  501  0.00000000000E+00  0.00000000000E+00  0.26517956466E+03  0.26517956470E+03  0.50400001928E-02 0.  1.
        1   -1    0    0  501    0  0.00000000000E+00  0.00000000000E+00 -0.11216739299E+04  0.11216739299E+04  0.50400001928E-02 0. -1.
    10030    2    1    2    0    0  0.00000000000E+00  0.00000000000E+00 -0.85649436521E+03  0.13868534946E+04  0.10907703781E+04 0.  0.
        4    1    3    3  502    0  0.43199452090E+02 -0.24138360674E+03  0.19113160095E+03  0.31091018003E+03  0.12699999809E+01 0.  1.
       -4    1    3    3    0  502 -0.43199452090E+02  0.24138360674E+03 -0.10476259662E+04  0.10759433146E+04  0.12699999809E+01 0. -1.
</event>
<event>
 5   0  0.8305271E-04  0.1091355E+04  0.7818609E-02  0.9213659E-01
        1   -1    0    0  501    0  0.00000000000E+00  0.00000000000E+00  0.44709018978E+03  0.44709018981E+03  0.50400001928E-02 0.  1.
       -1   -1    0    0    0  501  0.00000000000E+00  0.00000000000E+00 -0.66600368952E+03  0.66600368954E+03  0.50400001928E-02 0. -1.
    10030    2    1    2    0    0  0.00000000000E+00  0.00000000000E+00 -0.21891349974E+03  0.11130938794E+04  0.10913546004E+04 0.  0.
        5    1    3    3  502    0  0.13907769719E+03 -0.42806065662E+03  0.20517329256E+03  0.49466827428E+03  0.46999998093E+01 0.  1.
       -5    1    3    3    0  502 -0.13907769719E+03  0.42806065662E+03 -0.42408679230E+03  0.61842560507E+03  0.46999998093E+01 0. -1.
</event>
<event>
 5   0  0.1402775E-03  0.1105413E+04  0.7818609E-02  0.9199932E-01
       -2   -1    0    0    0  501  0.00000000000E+00  0.00000000000E+00  0.36021972984E+03  0.36021972985E+03  0.25500000920E-02 0.  1.
        2   -1    0    0  501    0  0.00000000000E+00  0.00000000000E+00 -0.84805086548E+03  0.84805086549E+03  0.25500000920E-02 0. -1.
    10030    2    1    2    0    0  0.00000000000E+00  0.00000000000E+00 -0.48783113565E+03  0.12082705953E+04  0.11054133230E+04 0.  0.
        5    1    3    3  502    0  0.53119471255E+03  0.14642305380E+03 -0.29099324434E+03  0.62314259329E+03  0.46999998093E+01 0.  1.
       -5    1    3    3    0  502 -0.53119471255E+03 -0.14642305380E+03 -0.19683789131E+03  0.58512800204E+03  0.46999998093E+01 0. -1.
</event>
<event>
 5   0  0.8305271E-04  0.1101407E+04  0.7818609E-02  0.9203821E-01
       -1   -1    0    0    0  501  0.00000000000E+00  0.00000000000E+00  0.14426887558E+03  0.14426887567E+03  0.50400001928E-02 0. -1.
        1   -1    0    0  501    0  0.00000000000E+00  0.00000000000E+00 -0.21021475591E+04  0.21021475591E+04  0.50400001928E-02 0.  1.
    10030    2    1    2    0    0  0.00000000000E+00  0.00000000000E+00 -0.19578786835E+04  0.22464164348E+04  0.11014072176E+04 0.  0.
        5    1    3    3  502    0 -0.20921069325E+03 -0.44883161000E+03 -0.14702786739E+04  0.15514381706E+04  0.46999998093E+01 0.  1.
       -5    1    3    3    0  502  0.20921069325E+03  0.44883161000E+03 -0.48760000969E+03  0.69497826423E+03  0.46999998093E+01 0. -1.
</event>
<event>
 5   0  0.1372794E-03  0.1099377E+04  0.7818609E-02  0.9205799E-01
        2   -1    0    0  501    0  0.00000000000E+00  0.00000000000E+00  0.74020954609E+03  0.74020954609E+03  0.25500000920E-02 0. -1.
       -2   -1    0    0    0  501  0.00000000000E+00  0.00000000000E+00 -0.40820552404E+03  0.40820552405E+03  0.25500000920E-02 0.  1.
    10030    2    1    2    0    0  0.00000000000E+00  0.00000000000E+00  0.33200402204E+03  0.11484150701E+04  0.10993773250E+04 0.  0.
        4    1    3    3  502    0 -0.36011404943E+03  0.33698956379E+03  0.41954621619E+03  0.64750655219E+03  0.12699999809E+01 0. -1.
       -4    1    3    3    0  502  0.36011404943E+03 -0.33698956379E+03 -0.87542194145E+02  0.50090851796E+03  0.12699999809E+01 0.  1.
</event>
<event>
 5   0  0.8341767E-04  0.1093861E+04  0.7818609E-02  0.9211196E-01
        1   -1    0    0  501    0  0.00000000000E+00  0.00000000000E+00  0.85704285934E+03  0.85704285935E+03  0.50400001928E-02 0. -1.
       -1   -1    0    0    0  501  0.00000000000E+00  0.00000000000E+00 -0.34902903156E+03  0.34902903159E+03  0.50400001928E-02 0.  1.
    10030    2    1    2    0    0  0.00000000000E+00  0.00000000000E+00  0.50801382778E+03  0.12060718909E+04  0.10938607576E+04 0.  0.
        2    1    3    3  502    0 -0.67063982403E+02 -0.16897858313E+03 -0.31473926725E+03  0.36347234509E+03  0.25500000920E-02 0.  1.
       -2    1    3    3    0  502  0.67063982403E+02  0.16897858313E+03  0.82275309503E+03  0.84259954586E+03  0.25500000920E-02 0. -1.
</event>
<event>
 5   0  0.8341767E-04  0.1104226E+04  0.7818609E-02  0.9201083E-01
       -1   -1    0    0    0  501  0.00000000000E+00  0.00000000000E+00  0.15886008707E+03  0.15886008715E+03  0.50400001928E-02 0.  1.
        1   -1    0    0  501    0  0.00000000000E+00  0.00000000000E+00 -0.19188508803E+04  0.19188508803E+04  0.50400001928E-02 0. -1.
    10030    2    1    2    0    0  0.00000000000E+00  0.00000000000E+00 -0.17599907932E+04  0.20777109674E+04  0.11042260964E+04 0.  0.
        2    1    3    3  502    0 -0.24890635431E+03 -0.15915007019E+03 -0.17576070416E+04  0.17822641865E+04  0.25500000920E-02 0. -1.
       -2    1    3    3    0  502  0.24890635431E+03  0.15915007019E+03 -0.23837516427E+01  0.29544678089E+03  0.25500000920E-02 0.  1.
</event>
<event>
 5   0  0.8009636E-04  0.1096060E+04  0.7818609E-02  0.9209041E-01
       -1   -1    0    0    0  501  0.00000000000E+00  0.00000000000E+00  0.32447399904E+03  0.32447399908E+03  0.50400001928E-02 0.  1.
        1   -1    0    0  501    0  0.00000000000E+00  0.00000000000E+00 -0.92561123266E+03  0.92561123267E+03  0.50400001928E-02 0. -1.
    10030    2    1    2    0    0  0.00000000000E+00  0.00000000000E+00 -0.60113723361E+03  0.12500852318E+04  0.10960598127E+04 0.  0.
        1    1    3    3  502    0 -0.25220690025E+03  0.77439741265E+02  0.24727783889E+03  0.36159585685E+03  0.50400001928E-02 0.  1.
       -1    1    3    3    0  502  0.25220690025E+03 -0.77439741265E+02 -0.84841507250E+03  0.88848937491E+03  0.50400001928E-02 0. -1.
</event>
<event>
 5   0  0.1429680E-03  0.1096060E+04  0.7818609E-02  0.9209040E-01
        2   -1    0    0  501    0  0.00000000000E+00  0.00000000000E+00  0.24869964875E+04  0.24869964875E+04  0.25500000920E-02 0. -1.
       -2   -1    0    0    0  501  0.00000000000E+00  0.00000000000E+00 -0.12076296580E+03  0.12076296583E+03  0.25500000920E-02 0.  1.
    10030    2    1    2    0    0  0.00000000000E+00  0.00000000000E+00  0.23662335217E+04  0.26077594533E+04  0.10960603483E+04 0.  0.
        3    1    3    3  502    0 -0.87511815444E+02  0.27086221801E+03  0.22973206191E+04  0.23148880526E+04  0.10100000352E+00 0. -1.
       -3    1    3    3    0  502  0.87511815444E+02 -0.27086221801E+03  0.68912902538E+02  0.29287140066E+03  0.10100000352E+00 0.  1.
</event>
<event>
 5   0  0.8341767E-04  0.1103239E+04  0.7818609E-02  0.9202041E-01
        1   -1    0    0  501    0  0.00000000000E+00  0.00000000000E+00  0.61413187749E+03  0.61413187751E+03  0.50400001928E-02 0. -1.
       -1   -1    0    0    0  501  0.00000000000E+00  0.00000000000E+00 -0.49546989232E+03  0.49546989234E+03  0.50400001928E-02 0.  1.
    10030    2    1    2    0    0  0.00000000000E+00  0.00000000000E+00  0.11866198518E+03  0.11096017699E+04  0.11032386056E+04 0.  0.
        2    1    3    3  502    0  0.46723009276E+03 -0.15092244123E+03 -0.19351971548E+03  0.52776076316E+03  0.25500000920E-02 0.  1.
       -2    1    3    3    0  502 -0.46723009276E+03  0.15092244123E+03  0.31218170066E+03  0.58184100670E+03  0.25500000920E-02 0. -1.
</event>
<event>
 5   0  0.5409500E-04  0.1100071E+04  0.7818609E-02  0.9205122E-01
        3   -1    0    0  501    0  0.00000000000E+00  0.00000000000E+00  0.19967171837E+03  0.19967174391E+03  0.10100000352E+00 0. -1.
       -3   -1    0    0    0  501  0.00000000000E+00  0.00000000000E+00 -0.15151834581E+04  0.15151834614E+04  0.10100000352E+00 0.  1.
    10030    2    1    2    0    0  0.00000000000E+00  0.00000000000E+00 -0.13155117397E+04  0.17148552053E+04  0.11000714695E+04 0.  0.
        5    1    3    3  502    0 -0.43856233065E+03 -0.26547571294E+03 -0.34714408489E+03  0.61914891399E+03  0.46999998093E+01 0. -1.
       -5    1    3    3    0  502  0.43856233065E+03  0.26547571294E+03 -0.96836765479E+03  0.10957062913E+04  0.46999998093E+01 0.  1.
</event>
<event>
 5   0  0.8341767E-04  0.1098949E+04  0.7818609E-02  0.9206217E-01
       -1   -1    0    0    0  501  0.00000000000E+00  0.00000000000E+00  0.48388112113E+03  0.48388112116E+03  0.50400001928E-02 0.  1.
        1   -1    0    0  501    0  0.00000000000E+00  0.00000000000E+00 -0.62395974562E+03  0.62395974564E+03  0.50400001928E-02 0. -1.
    10030    2    1    2    0    0  0.00000000000E+00  0.00000000000E+00 -0.14007862449E+03  0.11078408668E+04  0.10989492095E+04 0.  0.
        2    1    3    3  502    0 -0.29248719434E+03 -0.32202310490E+03 -0.40842576702E+03  0.59670700190E+03  0.25500000920E-02 0.  1.
       -2    1    3    3    0  502  0.29248719434E+03  0.32202310490E+03  0.26834714253E+03  0.51113386490E+03  0.25500000920E-02 0. -1.
</event>
<event>
 5   0  0.1402775E-03  0.1098487E+04  0.7818609E-02  0.9206668E-01
       -2   -1    0    0    0  501  0.00000000000E+00  0.00000000000E+00  0.56498139990E+03  0.56498139990E+03  0.25500000920E-02 0.  1.
        2   -1    0    0  501    0  0.00000000000E+00  0.00000000000E+00 -0.53394384013E+03  0.53394384014E+03  0.25500000920E-02 0. -1.
    10030    2    1    2    0    0  0.00000000000E+00  0.00000000000E+00  0.31037559765E+02  0.10989252400E+04  0.10984868470E+04 0.  0.
        5    1    3    3  502    0 -0.32653914295E+03 -0.14819000396E+03  0.43168739666E+03  0.56121670287E+03  0.46999998093E+01 0.  1.
       -5    1    3    3    0  502  0.32653914295E+03  0.14819000396E+03 -0.40064983689E+03  0.53770853717E+03  0.46999998093E+01 0. -1.
</event>
<event>
 5   0  0.1372794E-03  0.1092345E+04  0.7818609E-02  0.9212685E-01
       -2   -1    0    0    0  501  0.00000000000E+00  0.00000000000E+00  0.18580159514E+03  0.18580159516E+03  0.25500000920E-02 0.  1.
        2   -1    0    0  501    0  0.00000000000E+00  0.00000000000E+00 -0.16055001688E+04  0.16055001688E+04  0.25500000920E-02 0. -1.
    10030    2    1    2    0    0  0.00000000000E+00  0.00000000000E+00 -0.14196985736E+04  0.17913017639E+04  0.10923451696E+04 0.  0.
        4    1    3    3  502    0 -0.43831817053E+03 -0.29062428499E+03 -0.95151477517E+03  0.10871831832E+04  0.12699999809E+01 0. -1.
       -4    1    3    3    0  502  0.43831817053E+03  0.29062428499E+03 -0.46818379846E+03  0.70411858070E+03  0.12699999809E+01 0.  1.
</event>
<event>
 5   0  0.8341767E-04  0.1089115E+04  0.7818609E-02  0.9215866E-01
        1   -1    0    0  501    0  0.00000000000E+00  0.00000000000E+00  0.11462379358E+04  0.11462379358E+04  0.50400001928E-02 0.  1.
       -1   -1    0    0    0  501  0.00000000000E+00  0.00000000000E+00 -0.25870970904E+03  0.25870970908E+03  0.50400001928E-02 0. -1.
    10030    2    1    2    0    0  0.00000000000E+00  0.00000000000E+00  0.88752822677E+03  0.14049476449E+04  0.10891150222E+04 0.  0.
        2    1    3    3  502    0 -0.11295034189E+03  0.51479152636E+03  0.26700821796E+03  0.59081425492E+03  0.25500000920E-02 0.  1.
       -2    1    3    3    0  502  0.11295034189E+03 -0.51479152636E+03  0.62052000881E+03  0.81413338999E+03  0.25500000920E-02 0. -1.
</event>
<event>
 5   0  0.8009636E-04  0.1092733E+04  0.7818609E-02  0.9212304E-01
       -1   -1    0    0    0  501  0.00000000000E+00  0.00000000000E+00  0.67268502785E+03  0.67268502787E+03  0.50400001928E-02 0.  1.
        1   -1    0    0  501    0  0.00000000000E+00  0.00000000000E+00 -0.44376836791E+03  0.44376836793E+03  0.50400001928E-02 0. -1.
    10030    2    1    2    0    0  0.00000000000E+00  0.00000000000E+00  0.22891665995E+03  0.11164533958E+04  0.10927329719E+04 0.  0.
        1    1    3    3  502    0  0.49326954870E+03  0.19238779377E+03 -0.23333703992E+02  0.52997393581E+03  0.50400001928E-02 0.  1.
       -1    1    3    3    0  502 -0.49326954870E+03 -0.19238779377E+03  0.25225036394E+03  0.58647946000E+03  0.50400001928E-02 0. -1.
</event>
<event>
 5   0  0.8150924E-04  0.1111912E+04  0.7818609E-02  0.9193659E-01
        1   -1    0    0  501    0  0.00000000000E+00  0.00000000000E+00  0.11157422483E+04  0.11157422483E+04  0.50400001928E-02 0.  1.
       -1   -1    0    0    0  501  0.00000000000E+00  0.00000000000E+00 -0.27702356138E+03  0.27702356143E+03  0.50400001928E-02 0. -1.
    10030    2    1    2    0    0  0.00000000000E+00  0.00000000000E+00  0.83871868690E+03  0.13927658097E+04  0.11119116714E+04 0.  0.
        3    1    3    3  502    0 -0.24501507827E+03 -0.19575728785E+02  0.10439861606E+04  0.10725309839E+04  0.10100000352E+00 0.  1.
       -3    1    3    3    0  502  0.24501507827E+03  0.19575728785E+02 -0.20526747366E+03  0.32023482584E+03  0.10100000352E+00 0. -1.
</event>
<event>
 5   0  0.1396936E-03  0.1097635E+04  0.7818609E-02  0.9207500E-01
        2   -1    0    0  501    0  0.00000000000E+00  0.00000000000E+00  0.87393830056E+03  0.87393830056E+03  0.25500000920E-02 0. -1.
       -2   -1    0    0    0  501  0.00000000000E+00  0.00000000000E+00 -0.34464725622E+03  0.34464725623E+03  0.25500000920E-02 0.  1.
    10030    2    1    2    0    0  0.00000000000E+00  0.00000000000E+00  0.52929104435E+03  0.12185855568E+04  0.10976346157E+04 0.  0.
        2    1    3    3  502    0  0.25119328837E+03  0.38187633065E+03  0.60188248488E+03  0.75577121250E+03  0.25500000920E-02 0. -1.
       -2    1    3    3    0  502 -0.25119328837E+03 -0.38187633065E+03 -0.72591440539E+02  0.46281434429E+03  0.25500000920E-02 0.  1.
</event>
<event>
 5   0  0.8009636E-04  0.1100395E+04  0.7818609E-02  0.9204807E-01
       -1   -1    0    0    0  501  0.00000000000E+00  0.00000000000E+00  0.20974758868E+04  0.20974758868E+04  0.50400001928E-02 0. -1.
        1   -1    0    0  501    0  0.00000000000E+00  0.00000000000E+00 -0.14432443155E+03  0.14432443164E+03  0.50400001928E-02 0.  1.
    10030    2    1    2    0    0  0.00000000000E+00  0.00000000000E+00  0.19531514553E+04  0.22418003185E+04  0.11003945023E+04 0.  0.
        1    1    3    3  502    0  0.28063669105E+03  0.19260321753E+03  0.95909364686E+02  0.35362629714E+03  0.50400001928E-02 0.  1.
       -1    1    3    3    0  502 -0.28063669105E+03 -0.19260321753E+03  0.18572420906E+04  0.18881740213E+04  0.50400001928E-02 0. -1.
</event>
<event>
 5   0  0.1402775E-03  0.1105204E+04  0.7818609E-02  0.9200134E-01
       -2   -1    0    0    0  501  0.00000000000E+00  0.00000000000E+00  0.28378823171E+03  0.28378823173E+03  0.25500000920E-02 0.  1.
        2   -1    0    0  501    0  0.00000000000E+00  0.00000000000E+00 -0.10760458628E+04  0.10760458628E+04  0.25500000920E-02 0. -1.
    10030    2    1    2    0    0  0.00000000000E+00  0.00000000000E+00 -0.79225763112E+03  0.13598340946E+04  0.11052043298E+04 0.  0.
        5    1    3    3  502    0 -0.18660908802E+03  0.31262048270E+03  0.11532432354E+03  0.38193757021E+03  0.46999998093E+01 0.  1.
       -5    1    3    3    0  502  0.18660908802E+03 -0.31262048270E+03 -0.90758195465E+03  0.97789652436E+03  0.46999998093E+01 0. -1.
</event>
<event>
 5   0  0.8150924E-04  0.1101116E+04  0.7818609E-02  0.9204105E-01
        1   -1    0    0  501    0  0.00000000000E+00  0.00000000000E+00  0.90371235651E+03  0.90371235653E+03  0.50400001928E-02 0. -1.
       -1   -1    0    0    0  501  0.00000000000E+00  0.00000000000E+00 -0.33540995400E+03  0.33540995404E+03  0.50400001928E-02 0.  1.
    10030    2    1    2    0    0  0.00000000000E+00  0.00000000000E+00  0.56830240252E+03  0.12391223106E+04  0.11011160156E+04 0.  0.
        3    1    3    3  502    0 -0.59720537896E+02  0.51751041054E+03  0.48460756270E+03  0.71149706091E+03  0.10100000352E+00 0.  1.
       -3    1    3    3    0  502  0.59720537896E+02 -0.51751041054E+03  0.83694839815E+02  0.52762524965E+03  0.10100000352E+00 0. -1.
</event>
<event>
 5   0  0.1396936E-03  0.1101277E+04  0.7818609E-02  0.9203948E-01
        2   -1    0    0  501    0  0.00000000000E+00  0.00000000000E+00  0.26714846575E+03  0.26714846577E+03  0.25500000920E-02 0. -1.
       -2   -1    0    0    0  501  0.00000000000E+00  0.00000000000E+00 -0.11349590222E+04  0.11349590222E+04  0.25500000920E-02 0.  1.
    10030    2    1    2    0    0  0.00000000000E+00  0.00000000000E+00 -0.86781055649E+03  0.14021074880E+04  0.11012766437E+04 0.  0.
        2    1    3    3  502    0 -0.19131597326E+03  0.32978768907E+03  0.71913061533E+02  0.38798609500E+03  0.25500000920E-02 0. -1.
       -2    1    3    3    0  502  0.19131597326E+03 -0.32978768907E+03 -0.93972361803E+03  0.10141213930E+04  0.25500000920E-02 0.  1.
</event>
<event>
 5   0  0.5409500E-04  0.1094820E+04  0.7818609E-02  0.9210255E-01
       -3   -1    0    0    0  501  0.00000000000E+00  0.00000000000E+00  0.53906281544E+03  0.53906282490E+03  0.10100000352E+00 0. -1.
        3   -1    0    0  501    0  0.00000000000E+00  0.00000000000E+00 -0.55588638101E+03  0.55588639019E+03  0.10100000352E+00 0.  1.
    10030    2    1    2    0    0  0.00000000000E+00  0.00000000000E+00 -0.16823565574E+02  0.10949492151E+04  0.10948199629E+04 0.  0.
        4    1    3    3  502    0 -0.16596961800E+02 -0.36655383847E+03 -0.41468492385E+03  0.55371687224E+03  0.12699999809E+01 0.  1.
       -4    1    3    3    0  502  0.16596961800E+02  0.36655383847E+03  0.39786135827E+03  0.54123234285E+03  0.12699999809E+01 0. -1.
</event>
<event>
 5   0  0.1402775E-03  0.1091589E+04  0.7818609E-02  0.9213429E-01
        2   -1    0    0  501    0  0.00000000000E+00  0.00000000000E+00  0.56390795636E+03  0.56390795637E+03  0.25500000920E-02 0. -1.
       -2   -1    0    0    0  501  0.00000000000E+00  0.00000000000E+00 -0.52826298600E+03  0.52826298600E+03  0.25500000920E-02 0.  1.
    10030    2    1    2    0    0  0.00000000000E+00  0.00000000000E+00  0.35644970364E+02  0.10921709424E+04  0.10915891184E+04 0.  0.
        5    1    3    3  502    0  0.12552258269E+02 -0.53447504138E+03  0.12764656758E+03  0.54966977838E+03  0.46999998093E+01 0.  1.
       -5    1    3    3    0  502 -0.12552258269E+02  0.53447504138E+03 -0.92001597211E+02  0.54250116399E+03  0.46999998093E+01 0. -1.
</event>
<event>
 5   0  0.8009636E-04  0.1099380E+04  0.7818609E-02  0.9205796E-01
       -1   -1    0    0    0  501  0.00000000000E+00  0.00000000000E+00  0.38902959636E+03  0.38902959640E+03  0.50400001928E-02 0.  1.
        1   -1    0    0  501    0  0.00000000000E+00  0.00000000000E+00 -0.77670016772E+03  0.77670016773E+03  0.50400001928E-02 0. -1.
    10030    2    1    2    0    0  0.00000000000E+00  0.00000000000E+00 -0.38767057135E+03  0.11657297641E+04  0.10993804669E+04 0.  0.
        1    1    3    3  502    0  0.26224480528E+03  0.38298179734E+03  0.11840530849E+03  0.47902736048E+03  0.50400001928E-02 0.  1.
       -1    1    3    3    0  502 -0.26224480528E+03 -0.38298179734E+03 -0.50607587984E+03  0.68670240365E+03  0.50400001928E-02 0. -1.
</event>
<event>
 5   0  0.8341767E-04  0.1101190E+04  0.7818609E-02  0.9204032E-01
        1   -1    0    0  501    0  0.00000000000E+00  0.00000000000E+00  0.69244007264E+03  0.69244007266E+03  0.50400001928E-02 0. -1.
       -1   -1    0    0    0  501  0.00000000000E+00  0.00000000000E+00 -0.43780697668E+03  0.43780697671E+03  0.50400001928E-02 0.  1.
    10030    2    1    2    0    0  0.00000000000E+00  0.00000000000E+00  0.25463309596E+03  0.11302470494E+04  0.11011904372E+04 0.  0.
        2    1    3    3  502    0  0.22275426948E+03 -0.37964435107E+03  0.46680977742E+03  0.64160787571E+03  0.25500000920E-02 0. -1.
       -2    1    3    3    0  502 -0.22275426948E+03  0.37964435107E+03 -0.21217668146E+03  0.48863917366E+03  0.25500000920E-02 0.  1.
</event>
<event>
 5   0  0.1429680E-03  0.1091811E+04  0.7818609E-02  0.9213210E-01
       -2   -1    0    0    0  501  0.00000000000E+00  0.00000000000E+00  0.24001611773E+03  0.24001611775E+03  0.25500000920E-02 0.  1.
        2   -1    0    0  501    0  0.00000000000E+00  0.00000000000E+00 -0.12416373687E+04  0.12416373688E+04  0.25500000920E-02 0. -1.
    10030    2    1    2    0    0  0.00000000000E+00  0.00000000000E+00 -0.10016212510E+04  0.14816534865E+04  0.10918113040E+04 0.  0.
        3    1    3    3  502    0 -0.20541388235E+03 -0.40391337368E+03 -0.87693166375E+02  0.46155279019E+03  0.10100000352E+00 0.  1.
       -3    1    3    3    0  502  0.20541388235E+03  0.40391337368E+03 -0.91392808464E+03  0.10201006963E+04  0.10100000352E+00 0. -1.
</event>
<event>
 5   0  0.8305271E-04  0.1101355E+04  0.7818609E-02  0.9203872E-01
       -1   -1    0    0    0  501  0.00000000000E+00  0.00000000000E+00  0.26251705043E+03  0.26251705048E+03  0.50400001928E-02 0.  1.
        1   -1    0    0  501    0  0.00000000000E+00  0.00000000000E+00 -0.11551475824E+04  0.11551475824E+04  0.50400001928E-02 0. -1.
    10030    2    1    2    0    0  0.00000000000E+00  0.00000000000E+00 -0.89263053194E+03  0.14176646329E+04  0.11013554125E+04 0.  0.
        5    1    3    3  502    0 -0.12872559492E+03 -0.53503916507E+03 -0.42100421333E+03  0.69289524792E+03  0.46999998093E+01 0. -1.
       -5    1    3    3    0  502  0.12872559492E+03  0.53503916507E+03 -0.47162631861E+03  0.72476938494E+03  0.46999998093E+01 0.  1.
</event>
<event>
 5   0  0.1425432E-03  0.1095032E+04  0.7818609E-02  0.9210048E-01
        2   -1    0    0  501    0  0.00000000000E+00  0.00000000000E+00  0.11954992151E+04  0.11954992151E+04  0.25500000920E-02 0. -1.
       -2   -1    0    0    0  501  0.00000000000E+00  0.00000000000E+00 -0.25075184815E+03  0.25075184817E+03  0.25500000920E-02 0.  1.
    10030    2    1    2    0    0  0.00000000000E+00  0.00000000000E+00  0.94474736697E+03  0.14462510633E+04  0.10950317578E+04 0.  0.
        1    1    3    3  502    0  0.51587333228E+03 -0.11769462402E+03  0.65820084328E+03  0.84451504995E+03  0.50400001928E-02 0. -1.
       -1    1    3    3    0  502 -0.51587333228E+03  0.11769462402E+03  0.28654652369E+03  0.60173601334E+03  0.50400001928E-02 0.  1.
</event>
<event>
 5   0  0.8009636E-04  0.1100007E+04  0.7818609E-02  0.9205185E-01
       -1   -1    0    0    0  501  0.00000000000E+00  0.00000000000E+00  0.33100909728E+03  0.33100909732E+03  0.50400001928E-02 0.  1.
        1   -1    0    0  501    0  0.00000000000E+00  0.00000000000E+00 -0.91388444779E+03  0.91388444780E+03  0.50400001928E-02 0. -1.
    10030    2    1    2    0    0  0.00000000000E+00  0.00000000000E+00 -0.58287535050E+03  0.12448935451E+04  0.11000073929E+04 0.  0.
        1    1    3    3  502    0 -0.30794141865E+03  0.26024101821E+03  0.13193638301E+03  0.42421753154E+03  0.50400001928E-02 0.  1.
       -1    1    3    3    0  502  0.30794141865E+03 -0.26024101821E+03 -0.71481173352E+03  0.82067601359E+03  0.50400001928E-02 0. -1.
</event>
<event>
 5   0  0.1396936E-03  0.1094297E+04  0.7818609E-02  0.9210768E-01
       -2   -1    0    0    0  501  0.00000000000E+00  0.00000000000E+00  0.25570605276E+03  0.25570605277E+03  0.25500000920E-02 0. -1.
        2   -1    0    0  501    0  0.00000000000E+00  0.00000000000E+00 -0.11707638076E+04  0.11707638076E+04  0.25500000920E-02 0.  1.
    10030    2    1    2    0    0  0.00000000000E+00  0.00000000000E+00 -0.91505775486E+03  0.14264698604E+04  0.10942968372E+04 0.  0.
        2    1    3    3  502    0 -0.41045824198E+03  0.14140415413E+03 -0.23424870631E+02  0.43476410591E+03  0.25500000920E-02 0. -1.
       -2    1    3    3    0  502  0.41045824198E+03 -0.14140415413E+03 -0.89163288423E+03  0.99170575448E+03  0.25500000920E-02 0.  1.
</event>
<event>
 5   0  0.8150924E-04  0.1105577E+04  0.7818609E-02  0.9199774E-01
       -1   -1    0    0    0  501  0.00000000000E+00  0.00000000000E+00  0.55230111923E+03  0.55230111925E+03  0.50400001928E-02 0. -1.
        1   -1    0    0  501    0  0.00000000000E+00  0.00000000000E+00 -0.55327588503E+03  0.55327588506E+03  0.50400001928E-02 0.  1.
    10030    2    1    2    0    0  0.00000000000E+00  0.00000000000E+00 -0.97476580121E+00  0.11055770043E+04  0.11055765746E+04 0.  0.
        3    1    3    3  502    0 -0.47963866602E+03  0.17914935767E+03 -0.20887925376E+03  0.55297223723E+03  0.10100000352E+00 0.  1.
       -3    1    3    3    0  502  0.47963866602E+03 -0.17914935767E+03  0.20790448796E+03  0.55260476708E+03  0.10100000352E+00 0. -1.
</event>
<event>
 5   0  0.1372794E-03  0.1101542E+04  0.7818609E-02  0.9203691E-01
       -2   -1    0    0    0  501  0.00000000000E+00  0.00000000000E+00  0.42669024851E+03  0.42669024852E+03  0.25500000920E-02 0. -1.
        2   -1    0    0  501    0  0.00000000000E+00  0.00000000000E+00 -0.71093385330E+03  0.71093385330E+03  0.25500000920E-02 0.  1.
    10030    2    1    2    0    0  0.00000000000E+00  0.00000000000E+00 -0.28424360478E+03  0.11376241018E+04  0.11015417242E+04 0.  0.
        4    1    3    3  502    0 -0.21403533318E+03 -0.26079628586E+03  0.30747852645E+03  0.45647615896E+03  0.12699999809E+01 0. -1.
       -4    1    3    3    0  502  0.21403533318E+03  0.26079628586E+03 -0.59172213124E+03  0.68114794286E+03  0.12699999809E+01 0.  1.
</event>
<event>
 5   0  0.1425432E-03  0.1096084E+04  0.7818609E-02  0.9209017E-01
       -2   -1    0    0    0  501  0.00000000000E+00  0.00000000000E+00  0.36462400549E+03  0.36462400550E+03  0.25500000920E-02 0.  1.
        2   -1    0    0  501    0  0.00000000000E+00  0.00000000000E+00 -0.82372498332E+03  0.82372498332E+03  0.25500000920E-02 0. -1.
    10030    2    1    2    0    0  0.00000000000E+00  0.00000000000E+00 -0.45910097783E+03  0.11883489888E+04  0.10960837611E+04 0.  0.
        1    1    3    3  502    0 -0.18382540991E+03  0.24171245236E+03  0.26506868811E+03  0.40308572338E+03  0.50400001928E-02 0.  1.
       -1    1    3    3    0  502  0.18382540991E+03 -0.24171245236E+03 -0.72416966593E+03  0.78526326543E+03  0.50400001928E-02 0. -1.
</event>
<event>
 5   0  0.8150924E-04  0.1098889E+04  0.7818609E-02  0.9206275E-01
        1   -1    0    0  501    0  0.00000000000E+00  0.00000000000E+00  0.37354331251E+03  0.37354331254E+03  0.50400001928E-02 0. -1.
       -1   -1    0    0    0  501  0.00000000000E+00  0.00000000000E+00 -0.80817730586E+03  0.80817730588E+03  0.50400001928E-02 0.  1.
    10030    2    1    2    0    0  0.00000000000E+00  0.00000000000E+00 -0.43463399336E+03  0.11817206184E+04  0.10988889443E+04 0.  0.
        3    1    3    3  502    0 -0.79518502531E+02 -0.95090277099E+02  0.35831033833E+03  0.37914596371E+03  0.10100000352E+00 0. -1.
       -3    1    3    3    0  502  0.79518502531E+02  0.95090277099E+02 -0.79294433168E+03  0.80257465472E+03  0.10100000352E+00 0.  1.
</event>
<event>
 5   0  0.8305271E-04  0.1107202E+04  0.7818609E-02  0.9198201E-01
       -1   -1    0    0    0  501  0.00000000000E+00  0.00000000000E+00  0.90761956301E+03  0.90761956302E+03  0.50400001928E-02 0. -1.
        1   -1    0    0  501    0  0.00000000000E+00  0.00000000000E+00 -0.33766787513E+03  0.33766787517E+03  0.50400001928E-02 0.  1.
    10030    2    1    2    0    0  0.00000000000E+00  0.00000000000E+00  0.56995168788E+03  0.12452874382E+04  0.11072018232E+04 0.  0.
        5    1    3    3  502    0  0.42837541976E+03 -0.28857523380E+03  0.50899121588E+03  0.72517260956E+03  0.46999998093E+01 0. -1.
       -5    1    3    3    0  502 -0.42837541976E+03  0.28857523380E+03  0.60960472003E+02  0.52011482863E+03  0.46999998093E+01 0.  1.
</event>
<event>
 5   0  0.8150924E-04  0.1109878E+04  0.7818609E-02  0.9195618E-01
        1   -1    0    0  501    0  0.00000000000E+00  0.00000000000E+00  0.11484154984E+04  0.11484154984E+04  0.50400001928E-02 0. -1.
       -1   -1    0    0    0  501  0.00000000000E+00  0.00000000000E+00 -0.26815818677E+03  0.26815818682E+03  0.50400001928E-02 0.  1.
    10030    2    1    2    0    0  0.00000000000E+00  0.00000000000E+00  0.88025731166E+03  0.14165736853E+04  0.11098775027E+04 0.  0.
        3    1    3    3  502    0 -0.47846516283E+03 -0.10713426706E+03  0.77185342858E+03  0.91442024728E+03  0.10100000352E+00 0. -1.
       -3    1    3    3    0  502  0.47846516283E+03  0.10713426706E+03  0.10840388308E+03  0.50215343799E+03  0.10100000352E+00 0.  1.
</event>
<event>
 5   0  0.8305271E-04  0.1041916E+04  0.7818609E-02  0.9263730E-01
        1   -1    0    0  501    0  0.00000000000E+00  0.00000000000E+00  0.12625094256E+04  0.12625094256E+04  0.50400001928E-02 0.  1.
       -1   -1    0    0    0  501  0.00000000000E+00  0.00000000000E+00 -0.21496659338E+03  0.21496659344E+03  0.50400001928E-02 0. -1.
    10030    2    1    2    0    0  0.00000000000E+00  0.00000000000E+00  0.10475428322E+04  0.14774760191E+04  0.10419162162E+04 0.  0.
        5    1    3    3  502    0  0.36453918698E+03 -0.37193636773E+03  0.50641682376E+03  0.72643345866E+03  0.46999998093E+01 0. -1.
       -5    1    3    3    0  502 -0.36453918698E+03  0.37193636773E+03  0.54112600848E+03  0.75104256041E+03  0.46999998093E+01 0.  1.
</event>
<event>
 5   0  0.1396936E-03  0.1076874E+04  0.7818609E-02  0.9228030E-01
       -2   -1    0    0    0  501  0.00000000000E+00  0.00000000000E+00  0.42485046972E+03  0.42485046973E+03  0.25500000920E-02 0.  1.
        2   -1    0    0  501    0  0.00000000000E+00  0.00000000000E+00 -0.68239133671E+03  0.68239133672E+03  0.25500000920E-02 0. -1.
    10030    2    1    2    0    0  0.00000000000E+00  0.00000000000E+00 -0.25754086699E+03  0.11072418064E+04  0.10768737715E+04 0.  0.
        2    1    3    3  502    0  0.98319537997E+02 -0.48613018791E+03 -0.34426360133E+03  0.60374391786E+03  0.25500000920E-02 0. -1.
       -2    1    3    3    0  502 -0.98319537997E+02  0.48613018791E+03  0.86722734343E+02  0.50349788858E+03  0.25500000920E-02 0.  1.
</event>
<event>
 5   0  0.8150924E-04  0.1100356E+04  0.7818609E-02  0.9204845E-01
       -1   -1    0    0    0  501  0.00000000000E+00  0.00000000000E+00  0.55658867074E+03  0.55658867077E+03  0.50400001928E-02 0. -1.
        1   -1    0    0  501    0  0.00000000000E+00  0.00000000000E+00 -0.54384115626E+03  0.54384115629E+03  0.50400001928E-02 0.  1.
    10030    2    1    2    0    0  0.00000000000E+00  0.00000000000E+00  0.12747514481E+02  0.11004298271E+04  0.11003559902E+04 0.  0.
        3    1    3    3  502    0 -0.38725958131E+02  0.20270616765E+03 -0.50366666733E+03  0.54430654251E+03  0.10100000352E+00 0.  1.
       -3    1    3    3    0  502  0.38725958131E+02 -0.20270616765E+03  0.51641418181E+03  0.55612328454E+03  0.10100000352E+00 0. -1.
</event>
<event>
 5   0  0.1425432E-03  0.1079379E+04  0.7818609E-02  0.9225527E-01
       -2   -1    0    0    0  501  0.00000000000E+00  0.00000000000E+00  0.13045994292E+03  0.13045994294E+03  0.25500000920E-02 0. -1.
        2   -1    0    0  501    0  0.00000000000E+00  0.00000000000E+00 -0.22325989424E+04  0.22325989424E+04  0.25500000920E-02 0.  1.
    10030    2    1    2    0    0  0.00000000000E+00  0.00000000000E+00 -0.21021389994E+04  0.23630588853E+04  0.10793789522E+04 0.  0.
        1    1    3    3  502    0  0.17668529926E+03 -0.40501563989E+03 -0.37271391906E+03  0.57807527972E+03  0.50400001928E-02 0. -1.
       -1    1    3    3    0  502 -0.17668529926E+03  0.40501563989E+03 -0.17294250804E+04  0.17849836056E+04  0.50400001928E-02 0.  1.
</event>
<event>
 5   0  0.1372794E-03  0.1089252E+04  0.7818609E-02  0.9215731E-01
       -2   -1    0    0    0  501  0.00000000000E+00  0.00000000000E+00  0.32620534345E+03  0.32620534346E+03  0.25500000920E-02 0. -1.
        2   -1    0    0  501    0  0.00000000000E+00  0.00000000000E+00 -0.90929699713E+03  0.90929699713E+03  0.25500000920E-02 0.  1.
    10030    2    1    2    0    0  0.00000000000E+00  0.00000000000E+00 -0.58309165367E+03  0.12355023406E+04  0.10892521090E+04 0.  0.
        4    1    3    3  502    0  0.11984602475E+03 -0.32494882709E+03 -0.76829027954E+03  0.84274929630E+03  0.12699999809E+01 0.  1.
       -4    1    3    3    0  502 -0.11984602475E+03  0.32494882709E+03  0.18519862586E+03  0.39275304429E+03  0.12699999809E+01 0. -1.
</event>
<event>
 5   0  0.8150924E-04  0.1099817E+04  0.7818609E-02  0.9205370E-01
       -1   -1    0    0    0  501  0.00000000000E+00  0.00000000000E+00  0.32725796218E+03  0.32725796221E+03  0.50400001928E-02 0. -1.
        1   -1    0    0  501    0  0.00000000000E+00  0.00000000000E+00 -0.92403986037E+03  0.92403986038E+03  0.50400001928E-02 0.  1.
    10030    2    1    2    0    0  0.00000000000E+00  0.00000000000E+00 -0.59678189819E+03  0.12512978226E+04  0.10998170788E+04 0.  0.
        3    1    3    3  502    0 -0.29833328293E+03  0.42708346958E+03 -0.98084222315E+02  0.53011655563E+03  0.10100000352E+00 0.  1.
       -3    1    3    3    0  502  0.29833328293E+03 -0.42708346958E+03 -0.49869767588E+03  0.72118126696E+03  0.10100000352E+00 0. -1.
</event>
<event>
 5   0  0.1429680E-03  0.1097100E+04  0.7818609E-02  0.9208023E-01
        2   -1    0    0  501    0  0.00000000000E+00  0.00000000000E+00  0.56581631742E+03  0.56581631742E+03  0.25500000920E-02 0. -1.
       -2   -1    0    0    0  501  0.00000000000E+00  0.00000000000E+00 -0.53181034351E+03  0.53181034351E+03  0.25500000920E-02 0.  1.
    10030    2    1    2    0    0  0.00000000000E+00  0.00000000000E+00  0.34005973908E+02  0.10976266609E+04  0.10970997587E+04 0.  0.
        3    1    3    3  502    0  0.50625970765E+03  0.99859790051E+02 -0.16919413412E+03  0.54304468921E+03  0.10100000352E+00 0.  1.
       -3    1    3    3    0  502 -0.50625970765E+03 -0.99859790051E+02  0.20320010803E+03  0.55458197173E+03  0.10100000352E+00 0. -1.
</event>
<event>
 5   0  0.1429680E-03  0.1090587E+04  0.7818609E-02  0.9214415E-01
       -2   -1    0    0    0  501  0.00000000000E+00  0.00000000000E+00  0.24365245965E+03  0.24365245966E+03  0.25500000920E-02 0. -1.
        2   -1    0    0  501    0  0.00000000000E+00  0.00000000000E+00 -0.12203660441E+04  0.12203660441E+04  0.25500000920E-02 0.  1.
    10030    2    1    2    0    0  0.00000000000E+00  0.00000000000E+00 -0.97671358443E+03  0.14640185037E+04  0.10905873433E+04 0.  0.
        3    1    3    3  502    0 -0.39894524375E+03 -0.25166528497E+03 -0.12108367851E+03  0.48698458966E+03  0.10100000352E+00 0.  1.
       -3    1    3    3    0  502  0.39894524375E+03  0.25166528497E+03 -0.85562990592E+03  0.97703391409E+03  0.10100000352E+00 0. -1.
</event>
<event>
 5   0  0.8341767E-04  0.1106623E+04  0.7818609E-02  0.9198760E-01
       -1   -1    0    0    0  501  0.00000000000E+00  0.00000000000E+00  0.57403097278E+03  0.57403097280E+03  0.50400001928E-02 0.  1.
        1   -1    0    0  501    0  0.00000000000E+00  0.00000000000E+00 -0.53334005155E+03  0.53334005157E+03  0.50400001928E-02 0. -1.
    10030    2    1    2    0    0  0.00000000000E+00  0.00000000000E+00  0.40690921232E+02  0.11073710244E+04  0.11066231674E+04 0.  0.
        2    1    3    3  502    0 -0.38628523007E+03  0.34103348343E+03 -0.18136852462E+03  0.54627342743E+03  0.25500000920E-02 0. -1.
       -2    1    3    3    0  502  0.38628523007E+03 -0.34103348343E+03  0.22205944585E+03  0.56109759694E+03  0.25500000920E-02 0.  1.
</event>
<event>
 5   0  0.8305271E-04  0.1105374E+04  0.7818609E-02  0.9199969E-01
        1   -1    0    0  501    0  0.00000000000E+00  0.00000000000E+00  0.58815615982E+03  0.58815615984E+03  0.50400001928E-02 0.  1.
       -1   -1    0    0    0  501  0.00000000000E+00  0.00000000000E+00 -0.51935714142E+03  0.51935714144E+03  0.50400001928E-02 0. -1.
    10030    2    1    2    0    0  0.00000000000E+00  0.00000000000E+00  0.68799018404E+02  0.11075133013E+04  0.11053743292E+04 0.  0.
        5    1    3    3  502    0  0.37751909565E+03  0.81075948968E+02 -0.36177305910E+03  0.52914630620E+03  0.46999998093E+01 0. -1.
       -5    1    3    3    0  502 -0.37751909565E+03 -0.81075948968E+02  0.43057207750E+03  0.57836699508E+03  0.46999998093E+01 0.  1.
</event>
<event>
 5   0  0.8009636E-04  0.1105357E+04  0.7818609E-02  0.9199986E-01
        1   -1    0    0  501    0  0.00000000000E+00  0.00000000000E+00  0.93838819459E+03  0.93838819460E+03  0.50400001928E-02 0. -1.
       -1   -1    0    0    0  501  0.00000000000E+00  0.00000000000E+00 -0.32550866287E+03  0.32550866291E+03  0.50400001928E-02 0.  1.
    10030    2    1    2    0    0  0.00000000000E+00  0.00000000000E+00  0.61287953172E+03  0.12638968575E+04  0.11053569315E+04 0.  0.
        1    1    3    3  502    0 -0.26064544887E+03 -0.19832315505E+03 -0.20259199743E+03  0.38511250472E+03  0.50400001928E-02 0.  1.
       -1    1    3    3    0  502  0.26064544887E+03  0.19832315505E+03  0.81547152915E+03  0.87878435279E+03  0.50400001928E-02 0. -1.
</event>
<event>
 5   0  0.1402775E-03  0.1103926E+04  0.7818609E-02  0.9201374E-01
        2   -1    0    0  501    0  0.00000000000E+00  0.00000000000E+00  0.15855083142E+04  0.15855083142E+04  0.25500000920E-02 0.  1.
       -2   -1    0    0    0  501  0.00000000000E+00  0.00000000000E+00 -0.19215486976E+03  0.19215486978E+03  0.25500000920E-02 0. -1.
    10030    2    1    2    0    0  0.00000000000E+00  0.00000000000E+00  0.13933534444E+04  0.17776631839E+04  0.11039259823E+04 0.  0.
        5    1    3    3  502    0  0.30378080479E+03  0.82655044036E+02 -0.33357722568E+02  0.31662195330E+03  0.46999998093E+01 0. -1.
       -5    1    3    3    0  502 -0.30378080479E+03 -0.82655044036E+02  0.14267111670E+04  0.14610412306E+04  0.46999998093E+01 0.  1.
</event>
<event>
 5   0  0.1429680E-03  0.1051043E+04  0.7818609E-02  0.9254268E-01
       -2   -1    0    0    0  501  0.00000000000E+00  0.00000000000E+00  0.21795095068E+03  0.21795095070E+03  0.25500000920E-02 0. -1.
        2   -1    0    0  501    0  0.00000000000E+00  0.00000000000E+00 -0.12671326901E+04  0.12671326901E+04  0.25500000920E-02 0.  1.
    10030    2    1    2    0    0  0.00000000000E+00  0.00000000000E+00 -0.10491817394E+04  0.14850836408E+04  0.10510428620E+04 0.  0.
        3    1    3    3  502    0  0.19236957182E+03  0.22450277338E+03  0.89300421712E+02  0.30883996331E+03  0.10100000352E+00 0. -1.
       -3    1    3    3    0  502 -0.19236957182E+03 -0.22450277338E+03 -0.11384821611E+04  0.11762436775E+04  0.10100000352E+00 0.  1.
</event>
<event>
 5   0  0.1372794E-03  0.1099175E+04  0.7818609E-02  0.9205996E-01
        2   -1    0    0  501    0  0.00000000000E+00  0.00000000000E+00  0.62252351588E+03  0.62252351589E+03  0.25500000920E-02 0.  1.
       -2   -1    0    0    0  501  0.00000000000E+00  0.00000000000E+00 -0.48519700173E+03  0.48519700174E+03  0.25500000920E-02 0. -1.
    10030    2    1    2    0    0  0.00000000000E+00  0.00000000000E+00  0.13732651415E+03  0.11077205176E+04  0.10991752243E+04 0.  0.
        4    1    3    3  502    0 -0.32521670733E+03  0.27866827313E+02  0.51425731072E+03  0.60910151971E+03  0.12699999809E+01 0.  1.
       -4    1    3    3    0  502  0.32521670733E+03 -0.27866827313E+02 -0.37693079656E+03  0.49861899792E+03  0.12699999809E+01 0. -1.
</event>
<event>
 5   0  0.1429680E-03  0.1123997E+04  0.7818609E-02  0.9182114E-01
        2   -1    0    0  501    0  0.00000000000E+00  0.00000000000E+00  0.12110893372E+04  0.12110893372E+04  0.25500000920E-02 0. -1.
       -2   -1    0    0    0  501  0.00000000000E+00  0.00000000000E+00 -0.26079179276E+03  0.26079179277E+03  0.25500000920E-02 0.  1.
    10030    2    1    2    0    0  0.00000000000E+00  0.00000000000E+00  0.95029754446E+03  0.14718811300E+04  0.11239967250E+04 0.  0.
        3    1    3    3  502    0 -0.39419695466E+03 -0.40052564718E+03  0.46796243886E+03  0.73130081874E+03  0.10100000352E+00 0.  1.
       -3    1    3    3    0  502  0.39419695466E+03  0.40052564718E+03  0.48233510560E+03  0.74058031125E+03  0.10100000352E+00 0. -1.
</event>
<event>
 5   0  0.8305271E-04  0.1120696E+04  0.7818609E-02  0.9185252E-01
        1   -1    0    0  501    0  0.00000000000E+00  0.00000000000E+00  0.42999942677E+03  0.42999942680E+03  0.50400001928E-02 0. -1.
       -1   -1    0    0    0  501  0.00000000000E+00  0.00000000000E+00 -0.73020987771E+03  0.73020987773E+03  0.50400001928E-02 0.  1.
    10030    2    1    2    0    0  0.00000000000E+00  0.00000000000E+00 -0.30021045094E+03  0.11602093045E+04  0.11206959068E+04 0.  0.
        5    1    3    3  502    0  0.18626247023E+03  0.42820681015E+03 -0.47072271015E+03  0.66306616557E+03  0.46999998093E+01 0.  1.
       -5    1    3    3    0  502 -0.18626247023E+03 -0.42820681015E+03  0.17051225921E+03  0.49714313896E+03  0.46999998093E+01 0. -1.
</event>
<event>
 5   0  0.7946038E-04  0.1096708E+04  0.7818609E-02  0.9208406E-01
       -1   -1    0    0    0  501  0.00000000000E+00  0.00000000000E+00  0.79122786171E+03  0.79122786173E+03  0.50400001928E-02 0. -1.
        1   -1    0    0  501    0  0.00000000000E+00  0.00000000000E+00 -0.38003226905E+03  0.38003226908E+03  0.50400001928E-02 0.  1.
    10030    2    1    2    0    0  0.00000000000E+00  0.00000000000E+00  0.41119559266E+03  0.11712601308E+04  0.10967080188E+04 0.  0.
        4    1    3    3  502    0 -0.58884917458E+02  0.42086272518E+03  0.57570673811E+03  0.71556462192E+03  0.12699999809E+01 0. -1.
       -4    1    3    3    0  502  0.58884917458E+02 -0.42086272518E+03 -0.16451114544E+03  0.45569550889E+03  0.12699999809E+01 0.  1.
</event>
<event>
 5   0  0.8305271E-04  0.1099907E+04  0.7818609E-02  0.9205282E-01
        1   -1    0    0  501    0  0.00000000000E+00  0.00000000000E+00  0.82944115296E+03  0.82944115297E+03  0.50400001928E-02 0.  1.
       -1   -1    0    0    0  501  0.00000000000E+00  0.00000000000E+00 -0.36464203596E+03  0.36464203600E+03  0.50400001928E-02 0. -1.
    10030    2    1    2    0    0  0.00000000000E+00  0.00000000000E+00  0.46479911699E+03  0.11940831890E+04  0.10999074702E+04 0.  0.
        5    1    3    3  502    0  0.47877625556E+03 -0.26982035022E+03  0.25403848876E+03  0.60546458861E+03  0.46999998093E+01 0. -1.
       -5    1    3    3    0  502 -0.47877625556E+03  0.26982035022E+03  0.21076062823E+03  0.58861860037E+03  0.46999998093E+01 0.  1.
</event>
<event>
 5   0  0.7946038E-04  0.1102178E+04  0.7818609E-02  0.9203072E-01
       -1   -1    0    0    0  501  0.00000000000E+00  0.00000000000E+00  0.24561926162E+03  0.24561926167E+03  0.50400001928E-02 0. -1.
        1   -1    0    0  501    0  0.00000000000E+00  0.00000000000E+00 -0.12364626879E+04  0.12364626879E+04  0.50400001928E-02 0.  1.
    10030    2    1    2    0    0  0.00000000000E+00  0.00000000000E+00 -0.99084342626E+03  0.14820819496E+04  0.11021779393E+04 0.  0.
        4    1    3    3  502    0 -0.43987967951E+03  0.11796807202E+03 -0.78164384433E+02  0.46208428057E+03  0.12699999809E+01 0. -1.
       -4    1    3    3    0  502  0.43987967951E+03 -0.11796807202E+03 -0.91267904183E+03  0.10199976690E+04  0.12699999809E+01 0.  1.
</event>
<event>
 5   0  0.1429680E-03  0.1112898E+04  0.7818609E-02  0.9192711E-01
       -2   -1    0    0    0  501  0.00000000000E+00  0.00000000000E+00  0.84261301073E+03  0.84261301073E+03  0.25500000920E-02 0. -1.
        2   -1    0    0  501    0  0.00000000000E+00  0.00000000000E+00 -0.36747090585E+03  0.36747090586E+03  0.25500000920E-02 0.  1.
    10030    2    1    2    0    0  0.00000000000E+00  0.00000000000E+00  0.47514210487E+03  0.12100839166E+04  0.11128984973E+04 0.  0.
        3    1    3    3  502    0  0.38439321365E+02  0.41252383554E+03  0.64146891919E+03  0.76363334186E+03  0.10100000352E+00 0. -1.
       -3    1    3    3    0  502 -0.38439321365E+02 -0.41252383554E+03 -0.16632681432E+03  0.44645057473E+03  0.10100000352E+00 0.  1.
</event>
<event>
 5   0  0.8150924E-04  0.1094374E+04  0.7818609E-02  0.9210693E-01
        1   -1    0    0  501    0  0.00000000000E+00  0.00000000000E+00  0.19932619576E+04  0.19932619576E+04  0.50400001928E-02 0.  1.
       -1   -1    0    0    0  501  0.00000000000E+00  0.00000000000E+00 -0.15021291502E+03  0.15021291510E+03  0.50400001928E-02 0. -1.
    10030    2    1    2    0    0  0.00000000000E+00  0.00000000000E+00  0.18430490425E+04  0.21434748727E+04  0.10943741392E+04 0.  0.
        3    1    3    3  502    0 -0.29367142879E+03  0.25607132426E+03  0.16904761515E+03  0.42472642676E+03  0.10100000352E+00 0. -1.
       -3    1    3    3    0  502  0.29367142879E+03 -0.25607132426E+03  0.16740014274E+04  0.17187484459E+04  0.10100000352E+00 0.  1.
</event>
<event>
 5   0  0.1402775E-03  0.1101207E+04  0.7818609E-02  0.9204016E-01
        2   -1    0    0  501    0  0.00000000000E+00  0.00000000000E+00  0.13430270191E+04  0.13430270191E+04  0.25500000920E-02 0.  1.
       -2   -1    0    0    0  501  0.00000000000E+00  0.00000000000E+00 -0.22573210653E+03  0.22573210654E+03  0.25500000920E-02 0. -1.
    10030    2    1    2    0    0  0.00000000000E+00  0.00000000000E+00  0.11172949126E+04  0.15687591256E+04  0.11012071888E+04 0.  0.
        5    1    3    3  502    0 -0.64298624010E+02  0.38765599209E+03  0.92487824222E+01  0.39308918991E+03  0.46999998093E+01 0. -1.
       -5    1    3    3    0  502  0.64298624010E+02 -0.38765599209E+03  0.11080461301E+04  0.11756699357E+04  0.46999998093E+01 0.  1.
</event>
<event>
 5   0  0.1429680E-03  0.1090874E+04  0.7818609E-02  0.9214133E-01
        2   -1    0    0  501    0  0.00000000000E+00  0.00000000000E+00  0.15676754368E+04  0.15676754368E+04  0.25500000920E-02 0.  1.
       -2   -1    0    0    0  501  0.00000000000E+00  0.00000000000E+00 -0.18977229406E+03  0.18977229407E+03  0.25500000920E-02 0. -1.
    10030    2    1    2    0    0  0.00000000000E+00  0.00000000000E+00  0.13779031427E+04  0.17574477309E+04  0.10908737122E+04 0.  0.
        3    1    3    3  502    0  0.37255300754E+03 -0.23356586102E+03  0.16902382234E+03  0.47108154026E+03  0.10100000352E+00 0. -1.
       -3    1    3    3    0  502 -0.37255300754E+03  0.23356586102E+03  0.12088793204E+04  0.12863661906E+04  0.10100000352E+00 0.  1.
</event>
<event>
 5   0  0.8150924E-04  0.1094830E+04  0.7818609E-02  0.9210245E-01
       -1   -1    0    0    0  501  0.00000000000E+00  0.00000000000E+00  0.11424574021E+04  0.11424574021E+04  0.50400001928E-02 0. -1.
        1   -1    0    0  501    0  0.00000000000E+00  0.00000000000E+00 -0.26229718071E+03  0.26229718076E+03  0.50400001928E-02 0.  1.
    10030    2    1    2    0    0  0.00000000000E+00  0.00000000000E+00  0.88016022137E+03  0.14047545829E+04  0.10948303169E+04 0.  0.
        3    1    3    3  502    0 -0.39421551787E+03 -0.35030296680E+03  0.25174558624E+03  0.58437478853E+03  0.10100000352E+00 0. -1.
       -3    1    3    3    0  502  0.39421551787E+03  0.35030296680E+03  0.62841463514E+03  0.82037979433E+03  0.10100000352E+00 0.  1.
</event>
<event>
 5   0  0.1372794E-03  0.1099661E+04  0.7818609E-02  0.9205523E-01
        2   -1    0    0  501    0  0.00000000000E+00  0.00000000000E+00  0.10811191429E+04  0.10811191429E+04  0.25500000920E-02 0. -1.
       -2   -1    0    0    0  501  0.00000000000E+00  0.00000000000E+00 -0.27962999177E+03  0.27962999178E+03  0.25500000920E-02 0.  1.
    10030    2    1    2    0    0  0.00000000000E+00  0.00000000000E+00  0.80148915114E+03  0.13607491347E+04  0.10996605604E+04 0.  0.
        4    1    3    3  502    0 -0.37409914129E+03  0.39523354262E+03  0.30368738818E+03  0.62320731973E+03  0.12699999809E+01 0.  1.
       -4    1    3    3    0  502  0.37409914129E+03 -0.39523354262E+03  0.49780176295E+03  0.73754181497E+03  0.12699999809E+01 0. -1.
</event>
<event>
 5   0  0.5409500E-04  0.1099744E+04  0.7818609E-02  0.9205442E-01
        4   -1    0    0  501    0  0.00000000000E+00  0.00000000000E+00  0.53594576390E+03  0.53594726862E+03  0.12699999809E+01 0.  1.
       -4   -1    0    0    0  501  0.00000000000E+00  0.00000000000E+00 -0.56415695503E+03  0.56415838451E+03  0.12699999809E+01 0. -1.
    10030    2    1    2    0    0  0.00000000000E+00  0.00000000000E+00 -0.28211191138E+02  0.11001056531E+04  0.10997438687E+04 0.  0.
        2    1    3    3  502    0 -0.13493441042E+03 -0.21911174582E+02 -0.54688924777E+03  0.56371557014E+03  0.25500000920E-02 0. -1.
       -2    1    3    3    0  502  0.13493441042E+03  0.21911174582E+02  0.51867805663E+03  0.53639008299E+03  0.25500000920E-02 0.  1.
</event>
<event>
 5   0  0.8341767E-04  0.1098108E+04  0.7818609E-02  0.9207038E-01
       -1   -1    0    0    0  501  0.00000000000E+00  0.00000000000E+00  0.42893000899E+03  0.42893000902E+03  0.50400001928E-02 0. -1.
        1   -1    0    0  501    0  0.00000000000E+00  0.00000000000E+00 -0.70281888402E+03  0.70281888404E+03  0.50400001928E-02 0.  1.
    10030    2    1    2    0    0  0.00000000000E+00  0.00000000000E+00 -0.27388887503E+03  0.11317488931E+04  0.10981076637E+04 0.  0.
        2    1    3    3  502    0 -0.30904590856E+03 -0.28784152753E+03 -0.49854628417E+03  0.65338389637E+03  0.25500000920E-02 0.  1.
       -2    1    3    3    0  502  0.30904590856E+03  0.28784152753E+03  0.22465740913E+03  0.47836499669E+03  0.25500000920E-02 0. -1.
</event>
<event>
 5   0  0.7946038E-04  0.1101326E+04  0.7818609E-02  0.9203900E-01
        1   -1    0    0  501    0  0.00000000000E+00  0.00000000000E+00  0.47067043880E+03  0.47067043883E+03  0.50400001928E-02 0. -1.
       -1   -1    0    0    0  501  0.00000000000E+00  0.00000000000E+00 -0.64425058423E+03  0.64425058425E+03  0.50400001928E-02 0.  1.
    10030    2    1    2    0    0  0.00000000000E+00  0.00000000000E+00 -0.17358014543E+03  0.11149210231E+04  0.11013259376E+04 0.  0.
        4    1    3    3  502    0  0.21169909364E+03  0.15364214299E+03 -0.57733923050E+03  0.63383327013E+03  0.12699999809E+01 0. -1.
       -4    1    3    3    0  502 -0.21169909364E+03 -0.15364214299E+03  0.40375908507E+03  0.48108775294E+03  0.12699999809E+01 0.  1.
</event>
<event>
 5   0  0.8150924E-04  0.1098884E+04  0.7818609E-02  0.9206280E-01
       -1   -1    0    0    0  501  0.00000000000E+00  0.00000000000E+00  0.26411218312E+03  0.26411218317E+03  0.50400001928E-02 0.  1.
        1   -1    0    0  501    0  0.00000000000E+00  0.00000000000E+00 -0.11430239410E+04  0.11430239410E+04  0.50400001928E-02 0. -1.
    10030    2    1    2    0    0  0.00000000000E+00  0.00000000000E+00 -0.87891175789E+03  0.14071361242E+04  0.10988840675E+04 0.  0.
        3    1    3    3  502    0  0.16551758854E+03 -0.51557644095E+03 -0.32021399255E+03  0.62908834817E+03  0.10100000352E+00 0.  1.
       -3    1    3    3    0  502 -0.16551758854E+03  0.51557644095E+03 -0.55869776534E+03  0.77804777603E+03  0.10100000352E+00 0. -1.
</event>
<event>
 5   0  0.8305271E-04  0.1099925E+04  0.7818609E-02  0.9205265E-01
       -1   -1    0    0    0  501  0.00000000000E+00  0.00000000000E+00  0.58850407702E+03  0.58850407704E+03  0.50400001928E-02 0. -1.
        1   -1    0    0  501    0  0.00000000000E+00  0.00000000000E+00 -0.51394536716E+03  0.51394536719E+03  0.50400001928E-02 0.  1.
    10030    2    1    2    0    0  0.00000000000E+00  0.00000000000E+00  0.74558709857E+02  0.11024494442E+04  0.10999253501E+04 0.  0.
        5    1    3    3  502    0 -0.13262881143E+03 -0.25391275902E+03  0.50779752654E+03  0.58304588908E+03  0.46999998093E+01 0. -1.
       -5    1    3    3    0  502  0.13262881143E+03  0.25391275902E+03 -0.43323881669E+03  0.51940355514E+03  0.46999998093E+01 0.  1.
</event>
<event>
 5   0  0.1429680E-03  0.1101716E+04  0.7818609E-02  0.9203521E-01
        2   -1    0    0  501    0  0.00000000000E+00  0.00000000000E+00  0.90824098034E+03  0.90824098034E+03  0.25500000920E-02 0. -1.
       -2   -1    0    0    0  501  0.00000000000E+00  0.00000000000E+00 -0.33410159614E+03  0.33410159615E+03  0.25500000920E-02 0.  1.
    10030    2    1    2    0    0  0.00000000000E+00  0.00000000000E+00  0.57413938420E+03  0.12423425765E+04  0.11017164086E+04 0.  0.
        3    1    3    3  502    0 -0.38823627655E+03  0.37660704836E+03  0.40471518913E+03  0.67554027994E+03  0.10100000352E+00 0. -1.
       -3    1    3    3    0  502  0.38823627655E+03 -0.37660704836E+03  0.16942419507E+03  0.56680229655E+03  0.10100000352E+00 0.  1.
</event>
<event>
 5   0  0.8009636E-04  0.1100238E+04  0.7818609E-02  0.9204960E-01
       -1   -1    0    0    0  501  0.00000000000E+00  0.00000000000E+00  0.41084602883E+03  0.41084602886E+03  0.50400001928E-02 0.  1.
        1   -1    0    0  501    0  0.00000000000E+00  0.00000000000E+00 -0.73660475268E+03  0.73660475270E+03  0.50400001928E-02 0. -1.
    10030    2    1    2    0    0  0.00000000000E+00  0.00000000000E+00 -0.32575872385E+03  0.11474507816E+04  0.11002384060E+04 0.  0.
        1    1    3    3  502    0 -0.17800677509E+03  0.89715907019E+02  0.37185620829E+03  0.42191515216E+03  0.50400001928E-02 0.  1.
       -1    1    3    3    0  502  0.17800677509E+03 -0.89715907019E+02 -0.69761493214E+03  0.72553562940E+03  0.50400001928E-02 0. -1.
</event>
<event>
 5   0  0.1425432E-03  0.1100542E+04  0.7818609E-02  0.9204663E-01
       -2   -1    0    0    0  501  0.00000000000E+00  0.00000000000E+00  0.17676537225E+03  0.17676537226E+03  0.25500000920E-02 0.  1.
        2   -1    0    0  501    0  0.00000000000E+00  0.00000000000E+00 -0.17129959292E+04  0.17129959292E+04  0.25500000920E-02 0. -1.
    10030    2    1    2    0    0  0.00000000000E+00  0.00000000000E+00 -0.15362305569E+04  0.18897613014E+04  0.11005423446E+04 0.  0.
        1    1    3    3  502    0 -0.41549431144E+03 -0.12560108583E+03 -0.13488648832E+04  0.14169854017E+04  0.50400001928E-02 0. -1.
       -1    1    3    3    0  502  0.41549431144E+03  0.12560108583E+03 -0.18736567371E+03  0.47277589968E+03  0.50400001928E-02 0.  1.
</event>
<event>
 5   0  0.8150924E-04  0.1099725E+04  0.7818609E-02  0.9205459E-01
       -1   -1    0    0    0  501  0.00000000000E+00  0.00000000000E+00  0.36036460072E+03  0.36036460075E+03  0.50400001928E-02 0. -1.
        1   -1    0    0  501    0  0.00000000000E+00  0.00000000000E+00 -0.83900867894E+03  0.83900867896E+03  0.50400001928E-02 0.  1.
    10030    2    1    2    0    0  0.00000000000E+00  0.00000000000E+00 -0.47864407823E+03  0.11993732797E+04  0.10997254705E+04 0.  0.
        3    1    3    3  502    0 -0.49879792728E+03  0.16647779541E+03 -0.41461825582E+03  0.66964358944E+03  0.10100000352E+00 0.  1.
       -3    1    3    3    0  502  0.49879792728E+03 -0.16647779541E+03 -0.64025822405E+02  0.52972969027E+03  0.10100000352E+00 0. -1.
</event>
<event>
 5   0  0.8341767E-04  0.1100622E+04  0.7818609E-02  0.9204586E-01
        1   -1    0    0  501    0  0.00000000000E+00  0.00000000000E+00  0.39915125377E+03  0.39915125380E+03  0.50400001928E-02 0. -1.
       -1   -1    0    0    0  501  0.00000000000E+00  0.00000000000E+00 -0.75871565229E+03  0.75871565231E+03  0.50400001928E-02 0.  1.
    10030    2    1    2    0    0  0.00000000000E+00  0.00000000000E+00 -0.35956439853E+03  0.11578669061E+04  0.11006221947E+04 0.  0.
        2    1    3    3  502    0  0.29584906740E+03 -0.78419698912E+02  0.30135164103E+03  0.42952198013E+03  0.25500000920E-02 0. -1.
       -2    1    3    3    0  502 -0.29584906740E+03  0.78419698912E+02 -0.66091603955E+03  0.72834492598E+03  0.25500000920E-02 0.  1.
</event>
<event>
 5   0  0.8305271E-04  0.1101120E+04  0.7818609E-02  0.9204101E-01
        1   -1    0    0  501    0  0.00000000000E+00  0.00000000000E+00  0.34005184956E+03  0.34005184959E+03  0.50400001928E-02 0. -1.
       -1   -1    0    0    0  501  0.00000000000E+00  0.00000000000E+00 -0.89138309778E+03  0.89138309779E+03  0.50400001928E-02 0.  1.
    10030    2    1    2    0    0  0.00000000000E+00  0.00000000000E+00 -0.55133124822E+03  0.12314349474E+04  0.11011202861E+04 0.  0.
        5    1    3    3  502    0 -0.39189794381E+03 -0.33504817183E+03 -0.49151855531E+03  0.71235795498E+03  0.46999998093E+01 0.  1.
       -5    1    3    3    0  502  0.39189794381E+03  0.33504817183E+03 -0.59812692911E+02  0.51907699240E+03  0.46999998093E+01 0. -1.
</event>
<event>
 5   0  0.1402775E-03  0.1119938E+04  0.7818609E-02  0.9185974E-01
        2   -1    0    0  501    0  0.00000000000E+00  0.00000000000E+00  0.59305125187E+03  0.59305125187E+03  0.25500000920E-02 0. -1.
       -2   -1    0    0    0  501  0.00000000000E+00  0.00000000000E+00 -0.52873227330E+03  0.52873227330E+03  0.25500000920E-02 0.  1.
    10030    2    1    2    0    0  0.00000000000E+00  0.00000000000E+00  0.64318978568E+02  0.11217835252E+04  0.11199380993E+04 0.  0.
        5    1    3    3  502    0  0.12571479527E+03 -0.25258134724E+03  0.51663168655E+03  0.58866963254E+03  0.46999998093E+01 0. -1.
       -5    1    3    3    0  502 -0.12571479527E+03  0.25258134724E+03 -0.45231270798E+03  0.53311389264E+03  0.46999998093E+01 0.  1.
</event>
<event>
 5   0  0.1402775E-03  0.1074777E+04  0.7818609E-02  0.9230131E-01
        2   -1    0    0  501    0  0.00000000000E+00  0.00000000000E+00  0.87386998898E+03  0.87386998898E+03  0.25500000920E-02 0. -1.
       -2   -1    0    0    0  501  0.00000000000E+00  0.00000000000E+00 -0.33046842835E+03  0.33046842836E+03  0.25500000920E-02 0.  1.
    10030    2    1    2    0    0  0.00000000000E+00  0.00000000000E+00  0.54340156063E+03  0.12043384173E+04  0.10747770780E+04 0.  0.
        5    1    3    3  502    0 -0.22897279055E+03  0.48583588180E+03  0.25231469906E+03  0.59342214335E+03  0.46999998093E+01 0.  1.
       -5    1    3    3    0  502  0.22897279055E+03 -0.48583588180E+03  0.29108686157E+03  0.61091627400E+03  0.46999998093E+01 0. -1.
</event>
<event>
 5   0  0.1402775E-03  0.1098804E+04  0.7818609E-02  0.9206358E-01
       -2   -1    0    0    0  501  0.00000000000E+00  0.00000000000E+00  0.74208099396E+03  0.74208099396E+03  0.25500000920E-02 0.  1.
        2   -1    0    0  501    0  0.00000000000E+00  0.00000000000E+00 -0.40675149134E+03  0.40675149135E+03  0.25500000920E-02 0. -1.
    10030    2    1    2    0    0  0.00000000000E+00  0.00000000000E+00  0.33532950262E+03  0.11488324853E+04  0.10988039880E+04 0.  0.
        5    1    3    3  502    0 -0.34573573850E+03  0.14630015734E+03 -0.25170033008E+03  0.45200894137E+03  0.46999998093E+01 0. -1.
       -5    1    3    3    0  502  0.34573573850E+03 -0.14630015734E+03  0.58702983270E+03  0.69682354394E+03  0.46999998093E+01 0.  1.
</event>
<event>
 5   0  0.7946038E-04  0.1098435E+04  0.7818609E-02  0.9206718E-01
        1   -1    0    0  501    0  0.00000000000E+00  0.00000000000E+00  0.17344380511E+04  0.17344380511E+04  0.50400001928E-02 0. -1.
       -1   -1    0    0    0  501  0.00000000000E+00  0.00000000000E+00 -0.17391221567E+03  0.17391221575E+03  0.50400001928E-02 0.  1.
    10030    2    1    2    0    0  0.00000000000E+00  0.00000000000E+00  0.15605258355E+04  0.19083502669E+04  0.10984351861E+04 0.  0.
        4    1    3    3  502    0  0.23819130756E+03 -0.69899821861E+01 -0.79418627213E+02  0.25118298131E+03  0.12699999809E+01 0.  1.
       -4    1    3    3    0  502 -0.23819130756E+03  0.69899821861E+01  0.16399444627E+04  0.16571672856E+04  0.12699999809E+01 0. -1.
</event>
<event>
 5   0  0.1396936E-03  0.1095354E+04  0.7818609E-02  0.9209732E-01
       -2   -1    0    0    0  501  0.00000000000E+00  0.00000000000E+00  0.25821888099E+03  0.25821888100E+03  0.25500000920E-02 0.  1.
        2   -1    0    0  501    0  0.00000000000E+00  0.00000000000E+00 -0.11616125035E+04  0.11616125035E+04  0.25500000920E-02 0. -1.
    10030    2    1    2    0    0  0.00000000000E+00  0.00000000000E+00 -0.90339362249E+03  0.14198313845E+04  0.10953543368E+04 0.  0.
        2    1    3    3  502    0  0.19970423497E+03 -0.48469308657E+03 -0.65722640975E+03  0.84068764908E+03  0.25500000920E-02 0. -1.
       -2    1    3    3    0  502 -0.19970423497E+03  0.48469308657E+03 -0.24616721274E+03  0.57914373541E+03  0.25500000920E-02 0.  1.
</event>
<event>
 5   0  0.1429680E-03  0.1091563E+04  0.7818609E-02  0.9213454E-01
       -2   -1    0    0    0  501  0.00000000000E+00  0.00000000000E+00  0.46753157082E+03  0.46753157083E+03  0.25500000920E-02 0. -1.
        2   -1    0    0  501    0  0.00000000000E+00  0.00000000000E+00 -0.63712791298E+03  0.63712791299E+03  0.25500000920E-02 0.  1.
    10030    2    1    2    0    0  0.00000000000E+00  0.00000000000E+00 -0.16959634216E+03  0.11046594838E+04  0.10915629418E+04 0.  0.
        3    1    3    3  502    0 -0.46003373478E+03  0.19547600948E+03  0.13700144173E+03  0.51827725462E+03  0.10100000352E+00 0. -1.
       -3    1    3    3    0  502  0.46003373478E+03 -0.19547600948E+03 -0.30659778390E+03  0.58638222919E+03  0.10100000352E+00 0.  1.
</event>
<event>
 5   0  0.8009636E-04  0.1100023E+04  0.7818609E-02  0.9205169E-01
        1   -1    0    0  501    0  0.00000000000E+00  0.00000000000E+00  0.41620427575E+03  0.41620427578E+03  0.50400001928E-02 0.  1.
       -1   -1    0    0    0  501  0.00000000000E+00  0.00000000000E+00 -0.72683701313E+03  0.72683701315E+03  0.50400001928E-02 0. -1.
    10030    2    1    2    0    0  0.00000000000E+00  0.00000000000E+00 -0.31063273738E+03  0.11430412889E+04  0.11000230410E+04 0.  0.
        1    1    3    3  502    0 -0.36611719603E+03  0.26168787050E+03  0.17326212688E+03  0.48222619945E+03  0.50400001928E-02 0.  1.
       -1    1    3    3    0  502  0.36611719603E+03 -0.26168787050E+03 -0.48389486427E+03  0.66081508948E+03  0.50400001928E-02 0. -1.
</event>
<event>
 5   0  0.1429680E-03  0.1101794E+04  0.7818609E-02  0.9203445E-01
        2   -1    0    0  501    0  0.00000000000E+00  0.00000000000E+00  0.10460337529E+04  0.10460337529E+04  0.25500000920E-02 0. -1.
       -2   -1    0    0    0  501  0.00000000000E+00  0.00000000000E+00 -0.29013176433E+03  0.29013176434E+03  0.25500000920E-02 0.  1.
    10030    2    1    2    0    0  0.00000000000E+00  0.00000000000E+00  0.75590198853E+03  0.13361655172E+04  0.11017942063E+04 0.  0.
        3    1    3    3  502    0 -0.17291215790E+03  0.35846587005E+03 -0.83983434455E+02  0.40675498989E+03  0.10100000352E+00 0.  1.
       -3    1    3    3    0  502  0.17291215790E+03 -0.35846587005E+03  0.83988542298E+03  0.92941052731E+03  0.10100000352E+00 0. -1.
</event>
<event>
 5   0  0.7946038E-04  0.1100157E+04  0.7818609E-02  0.9205039E-01
       -1   -1    0    0    0  501  0.00000000000E+00  0.00000000000E+00  0.22503560620E+03  0.22503560626E+03  0.50400001928E-02 0.  1.
        1   -1    0    0  501    0  0.00000000000E+00  0.00000000000E+00 -0.13446155110E+04  0.13446155110E+04  0.50400001928E-02 0. -1.
    10030    2    1    2    0    0  0.00000000000E+00  0.00000000000E+00 -0.11195799048E+04  0.15696511172E+04  0.11001570191E+04 0.  0.
        4    1    3    3  502    0  0.35158981056E+03  0.54139340732E+02 -0.11584110667E+04  0.12118020776E+04  0.12699999809E+01 0. -1.
       -4    1    3    3    0  502 -0.35158981056E+03 -0.54139340732E+02  0.38831161892E+02  0.35784903960E+03  0.12699999809E+01 0.  1.
</event>
<event>
 5   0  0.1402775E-03  0.1101044E+04  0.7818609E-02  0.9204175E-01
        2   -1    0    0  501    0  0.00000000000E+00  0.00000000000E+00  0.18113674589E+04  0.18113674589E+04  0.25500000920E-02 0.  1.
       -2   -1    0    0    0  501  0.00000000000E+00  0.00000000000E+00 -0.16731805975E+03  0.16731805977E+03  0.25500000920E-02 0. -1.
    10030    2    1    2    0    0  0.00000000000E+00  0.00000000000E+00  0.16440493992E+04  0.19786855187E+04  0.11010440295E+04 0.  0.
        5    1    3    3  502    0  0.34356896056E+03 -0.33752384215E+03  0.13011814837E+04  0.13874643485E+04  0.46999998093E+01 0. -1.
       -5    1    3    3    0  502 -0.34356896056E+03  0.33752384215E+03  0.34286791544E+03  0.59122117022E+03  0.46999998093E+01 0.  1.
</event>
<event>
 5   0  0.8150924E-04  0.1100336E+04  0.7818609E-02  0.9204864E-01
       -1   -1    0    0    0  501  0.00000000000E+00  0.00000000000E+00  0.31390935871E+03  0.31390935875E+03  0.50400001928E-02 0. -1.
        1   -1    0    0  501    0  0.00000000000E+00  0.00000000000E+00 -0.96424349852E+03  0.96424349853E+03  0.50400001928E-02 0.  1.
    10030    2    1    2    0    0  0.00000000000E+00  0.00000000000E+00 -0.65033413980E+03  0.12781528573E+04  0.11003364182E+04 0.  0.
        3    1    3    3  502    0 -0.20414105837E+03 -0.29168021632E+03 -0.81239519984E+03  0.88698190017E+03  0.10100000352E+00 0.  1.
       -3    1    3    3    0  502  0.20414105837E+03  0.29168021632E+03  0.16206106004E+03  0.39117095711E+03  0.10100000352E+00 0. -1.
</event>
<event>
 5   0  0.1396936E-03  0.1099990E+04  0.7818609E-02  0.9205201E-01
        2   -1    0    0  501    0  0.00000000000E+00  0.00000000000E+00  0.93917208773E+03  0.93917208774E+03  0.25500000920E-02 0. -1.
       -2   -1    0    0    0  501  0.00000000000E+00  0.00000000000E+00 -0.32208650127E+03  0.32208650128E+03  0.25500000920E-02 0.  1.
    10030    2    1    2    0    0  0.00000000000E+00  0.00000000000E+00  0.61708558646E+03  0.12612585890E+04  0.10999902760E+04 0.  0.
        2    1    3    3  502    0  0.35305251681E+03  0.29040255964E+03  0.65917819069E+03  0.80218178324E+03  0.25500000920E-02 0. -1.
       -2    1    3    3    0  502 -0.35305251681E+03 -0.29040255964E+03 -0.42092604230E+02  0.45907680578E+03  0.25500000920E-02 0.  1.
</event>
<event>
 5   0  0.8305271E-04  0.1096528E+04  0.7818609E-02  0.9208582E-01
        1   -1    0    0  501    0  0.00000000000E+00  0.00000000000E+00  0.26535521954E+03  0.26535521959E+03  0.50400001928E-02 0.  1.
       -1   -1    0    0    0  501  0.00000000000E+00  0.00000000000E+00 -0.11327967209E+04  0.11327967210E+04  0.50400001928E-02 0. -1.
    10030    2    1    2    0    0  0.00000000000E+00  0.00000000000E+00 -0.86744150140E+03  0.13981519405E+04  0.10965281987E+04 0.  0.
        5    1    3    3  502    0 -0.43256821032E+03  0.36743172085E+02 -0.67980804530E+01  0.43420458447E+03  0.46999998093E+01 0.  1.
       -5    1    3    3    0  502  0.43256821032E+03 -0.36743172085E+02 -0.86064342095E+03  0.96394735608E+03  0.46999998093E+01 0. -1.
</event>
<event>
 5   0  0.8341767E-04  0.1100146E+04  0.7818609E-02  0.9205049E-01
        1   -1    0    0  501    0  0.00000000000E+00  0.00000000000E+00  0.32180385092E+03  0.32180385096E+03  0.50400001928E-02 0.  1.
       -1   -1    0    0    0  501  0.00000000000E+00  0.00000000000E+00 -0.94026342643E+03  0.94026342644E+03  0.50400001928E-02 0. -1.
    10030    2    1    2    0    0  0.00000000000E+00  0.00000000000E+00 -0.61845957551E+03  0.12620672774E+04  0.11001461567E+04 0.  0.
        2    1    3    3  502    0 -0.10101252976E+03  0.40015791561E+03 -0.72641680690E+03  0.83547068527E+03  0.25500000920E-02 0. -1.
       -2    1    3    3    0  502  0.10101252976E+03 -0.40015791561E+03  0.10795723139E+03  0.42659659213E+03  0.25500000920E-02 0.  1.
</event>
<event>
 5   0  0.8305271E-04  0.1099501E+04  0.7818609E-02  0.9205678E-01
       -1   -1    0    0    0  501  0.00000000000E+00  0.00000000000E+00  0.27171648335E+03  0.27171648339E+03  0.50400001928E-02 0. -1.
        1   -1    0    0  501    0  0.00000000000E+00  0.00000000000E+00 -0.11122831896E+04  0.11122831896E+04  0.50400001928E-02 0.  1.
    10030    2    1    2    0    0  0.00000000000E+00  0.00000000000E+00 -0.84056670626E+03  0.13839996730E+04  0.10995011174E+04 0.  0.
        5    1    3    3  502    0 -0.50456220139E+03 -0.14150425385E+03 -0.62939208909E+03  0.81900119703E+03  0.46999998093E+01 0.  1.
       -5    1    3    3    0  502  0.50456220139E+03  0.14150425385E+03 -0.21117461717E+03  0.56499847598E+03  0.46999998093E+01 0. -1.
</event>
<event>
 5   0  0.1402775E-03  0.1100577E+04  0.7818609E-02  0.9204630E-01
        2   -1    0    0  501    0  0.00000000000E+00  0.00000000000E+00  0.11019308513E+04  0.11019308513E+04  0.25500000920E-02 0. -1.
       -2   -1    0    0    0  501  0.00000000000E+00  0.00000000000E+00 -0.27480622496E+03  0.27480622497E+03  0.25500000920E-02 0.  1.
    10030    2    1    2    0    0  0.00000000000E+00  0.00000000000E+00  0.82712462637E+03  0.13767370763E+04  0.11005770440E+04 0.  0.
        5    1    3    3  502    0 -0.88539330345E+02 -0.17879159602E+03 -0.22794253721E+03  0.30296128151E+03  0.46999998093E+01 0.  1.
       -5    1    3    3    0  502  0.88539330345E+02  0.17879159602E+03  0.10550671636E+04  0.10737757948E+04  0.46999998093E+01 0. -1.
</event>
<event>
 5   0  0.8305271E-04  0.1099087E+04  0.7818609E-02  0.9206082E-01
       -1   -1    0    0    0  501  0.00000000000E+00  0.00000000000E+00  0.18990877047E+03  0.18990877054E+03  0.50400001928E-02 0.  1.
        1   -1    0    0  501    0  0.00000000000E+00  0.00000000000E+00 -0.15902280211E+04  0.15902280211E+04  0.50400001928E-02 0. -1.
    10030    2    1    2    0    0  0.00000000000E+00  0.00000000000E+00 -0.14003192506E+04  0.17801367917E+04  0.10990873456E+04 0.  0.
        5    1    3    3  502    0  0.50475055630E+03  0.10917222176E+03 -0.39592201043E+03  0.65074420968E+03  0.46999998093E+01 0.  1.
       -5    1    3    3    0  502 -0.50475055630E+03 -0.10917222176E+03 -0.10043972402E+04  0.11293925820E+04  0.46999998093E+01 0. -1.
</event>
<event>
 5   0  0.1425432E-03  0.1098551E+04  0.7818609E-02  0.9206605E-01
        2   -1    0    0  501    0  0.00000000000E+00  0.00000000000E+00  0.43842673557E+03  0.43842673558E+03  0.25500000920E-02 0.  1.
       -2   -1    0    0    0  501  0.00000000000E+00  0.00000000000E+00 -0.68815100564E+03  0.68815100565E+03  0.25500000920E-02 0. -1.
    10030    2    1    2    0    0  0.00000000000E+00  0.00000000000E+00 -0.24972427007E+03  0.11265777412E+04  0.10985514080E+04 0.  0.
        1    1    3    3  502    0 -0.34862826511E+03 -0.36841836054E+03 -0.34102403537E+03  0.61120466976E+03  0.50400001928E-02 0. -1.
       -1    1    3    3    0  502  0.34862826511E+03  0.36841836054E+03  0.91299765298E+02  0.51537307146E+03  0.50400001928E-02 0.  1.
</event>
<event>
 5   0  0.1402775E-03  0.1100776E+04  0.7818609E-02  0.9204436E-01
        2   -1    0    0  501    0  0.00000000000E+00  0.00000000000E+00  0.28055928157E+04  0.28055928157E+04  0.25500000920E-02 0. -1.
       -2   -1    0    0    0  501  0.00000000000E+00  0.00000000000E+00 -0.10797252519E+03  0.10797252522E+03  0.25500000920E-02 0.  1.
    10030    2    1    2    0    0  0.00000000000E+00  0.00000000000E+00  0.26976202905E+04  0.29135653410E+04  0.11007759827E+04 0.  0.
        5    1    3    3  502    0 -0.23863024026E+02 -0.43602311335E+03  0.46214527679E+03  0.63583484187E+03  0.46999998093E+01 0.  1.
       -5    1    3    3    0  502  0.23863024026E+02  0.43602311335E+03  0.22354750138E+04  0.22777304991E+04  0.46999998093E+01 0. -1.
</event>
<event>
 5   0  0.1402775E-03  0.1107748E+04  0.7818609E-02  0.9197673E-01
       -2   -1    0    0    0  501  0.00000000000E+00  0.00000000000E+00  0.28801208712E+03  0.28801208713E+03  0.25500000920E-02 0.  1.
        2   -1    0    0  501    0  0.00000000000E+00  0.00000000000E+00 -0.10651509324E+04  0.10651509324E+04  0.25500000920E-02 0. -1.
    10030    2    1    2    0    0  0.00000000000E+00  0.00000000000E+00 -0.77713884526E+03  0.13531630195E+04  0.11077478831E+04 0.  0.
        5    1    3    3  502    0 -0.53992149753E+03  0.95672196098E+02 -0.29327440611E+03  0.62185236180E+03  0.46999998093E+01 0. -1.
       -5    1    3    3    0  502  0.53992149753E+03 -0.95672196098E+02 -0.48386443915E+03  0.73131065771E+03  0.46999998093E+01 0.  1.
</event>
<event>
 5   0  0.8305271E-04  0.1101345E+04  0.7818609E-02  0.9203882E-01
        1   -1    0    0  501    0  0.00000000000E+00  0.00000000000E+00  0.38798094445E+03  0.38798094449E+03  0.50400001928E-02 0.  1.
       -1   -1    0    0    0  501  0.00000000000E+00  0.00000000000E+00 -0.78158515754E+03  0.78158515756E+03  0.50400001928E-02 0. -1.
    10030    2    1    2    0    0  0.00000000000E+00  0.00000000000E+00 -0.39360421309E+03  0.11695661020E+04  0.11013449008E+04 0.  0.
        5    1    3    3  502    0  0.14986097040E+03  0.51836715026E+03 -0.31339966120E+03  0.62402263626E+03  0.46999998093E+01 0.  1.
       -5    1    3    3    0  502 -0.14986097040E+03 -0.51836715026E+03 -0.80204551886E+02  0.54554346579E+03  0.46999998093E+01 0. -1.
</event>
<event>
 5   0  0.8305271E-04  0.1106794E+04  0.7818609E-02  0.9198595E-01
        1   -1    0    0  501    0  0.00000000000E+00  0.00000000000E+00  0.12233096233E+04  0.12233096233E+04  0.50400001928E-02 0. -1.
       -1   -1    0    0    0  501  0.00000000000E+00  0.00000000000E+00 -0.25034392464E+03  0.25034392469E+03  0.50400001928E-02 0.  1.
    10030    2    1    2    0    0  0.00000000000E+00  0.00000000000E+00  0.97296569864E+03  0.14736535480E+04  0.11067938059E+04 0.  0.
        5    1    3    3  502    0  0.32725577605E+03 -0.39455039463E+03  0.76405248971E+03  0.92008948146E+03  0.46999998093E+01 0. -1.
       -5    1    3    3    0  502 -0.32725577605E+03  0.39455039463E+03  0.20891320892E+03  0.55356406651E+03  0.46999998093E+01 0.  1.
</event>
<event>
 5   0  0.1402775E-03  0.1102297E+04  0.7818609E-02  0.9202956E-01
        2   -1    0    0  501    0  0.00000000000E+00  0.00000000000E+00  0.91986194841E+03  0.91986194841E+03  0.25500000920E-02 0. -1.
       -2   -1    0    0    0  501  0.00000000000E+00  0.00000000000E+00 -0.33022840486E+03  0.33022840487E+03  0.25500000920E-02 0.  1.
    10030    2    1    2    0    0  0.00000000000E+00  0.00000000000E+00  0.58963354354E+03  0.12500903533E+04  0.11022967730E+04 0.  0.
        5    1    3    3  502    0 -0.56888807400E+02  0.54325869354E+03  0.37796957932E+03  0.66426608931E+03  0.46999998093E+01 0. -1.
       -5    1    3    3    0  502  0.56888807400E+02 -0.54325869354E+03  0.21166396422E+03  0.58582426398E+03  0.46999998093E+01 0.  1.
</event>
<event>
 5   0  0.7946038E-04  0.1101734E+04  0.7818609E-02  0.9203503E-01
       -1   -1    0    0    0  501  0.00000000000E+00  0.00000000000E+00  0.71601675839E+03  0.71601675841E+03  0.50400001928E-02 0. -1.
        1   -1    0    0  501    0  0.00000000000E+00  0.00000000000E+00 -0.42380942920E+03  0.42380942923E+03  0.50400001928E-02 0.  1.
    10030    2    1    2    0    0  0.00000000000E+00  0.00000000000E+00  0.29220732918E+03  0.11398261876E+04  0.11017343667E+04 0.  0.
        4    1    3    3  502    0 -0.25207040278E+03 -0.36413705663E+03  0.48502392172E+03  0.65679913330E+03  0.12699999809E+01 0. -1.
       -4    1    3    3    0  502  0.25207040278E+03  0.36413705663E+03 -0.19281659254E+03  0.48302705434E+03  0.12699999809E+01 0.  1.
</event>
<event>
 5   0  0.1425432E-03  0.1099224E+04  0.7818609E-02  0.9205948E-01
       -2   -1    0    0    0  501  0.00000000000E+00  0.00000000000E+00  0.12497041835E+03  0.12497041838E+03  0.25500000920E-02 0.  1.
        2   -1    0    0  501    0  0.00000000000E+00  0.00000000000E+00 -0.24171591858E+04  0.24171591858E+04  0.25500000920E-02 0. -1.
    10030    2    1    2    0    0  0.00000000000E+00  0.00000000000E+00 -0.22921887675E+04  0.25421296042E+04  0.10992240804E+04 0.  0.
        1    1    3    3  502    0  0.37939183991E+03  0.53429628348E+02 -0.23477645025E+03  0.44934716533E+03  0.50400001928E-02 0.  1.
       -1    1    3    3    0  502 -0.37939183991E+03 -0.53429628348E+02 -0.20574123172E+04  0.20927824389E+04  0.50400001928E-02 0. -1.
</event>
<event>
 5   0  0.8305271E-04  0.1100036E+04  0.7818609E-02  0.9205157E-01
       -1   -1    0    0    0  501  0.00000000000E+00  0.00000000000E+00  0.26125839682E+03  0.26125839687E+03  0.50400001928E-02 0.  1.
        1   -1    0    0  501    0  0.00000000000E+00  0.00000000000E+00 -0.11579335179E+04  0.11579335179E+04  0.50400001928E-02 0. -1.
    10030    2    1    2    0    0  0.00000000000E+00  0.00000000000E+00 -0.89667512104E+03  0.14191919147E+04  0.11000360986E+04 0.  0.
        5    1    3    3  502    0 -0.59546305222E+02  0.60860151673E+02  0.25267807680E+03  0.26667962244E+03  0.46999998093E+01 0.  1.
       -5    1    3    3    0  502  0.59546305222E+02 -0.60860151673E+02 -0.11493531978E+04  0.11525122923E+04  0.46999998093E+01 0. -1.
</event>
<event>
 5   0  0.8009636E-04  0.1097236E+04  0.7818609E-02  0.9207890E-01
        1   -1    0    0  501    0  0.00000000000E+00  0.00000000000E+00  0.41672237759E+03  0.41672237762E+03  0.50400001928E-02 0. -1.
       -1   -1    0    0    0  501  0.00000000000E+00  0.00000000000E+00 -0.72225989159E+03  0.72225989161E+03  0.50400001928E-02 0.  1.
    10030    2    1    2    0    0  0.00000000000E+00  0.00000000000E+00 -0.30553751400E+03  0.11389822692E+04  0.10972362723E+04 0.  0.
        1    1    3    3  502    0 -0.36366566263E+03  0.40933328657E+03 -0.11718017507E+03  0.55994432502E+03  0.50400001928E-02 0.  1.
       -1    1    3    3    0  502  0.36366566263E+03 -0.40933328657E+03 -0.18835733894E+03  0.57903794420E+03  0.50400001928E-02 0. -1.
</event>
<event>
 5   0  0.8009636E-04  0.1138924E+04  0.7818609E-02  0.9168063E-01
        1   -1    0    0  501    0  0.00000000000E+00  0.00000000000E+00  0.11454963553E+04  0.11454963554E+04  0.50400001928E-02 0. -1.
       -1   -1    0    0    0  501  0.00000000000E+00  0.00000000000E+00 -0.28309727615E+03  0.28309727619E+03  0.50400001928E-02 0.  1.
    10030    2    1    2    0    0  0.00000000000E+00  0.00000000000E+00  0.86239907919E+03  0.14285936315E+04  0.11389238747E+04 0.  0.
        1    1    3    3  502    0 -0.36392021473E+03 -0.38863291428E+03  0.68460477182E+03  0.86726994551E+03  0.50400001928E-02 0.  1.
       -1    1    3    3    0  502  0.36392021473E+03  0.38863291428E+03  0.17779430737E+03  0.56132368604E+03  0.50400001928E-02 0. -1.
</event>
<event>
 5   0  0.7946038E-04  0.1096284E+04  0.7818609E-02  0.9208821E-01
       -1   -1    0    0    0  501  0.00000000000E+00  0.00000000000E+00  0.13574972461E+04  0.13574972461E+04  0.50400001928E-02 0. -1.
        1   -1    0    0  501    0  0.00000000000E+00  0.00000000000E+00 -0.22133350632E+03  0.22133350638E+03  0.50400001928E-02 0.  1.
    10030    2    1    2    0    0  0.00000000000E+00  0.00000000000E+00  0.11361637398E+04  0.15788307525E+04  0.10962839511E+04 0.  0.
        4    1    3    3  502    0 -0.10495187365E+03  0.36352331770E+02  0.13411191671E+04  0.13457111953E+04  0.12699999809E+01 0. -1.
       -4    1    3    3    0  502  0.10495187365E+03 -0.36352331770E+02 -0.20495542739E+03  0.23311955715E+03  0.12699999809E+01 0.  1.
</event>
<event>
 5   0  0.1372794E-03  0.1099920E+04  0.7818609E-02  0.9205270E-01
       -2   -1    0    0    0  501  0.00000000000E+00  0.00000000000E+00  0.57987035047E+03  0.57987035048E+03  0.25500000920E-02 0. -1.
        2   -1    0    0  501    0  0.00000000000E+00  0.00000000000E+00 -0.52159219656E+03  0.52159219657E+03  0.25500000920E-02 0.  1.
    10030    2    1    2    0    0  0.00000000000E+00  0.00000000000E+00  0.58278153909E+02  0.11014625470E+04  0.10999197240E+04 0.  0.
        4    1    3    3  502    0 -0.51876995700E+03 -0.10941034243E+03  0.17549929500E+03  0.55847516217E+03  0.12699999809E+01 0. -1.
       -4    1    3    3    0  502  0.51876995700E+03  0.10941034243E+03 -0.11722114109E+03  0.54298738488E+03  0.12699999809E+01 0.  1.
</event>
<event>
 5   0  0.1429680E-03  0.1105716E+04  0.7818609E-02  0.9199638E-01
        2   -1    0    0  501    0  0.00000000000E+00  0.00000000000E+00  0.16542858176E+04  0.16542858176E+04  0.25500000920E-02 0.  1.
       -2   -1    0    0    0  501  0.00000000000E+00  0.00000000000E+00 -0.18476385092E+03  0.18476385093E+03  0.25500000920E-02 0. -1.
    10030    2    1    2    0    0  0.00000000000E+00  0.00000000000E+00  0.14695219667E+04  0.18390496685E+04  0.11057164522E+04 0.  0.
        3    1    3    3  502    0  0.34624838766E+03 -0.42719201638E+03  0.63963347939E+03  0.84351168515E+03  0.10100000352E+00 0.  1.
       -3    1    3    3    0  502 -0.34624838766E+03  0.42719201638E+03  0.82988848727E+03  0.99553798336E+03  0.10100000352E+00 0. -1.
</event>
<event>
 5   0  0.7946038E-04  0.1100581E+04  0.7818609E-02  0.9204626E-01
       -1   -1    0    0    0  501  0.00000000000E+00  0.00000000000E+00  0.44766033420E+03  0.44766033423E+03  0.50400001928E-02 0.  1.
        1   -1    0    0  501    0  0.00000000000E+00  0.00000000000E+00 -0.67644934606E+03  0.67644934608E+03  0.50400001928E-02 0. -1.
    10030    2    1    2    0    0  0.00000000000E+00  0.00000000000E+00 -0.22878901186E+03  0.11241096803E+04  0.11005808291E+04 0.  0.
        4    1    3    3  502    0 -0.52641424077E+03 -0.15945692409E+03 -0.13146906988E+03  0.56553001049E+03  0.12699999809E+01 0.  1.
       -4    1    3    3    0  502  0.52641424077E+03  0.15945692409E+03 -0.97319941980E+02  0.55857966982E+03  0.12699999809E+01 0. -1.
</event>
<event>
 5   0  0.1402775E-03  0.1100654E+04  0.7818609E-02  0.9204554E-01
        2   -1    0    0  501    0  0.00000000000E+00  0.00000000000E+00  0.60643477519E+03  0.60643477520E+03  0.25500000920E-02 0. -1.
       -2   -1    0    0    0  501  0.00000000000E+00  0.00000000000E+00 -0.49941065038E+03  0.49941065038E+03  0.25500000920E-02 0.  1.
    10030    2    1    2    0    0  0.00000000000E+00  0.00000000000E+00  0.10702412482E+03  0.11058454256E+04  0.11006543245E+04 0.  0.
        5    1    3    3  502    0 -0.29052378557E+03  0.32506330001E+03  0.39090485242E+03  0.58557571043E+03  0.46999998093E+01 0. -1.
       -5    1    3    3    0  502  0.29052378557E+03 -0.32506330001E+03 -0.28388072761E+03  0.52026971515E+03  0.46999998093E+01 0.  1.
</event>
<event>
 5   0  0.1429680E-03  0.1101097E+04  0.7818609E-02  0.9204123E-01
       -2   -1    0    0    0  501  0.00000000000E+00  0.00000000000E+00  0.60534998612E+03  0.60534998613E+03  0.25500000920E-02 0. -1.
        2   -1    0    0  501    0  0.00000000000E+00  0.00000000000E+00 -0.50070815520E+03  0.50070815521E+03  0.25500000920E-02 0.  1.
    10030    2    1    2    0    0  0.00000000000E+00  0.00000000000E+00  0.10464183092E+03  0.11060581413E+04  0.11010970435E+04 0.  0.
        3    1    3    3  502    0 -0.22031415112E+03  0.23883009510E+03 -0.39411998226E+03  0.51079223773E+03  0.10100000352E+00 0.  1.
       -3    1    3    3    0  502  0.22031415112E+03 -0.23883009510E+03  0.49876181318E+03  0.59526590361E+03  0.10100000352E+00 0. -1.
</event>
<event>
 5   0  0.1372794E-03  0.1102604E+04  0.7818609E-02  0.9202657E-01
        2   -1    0    0  501    0  0.00000000000E+00  0.00000000000E+00  0.53366356009E+03  0.53366356010E+03  0.25500000920E-02 0.  1.
       -2   -1    0    0    0  501  0.00000000000E+00  0.00000000000E+00 -0.56952390503E+03  0.56952390504E+03  0.25500000920E-02 0. -1.
    10030    2    1    2    0    0  0.00000000000E+00  0.00000000000E+00 -0.35860344942E+02  0.11031874651E+04  0.11026044707E+04 0.  0.
        4    1    3    3  502    0  0.52990127238E+03 -0.14745313037E+03  0.19436029113E+02  0.55037910231E+03  0.12699999809E+01 0.  1.
       -4    1    3    3    0  502 -0.52990127238E+03  0.14745313037E+03 -0.55296374055E+02  0.55280836283E+03  0.12699999809E+01 0. -1.
</event>
<event>
 5   0  0.1396936E-03  0.1104449E+04  0.7818609E-02  0.9200866E-01
        2   -1    0    0  501    0  0.00000000000E+00  0.00000000000E+00  0.77362238636E+03  0.77362238636E+03  0.25500000920E-02 0. -1.
       -2   -1    0    0    0  501  0.00000000000E+00  0.00000000000E+00 -0.39418714738E+03  0.39418714739E+03  0.25500000920E-02 0.  1.
    10030    2    1    2    0    0  0.00000000000E+00  0.00000000000E+00  0.37943523898E+03  0.11678095337E+04  0.11044491869E+04 0.  0.
        2    1    3    3  502    0 -0.14210663336E+03 -0.33949530446E+01  0.75394639383E+03  0.76722942183E+03  0.25500000920E-02 0. -1.
       -2    1    3    3    0  502  0.14210663336E+03  0.33949530446E+01 -0.37451115485E+03  0.40058011192E+03  0.25500000920E-02 0.  1.
</event>
<event>
 5   0  0.1396936E-03  0.1099572E+04  0.7818609E-02  0.9205609E-01
       -2   -1    0    0    0  501  0.00000000000E+00  0.00000000000E+00  0.37350098877E+03  0.37350098878E+03  0.25500000920E-02 0.  1.
        2   -1    0    0  501    0  0.00000000000E+00  0.00000000000E+00 -0.80927345897E+03  0.80927345897E+03  0.25500000920E-02 0. -1.
    10030    2    1    2    0    0  0.00000000000E+00  0.00000000000E+00 -0.43577247020E+03  0.11827744478E+04  0.10995716204E+04 0.  0.
        2    1    3    3  502    0 -0.20808299361E+03 -0.36267786350E+03 -0.60187224207E+03  0.73286012354E+03  0.25500000920E-02 0. -1.
       -2    1    3    3    0  502  0.20808299361E+03  0.36267786350E+03  0.16609977187E+03  0.44991432421E+03  0.25500000920E-02 0.  1.
</event>
<event>
 5   0  0.1396936E-03  0.1083334E+04  0.7818609E-02  0.9221590E-01
        2   -1    0    0  501    0  0.00000000000E+00  0.00000000000E+00  0.83609102518E+03  0.83609102518E+03  0.25500000920E-02 0. -1.
       -2   -1    0    0    0  501  0.00000000000E+00  0.00000000000E+00 -0.35092240831E+03  0.35092240832E+03  0.25500000920E-02 0.  1.
    10030    2    1    2    0    0  0.00000000000E+00  0.00000000000E+00  0.48516861687E+03  0.11870134335E+04  0.10833338841E+04 0.  0.
        2    1    3    3  502    0 -0.24487221021E+03  0.48034932992E+03  0.18559507189E+03  0.57021347651E+03  0.25500000920E-02 0. -1.
       -2    1    3    3    0  502  0.24487221021E+03 -0.48034932992E+03  0.29957354498E+03  0.61679995699E+03  0.25500000920E-02 0.  1.
</event>
<event>
 5   0  0.1429680E-03  0.1137329E+04  0.7818609E-02  0.9169554E-01
        2   -1    0    0  501    0  0.00000000000E+00  0.00000000000E+00  0.11583677103E+04  0.11583677103E+04  0.25500000920E-02 0.  1.
       -2   -1    0    0    0  501  0.00000000000E+00  0.00000000000E+00 -0.27916798660E+03  0.27916798661E+03  0.25500000920E-02 0. -1.
    10030    2    1    2    0    0  0.00000000000E+00  0.00000000000E+00  0.87919972370E+03  0.14375356969E+04  0.11373287677E+04 0.  0.
        3    1    3    3  502    0  0.34825177252E+03  0.23216587387E+03 -0.46981059082E+02  0.42117397851E+03  0.10100000352E+00 0.  1.
       -3    1    3    3    0  502 -0.34825177252E+03 -0.23216587387E+03  0.92618078278E+03  0.10163617184E+04  0.10100000352E+00 0. -1.
</event>
<event>
 5   0  0.1372794E-03  0.1098868E+04  0.7818609E-02  0.9206295E-01
       -2   -1    0    0    0  501  0.00000000000E+00  0.00000000000E+00  0.24023694668E+03  0.24023694670E+03  0.25500000920E-02 0.  1.
        2   -1    0    0  501    0  0.00000000000E+00  0.00000000000E+00 -0.12565843014E+04  0.12565843014E+04  0.25500000920E-02 0. -1.
    10030    2    1    2    0    0  0.00000000000E+00  0.00000000000E+00 -0.10163473547E+04  0.14968212481E+04  0.10988684650E+04 0.  0.
        4    1    3    3  502    0 -0.46019997165E+03 -0.96983329594E+02 -0.12125037065E+03  0.48568821831E+03  0.12699999809E+01 0.  1.
       -4    1    3    3    0  502  0.46019997165E+03  0.96983329594E+02 -0.89509698405E+03  0.10111330298E+04  0.12699999809E+01 0. -1.
</event>
<event>
 5   0  0.1425432E-03  0.1097534E+04  0.7818609E-02  0.9207599E-01
       -2   -1    0    0    0  501  0.00000000000E+00  0.00000000000E+00  0.31561540306E+03  0.31561540307E+03  0.25500000920E-02 0. -1.
        2   -1    0    0  501    0  0.00000000000E+00  0.00000000000E+00 -0.95415162329E+03  0.95415162330E+03  0.25500000920E-02 0.  1.
    10030    2    1    2    0    0  0.00000000000E+00  0.00000000000E+00 -0.63853622023E+03  0.12697670264E+04  0.10975335060E+04 0.  0.
        1    1    3    3  502    0  0.31278111966E+02 -0.54679180630E+03 -0.27943635391E+03  0.61485305207E+03  0.50400001928E-02 0.  1.
       -1    1    3    3    0  502 -0.31278111966E+02  0.54679180630E+03 -0.35909986632E+03  0.65491397430E+03  0.50400001928E-02 0. -1.
</event>
<event>
 5   0  0.8009636E-04  0.1096979E+04  0.7818609E-02  0.9208141E-01
       -1   -1    0    0    0  501  0.00000000000E+00  0.00000000000E+00  0.19007755458E+03  0.19007755464E+03  0.50400001928E-02 0.  1.
        1   -1    0    0  501    0  0.00000000000E+00  0.00000000000E+00 -0.15827258094E+04  0.15827258094E+04  0.50400001928E-02 0. -1.
    10030    2    1    2    0    0  0.00000000000E+00  0.00000000000E+00 -0.13926482548E+04  0.17728033641E+04  0.10969788539E+04 0.  0.
        1    1    3    3  502    0  0.31209389382E+03  0.40839159683E+03 -0.10057275484E+04  0.11294574788E+04  0.50400001928E-02 0. -1.
       -1    1    3    3    0  502 -0.31209389382E+03 -0.40839159683E+03 -0.38692070647E+03  0.64334588523E+03  0.50400001928E-02 0.  1.
</event>
<event>
 5   0  0.8150924E-04  0.1102759E+04  0.7818609E-02  0.9202507E-01
       -1   -1    0    0    0  501  0.00000000000E+00  0.00000000000E+00  0.12564995142E+04  0.12564995142E+04  0.50400001928E-02 0. -1.
        1   -1    0    0  501    0  0.00000000000E+00  0.00000000000E+00 -0.24195755675E+03  0.24195755680E+03  0.50400001928E-02 0.  1.
    10030    2    1    2    0    0  0.00000000000E+00  0.00000000000E+00  0.10145419575E+04  0.14984570710E+04  0.11027593619E+04 0.  0.
        3    1    3    3  502    0  0.14042506499E+03 -0.27307632691E+02  0.12308432720E+04  0.12391287569E+04  0.10100000352E+00 0. -1.
       -3    1    3    3    0  502 -0.14042506499E+03  0.27307632691E+02 -0.21630131451E+03  0.25932831419E+03  0.10100000352E+00 0.  1.
</event>
<event>
 5   0  0.8009636E-04  0.1107931E+04  0.7818609E-02  0.9197497E-01
       -1   -1    0    0    0  501  0.00000000000E+00  0.00000000000E+00  0.26516755256E+03  0.26516755261E+03  0.50400001928E-02 0.  1.
        1   -1    0    0  501    0  0.00000000000E+00  0.00000000000E+00 -0.11572966745E+04  0.11572966745E+04  0.50400001928E-02 0. -1.
    10030    2    1    2    0    0  0.00000000000E+00  0.00000000000E+00 -0.89212912195E+03  0.14224642271E+04  0.11079305516E+04 0.  0.
        1    1    3    3  502    0  0.19306530844E+03 -0.29644262665E+03  0.10124905475E+03  0.36797257416E+03  0.50400001928E-02 0.  1.
       -1    1    3    3    0  502 -0.19306530844E+03  0.29644262665E+03 -0.99337817670E+03  0.10544916530E+04  0.50400001928E-02 0. -1.
</event>
<event>
 5   0  0.1372794E-03  0.1099671E+04  0.7818609E-02  0.9205512E-01
       -2   -1    0    0    0  501  0.00000000000E+00  0.00000000000E+00  0.17160775819E+03  0.17160775821E+03  0.25500000920E-02 0.  1.
        2   -1    0    0  501    0  0.00000000000E+00  0.00000000000E+00 -0.17616879285E+04  0.17616879285E+04  0.25500000920E-02 0. -1.
    10030    2    1    2    0    0  0.00000000000E+00  0.00000000000E+00 -0.15900801703E+04  0.19332956867E+04  0.10996714347E+04 0.  0.
        4    1    3    3  502    0 -0.26916962358E+03  0.13046273557E+03  0.16046005494E+02  0.29955283144E+03  0.12699999809E+01 0.  1.
       -4    1    3    3    0  502  0.26916962358E+03 -0.13046273557E+03 -0.16061261758E+04  0.16337428552E+04  0.12699999809E+01 0. -1.
</event>
<event>
 5   0  0.1396936E-03  0.1085441E+04  0.7818609E-02  0.9219500E-01
       -2   -1    0    0    0  501  0.00000000000E+00  0.00000000000E+00  0.39084826611E+03  0.39084826612E+03  0.25500000920E-02 0.  1.
        2   -1    0    0  501    0  0.00000000000E+00  0.00000000000E+00 -0.75360526168E+03  0.75360526168E+03  0.25500000920E-02 0. -1.
    10030    2    1    2    0    0  0.00000000000E+00  0.00000000000E+00 -0.36275699557E+03  0.11444535278E+04  0.10854405739E+04 0.  0.
        2    1    3    3  502    0 -0.15834436755E+03 -0.14906885815E+03  0.34289874213E+03  0.40604680834E+03  0.25500000920E-02 0.  1.
       -2    1    3    3    0  502  0.15834436755E+03  0.14906885815E+03 -0.70565573770E+03  0.73840671947E+03  0.25500000920E-02 0. -1.
</event>
<event>
 5   0  0.1396936E-03  0.1101871E+04  0.7818609E-02  0.9203371E-01
        2   -1    0    0  501    0  0.00000000000E+00  0.00000000000E+00  0.51101182471E+03  0.51101182472E+03  0.25500000920E-02 0.  1.
       -2   -1    0    0    0  501  0.00000000000E+00  0.00000000000E+00 -0.59397789822E+03  0.59397789823E+03  0.25500000920E-02 0. -1.
    10030    2    1    2    0    0  0.00000000000E+00  0.00000000000E+00 -0.82966073509E+02  0.11049897229E+04  0.11018706451E+04 0.  0.
        2    1    3    3  502    0  0.20718464494E+03 -0.46432220887E+03 -0.25423715606E+03  0.56846910407E+03  0.25500000920E-02 0. -1.
       -2    1    3    3    0  502 -0.20718464494E+03  0.46432220887E+03  0.17127108255E+03  0.53652061888E+03  0.25500000920E-02 0.  1.
</event>
<event>
 5   0  0.1425432E-03  0.1090783E+04  0.7818609E-02  0.9214222E-01
       -2   -1    0    0    0  501  0.00000000000E+00  0.00000000000E+00  0.45472696583E+03  0.45472696584E+03  0.25500000920E-02 0.  1.
        2   -1    0    0  501    0  0.00000000000E+00  0.00000000000E+00 -0.65413297062E+03  0.65413297062E+03  0.25500000920E-02 0. -1.
    10030    2    1    2    0    0  0.00000000000E+00  0.00000000000E+00 -0.19940600478E+03  0.11088599365E+04  0.10907830233E+04 0.  0.
        1    1    3    3  502    0 -0.15691202825E+03  0.27457084245E+03 -0.55141060390E+03  0.63566043313E+03  0.50400001928E-02 0. -1.
       -1    1    3    3    0  502  0.15691202825E+03 -0.27457084245E+03  0.35200459911E+03  0.47319950333E+03  0.50400001928E-02 0.  1.
</event>
<event>
 5   0  0.1402775E-03  0.1101957E+04  0.7818609E-02  0.9203286E-01
       -2   -1    0    0    0  501  0.00000000000E+00  0.00000000000E+00  0.23532650220E+03  0.23532650221E+03  0.25500000920E-02 0. -1.
        2   -1    0    0  501    0  0.00000000000E+00  0.00000000000E+00 -0.12900271319E+04  0.12900271319E+04  0.25500000920E-02 0.  1.
    10030    2    1    2    0    0  0.00000000000E+00  0.00000000000E+00 -0.10547006297E+04  0.15253536341E+04  0.11019574814E+04 0.  0.
        5    1    3    3  502    0  0.23842854906E+03  0.17220646317E+03 -0.11722435825E+04  0.12085860936E+04  0.46999998093E+01 0.  1.
       -5    1    3    3    0  502 -0.23842854906E+03 -0.17220646317E+03  0.11754295280E+03  0.31676754050E+03  0.46999998093E+01 0. -1.
</event>
<event>
 5   0  0.8341767E-04  0.1102403E+04  0.7818609E-02  0.9202853E-01
        1   -1    0    0  501    0  0.00000000000E+00  0.00000000000E+00  0.27783769277E+03  0.27783769281E+03  0.50400001928E-02 0. -1.
       -1   -1    0    0    0  501  0.00000000000E+00  0.00000000000E+00 -0.10935265974E+04  0.10935265974E+04  0.50400001928E-02 0.  1.
    10030    2    1    2    0    0  0.00000000000E+00  0.00000000000E+00 -0.81568890460E+03  0.13713642902E+04  0.11024026612E+04 0.  0.
        2    1    3    3  502    0 -0.53655784084E+03  0.11018072928E+03 -0.33127363886E+03  0.64013774571E+03  0.25500000920E-02 0. -1.
       -2    1    3    3    0  502  0.53655784084E+03 -0.11018072928E+03 -0.48441526574E+03  0.73122654449E+03  0.25500000920E-02 0.  1.
</event>
<event>
 5   0  0.8150924E-04  0.1094224E+04  0.7818609E-02  0.9210840E-01
        1   -1    0    0  501    0  0.00000000000E+00  0.00000000000E+00  0.40795375426E+03  0.40795375429E+03  0.50400001928E-02 0.  1.
       -1   -1    0    0    0  501  0.00000000000E+00  0.00000000000E+00 -0.73373833136E+03  0.73373833137E+03  0.50400001928E-02 0. -1.
    10030    2    1    2    0    0  0.00000000000E+00  0.00000000000E+00 -0.32578457710E+03  0.11416920857E+04  0.10942235730E+04 0.  0.
        3    1    3    3  502    0 -0.42051144700E+03 -0.31337590355E+03 -0.25545211698E+00  0.52443723117E+03  0.10100000352E+00 0.  1.
       -3    1    3    3    0  502  0.42051144700E+03  0.31337590355E+03 -0.32552912498E+03  0.61725485449E+03  0.10100000352E+00 0. -1.
</event>
<event>
 5   0  0.8009636E-04  0.1104913E+04  0.7818609E-02  0.9200417E-01
        1   -1    0    0  501    0  0.00000000000E+00  0.00000000000E+00  0.10859441289E+04  0.10859441289E+04  0.50400001928E-02 0. -1.
       -1   -1    0    0    0  501  0.00000000000E+00  0.00000000000E+00 -0.28105306759E+03  0.28105306764E+03  0.50400001928E-02 0.  1.
    10030    2    1    2    0    0  0.00000000000E+00  0.00000000000E+00  0.80489106133E+03  0.13669971966E+04  0.11049125372E+04 0.  0.
        1    1    3    3  502    0 -0.19846795735E+03  0.36838962815E+03  0.84870850521E+03  0.94625925362E+03  0.50400001928E-02 0. -1.
       -1    1    3    3    0  502  0.19846795735E+03 -0.36838962815E+03 -0.43817443876E+02  0.42073794295E+03  0.50400001928E-02 0.  1.
</event>
<event>
 5   0  0.8341767E-04  0.1095415E+04  0.7818609E-02  0.9209672E-01
        1   -1    0    0  501    0  0.00000000000E+00  0.00000000000E+00  0.93508900532E+03  0.93508900533E+03  0.50400001928E-02 0. -1.
       -1   -1    0    0    0  501  0.00000000000E+00  0.00000000000E+00 -0.32080761957E+03  0.32080761961E+03  0.50400001928E-02 0.  1.
    10030    2    1    2    0    0  0.00000000000E+00  0.00000000000E+00  0.61428138574E+03  0.12558966249E+04  0.10954153147E+04 0.  0.
        2    1    3    3  502    0 -0.48550131668E+03 -0.22414616208E+03  0.44294512405E+03  0.69437267617E+03  0.25500000920E-02 0.  1.
       -2    1    3    3    0  502  0.48550131668E+03  0.22414616208E+03  0.17133626169E+03  0.56152394878E+03  0.25500000920E-02 0. -1.
</event>
<event>
 5   0  0.1429680E-03  0.1103922E+04  0.7818609E-02  0.9201378E-01
        2   -1    0    0  501    0  0.00000000000E+00  0.00000000000E+00  0.10222435220E+04  0.10222435220E+04  0.25500000920E-02 0.  1.
       -2   -1    0    0    0  501  0.00000000000E+00  0.00000000000E+00 -0.29803152433E+03  0.29803152434E+03  0.25500000920E-02 0. -1.
    10030    2    1    2    0    0  0.00000000000E+00  0.00000000000E+00  0.72421199764E+03  0.13202750463E+04  0.11039217275E+04 0.  0.
        3    1    3    3  502    0 -0.17754619945E+03 -0.28375128665E+03 -0.16279885352E+03  0.37221085761E+03  0.10100000352E+00 0. -1.
       -3    1    3    3    0  502  0.17754619945E+03  0.28375128665E+03  0.88701085115E+03  0.94806418869E+03  0.10100000352E+00 0.  1.
</event>
<event>
 5   0  0.8341767E-04  0.1145908E+04  0.7818609E-02  0.9161567E-01
        1   -1    0    0  501    0  0.00000000000E+00  0.00000000000E+00  0.42088003080E+03  0.42088003083E+03  0.50400001928E-02 0. -1.
       -1   -1    0    0    0  501  0.00000000000E+00  0.00000000000E+00 -0.77997602214E+03  0.77997602216E+03  0.50400001928E-02 0.  1.
    10030    2    1    2    0    0  0.00000000000E+00  0.00000000000E+00 -0.35909599134E+03  0.12008560530E+04  0.11459080805E+04 0.  0.
        2    1    3    3  502    0 -0.12056399139E+03  0.26972321235E+03  0.33489910140E+03  0.44659119497E+03  0.25500000920E-02 0. -1.
       -2    1    3    3    0  502  0.12056399139E+03 -0.26972321235E+03 -0.69399509274E+03  0.75426485802E+03  0.25500000920E-02 0.  1.
</event>
<event>
 5   0  0.1402775E-03  0.1099351E+04  0.7818609E-02  0.9205825E-01
        2   -1    0    0  501    0  0.00000000000E+00  0.00000000000E+00  0.12683090156E+04  0.12683090156E+04  0.25500000920E-02 0.  1.
       -2   -1    0    0    0  501  0.00000000000E+00  0.00000000000E+00 -0.23822512996E+03  0.23822512998E+03  0.25500000920E-02 0. -1.
    10030    2    1    2    0    0  0.00000000000E+00  0.00000000000E+00  0.10300838856E+04  0.15065341456E+04  0.10993508632E+04 0.  0.
        5    1    3    3  502    0 -0.53976332805E+03  0.69486679137E+02  0.40935209018E+03  0.68100225595E+03  0.46999998093E+01 0. -1.
       -5    1    3    3    0  502  0.53976332805E+03 -0.69486679137E+02  0.62073179544E+03  0.82553188961E+03  0.46999998093E+01 0.  1.
</event>
<event>
 5   0  0.1372794E-03  0.1091628E+04  0.7818609E-02  0.9213391E-01
        2   -1    0    0  501    0  0.00000000000E+00  0.00000000000E+00  0.87960236919E+03  0.87960236919E+03  0.25500000920E-02 0.  1.
       -2   -1    0    0    0  501  0.00000000000E+00  0.00000000000E+00 -0.33869032046E+03  0.33869032047E+03  0.25500000920E-02 0. -1.
    10030    2    1    2    0    0  0.00000000000E+00  0.00000000000E+00  0.54091204873E+03  0.12182926897E+04  0.10916277906E+04 0.  0.
        4    1    3    3  502    0  0.65182265974E+01 -0.43939154088E+02  0.87758011400E+03  0.87870450433E+03  0.12699999809E+01 0.  1.
       -4    1    3    3    0  502 -0.65182265974E+01  0.43939154088E+02 -0.33666806527E+03  0.33958818533E+03  0.12699999809E+01 0. -1.
</event>
<event>
 5   0  0.8305271E-04  0.1098447E+04  0.7818609E-02  0.9206707E-01
       -1   -1    0    0    0  501  0.00000000000E+00  0.00000000000E+00  0.29621973929E+03  0.29621973933E+03  0.50400001928E-02 0.  1.
        1   -1    0    0  501    0  0.00000000000E+00  0.00000000000E+00 -0.10183194952E+04  0.10183194952E+04  0.50400001928E-02 0. -1.
    10030    2    1    2    0    0  0.00000000000E+00  0.00000000000E+00 -0.72209975590E+03  0.13145392345E+04  0.10984467860E+04 0.  0.
        5    1    3    3  502    0  0.53753549185E+03  0.73920526133E+02 -0.25939443386E+03  0.60142847580E+03  0.46999998093E+01 0.  1.
       -5    1    3    3    0  502 -0.53753549185E+03 -0.73920526133E+02 -0.46270532203E+03  0.71311075873E+03  0.46999998093E+01 0. -1.
</event>
<event>
 5   0  0.8150924E-04  0.1100626E+04  0.7818609E-02  0.9204582E-01
       -1   -1    0    0    0  501  0.00000000000E+00  0.00000000000E+00  0.33650062888E+03  0.33650062892E+03  0.50400001928E-02 0. -1.
        1   -1    0    0  501    0  0.00000000000E+00  0.00000000000E+00 -0.89998234053E+03  0.89998234054E+03  0.50400001928E-02 0.  1.
    10030    2    1    2    0    0  0.00000000000E+00  0.00000000000E+00 -0.56348171165E+03  0.12364829695E+04  0.11006264100E+04 0.  0.
        3    1    3    3  502    0  0.10723759910E+01  0.40348089757E+03 -0.70216198923E+03  0.80983297909E+03  0.10100000352E+00 0.  1.
       -3    1    3    3    0  502 -0.10723759910E+01 -0.40348089757E+03  0.13868027758E+03  0.42664999037E+03  0.10100000352E+00 0. -1.
</event>
<event>
 5   0  0.7946038E-04  0.1098343E+04  0.7818609E-02  0.9206809E-01
        1   -1    0    0  501    0  0.00000000000E+00  0.00000000000E+00  0.88339471413E+03  0.88339471415E+03  0.50400001928E-02 0.  1.
       -1   -1    0    0    0  501  0.00000000000E+00  0.00000000000E+00 -0.34139806780E+03  0.34139806784E+03  0.50400001928E-02 0. -1.
    10030    2    1    2    0    0  0.00000000000E+00  0.00000000000E+00  0.54199664633E+03  0.12247927820E+04  0.10983428400E+04 0.  0.
        4    1    3    3  502    0  0.52889441489E+03  0.10745814301E+03  0.15776433722E+03  0.56228796324E+03  0.12699999809E+01 0. -1.
       -4    1    3    3    0  502 -0.52889441489E+03 -0.10745814301E+03  0.38423230911E+03  0.66250481875E+03  0.12699999809E+01 0.  1.
</event>
<event>
 5   0  0.8305271E-04  0.1095316E+04  0.7818609E-02  0.9209769E-01
       -1   -1    0    0    0  501  0.00000000000E+00  0.00000000000E+00  0.82082371240E+03  0.82082371242E+03  0.50400001928E-02 0.  1.
        1   -1    0    0  501    0  0.00000000000E+00  0.00000000000E+00 -0.36540048901E+03  0.36540048905E+03  0.50400001928E-02 0. -1.
    10030    2    1    2    0    0  0.00000000000E+00  0.00000000000E+00  0.45542322339E+03  0.11862242015E+04  0.10953161844E+04 0.  0.
        5    1    3    3  502    0 -0.48855964250E+03 -0.11298432165E+02 -0.39964243978E+02  0.49034417468E+03  0.46999998093E+01 0. -1.
       -5    1    3    3    0  502  0.48855964250E+03  0.11298432165E+02  0.49538746737E+03  0.69588002678E+03  0.46999998093E+01 0.  1.
</event>
<event>
 5   0  0.1396936E-03  0.1101315E+04  0.7818609E-02  0.9203912E-01
       -2   -1    0    0    0  501  0.00000000000E+00  0.00000000000E+00  0.16067732067E+03  0.16067732069E+03  0.25500000920E-02 0.  1.
        2   -1    0    0  501    0  0.00000000000E+00  0.00000000000E+00 -0.18871575725E+04  0.18871575725E+04  0.25500000920E-02 0. -1.
    10030    2    1    2    0    0  0.00000000000E+00  0.00000000000E+00 -0.17264802518E+04  0.20478348932E+04  0.11013145281E+04 0.  0.
        2    1    3    3  502    0  0.29855171826E+03 -0.29351144389E+03 -0.19813699137E+03  0.46318502083E+03  0.25500000920E-02 0.  1.
       -2    1    3    3    0  502 -0.29855171826E+03  0.29351144389E+03 -0.15283432604E+04  0.15846498723E+04  0.25500000920E-02 0. -1.
</event>
<event>
 5   0  0.8341767E-04  0.1099936E+04  0.7818609E-02  0.9205254E-01
        1   -1    0    0  501    0  0.00000000000E+00  0.00000000000E+00  0.97412889924E+03  0.97412889925E+03  0.50400001928E-02 0.  1.
       -1   -1    0    0    0  501  0.00000000000E+00  0.00000000000E+00 -0.31049783627E+03  0.31049783631E+03  0.50400001928E-02 0. -1.
    10030    2    1    2    0    0  0.00000000000E+00  0.00000000000E+00  0.66363106297E+03  0.12846267356E+04  0.10999362081E+04 0.  0.
        2    1    3    3  502    0  0.22441159935E+02 -0.42917761469E+03 -0.68980022524E+02  0.43526460243E+03  0.25500000920E-02 0. -1.
       -2    1    3    3    0  502 -0.22441159935E+02  0.42917761469E+03  0.73261108549E+03  0.84936213313E+03  0.25500000920E-02 0.  1.
</event>
<event>
 5   0  0.1402775E-03  0.1094561E+04  0.7818609E-02  0.9210509E-01
       -2   -1    0    0    0  501  0.00000000000E+00  0.00000000000E+00  0.32963776227E+03  0.32963776228E+03  0.25500000920E-02 0. -1.
        2   -1    0    0  501    0  0.00000000000E+00  0.00000000000E+00 -0.90862172084E+03  0.90862172085E+03  0.25500000920E-02 0.  1.
    10030    2    1    2    0    0  0.00000000000E+00  0.00000000000E+00 -0.57898395857E+03  0.12382594831E+04  0.10945611556E+04 0.  0.
        5    1    3    3  502    0  0.38300092216E+03 -0.38567075579E+03 -0.36159571477E+03  0.65284392407E+03  0.46999998093E+01 0.  1.
       -5    1    3    3    0  502 -0.38300092216E+03  0.38567075579E+03 -0.21738824380E+03  0.58541555906E+03  0.46999998093E+01 0. -1.
</event>
<event>
 5   0  0.8009636E-04  0.1099370E+04  0.7818609E-02  0.9205806E-01
        1   -1    0    0  501    0  0.00000000000E+00  0.00000000000E+00  0.11425558668E+04  0.11425558668E+04  0.50400001928E-02 0.  1.
       -1   -1    0    0    0  501  0.00000000000E+00  0.00000000000E+00 -0.26445406685E+03  0.26445406690E+03  0.50400001928E-02 0. -1.
    10030    2    1    2    0    0  0.00000000000E+00  0.00000000000E+00  0.87810179993E+03  0.14070099337E+04  0.10993699025E+04 0.  0.
        1    1    3    3  502    0 -0.30557930153E+03 -0.21214766818E+03  0.95697737586E+03  0.10267380584E+04  0.50400001928E-02 0.  1.
       -1    1    3    3    0  502  0.30557930153E+03  0.21214766818E+03 -0.78875575926E+02  0.38027187529E+03  0.50400001928E-02 0. -1.
</event>
<event>
 5   0  0.1429680E-03  0.1100861E+04  0.7818609E-02  0.9204353E-01
       -2   -1    0    0    0  501  0.00000000000E+00  0.00000000000E+00  0.47610720088E+03  0.47610720089E+03  0.25500000920E-02 0. -1.
        2   -1    0    0  501    0  0.00000000000E+00  0.00000000000E+00 -0.63635595275E+03  0.63635595276E+03  0.25500000920E-02 0.  1.
    10030    2    1    2    0    0  0.00000000000E+00  0.00000000000E+00 -0.16024875187E+03  0.11124631536E+04  0.11008608476E+04 0.  0.
        3    1    3    3  502    0 -0.45563960450E+03  0.20681898640E+03  0.15162227197E+03  0.52284879830E+03  0.10100000352E+00 0. -1.
       -3    1    3    3    0  502  0.45563960450E+03 -0.20681898640E+03 -0.31187102384E+03  0.58961435535E+03  0.10100000352E+00 0.  1.
</event>
<event>
 5   0  0.1402775E-03  0.1097879E+04  0.7818609E-02  0.9207262E-01
        2   -1    0    0  501    0  0.00000000000E+00  0.00000000000E+00  0.59301516641E+03  0.59301516641E+03  0.25500000920E-02 0. -1.
       -2   -1    0    0    0  501  0.00000000000E+00  0.00000000000E+00 -0.50813952271E+03  0.50813952272E+03  0.25500000920E-02 0.  1.
    10030    2    1    2    0    0  0.00000000000E+00  0.00000000000E+00  0.84875643698E+02  0.11011546891E+04  0.10978787613E+04 0.  0.
        5    1    3    3  502    0 -0.20901984113E+03  0.46941401840E+03 -0.15120181678E+03  0.53565184033E+03  0.46999998093E+01 0.  1.
       -5    1    3    3    0  502  0.20901984113E+03 -0.46941401840E+03  0.23607746048E+03  0.56550284880E+03  0.46999998093E+01 0. -1.
</event>
<event>
 5   0  0.1402775E-03  0.1129517E+04  0.7818609E-02  0.9176891E-01
       -2   -1    0    0    0  501  0.00000000000E+00  0.00000000000E+00  0.23091392983E+03  0.23091392984E+03  0.25500000920E-02 0. -1.
        2   -1    0    0  501    0  0.00000000000E+00  0.00000000000E+00 -0.13812593411E+04  0.13812593411E+04  0.25500000920E-02 0.  1.
    10030    2    1    2    0    0  0.00000000000E+00  0.00000000000E+00 -0.11503454113E+04  0.16121732710E+04  0.11295167508E+04 0.  0.
        5    1    3    3  502    0 -0.55950081281E+03  0.87816585288E+01 -0.68398274631E+03  0.88372663438E+03  0.46999998093E+01 0.  1.
       -5    1    3    3    0  502  0.55950081281E+03 -0.87816585288E+01 -0.46636266499E+03  0.72844663659E+03  0.46999998093E+01 0. -1.
</event>
<event>
 5   0  0.1429680E-03  0.1087340E+04  0.7818609E-02  0.9217620E-01
        2   -1    0    0  501    0  0.00000000000E+00  0.00000000000E+00  0.98962718744E+03  0.98962718745E+03  0.25500000920E-02 0.  1.
       -2   -1    0    0    0  501  0.00000000000E+00  0.00000000000E+00 -0.29867507952E+03  0.29867507953E+03  0.25500000920E-02 0. -1.
    10030    2    1    2    0    0  0.00000000000E+00  0.00000000000E+00  0.69095210792E+03  0.12883022670E+04  0.10873398345E+04 0.  0.
        3    1    3    3  502    0  0.34134405550E+03  0.41952238352E+03  0.27991175530E+03  0.60898718825E+03  0.10100000352E+00 0.  1.
       -3    1    3    3    0  502 -0.34134405550E+03 -0.41952238352E+03  0.41104035263E+03  0.67931507873E+03  0.10100000352E+00 0. -1.
</event>
<event>
 5   0  0.8009636E-04  0.1102719E+04  0.7818609E-02  0.9202546E-01
       -1   -1    0    0    0  501  0.00000000000E+00  0.00000000000E+00  0.18161386779E+03  0.18161386786E+03  0.50400001928E-02 0. -1.
        1   -1    0    0  501    0  0.00000000000E+00  0.00000000000E+00 -0.16738661937E+04  0.16738661937E+04  0.50400001928E-02 0.  1.
    10030    2    1    2    0    0  0.00000000000E+00  0.00000000000E+00 -0.14922523259E+04  0.18554800616E+04  0.11027190280E+04 0.  0.
        1    1    3    3  502    0 -0.66773361899E+02 -0.32117731538E+03 -0.14917919431E+04  0.15274346962E+04  0.50400001928E-02 0.  1.
       -1    1    3    3    0  502  0.66773361899E+02  0.32117731538E+03 -0.46038286733E+00  0.32804536538E+03  0.50400001928E-02 0. -1.
</event>
<event>
 5   0  0.8341767E-04  0.1165283E+04  0.7818609E-02  0.9143799E-01
        1   -1    0    0  501    0  0.00000000000E+00  0.00000000000E+00  0.39906041596E+03  0.39906041599E+03  0.50400001928E-02 0.  1.
       -1   -1    0    0    0  501  0.00000000000E+00  0.00000000000E+00 -0.85067666145E+03  0.85067666147E+03  0.50400001928E-02 0. -1.
    10030    2    1    2    0    0  0.00000000000E+00  0.00000000000E+00 -0.45161624550E+03  0.12497370775E+04  0.11652834546E+04 0.  0.
        2    1    3    3  502    0  0.46675175977E+03  0.26114211744E+03 -0.47368432649E+03  0.71444331609E+03  0.25500000920E-02 0. -1.
       -2    1    3    3    0  502 -0.46675175977E+03 -0.26114211744E+03  0.22068080991E+02  0.53529376136E+03  0.25500000920E-02 0.  1.
</event>
<event>
 5   0  0.8305271E-04  0.1105258E+04  0.7818609E-02  0.9200082E-01
        1   -1    0    0  501    0  0.00000000000E+00  0.00000000000E+00  0.76480246802E+03  0.76480246803E+03  0.50400001928E-02 0.  1.
       -1   -1    0    0    0  501  0.00000000000E+00  0.00000000000E+00 -0.39931729494E+03  0.39931729497E+03  0.50400001928E-02 0. -1.
    10030    2    1    2    0    0  0.00000000000E+00  0.00000000000E+00  0.36548517308E+03  0.11641197630E+04  0.11052580743E+04 0.  0.
        5    1    3    3  502    0 -0.51421060668E+03 -0.18666010760E+03  0.10033097748E+03  0.55618606494E+03  0.46999998093E+01 0. -1.
       -5    1    3    3    0  502  0.51421060668E+03  0.18666010760E+03  0.26515419560E+03  0.60793369806E+03  0.46999998093E+01 0.  1.
</event>
<event>
 5   0  0.1396936E-03  0.1101887E+04  0.7818609E-02  0.9203355E-01
       -2   -1    0    0    0  501  0.00000000000E+00  0.00000000000E+00  0.23124200444E+03  0.23124200446E+03  0.25500000920E-02 0. -1.
        2   -1    0    0  501    0  0.00000000000E+00  0.00000000000E+00 -0.13126450475E+04  0.13126450475E+04  0.25500000920E-02 0.  1.
    10030    2    1    2    0    0  0.00000000000E+00  0.00000000000E+00 -0.10814030430E+04  0.15438870519E+04  0.11018868761E+04 0.  0.
        2    1    3    3  502    0 -0.16211004612E+03 -0.59997904981E+02 -0.12736671099E+04  0.12853432703E+04  0.25500000920E-02 0.  1.
       -2    1    3    3    0  502  0.16211004612E+03  0.59997904981E+02  0.19226406681E+03  0.25854378169E+03  0.25500000920E-02 0. -1.
</event>
<event>
 5   0  0.8150924E-04  0.1116427E+04  0.7818609E-02  0.9189328E-01
        1   -1    0    0  501    0  0.00000000000E+00  0.00000000000E+00  0.76819272698E+03  0.76819272699E+03  0.50400001928E-02 0. -1.
       -1   -1    0    0    0  501  0.00000000000E+00  0.00000000000E+00 -0.40563007648E+03  0.40563007651E+03  0.50400001928E-02 0.  1.
    10030    2    1    2    0    0  0.00000000000E+00  0.00000000000E+00  0.36256265050E+03  0.11738228035E+04  0.11164265755E+04 0.  0.
        3    1    3    3  502    0 -0.47339869594E+03 -0.55480716560E+02  0.48676566515E+03  0.68126739111E+03  0.10100000352E+00 0. -1.
       -3    1    3    3    0  502  0.47339869594E+03  0.55480716560E+02 -0.12420301465E+03  0.49255541239E+03  0.10100000352E+00 0.  1.
</event>
<event>
 5   0  0.7946038E-04  0.1100243E+04  0.7818609E-02  0.9204955E-01
        1   -1    0    0  501    0  0.00000000000E+00  0.00000000000E+00  0.59607583981E+03  0.59607583983E+03  0.50400001928E-02 0.  1.
       -1   -1    0    0    0  501  0.00000000000E+00  0.00000000000E+00 -0.50770968142E+03  0.50770968144E+03  0.50400001928E-02 0. -1.
    10030    2    1    2    0    0  0.00000000000E+00  0.00000000000E+00  0.88366158397E+02  0.11037855213E+04  0.11002426546E+04 0.  0.
        4    1    3    3  502    0 -0.40939687229E+03 -0.19997902282E+03 -0.26508618094E+03  0.52713347915E+03  0.12699999809E+01 0.  1.
       -4    1    3    3    0  502  0.40939687229E+03  0.19997902282E+03  0.35345233933E+03  0.57665204213E+03  0.12699999809E+01 0. -1.
</event>
<event>
 5   0  0.1372794E-03  0.1103970E+04  0.7818609E-02  0.9201331E-01
        2   -1    0    0  501    0  0.00000000000E+00  0.00000000000E+00  0.46956555279E+03  0.46956555280E+03  0.25500000920E-02 0. -1.
       -2   -1    0    0    0  501  0.00000000000E+00  0.00000000000E+00 -0.64887076577E+03  0.64887076578E+03  0.25500000920E-02 0.  1.
    10030    2    1    2    0    0  0.00000000000E+00  0.00000000000E+00 -0.17930521298E+03  0.11184363186E+04  0.11039698543E+04 0.  0.
        4    1    3    3  502    0  0.54679920321E+03 -0.48927328815E+01 -0.16595514408E+03  0.57145081172E+03  0.12699999809E+01 0. -1.
       -4    1    3    3    0  502 -0.54679920321E+03  0.48927328815E+01 -0.13350068900E+02  0.54698550685E+03  0.12699999809E+01 0.  1.
</event>
<event>
 5   0  0.5409500E-04  0.1098896E+04  0.7818609E-02  0.9206269E-01
       -3   -1    0    0    0  501  0.00000000000E+00  0.00000000000E+00  0.58841868246E+03  0.58841869113E+03  0.10100000352E+00 0. -1.
        3   -1    0    0  501    0  0.00000000000E+00  0.00000000000E+00 -0.51305821867E+03  0.51305822861E+03  0.10100000352E+00 0.  1.
    10030    2    1    2    0    0  0.00000000000E+00  0.00000000000E+00  0.75360463787E+02  0.11014769197E+04  0.10988959028E+04 0.  0.
        5    1    3    3  502    0 -0.23395159327E+03  0.47474290523E+03  0.18552849598E+03  0.56085389084E+03  0.46999998093E+01 0.  1.
       -5    1    3    3    0  502  0.23395159327E+03 -0.47474290523E+03 -0.11016803219E+03  0.54062302889E+03  0.46999998093E+01 0. -1.
</event>
<event>
 5   0  0.7946038E-04  0.1094012E+04  0.7818609E-02  0.9211048E-01
        1   -1    0    0  501    0  0.00000000000E+00  0.00000000000E+00  0.10000528130E+04  0.10000528130E+04  0.50400001928E-02 0.  1.
       -1   -1    0    0    0  501  0.00000000000E+00  0.00000000000E+00 -0.29919954085E+03  0.29919954089E+03  0.50400001928E-02 0. -1.
    10030    2    1    2    0    0  0.00000000000E+00  0.00000000000E+00  0.70085327214E+03  0.12992523539E+04  0.10940115950E+04 0.  0.
        4    1    3    3  502    0  0.43537034585E+02  0.17828099310E+03 -0.26154567642E+03  0.31951109470E+03  0.12699999809E+01 0. -1.
       -4    1    3    3    0  502 -0.43537034585E+02 -0.17828099310E+03  0.96239894856E+03  0.97974125919E+03  0.12699999809E+01 0.  1.
</event>
<event>
 5   0  0.7946038E-04  0.1100622E+04  0.7818609E-02  0.9204586E-01
        1   -1    0    0  501    0  0.00000000000E+00  0.00000000000E+00  0.14799830876E+04  0.14799830876E+04  0.50400001928E-02 0.  1.
       -1   -1    0    0    0  501  0.00000000000E+00  0.00000000000E+00 -0.20462552053E+03  0.20462552059E+03  0.50400001928E-02 0. -1.
    10030    2    1    2    0    0  0.00000000000E+00  0.00000000000E+00  0.12753575671E+04  0.16846086082E+04  0.11006222054E+04 0.  0.
        4    1    3    3  502    0 -0.27916988918E+03  0.18371299169E+03  0.13068741141E+04  0.13489284092E+04  0.12699999809E+01 0.  1.
       -4    1    3    3    0  502  0.27916988918E+03 -0.18371299169E+03 -0.31516546988E+02  0.33568019896E+03  0.12699999809E+01 0. -1.
</event>
<event>
 5   0  0.8009636E-04  0.1100940E+04  0.7818609E-02  0.9204276E-01
        1   -1    0    0  501    0  0.00000000000E+00  0.00000000000E+00  0.89497076676E+03  0.89497076678E+03  0.50400001928E-02 0.  1.
       -1   -1    0    0    0  501  0.00000000000E+00  0.00000000000E+00 -0.33857793555E+03  0.33857793559E+03  0.50400001928E-02 0. -1.
    10030    2    1    2    0    0  0.00000000000E+00  0.00000000000E+00  0.55639283121E+03  0.12335487024E+04  0.11009402429E+04 0.  0.
        1    1    3    3  502    0 -0.25370937550E+03  0.20347335627E+03 -0.21942413606E+03  0.39232232340E+03  0.50400001928E-02 0. -1.
       -1    1    3    3    0  502  0.25370937550E+03 -0.20347335627E+03  0.77581696727E+03  0.84122637896E+03  0.50400001928E-02 0.  1.
</event>
<event>
 5   0  0.1425432E-03  0.1109531E+04  0.7818609E-02  0.9195951E-01
        2   -1    0    0  501    0  0.00000000000E+00  0.00000000000E+00  0.14613572274E+04  0.14613572274E+04  0.25500000920E-02 0.  1.
       -2   -1    0    0    0  501  0.00000000000E+00  0.00000000000E+00 -0.21060214134E+03  0.21060214136E+03  0.25500000920E-02 0. -1.
    10030    2    1    2    0    0  0.00000000000E+00  0.00000000000E+00  0.12507550860E+04  0.16719593687E+04  0.11095313630E+04 0.  0.
        1    1    3    3  502    0  0.15759687373E+03  0.99722112158E+02 -0.16194825845E+03  0.24699901357E+03  0.50400001928E-02 0. -1.
       -1    1    3    3    0  502 -0.15759687373E+03 -0.99722112158E+02  0.14127033445E+04  0.14249603551E+04  0.50400001928E-02 0.  1.
</event>
<event>
 5   0  0.8150924E-04  0.1075618E+04  0.7818609E-02  0.9229287E-01
        1   -1    0    0  501    0  0.00000000000E+00  0.00000000000E+00  0.13035145200E+04  0.13035145200E+04  0.50400001928E-02 0. -1.
       -1   -1    0    0    0  501  0.00000000000E+00  0.00000000000E+00 -0.22189149486E+03  0.22189149492E+03  0.50400001928E-02 0.  1.
    10030    2    1    2    0    0  0.00000000000E+00  0.00000000000E+00  0.10816230251E+04  0.15254060149E+04  0.10756184927E+04 0.  0.
        3    1    3    3  502    0  0.49274030611E+03  0.35302602023E+02  0.84231613344E+03  0.97649155748E+03  0.10100000352E+00 0. -1.
       -3    1    3    3    0  502 -0.49274030611E+03 -0.35302602023E+02  0.23930689169E+03  0.54891445744E+03  0.10100000352E+00 0.  1.
</event>
<event>
 5   0  0.1396936E-03  0.1099348E+04  0.7818609E-02  0.9205828E-01
       -2   -1    0    0    0  501  0.00000000000E+00  0.00000000000E+00  0.36174565948E+03  0.36174565949E+03  0.25500000920E-02 0.  1.
        2   -1    0    0  501    0  0.00000000000E+00  0.00000000000E+00 -0.83523167967E+03  0.83523167967E+03  0.25500000920E-02 0. -1.
    10030    2    1    2    0    0  0.00000000000E+00  0.00000000000E+00 -0.47348602019E+03  0.11969773392E+04  0.10993478699E+04 0.  0.
        2    1    3    3  502    0 -0.98091515681E+02 -0.32267437407E+03 -0.70934123786E+03  0.78543344012E+03  0.25500000920E-02 0. -1.
       -2    1    3    3    0  502  0.98091515681E+02  0.32267437407E+03  0.23585521767E+03  0.41154389904E+03  0.25500000920E-02 0.  1.
</event>
<event>
 5   0  0.1429680E-03  0.1108207E+04  0.7818609E-02  0.9197230E-01
       -2   -1    0    0    0  501  0.00000000000E+00  0.00000000000E+00  0.22304061811E+03  0.22304061813E+03  0.25500000920E-02 0.  1.
        2   -1    0    0  501    0  0.00000000000E+00  0.00000000000E+00 -0.13765678487E+04  0.13765678487E+04  0.25500000920E-02 0. -1.
    10030    2    1    2    0    0  0.00000000000E+00  0.00000000000E+00 -0.11535272305E+04  0.15996084668E+04  0.11082067386E+04 0.  0.
        3    1    3    3  502    0  0.34137874842E+03 -0.35090597416E+03 -0.95137529442E+03  0.10699483229E+04  0.10100000352E+00 0. -1.
       -3    1    3    3    0  502 -0.34137874842E+03  0.35090597416E+03 -0.20215193612E+03  0.52966014391E+03  0.10100000352E+00 0.  1.
</event>
<event>
 5   0  0.5409500E-04  0.1079570E+04  0.7818609E-02  0.9225337E-01
       -3   -1    0    0    0  501  0.00000000000E+00  0.00000000000E+00  0.80238428388E+03  0.80238429023E+03  0.10100000352E+00 0. -1.
        3   -1    0    0  501    0  0.00000000000E+00  0.00000000000E+00 -0.36312730838E+03  0.36312732243E+03  0.10100000352E+00 0.  1.
    10030    2    1    2    0    0  0.00000000000E+00  0.00000000000E+00  0.43925697550E+03  0.11655116127E+04  0.10795696498E+04 0.  0.
        1    1    3    3  502    0 -0.48732245569E+03  0.22915806548E+03  0.25960404653E+03  0.59782175922E+03  0.50400001928E-02 0.  1.
       -1    1    3    3    0  502  0.48732245569E+03 -0.22915806548E+03  0.17965292896E+03  0.56768985344E+03  0.50400001928E-02 0. -1.
</event>
<event>
 5   0  0.8305271E-04  0.1099389E+04  0.7818609E-02  0.9205787E-01
       -1   -1    0    0    0  501  0.00000000000E+00  0.00000000000E+00  0.31456709452E+03  0.31456709456E+03  0.50400001928E-02 0.  1.
        1   -1    0    0  501    0  0.00000000000E+00  0.00000000000E+00 -0.96057156699E+03  0.96057156701E+03  0.50400001928E-02 0. -1.
    10030    2    1    2    0    0  0.00000000000E+00  0.00000000000E+00 -0.64600447247E+03  0.12751386616E+04  0.10993892976E+04 0.  0.
        5    1    3    3  502    0 -0.15238822396E+03 -0.33434072117E+03 -0.79718002532E+03  0.87779494838E+03  0.46999998093E+01 0. -1.
       -5    1    3    3    0  502  0.15238822396E+03  0.33434072117E+03  0.15117555285E+03  0.39734371319E+03  0.46999998093E+01 0.  1.
</event>
<event>
 5   0  0.1372794E-03  0.1099516E+04  0.7818609E-02  0.9205664E-01
       -2   -1    0    0    0  501  0.00000000000E+00  0.00000000000E+00  0.63165920321E+03  0.63165920322E+03  0.25500000920E-02 0.  1.
        2   -1    0    0  501    0  0.00000000000E+00  0.00000000000E+00 -0.47847583454E+03  0.47847583454E+03  0.25500000920E-02 0. -1.
    10030    2    1    2    0    0  0.00000000000E+00  0.00000000000E+00  0.15318336867E+03  0.11101350378E+04  0.10995156468E+04 0.  0.
        4    1    3    3  502    0 -0.20369383710E+02  0.40443619206E+03  0.45200063211E+03  0.60686879106E+03  0.12699999809E+01 0.  1.
       -4    1    3    3    0  502  0.20369383710E+02 -0.40443619206E+03 -0.29881726343E+03  0.50326624670E+03  0.12699999809E+01 0. -1.
</event>
<event>
 5   0  0.1372794E-03  0.1101053E+04  0.7818609E-02  0.9204166E-01
        2   -1    0    0  501    0  0.00000000000E+00  0.00000000000E+00  0.17632786175E+04  0.17632786175E+04  0.25500000920E-02 0. -1.
       -2   -1    0    0    0  501  0.00000000000E+00  0.00000000000E+00 -0.17188391930E+03  0.17188391932E+03  0.25500000920E-02 0.  1.
    10030    2    1    2    0    0  0.00000000000E+00  0.00000000000E+00  0.15913946982E+04  0.19351625368E+04  0.11010526593E+04 0.  0.
        4    1    3    3  502    0 -0.10999802983E+03 -0.52086924284E+03  0.54917977985E+03  0.76485578915E+03  0.12699999809E+01 0.  1.
       -4    1    3    3    0  502  0.10999802983E+03  0.52086924284E+03  0.10422149184E+04  0.11703067477E+04  0.12699999809E+01 0. -1.
</event>
<event>
 5   0  0.1396936E-03  0.1094749E+04  0.7818609E-02  0.9210325E-01
       -2   -1    0    0    0  501  0.00000000000E+00  0.00000000000E+00  0.28346740511E+03  0.28346740512E+03  0.25500000920E-02 0. -1.
        2   -1    0    0  501    0  0.00000000000E+00  0.00000000000E+00 -0.10569790212E+04  0.10569790212E+04  0.25500000920E-02 0.  1.
    10030    2    1    2    0    0  0.00000000000E+00  0.00000000000E+00 -0.77351161614E+03  0.13404464264E+04  0.10947494698E+04 0.  0.
        2    1    3    3  502    0 -0.57910255262E+02 -0.51812043264E+03 -0.59097082625E+03  0.78806655675E+03  0.25500000920E-02 0.  1.
       -2    1    3    3    0  502  0.57910255262E+02  0.51812043264E+03 -0.18254078988E+03  0.55237986962E+03  0.25500000920E-02 0. -1.
</event>
<event>
 5   0  0.8305271E-04  0.1094776E+04  0.7818609E-02  0.9210298E-01
       -1   -1    0    0    0  501  0.00000000000E+00  0.00000000000E+00  0.27379305107E+03  0.27379305111E+03  0.50400001928E-02 0. -1.
        1   -1    0    0  501    0  0.00000000000E+00  0.00000000000E+00 -0.10943806345E+04  0.10943806345E+04  0.50400001928E-02 0.  1.
    10030    2    1    2    0    0  0.00000000000E+00  0.00000000000E+00 -0.82058758346E+03  0.13681736857E+04  0.10947763479E+04 0.  0.
        5    1    3    3  502    0 -0.29434180994E+03  0.26442815090E+03  0.62382003261E+02  0.40059075425E+03  0.46999998093E+01 0. -1.
       -5    1    3    3    0  502  0.29434180994E+03 -0.26442815090E+03 -0.88296958672E+03  0.96758293140E+03  0.46999998093E+01 0.  1.
</event>
<event>
 5   0  0.1429680E-03  0.1100594E+04  0.7818609E-02  0.9204613E-01
        2   -1    0    0  501    0  0.00000000000E+00  0.00000000000E+00  0.94262803240E+03  0.94262803241E+03  0.25500000920E-02 0.  1.
       -2   -1    0    0    0  501  0.00000000000E+00  0.00000000000E+00 -0.32125827814E+03  0.32125827815E+03  0.25500000920E-02 0. -1.
    10030    2    1    2    0    0  0.00000000000E+00  0.00000000000E+00  0.62136975426E+03  0.12638863106E+04  0.11005944914E+04 0.  0.
        3    1    3    3  502    0 -0.43601461181E+03 -0.13978865951E+03  0.66122364531E+03  0.80428000744E+03  0.10100000352E+00 0.  1.
       -3    1    3    3    0  502  0.43601461181E+03  0.13978865951E+03 -0.39853891051E+02  0.45960630313E+03  0.10100000352E+00 0. -1.
</event>
<event>
 5   0  0.5409500E-04  0.1096238E+04  0.7818609E-02  0.9208866E-01
       -3   -1    0    0    0  501  0.00000000000E+00  0.00000000000E+00  0.15505761321E+04  0.15505761353E+04  0.10100000352E+00 0.  1.
        3   -1    0    0  501    0  0.00000000000E+00  0.00000000000E+00 -0.19375669813E+03  0.19375672445E+03  0.10100000352E+00 0. -1.
    10030    2    1    2    0    0  0.00000000000E+00  0.00000000000E+00  0.13568194339E+04  0.17443328598E+04  0.10962381810E+04 0.  0.
        2    1    3    3  502    0  0.25397324654E+03 -0.48249729119E+03  0.76741010925E+03  0.94139488088E+03  0.25500000920E-02 0. -1.
       -2    1    3    3    0  502 -0.25397324654E+03  0.48249729119E+03  0.58940932467E+03  0.80293797891E+03  0.25500000920E-02 0.  1.
</event>
<event>
 5   0  0.8150924E-04  0.1080646E+04  0.7818609E-02  0.9224263E-01
       -1   -1    0    0    0  501  0.00000000000E+00  0.00000000000E+00  0.20485040159E+03  0.20485040165E+03  0.50400001928E-02 0.  1.
        1   -1    0    0  501    0  0.00000000000E+00  0.00000000000E+00 -0.14251817308E+04  0.14251817309E+04  0.50400001928E-02 0. -1.
    10030    2    1    2    0    0  0.00000000000E+00  0.00000000000E+00 -0.12203313293E+04  0.16300321325E+04  0.10806461955E+04 0.  0.
        3    1    3    3  502    0  0.37530583468E+03 -0.26663064998E+03 -0.10368089044E+04  0.11344245623E+04  0.10100000352E+00 0.  1.
       -3    1    3    3    0  502 -0.37530583468E+03  0.26663064998E+03 -0.18352242486E+03  0.49560757024E+03  0.10100000352E+00 0. -1.
</event>
<event>
 5   0  0.5409500E-04  0.1099345E+04  0.7818609E-02  0.9205830E-01
        3   -1    0    0  501    0  0.00000000000E+00  0.00000000000E+00  0.10517617598E+04  0.10517617647E+04  0.10100000352E+00 0. -1.
       -3   -1    0    0    0  501  0.00000000000E+00  0.00000000000E+00 -0.28727030477E+03  0.28727032252E+03  0.10100000352E+00 0.  1.
    10030    2    1    2    0    0  0.00000000000E+00  0.00000000000E+00  0.76449145507E+03  0.13390320872E+04  0.10993451440E+04 0.  0.
        2    1    3    3  502    0  0.27156213597E+03 -0.29087190515E+03  0.84411328138E+03  0.93320934988E+03  0.25500000920E-02 0. -1.
       -2    1    3    3    0  502 -0.27156213597E+03  0.29087190515E+03 -0.79621826313E+02  0.40582273732E+03  0.25500000920E-02 0.  1.
</event>
<event>
 5   0  0.1372794E-03  0.1083765E+04  0.7818609E-02  0.9221162E-01
       -2   -1    0    0    0  501  0.00000000000E+00  0.00000000000E+00  0.26071453234E+04  0.26071453234E+04  0.25500000920E-02 0.  1.
        2   -1    0    0  501    0  0.00000000000E+00  0.00000000000E+00 -0.11262756519E+03  0.11262756522E+03  0.25500000920E-02 0. -1.
    10030    2    1    2    0    0  0.00000000000E+00  0.00000000000E+00  0.24945177582E+04  0.27197728886E+04  0.10837646053E+04 0.  0.
        4    1    3    3  502    0  0.35638447929E+02  0.75440168457E+02 -0.96407500623E+02  0.12750426292E+03  0.12699999809E+01 0. -1.
       -4    1    3    3    0  502 -0.35638447929E+02 -0.75440168457E+02  0.25909252588E+04  0.25922686257E+04  0.12699999809E+01 0.  1.
</event>
<event>
 5   0  0.7946038E-04  0.1100430E+04  0.7818609E-02  0.9204773E-01
       -1   -1    0    0    0  501  0.00000000000E+00  0.00000000000E+00  0.22285051855E+03  0.22285051861E+03  0.50400001928E-02 0. -1.
        1   -1    0    0  501    0  0.00000000000E+00  0.00000000000E+00 -0.13584735914E+04  0.13584735914E+04  0.50400001928E-02 0.  1.
    10030    2    1    2    0    0  0.00000000000E+00  0.00000000000E+00 -0.11356230728E+04  0.15813241100E+04  0.11004299966E+04 0.  0.
        4    1    3    3  502    0 -0.43549663548E+03  0.27962044696E+03 -0.29939512469E+03  0.59789962992E+03  0.12699999809E+01 0.  1.
       -4    1    3    3    0  502  0.43549663548E+03 -0.27962044696E+03 -0.83622794813E+03  0.98342448007E+03  0.12699999809E+01 0. -1.
</event>
<event>
 5   0  0.8150924E-04  0.1100200E+04  0.7818609E-02  0.9204997E-01
        1   -1    0    0  501    0  0.00000000000E+00  0.00000000000E+00  0.68135583940E+03  0.68135583942E+03  0.50400001928E-02 0. -1.
       -1   -1    0    0    0  501  0.00000000000E+00  0.00000000000E+00 -0.44412911213E+03  0.44412911216E+03  0.50400001928E-02 0.  1.
    10030    2    1    2    0    0  0.00000000000E+00  0.00000000000E+00  0.23722672727E+03  0.11254849516E+04  0.11001999164E+04 0.  0.
        3    1    3    3  502    0 -0.41233402637E+03  0.21486976211E+03  0.41934506462E+03  0.62612990457E+03  0.10100000352E+00 0. -1.
       -3    1    3    3    0  502  0.41233402637E+03 -0.21486976211E+03 -0.18211833735E+03  0.49935504701E+03  0.10100000352E+00 0.  1.
</event>
<event>
 5   0  0.1396936E-03  0.1091307E+04  0.7818609E-02  0.9213706E-01
       -2   -1    0    0    0  501  0.00000000000E+00  0.00000000000E+00  0.52410486170E+03  0.52410486170E+03  0.25500000920E-02 0. -1.
        2   -1    0    0  501    0  0.00000000000E+00  0.00000000000E+00 -0.56808850738E+03  0.56808850739E+03  0.25500000920E-02 0.  1.
    10030    2    1    2    0    0  0.00000000000E+00  0.00000000000E+00 -0.43983645685E+02  0.10921933691E+04  0.10913073785E+04 0.  0.
        2    1    3    3  502    0  0.21096178040E+02  0.24429579623E+03  0.46585901225E+03  0.52645047639E+03  0.25500000920E-02 0. -1.
       -2    1    3    3    0  502 -0.21096178040E+02 -0.24429579623E+03 -0.50984265794E+03  0.56574289270E+03  0.25500000920E-02 0.  1.
</event>
<event>
 5   0  0.8150924E-04  0.1102307E+04  0.7818609E-02  0.9202946E-01
       -1   -1    0    0    0  501  0.00000000000E+00  0.00000000000E+00  0.38842186830E+03  0.38842186833E+03  0.50400001928E-02 0. -1.
        1   -1    0    0  501    0  0.00000000000E+00  0.00000000000E+00 -0.78206249815E+03  0.78206249817E+03  0.50400001928E-02 0.  1.
    10030    2    1    2    0    0  0.00000000000E+00  0.00000000000E+00 -0.39364062985E+03  0.11704843665E+04  0.11023069930E+04 0.  0.
        3    1    3    3  502    0  0.40987023506E+02  0.41081343387E+03  0.19089670454E+03  0.45485071787E+03  0.10100000352E+00 0. -1.
       -3    1    3    3    0  502 -0.40987023506E+02 -0.41081343387E+03 -0.58453733440E+03  0.71563364863E+03  0.10100000352E+00 0.  1.
</event>
<event>
 5   0  0.1372794E-03  0.1102250E+04  0.7818609E-02  0.9203001E-01
       -2   -1    0    0    0  501  0.00000000000E+00  0.00000000000E+00  0.23530434343E+03  0.23530434344E+03  0.25500000920E-02 0.  1.
        2   -1    0    0  501    0  0.00000000000E+00  0.00000000000E+00 -0.12908345621E+04  0.12908345621E+04  0.25500000920E-02 0. -1.
    10030    2    1    2    0    0  0.00000000000E+00  0.00000000000E+00 -0.10555302187E+04  0.15261389055E+04  0.11022503874E+04 0.  0.
        4    1    3    3  502    0 -0.50565124936E+03 -0.65326425696E+02 -0.23804102044E+03  0.56268629643E+03  0.12699999809E+01 0.  1.
       -4    1    3    3    0  502  0.50565124936E+03  0.65326425696E+02 -0.81748919822E+03  0.96345260910E+03  0.12699999809E+01 0. -1.
</event>
<event>
 5   0  0.1425432E-03  0.1100985E+04  0.7818609E-02  0.9204232E-01
       -2   -1    0    0    0  501  0.00000000000E+00  0.00000000000E+00  0.58932310297E+03  0.58932310298E+03  0.25500000920E-02 0.  1.
        2   -1    0    0  501    0  0.00000000000E+00  0.00000000000E+00 -0.51422047719E+03  0.51422047719E+03  0.25500000920E-02 0. -1.
    10030    2    1    2    0    0  0.00000000000E+00  0.00000000000E+00  0.75102625784E+02  0.11035435802E+04  0.11009850267E+04 0.  0.
        1    1    3    3  502    0 -0.33673000346E+03 -0.28506784247E+01  0.47404786647E+03  0.58147794570E+03  0.50400001928E-02 0.  1.
       -1    1    3    3    0  502  0.33673000346E+03  0.28506784247E+01 -0.39894524069E+03  0.52206563447E+03  0.50400001928E-02 0. -1.
</event>
<event>
 5   0  0.1425432E-03  0.1100378E+04  0.7818609E-02  0.9204823E-01
       -2   -1    0    0    0  501  0.00000000000E+00  0.00000000000E+00  0.33042351446E+03  0.33042351447E+03  0.25500000920E-02 0. -1.
        2   -1    0    0  501    0  0.00000000000E+00  0.00000000000E+00 -0.91612115231E+03  0.91612115231E+03  0.25500000920E-02 0.  1.
    10030    2    1    2    0    0  0.00000000000E+00  0.00000000000E+00 -0.58569763785E+03  0.12465446668E+04  0.11003780638E+04 0.  0.
        1    1    3    3  502    0  0.12084175854E+02 -0.54877410125E+03 -0.25032712868E+03  0.60329322297E+03  0.50400001928E-02 0. -1.
       -1    1    3    3    0  502 -0.12084175854E+02  0.54877410125E+03 -0.33537050917E+03  0.64325144380E+03  0.50400001928E-02 0.  1.
</event>
<event>
 5   0  0.1429680E-03  0.1098228E+04  0.7818609E-02  0.9206921E-01
        2   -1    0    0  501    0  0.00000000000E+00  0.00000000000E+00  0.59383855835E+03  0.59383855835E+03  0.25500000920E-02 0. -1.
       -2   -1    0    0    0  501  0.00000000000E+00  0.00000000000E+00 -0.50775778479E+03  0.50775778480E+03  0.25500000920E-02 0.  1.
    10030    2    1    2    0    0  0.00000000000E+00  0.00000000000E+00  0.86080773556E+02  0.11015963431E+04  0.10982279379E+04 0.  0.
        3    1    3    3  502    0  0.52761151361E+02 -0.45163442597E+03 -0.26574914363E+03  0.52666878715E+03  0.10100000352E+00 0.  1.
       -3    1    3    3    0  502 -0.52761151361E+02  0.45163442597E+03  0.35182991719E+03  0.57492755600E+03  0.10100000352E+00 0. -1.
</event>
<event>
 5   0  0.1402775E-03  0.1064710E+04  0.7818609E-02  0.9240287E-01
       -2   -1    0    0    0  501  0.00000000000E+00  0.00000000000E+00  0.18338807702E+03  0.18338807704E+03  0.25500000920E-02 0. -1.
        2   -1    0    0  501    0  0.00000000000E+00  0.00000000000E+00 -0.15453669408E+04  0.15453669408E+04  0.25500000920E-02 0.  1.
    10030    2    1    2    0    0  0.00000000000E+00  0.00000000000E+00 -0.13619788638E+04  0.17287550179E+04  0.10647100480E+04 0.  0.
        5    1    3    3  502    0  0.16820351076E+03  0.31312345986E+03 -0.37548463577E+02  0.35745027523E+03  0.46999998093E+01 0. -1.
       -5    1    3    3    0  502 -0.16820351076E+03 -0.31312345986E+03 -0.13244304002E+04  0.13713047426E+04  0.46999998093E+01 0.  1.
</event>
<event>
 5   0  0.8150924E-04  0.1103753E+04  0.7818609E-02  0.9201542E-01
       -1   -1    0    0    0  501  0.00000000000E+00  0.00000000000E+00  0.23359192432E+03  0.23359192438E+03  0.50400001928E-02 0.  1.
        1   -1    0    0  501    0  0.00000000000E+00  0.00000000000E+00 -0.13038441516E+04  0.13038441516E+04  0.50400001928E-02 0. -1.
    10030    2    1    2    0    0  0.00000000000E+00  0.00000000000E+00 -0.10702522273E+04  0.15374360760E+04  0.11037526253E+04 0.  0.
        3    1    3    3  502    0  0.37853391325E+03  0.38446192850E+02 -0.10919471528E+04  0.11563367278E+04  0.10100000352E+00 0. -1.
       -3    1    3    3    0  502 -0.37853391325E+03 -0.38446192850E+02  0.21694925539E+02  0.38109934823E+03  0.10100000352E+00 0.  1.
</event>
<event>
 5   0  0.7946038E-04  0.1096721E+04  0.7818609E-02  0.9208394E-01
       -1   -1    0    0    0  501  0.00000000000E+00  0.00000000000E+00  0.89744508703E+03  0.89744508704E+03  0.50400001928E-02 0. -1.
        1   -1    0    0  501    0  0.00000000000E+00  0.00000000000E+00 -0.33506132392E+03  0.33506132396E+03  0.50400001928E-02 0.  1.
    10030    2    1    2    0    0  0.00000000000E+00  0.00000000000E+00  0.56238376311E+03  0.12325064110E+04  0.10967208196E+04 0.  0.
        4    1    3    3  502    0 -0.17915825929E+03  0.23566188307E+03 -0.23754538015E+03  0.37955714396E+03  0.12699999809E+01 0.  1.
       -4    1    3    3    0  502  0.17915825929E+03 -0.23566188307E+03  0.79992914325E+03  0.85294926703E+03  0.12699999809E+01 0. -1.
</event>
<event>
 5   0  0.1372794E-03  0.1104471E+04  0.7818609E-02  0.9200845E-01
        2   -1    0    0  501    0  0.00000000000E+00  0.00000000000E+00  0.14229442242E+04  0.14229442242E+04  0.25500000920E-02 0.  1.
       -2   -1    0    0    0  501  0.00000000000E+00  0.00000000000E+00 -0.21431910336E+03  0.21431910338E+03  0.25500000920E-02 0. -1.
    10030    2    1    2    0    0  0.00000000000E+00  0.00000000000E+00  0.12086251208E+04  0.16372633275E+04  0.11044711500E+04 0.  0.
        4    1    3    3  502    0  0.50729299129E+03  0.17623745038E+03  0.79505662846E+03  0.95943862403E+03  0.12699999809E+01 0.  1.
       -4    1    3    3    0  502 -0.50729299129E+03 -0.17623745038E+03  0.41356849235E+03  0.67782470351E+03  0.12699999809E+01 0. -1.
</event>
<event>
 5   0  0.8150924E-04  0.1091490E+04  0.7818609E-02  0.9213527E-01
        1   -1    0    0  501    0  0.00000000000E+00  0.00000000000E+00  0.67069973803E+03  0.67069973805E+03  0.50400001928E-02 0.  1.
       -1   -1    0    0    0  501  0.00000000000E+00  0.00000000000E+00 -0.44406958846E+03  0.44406958849E+03  0.50400001928E-02 0. -1.
    10030    2    1    2    0    0  0.00000000000E+00  0.00000000000E+00  0.22663014957E+03  0.11147693265E+04  0.10914895449E+04 0.  0.
        3    1    3    3  502    0 -0.25753595688E+03  0.11158582099E+03  0.59133735982E+03  0.65456554130E+03  0.10100000352E+00 0.  1.
       -3    1    3    3    0  502  0.25753595688E+03 -0.11158582099E+03 -0.36470721025E+03  0.46020378524E+03  0.10100000352E+00 0. -1.
</event>
<event>
 5   0  0.8341767E-04  0.1079226E+04  0.7818609E-02  0.9225680E-01
       -1   -1    0    0    0  501  0.00000000000E+00  0.00000000000E+00  0.12203527770E+04  0.12203527771E+04  0.50400001928E-02 0. -1.
        1   -1    0    0  501    0  0.00000000000E+00  0.00000000000E+00 -0.23860479051E+03  0.23860479056E+03  0.50400001928E-02 0.  1.
    10030    2    1    2    0    0  0.00000000000E+00  0.00000000000E+00  0.98174798654E+03  0.14589575676E+04  0.10792256831E+04 0.  0.
        2    1    3    3  502    0  0.23782665797E+03  0.21467288190E+03 -0.96111806234E+02  0.33448982760E+03  0.25500000920E-02 0.  1.
       -2    1    3    3    0  502 -0.23782665797E+03 -0.21467288190E+03  0.10778597928E+04  0.11244677400E+04  0.25500000920E-02 0. -1.
</event>
<event>
 5   0  0.8150924E-04  0.1099263E+04  0.7818609E-02  0.9205911E-01
       -1   -1    0    0    0  501  0.00000000000E+00  0.00000000000E+00  0.57998897120E+03  0.57998897122E+03  0.50400001928E-02 0. -1.
        1   -1    0    0  501    0  0.00000000000E+00  0.00000000000E+00 -0.52086267430E+03  0.52086267433E+03  0.50400001928E-02 0.  1.
    10030    2    1    2    0    0  0.00000000000E+00  0.00000000000E+00  0.59126296895E+02  0.11008516455E+04  0.10992626740E+04 0.  0.
        3    1    3    3  502    0 -0.19839465292E+03  0.28047795210E+03  0.45921276437E+03  0.57350212997E+03  0.10100000352E+00 0. -1.
       -3    1    3    3    0  502  0.19839465292E+03 -0.28047795210E+03 -0.40008646747E+03  0.52734951558E+03  0.10100000352E+00 0.  1.
</event>
<event>
 5   0  0.8150924E-04  0.1100218E+04  0.7818609E-02  0.9204980E-01
       -1   -1    0    0    0  501  0.00000000000E+00  0.00000000000E+00  0.65541537333E+03  0.65541537335E+03  0.50400001928E-02 0.  1.
        1   -1    0    0  501    0  0.00000000000E+00  0.00000000000E+00 -0.46172216415E+03  0.46172216418E+03  0.50400001928E-02 0. -1.
    10030    2    1    2    0    0  0.00000000000E+00  0.00000000000E+00  0.19369320917E+03  0.11171375375E+04  0.11002178050E+04 0.  0.
        3    1    3    3  502    0 -0.28445316626E+03 -0.46574863293E+03  0.26613512874E+02  0.54639150995E+03  0.10100000352E+00 0.  1.
       -3    1    3    3    0  502  0.28445316626E+03  0.46574863293E+03  0.16707969630E+03  0.57074602758E+03  0.10100000352E+00 0. -1.
</event>
<event>
 5   0  0.8305271E-04  0.1099672E+04  0.7818609E-02  0.9205511E-01
        1   -1    0    0  501    0  0.00000000000E+00  0.00000000000E+00  0.10186758034E+04  0.10186758035E+04  0.50400001928E-02 0.  1.
       -1   -1    0    0    0  501  0.00000000000E+00  0.00000000000E+00 -0.29677731999E+03  0.29677732003E+03  0.50400001928E-02 0. -1.
    10030    2    1    2    0    0  0.00000000000E+00  0.00000000000E+00  0.72189848345E+03  0.13154531235E+04  0.10996724511E+04 0.  0.
        5    1    3    3  502    0  0.14161040079E+03  0.52299088255E+03  0.24921400034E+03  0.59640814616E+03  0.46999998093E+01 0.  1.
       -5    1    3    3    0  502 -0.14161040079E+03 -0.52299088255E+03  0.47268448311E+03  0.71904497733E+03  0.46999998093E+01 0. -1.
</event>
<event>
 5   0  0.8341767E-04  0.1100738E+04  0.7818609E-02  0.9204473E-01
       -1   -1    0    0    0  501  0.00000000000E+00  0.00000000000E+00  0.64741566531E+03  0.64741566533E+03  0.50400001928E-02 0.  1.
        1   -1    0    0  501    0  0.00000000000E+00  0.00000000000E+00 -0.46786978790E+03  0.46786978792E+03  0.50400001928E-02 0. -1.
    10030    2    1    2    0    0  0.00000000000E+00  0.00000000000E+00  0.17954587741E+03  0.11152854533E+04  0.11007383523E+04 0.  0.
        2    1    3    3  502    0 -0.36493884254E+03 -0.66159269620E+02 -0.32223206656E+03  0.49131549179E+03  0.25500000920E-02 0. -1.
       -2    1    3    3    0  502  0.36493884254E+03  0.66159269620E+02  0.50177794397E+03  0.62396996146E+03  0.25500000920E-02 0.  1.
</event>
<event>
 5   0  0.5409500E-04  0.1092806E+04  0.7818609E-02  0.9212232E-01
       -3   -1    0    0    0  501  0.00000000000E+00  0.00000000000E+00  0.43720892923E+03  0.43720894089E+03  0.10100000352E+00 0. -1.
        3   -1    0    0  501    0  0.00000000000E+00  0.00000000000E+00 -0.68286816855E+03  0.68286817602E+03  0.10100000352E+00 0.  1.
    10030    2    1    2    0    0  0.00000000000E+00  0.00000000000E+00 -0.24565923933E+03  0.11200771169E+04  0.10928056945E+04 0.  0.
        1    1    3    3  502    0 -0.24722060813E+03 -0.45313698942E+03  0.60820286953E+02  0.51975981722E+03  0.50400001928E-02 0. -1.
       -1    1    3    3    0  502  0.24722060813E+03  0.45313698942E+03 -0.30647952628E+03  0.60031729970E+03  0.50400001928E-02 0.  1.
</event>
<event>
 5   0  0.5409500E-04  0.1097707E+04  0.7818609E-02  0.9207430E-01
        4   -1    0    0  501    0  0.00000000000E+00  0.00000000000E+00  0.47100185390E+03  0.47100356610E+03  0.12699999809E+01 0. -1.
       -4   -1    0    0    0  501  0.00000000000E+00  0.00000000000E+00 -0.63956965110E+03  0.63957091202E+03  0.12699999809E+01 0.  1.
    10030    2    1    2    0    0  0.00000000000E+00  0.00000000000E+00 -0.16856779720E+03  0.11105744781E+04  0.10977069596E+04 0.  0.
        5    1    3    3  502    0 -0.22963131742E+03  0.29092472442E+03 -0.49381313495E+03  0.61744735765E+03  0.46999998093E+01 0.  1.
       -5    1    3    3    0  502  0.22963131742E+03 -0.29092472442E+03  0.32524533775E+03  0.49312712047E+03  0.46999998093E+01 0. -1.
</event>
<event>
 5   0  0.1402775E-03  0.1101786E+04  0.7818609E-02  0.9203453E-01
       -2   -1    0    0    0  501  0.00000000000E+00  0.00000000000E+00  0.20722713722E+03  0.20722713723E+03  0.25500000920E-02 0.  1.
        2   -1    0    0  501    0  0.00000000000E+00  0.00000000000E+00 -0.14644953879E+04  0.14644953879E+04  0.25500000920E-02 0. -1.
    10030    2    1    2    0    0  0.00000000000E+00  0.00000000000E+00 -0.12572682507E+04  0.16717225251E+04  0.11017861620E+04 0.  0.
        5    1    3    3  502    0 -0.74191935031E+02  0.22041363337E+03 -0.13863264496E+04  0.14057061314E+04  0.46999998093E+01 0. -1.
       -5    1    3    3    0  502  0.74191935031E+02 -0.22041363337E+03  0.12905819895E+03  0.26601639370E+03  0.46999998093E+01 0.  1.
</event>
<event>
 5   0  0.8150924E-04  0.1101497E+04  0.7818609E-02  0.9203734E-01
       -1   -1    0    0    0  501  0.00000000000E+00  0.00000000000E+00  0.97104547854E+03  0.97104547855E+03  0.50400001928E-02 0. -1.
        1   -1    0    0  501    0  0.00000000000E+00  0.00000000000E+00 -0.31236865316E+03  0.31236865320E+03  0.50400001928E-02 0.  1.
    10030    2    1    2    0    0  0.00000000000E+00  0.00000000000E+00  0.65867682538E+03  0.12834141318E+04  0.11014974686E+04 0.  0.
        3    1    3    3  502    0  0.75961146559E+02  0.16600074072E+02 -0.30594141323E+03  0.31566725642E+03  0.10100000352E+00 0.  1.
       -3    1    3    3    0  502 -0.75961146559E+02 -0.16600074072E+02  0.96461823861E+03  0.96774687533E+03  0.10100000352E+00 0. -1.
</event>
<event>
 5   0  0.1402775E-03  0.1102689E+04  0.7818609E-02  0.9202575E-01
        2   -1    0    0  501    0  0.00000000000E+00  0.00000000000E+00  0.16497921518E+04  0.16497921518E+04  0.25500000920E-02 0. -1.
       -2   -1    0    0    0  501  0.00000000000E+00  0.00000000000E+00 -0.18425406432E+03  0.18425406434E+03  0.25500000920E-02 0.  1.
    10030    2    1    2    0    0  0.00000000000E+00  0.00000000000E+00  0.14655380875E+04  0.18340462161E+04  0.11026892749E+04 0.  0.
        5    1    3    3  502    0  0.17181625809E+03  0.50856064332E+03  0.94186302186E+03  0.10841046059E+04  0.46999998093E+01 0. -1.
       -5    1    3    3    0  502 -0.17181625809E+03 -0.50856064332E+03  0.52367506559E+03  0.74994161026E+03  0.46999998093E+01 0.  1.
</event>
<event>
 5   0  0.8150924E-04  0.1099397E+04  0.7818609E-02  0.9205779E-01
       -1   -1    0    0    0  501  0.00000000000E+00  0.00000000000E+00  0.69491758002E+03  0.69491758004E+03  0.50400001928E-02 0. -1.
        1   -1    0    0  501    0  0.00000000000E+00  0.00000000000E+00 -0.43482657274E+03  0.43482657277E+03  0.50400001928E-02 0.  1.
    10030    2    1    2    0    0  0.00000000000E+00  0.00000000000E+00  0.26009100728E+03  0.11297441528E+04  0.10993973434E+04 0.  0.
        3    1    3    3  502    0  0.34121994567E+03  0.38746732011E+03 -0.63860359151E+02  0.52023084410E+03  0.10100000352E+00 0. -1.
       -3    1    3    3    0  502 -0.34121994567E+03 -0.38746732011E+03  0.32395136644E+03  0.60951330871E+03  0.10100000352E+00 0.  1.
</event>
<event>
 5   0  0.1372794E-03  0.1092673E+04  0.7818609E-02  0.9212363E-01
       -2   -1    0    0    0  501  0.00000000000E+00  0.00000000000E+00  0.27442893845E+03  0.27442893846E+03  0.25500000920E-02 0. -1.
        2   -1    0    0  501    0  0.00000000000E+00  0.00000000000E+00 -0.10876524744E+04  0.10876524744E+04  0.25500000920E-02 0.  1.
    10030    2    1    2    0    0  0.00000000000E+00  0.00000000000E+00 -0.81322353595E+03  0.13620814129E+04  0.10926725291E+04 0.  0.
        4    1    3    3  502    0  0.20572058489E+03 -0.49898845973E+03 -0.30104900519E+03  0.61801501472E+03  0.12699999809E+01 0.  1.
       -4    1    3    3    0  502 -0.20572058489E+03  0.49898845973E+03 -0.51217453076E+03  0.74406639815E+03  0.12699999809E+01 0. -1.
</event>
<event>
 5   0  0.7946038E-04  0.1103783E+04  0.7818609E-02  0.9201513E-01
       -1   -1    0    0    0  501  0.00000000000E+00  0.00000000000E+00  0.30119986263E+03  0.30119986267E+03  0.50400001928E-02 0.  1.
        1   -1    0    0  501    0  0.00000000000E+00  0.00000000000E+00 -0.10112356004E+04  0.10112356004E+04  0.50400001928E-02 0. -1.
    10030    2    1    2    0    0  0.00000000000E+00  0.00000000000E+00 -0.71003573777E+03  0.13124354631E+04  0.11037826307E+04 0.  0.
        4    1    3    3  502    0  0.25042166302E+03 -0.32391832264E+03  0.85002477804E+02  0.41816399078E+03  0.12699999809E+01 0.  1.
       -4    1    3    3    0  502 -0.25042166302E+03  0.32391832264E+03 -0.79503821557E+03  0.89427147230E+03  0.12699999809E+01 0. -1.
</event>
<event>
 5   0  0.1372794E-03  0.1071782E+04  0.7818609E-02  0.9233140E-01
        2   -1    0    0  501    0  0.00000000000E+00  0.00000000000E+00  0.59098739656E+03  0.59098739657E+03  0.25500000920E-02 0.  1.
       -2   -1    0    0    0  501  0.00000000000E+00  0.00000000000E+00 -0.48593124468E+03  0.48593124469E+03  0.25500000920E-02 0. -1.
    10030    2    1    2    0    0  0.00000000000E+00  0.00000000000E+00  0.10505615188E+03  0.10769186413E+04  0.10717821443E+04 0.  0.
        4    1    3    3  502    0  0.13215607363E+03 -0.34435138855E+03 -0.33809528742E+03  0.50035301824E+03  0.12699999809E+01 0. -1.
       -4    1    3    3    0  502 -0.13215607363E+03  0.34435138855E+03  0.44315143930E+03  0.57656562302E+03  0.12699999809E+01 0.  1.
</event>
<event>
 5   0  0.1396936E-03  0.1109264E+04  0.7818609E-02  0.9196209E-01
       -2   -1    0    0    0  501  0.00000000000E+00  0.00000000000E+00  0.14223475956E+03  0.14223475958E+03  0.25500000920E-02 0. -1.
        2   -1    0    0  501    0  0.00000000000E+00  0.00000000000E+00 -0.21627394947E+04  0.21627394947E+04  0.25500000920E-02 0.  1.
    10030    2    1    2    0    0  0.00000000000E+00  0.00000000000E+00 -0.20205047352E+04  0.23049742543E+04  0.11092641381E+04 0.  0.
        2    1    3    3  502    0  0.17551015754E+03 -0.93058766380E+02 -0.20862775172E+04  0.20957141094E+04  0.25500000920E-02 0.  1.
       -2    1    3    3    0  502 -0.17551015754E+03  0.93058766380E+02  0.65772782030E+02  0.20926014494E+03  0.25500000920E-02 0. -1.
</event>
<event>
 5   0  0.8009636E-04  0.1115581E+04  0.7818609E-02  0.9190137E-01
       -1   -1    0    0    0  501  0.00000000000E+00  0.00000000000E+00  0.37662999307E+03  0.37662999310E+03  0.50400001928E-02 0.  1.
        1   -1    0    0  501    0  0.00000000000E+00  0.00000000000E+00 -0.82609031711E+03  0.82609031712E+03  0.50400001928E-02 0. -1.
    10030    2    1    2    0    0  0.00000000000E+00  0.00000000000E+00 -0.44946032404E+03  0.12027203102E+04  0.11155812663E+04 0.  0.
        1    1    3    3  502    0 -0.28213429799E+03 -0.35891063377E+03  0.12079350443E+03  0.47223688533E+03  0.50400001928E-02 0.  1.
       -1    1    3    3    0  502  0.28213429799E+03  0.35891063377E+03 -0.57025382847E+03  0.73048342489E+03  0.50400001928E-02 0. -1.
</event>
<event>
 5   0  0.5409500E-04  0.1098653E+04  0.7818609E-02  0.9206506E-01
       -3   -1    0    0    0  501  0.00000000000E+00  0.00000000000E+00  0.38221255894E+03  0.38221257228E+03  0.10100000352E+00 0. -1.
        3   -1    0    0  501    0  0.00000000000E+00  0.00000000000E+00 -0.78950663841E+03  0.78950664487E+03  0.10100000352E+00 0.  1.
    10030    2    1    2    0    0  0.00000000000E+00  0.00000000000E+00 -0.40729407947E+03  0.11717192172E+04  0.10986525641E+04 0.  0.
        4    1    3    3  502    0  0.28894598820E+03  0.24165744738E+02 -0.70124250939E+03  0.75882569618E+03  0.12699999809E+01 0.  1.
       -4    1    3    3    0  502 -0.28894598820E+03 -0.24165744738E+02  0.29394842991E+03  0.41289352097E+03  0.12699999809E+01 0. -1.
</event>
<event>
 5   0  0.8009636E-04  0.1117928E+04  0.7818609E-02  0.9187892E-01
        1   -1    0    0  501    0  0.00000000000E+00  0.00000000000E+00  0.49676226193E+03  0.49676226195E+03  0.50400001928E-02 0.  1.
       -1   -1    0    0    0  501  0.00000000000E+00  0.00000000000E+00 -0.62895456160E+03  0.62895456162E+03  0.50400001928E-02 0. -1.
    10030    2    1    2    0    0  0.00000000000E+00  0.00000000000E+00 -0.13219229967E+03  0.11257168236E+04  0.11179282458E+04 0.  0.
        1    1    3    3  502    0  0.85859965581E+02  0.22828016877E+03  0.44035630742E+03  0.50338598178E+03  0.50400001928E-02 0.  1.
       -1    1    3    3    0  502 -0.85859965581E+02 -0.22828016877E+03 -0.57254860708E+03  0.62233084179E+03  0.50400001928E-02 0. -1.
</event>
<event>
 5   0  0.1402775E-03  0.1105599E+04  0.7818609E-02  0.9199752E-01
        2   -1    0    0  501    0  0.00000000000E+00  0.00000000000E+00  0.75850375307E+03  0.75850375308E+03  0.25500000920E-02 0. -1.
       -2   -1    0    0    0  501  0.00000000000E+00  0.00000000000E+00 -0.40288174047E+03  0.40288174048E+03  0.25500000920E-02 0.  1.
    10030    2    1    2    0    0  0.00000000000E+00  0.00000000000E+00  0.35562201260E+03  0.11613854936E+04  0.11055990452E+04 0.  0.
        5    1    3    3  502    0  0.33747490404E+03  0.23112452135E+03  0.56840259176E+03  0.70029383229E+03  0.46999998093E+01 0. -1.
       -5    1    3    3    0  502 -0.33747490404E+03 -0.23112452135E+03 -0.21278057916E+03  0.46109166127E+03  0.46999998093E+01 0.  1.
</event>
<event>
 5   0  0.1429680E-03  0.1099454E+04  0.7818609E-02  0.9205724E-01
        2   -1    0    0  501    0  0.00000000000E+00  0.00000000000E+00  0.13557467586E+04  0.13557467586E+04  0.25500000920E-02 0.  1.
       -2   -1    0    0    0  501  0.00000000000E+00  0.00000000000E+00 -0.22290298944E+03  0.22290298946E+03  0.25500000920E-02 0. -1.
    10030    2    1    2    0    0  0.00000000000E+00  0.00000000000E+00  0.11328437691E+04  0.15786497480E+04  0.10994544200E+04 0.  0.
        3    1    3    3  502    0 -0.31371471159E+03 -0.38859341984E+03  0.89628667499E+03  0.10260368318E+04  0.10100000352E+00 0. -1.
       -3    1    3    3    0  502  0.31371471159E+03  0.38859341984E+03  0.23655709413E+03  0.55261291624E+03  0.10100000352E+00 0.  1.
</event>
<event>
 5   0  0.1402775E-03  0.1102384E+04  0.7818609E-02  0.9202871E-01
        2   -1    0    0  501    0  0.00000000000E+00  0.00000000000E+00  0.14735242231E+04  0.14735242231E+04  0.25500000920E-02 0.  1.
       -2   -1    0    0    0  501  0.00000000000E+00  0.00000000000E+00 -0.20618109292E+03  0.20618109294E+03  0.25500000920E-02 0. -1.
    10030    2    1    2    0    0  0.00000000000E+00  0.00000000000E+00  0.12673431302E+04  0.16797053160E+04  0.11023843881E+04 0.  0.
        5    1    3    3  502    0 -0.42564594007E+01  0.37178048215E+03  0.13706628429E+02  0.37208709466E+03  0.46999998093E+01 0. -1.
       -5    1    3    3    0  502  0.42564594007E+01 -0.37178048215E+03  0.12536365017E+04  0.13076182214E+04  0.46999998093E+01 0.  1.
</event>
<event>
 5   0  0.8341767E-04  0.1100355E+04  0.7818609E-02  0.9204846E-01
       -1   -1    0    0    0  501  0.00000000000E+00  0.00000000000E+00  0.69307288842E+03  0.69307288844E+03  0.50400001928E-02 0. -1.
        1   -1    0    0  501    0  0.00000000000E+00  0.00000000000E+00 -0.43674353444E+03  0.43674353447E+03  0.50400001928E-02 0.  1.
    10030    2    1    2    0    0  0.00000000000E+00  0.00000000000E+00  0.25632935398E+03  0.11298164229E+04  0.11003546754E+04 0.  0.
        2    1    3    3  502    0  0.18582267922E+03 -0.31338216411E+03 -0.29513143206E+03  0.46887206260E+03  0.25500000920E-02 0.  1.
       -2    1    3    3    0  502 -0.18582267922E+03  0.31338216411E+03  0.55146078604E+03  0.66094436032E+03  0.25500000920E-02 0. -1.
</event>
<event>
 5   0  0.1372794E-03  0.1098301E+04  0.7818609E-02  0.9206850E-01
       -2   -1    0    0    0  501  0.00000000000E+00  0.00000000000E+00  0.13035730227E+03  0.13035730230E+03  0.25500000920E-02 0.  1.
        2   -1    0    0  501    0  0.00000000000E+00  0.00000000000E+00 -0.23133808395E+04  0.23133808395E+04  0.25500000920E-02 0. -1.
    10030    2    1    2    0    0  0.00000000000E+00  0.00000000000E+00 -0.21830235372E+04  0.24437381418E+04  0.10983006608E+04 0.  0.
        4    1    3    3  502    0  0.40684377623E+02  0.51895755485E+03 -0.14806819524E+04  0.15695199327E+04  0.12699999809E+01 0. -1.
       -4    1    3    3    0  502 -0.40684377623E+02 -0.51895755485E+03 -0.70234158483E+03  0.87421820903E+03  0.12699999809E+01 0.  1.
</event>
<event>
 5   0  0.8009636E-04  0.1102042E+04  0.7818609E-02  0.9203203E-01
       -1   -1    0    0    0  501  0.00000000000E+00  0.00000000000E+00  0.29691878558E+03  0.29691878562E+03  0.50400001928E-02 0.  1.
        1   -1    0    0  501    0  0.00000000000E+00  0.00000000000E+00 -0.10225838974E+04  0.10225838974E+04  0.50400001928E-02 0. -1.
    10030    2    1    2    0    0  0.00000000000E+00  0.00000000000E+00 -0.72566511183E+03  0.13195026831E+04  0.11020424112E+04 0.  0.
        1    1    3    3  502    0 -0.46036367926E+02  0.54887938401E+03 -0.38124348771E+03  0.66987649780E+03  0.50400001928E-02 0.  1.
       -1    1    3    3    0  502  0.46036367926E+02 -0.54887938401E+03 -0.34442162413E+03  0.64962618525E+03  0.50400001928E-02 0. -1.
</event>
<event>
 5   0  0.1429680E-03  0.1111091E+04  0.7818609E-02  0.9194449E-01
        2   -1    0    0  501    0  0.00000000000E+00  0.00000000000E+00  0.13470990137E+04  0.13470990137E+04  0.25500000920E-02 0.  1.
       -2   -1    0    0    0  501  0.00000000000E+00  0.00000000000E+00 -0.22910781884E+03  0.22910781886E+03  0.25500000920E-02 0. -1.
    10030    2    1    2    0    0  0.00000000000E+00  0.00000000000E+00  0.11179911949E+04  0.15762068326E+04  0.11110912056E+04 0.  0.
        3    1    3    3  502    0  0.21718185061E+03 -0.50435461850E+03  0.67844040970E+03  0.87282468867E+03  0.10100000352E+00 0.  1.
       -3    1    3    3    0  502 -0.21718185061E+03  0.50435461850E+03  0.43955078519E+03  0.70338214393E+03  0.10100000352E+00 0. -1.
</event>
<event>
 5   0  0.8009636E-04  0.1102438E+04  0.7818609E-02  0.9202819E-01
       -1   -1    0    0    0  501  0.00000000000E+00  0.00000000000E+00  0.55882474027E+03  0.55882474029E+03  0.50400001928E-02 0.  1.
        1   -1    0    0  501    0  0.00000000000E+00  0.00000000000E+00 -0.54371700500E+03  0.54371700502E+03  0.50400001928E-02 0. -1.
    10030    2    1    2    0    0  0.00000000000E+00  0.00000000000E+00  0.15107735274E+02  0.11025417453E+04  0.11024382325E+04 0.  0.
        1    1    3    3  502    0  0.16218464058E+03 -0.42490017221E+03 -0.30392119751E+03  0.54700284122E+03  0.50400001928E-02 0. -1.
       -1    1    3    3    0  502 -0.16218464058E+03  0.42490017221E+03  0.31902893278E+03  0.55553890409E+03  0.50400001928E-02 0.  1.
</event>
<event>
 5   0  0.1402775E-03  0.1097860E+04  0.7818609E-02  0.9207280E-01
       -2   -1    0    0    0  501  0.00000000000E+00  0.00000000000E+00  0.78457699800E+03  0.78457699800E+03  0.25500000920E-02 0.  1.
        2   -1    0    0  501    0  0.00000000000E+00  0.00000000000E+00 -0.38405925919E+03  0.38405925920E+03  0.25500000920E-02 0. -1.
    10030    2    1    2    0    0  0.00000000000E+00  0.00000000000E+00  0.40051773881E+03  0.11686362572E+04  0.10978598465E+04 0.  0.
        5    1    3    3  502    0  0.22323660629E+03 -0.60952774147E+02 -0.32957677126E+03  0.40273162431E+03  0.46999998093E+01 0. -1.
       -5    1    3    3    0  502 -0.22323660629E+03  0.60952774147E+02  0.73009451006E+03  0.76590463289E+03  0.46999998093E+01 0.  1.
</event>
<event>
 5   0  0.5409500E-04  0.1102435E+04  0.7818609E-02  0.9202822E-01
       -3   -1    0    0    0  501  0.00000000000E+00  0.00000000000E+00  0.38992636095E+03  0.38992637403E+03  0.10100000352E+00 0. -1.
        3   -1    0    0  501    0  0.00000000000E+00  0.00000000000E+00 -0.77922543248E+03  0.77922543902E+03  0.10100000352E+00 0.  1.
    10030    2    1    2    0    0  0.00000000000E+00  0.00000000000E+00 -0.38929907153E+03  0.11691518130E+04  0.11024346669E+04 0.  0.
        4    1    3    3  502    0  0.24956289359E+03 -0.29495183249E+03  0.22228474456E+03  0.44574694829E+03  0.12699999809E+01 0. -1.
       -4    1    3    3    0  502 -0.24956289359E+03  0.29495183249E+03 -0.61158381609E+03  0.72340486476E+03  0.12699999809E+01 0.  1.
</event>
<event>
 5   0  0.7946038E-04  0.1099644E+04  0.7818609E-02  0.9205539E-01
        1   -1    0    0  501    0  0.00000000000E+00  0.00000000000E+00  0.96903414728E+03  0.96903414730E+03  0.50400001928E-02 0. -1.
       -1   -1    0    0    0  501  0.00000000000E+00  0.00000000000E+00 -0.31196422514E+03  0.31196422518E+03  0.50400001928E-02 0.  1.
    10030    2    1    2    0    0  0.00000000000E+00  0.00000000000E+00  0.65706992215E+03  0.12809983725E+04  0.10996435548E+04 0.  0.
        4    1    3    3  502    0 -0.12710539915E+00 -0.18480676427E+03 -0.27469733947E+03  0.33107974491E+03  0.12699999809E+01 0.  1.
       -4    1    3    3    0  502  0.12710539915E+00  0.18480676427E+03  0.93176726162E+03  0.94991862757E+03  0.12699999809E+01 0. -1.
</event>
<event>
 5   0  0.1396936E-03  0.1099774E+04  0.7818609E-02  0.9205412E-01
       -2   -1    0    0    0  501  0.00000000000E+00  0.00000000000E+00  0.39980102177E+03  0.39980102178E+03  0.25500000920E-02 0.  1.
        2   -1    0    0  501    0  0.00000000000E+00  0.00000000000E+00 -0.75631571916E+03  0.75631571916E+03  0.25500000920E-02 0. -1.
    10030    2    1    2    0    0  0.00000000000E+00  0.00000000000E+00 -0.35651469739E+03  0.11561167409E+04  0.10997741537E+04 0.  0.
        2    1    3    3  502    0 -0.44449868676E+03 -0.28410743097E+03 -0.15131209137E+02  0.52775474263E+03  0.25500000920E-02 0.  1.
       -2    1    3    3    0  502  0.44449868676E+03  0.28410743097E+03 -0.34138348825E+03  0.62836199831E+03  0.25500000920E-02 0. -1.
</event>
<event>
 5   0  0.1429680E-03  0.1097289E+04  0.7818609E-02  0.9207838E-01
        2   -1    0    0  501    0  0.00000000000E+00  0.00000000000E+00  0.13036459955E+04  0.13036459955E+04  0.25500000920E-02 0.  1.
       -2   -1    0    0    0  501  0.00000000000E+00  0.00000000000E+00 -0.23089908819E+03  0.23089908821E+03  0.25500000920E-02 0. -1.
    10030    2    1    2    0    0  0.00000000000E+00  0.00000000000E+00  0.10727469074E+04  0.15345450838E+04  0.10972887892E+04 0.  0.
        3    1    3    3  502    0 -0.43684685190E+03 -0.20502186722E+02  0.73063998235E+02  0.44338907261E+03  0.10100000352E+00 0. -1.
       -3    1    3    3    0  502  0.43684685190E+03  0.20502186722E+02  0.99968290912E+03  0.10911560111E+04  0.10100000352E+00 0.  1.
</event>
<event>
 5   0  0.8305271E-04  0.1093661E+04  0.7818609E-02  0.9211393E-01
        1   -1    0    0  501    0  0.00000000000E+00  0.00000000000E+00  0.30680335824E+03  0.30680335828E+03  0.50400001928E-02 0. -1.
       -1   -1    0    0    0  501  0.00000000000E+00  0.00000000000E+00 -0.97464198275E+03  0.97464198277E+03  0.50400001928E-02 0.  1.
    10030    2    1    2    0    0  0.00000000000E+00  0.00000000000E+00 -0.66783862452E+03  0.12814453410E+04  0.10936607032E+04 0.  0.
        5    1    3    3  502    0  0.24718811662E+03 -0.40925338574E+03 -0.23007034185E+02  0.47868748924E+03  0.46999998093E+01 0. -1.
       -5    1    3    3    0  502 -0.24718811662E+03  0.40925338574E+03 -0.64483159033E+03  0.80275785180E+03  0.46999998093E+01 0.  1.
</event>
<event>
 5   0  0.5409500E-04  0.1088913E+04  0.7818609E-02  0.9216066E-01
       -4   -1    0    0    0  501  0.00000000000E+00  0.00000000000E+00  0.11751189377E+04  0.11751196239E+04  0.12699999809E+01 0.  1.
        4   -1    0    0  501    0  0.00000000000E+00  0.00000000000E+00 -0.25225547837E+03  0.25225867531E+03  0.12699999809E+01 0. -1.
    10030    2    1    2    0    0  0.00000000000E+00  0.00000000000E+00  0.92286345930E+03  0.14273782993E+04  0.10889131484E+04 0.  0.
        4    1    3    3  502    0  0.75900316750E+01  0.36537088683E+03 -0.67594089429E+02  0.37165046394E+03  0.12699999809E+01 0. -1.
       -4    1    3    3    0  502 -0.75900316750E+01 -0.36537088683E+03  0.99045754873E+03  0.10557278353E+04  0.12699999809E+01 0.  1.
</event>
<event>
 5   0  0.1372794E-03  0.1128721E+04  0.7818609E-02  0.9177642E-01
       -2   -1    0    0    0  501  0.00000000000E+00  0.00000000000E+00  0.52841716983E+03  0.52841716984E+03  0.25500000920E-02 0.  1.
        2   -1    0    0  501    0  0.00000000000E+00  0.00000000000E+00 -0.60274818964E+03  0.60274818965E+03  0.25500000920E-02 0. -1.
    10030    2    1    2    0    0  0.00000000000E+00  0.00000000000E+00 -0.74331019806E+02  0.11311653595E+04  0.11287205013E+04 0.  0.
        4    1    3    3  502    0  0.97021067887E+02 -0.22002385862E+03 -0.54883707801E+03  0.59920558832E+03  0.12699999809E+01 0. -1.
       -4    1    3    3    0  502 -0.97021067887E+02  0.22002385862E+03  0.47450605820E+03  0.53195977117E+03  0.12699999809E+01 0.  1.
</event>
<event>
 5   0  0.1396936E-03  0.1112745E+04  0.7818609E-02  0.9192858E-01
        2   -1    0    0  501    0  0.00000000000E+00  0.00000000000E+00  0.20963485500E+04  0.20963485500E+04  0.25500000920E-02 0.  1.
       -2   -1    0    0    0  501  0.00000000000E+00  0.00000000000E+00 -0.14766168738E+03  0.14766168740E+03  0.25500000920E-02 0. -1.
    10030    2    1    2    0    0  0.00000000000E+00  0.00000000000E+00  0.19486868627E+04  0.22440102374E+04  0.11127450099E+04 0.  0.
        2    1    3    3  502    0  0.13321751006E+03 -0.26151443988E+03  0.21143423444E+02  0.29425117096E+03  0.25500000920E-02 0. -1.
       -2    1    3    3    0  502 -0.13321751006E+03  0.26151443988E+03  0.19275434392E+04  0.19497590665E+04  0.25500000920E-02 0.  1.
</event>
<event>
 5   0  0.8341767E-04  0.1140686E+04  0.7818609E-02  0.9166419E-01
       -1   -1    0    0    0  501  0.00000000000E+00  0.00000000000E+00  0.89523701070E+03  0.89523701072E+03  0.50400001928E-02 0.  1.
        1   -1    0    0  501    0  0.00000000000E+00  0.00000000000E+00 -0.36335752468E+03  0.36335752472E+03  0.50400001928E-02 0. -1.
    10030    2    1    2    0    0  0.00000000000E+00  0.00000000000E+00  0.53187948602E+03  0.12585945354E+04  0.11406859414E+04 0.  0.
        2    1    3    3  502    0  0.37118808138E+03  0.43114757199E+03  0.22149881203E+03  0.61051662084E+03  0.25500000920E-02 0.  1.
       -2    1    3    3    0  502 -0.37118808138E+03 -0.43114757199E+03  0.31038067399E+03  0.64807791459E+03  0.25500000920E-02 0. -1.
</event>
<event>
 5   0  0.1396936E-03  0.1100647E+04  0.7818609E-02  0.9204561E-01
       -2   -1    0    0    0  501  0.00000000000E+00  0.00000000000E+00  0.43657964036E+03  0.43657964037E+03  0.25500000920E-02 0. -1.
        2   -1    0    0  501    0  0.00000000000E+00  0.00000000000E+00 -0.69370211846E+03  0.69370211846E+03  0.25500000920E-02 0.  1.
    10030    2    1    2    0    0  0.00000000000E+00  0.00000000000E+00 -0.25712247810E+03  0.11302817588E+04  0.11006474847E+04 0.  0.
        2    1    3    3  502    0  0.86255924624E+02 -0.38547708164E+03 -0.52205363390E+03  0.65465461251E+03  0.25500000920E-02 0.  1.
       -2    1    3    3    0  502 -0.86255924624E+02  0.38547708164E+03  0.26493115580E+03  0.47562714633E+03  0.25500000920E-02 0. -1.
</event>
<event>
 5   0  0.1402775E-03  0.1105288E+04  0.7818609E-02  0.9200053E-01
       -2   -1    0    0    0  501  0.00000000000E+00  0.00000000000E+00  0.37408776946E+03  0.37408776947E+03  0.25500000920E-02 0. -1.
        2   -1    0    0  501    0  0.00000000000E+00  0.00000000000E+00 -0.81642782063E+03  0.81642782063E+03  0.25500000920E-02 0.  1.
    10030    2    1    2    0    0  0.00000000000E+00  0.00000000000E+00 -0.44234005117E+03  0.11905155901E+04  0.11052884915E+04 0.  0.
        5    1    3    3  502    0 -0.14591517223E+03  0.14238022967E+03 -0.77442037440E+03  0.80081981342E+03  0.46999998093E+01 0.  1.
       -5    1    3    3    0  502  0.14591517223E+03 -0.14238022967E+03  0.33208032323E+03  0.38969577668E+03  0.46999998093E+01 0. -1.
</event>
<event>
 5   0  0.1372794E-03  0.1096204E+04  0.7818609E-02  0.9208900E-01
       -2   -1    0    0    0  501  0.00000000000E+00  0.00000000000E+00  0.40607833226E+03  0.40607833226E+03  0.25500000920E-02 0.  1.
        2   -1    0    0  501    0  0.00000000000E+00  0.00000000000E+00 -0.73979732645E+03  0.73979732646E+03  0.25500000920E-02 0. -1.
    10030    2    1    2    0    0  0.00000000000E+00  0.00000000000E+00 -0.33371899420E+03  0.11458756587E+04  0.10962037485E+04 0.  0.
        4    1    3    3  502    0 -0.11463405859E+03  0.21525403549E+03  0.34623761312E+03  0.42350603871E+03  0.12699999809E+01 0.  1.
       -4    1    3    3    0  502  0.11463405859E+03 -0.21525403549E+03 -0.67995660732E+03  0.72236962001E+03  0.12699999809E+01 0. -1.
</event>
<event>
 5   0  0.1396936E-03  0.1097818E+04  0.7818609E-02  0.9207321E-01
        2   -1    0    0  501    0  0.00000000000E+00  0.00000000000E+00  0.21871226199E+03  0.21871226200E+03  0.25500000920E-02 0. -1.
       -2   -1    0    0    0  501  0.00000000000E+00  0.00000000000E+00 -0.13776133069E+04  0.13776133069E+04  0.25500000920E-02 0.  1.
    10030    2    1    2    0    0  0.00000000000E+00  0.00000000000E+00 -0.11589010449E+04  0.15963255689E+04  0.10978176944E+04 0.  0.
        2    1    3    3  502    0 -0.17273111988E+03  0.51661343841E+03 -0.67780804478E+03  0.86956841600E+03  0.25500000920E-02 0.  1.
       -2    1    3    3    0  502  0.17273111988E+03 -0.51661343841E+03 -0.48109300012E+03  0.72675715290E+03  0.25500000920E-02 0. -1.
</event>
<event>
 5   0  0.1402775E-03  0.1093996E+04  0.7818609E-02  0.9211063E-01
        2   -1    0    0  501    0  0.00000000000E+00  0.00000000000E+00  0.45042849914E+03  0.45042849914E+03  0.25500000920E-02 0.  1.
       -2   -1    0    0    0  501  0.00000000000E+00  0.00000000000E+00 -0.66427167909E+03  0.66427167910E+03  0.25500000920E-02 0. -1.
    10030    2    1    2    0    0  0.00000000000E+00  0.00000000000E+00 -0.21384317996E+03  0.11147001782E+04  0.10939961525E+04 0.  0.
        5    1    3    3  502    0  0.25690455113E+03  0.14393320960E+03 -0.57658759980E+03  0.64745043630E+03  0.46999998093E+01 0. -1.
       -5    1    3    3    0  502 -0.25690455113E+03 -0.14393320960E+03  0.36274441984E+03  0.46724974194E+03  0.46999998093E+01 0.  1.
</event>
<event>
 5   0  0.8009636E-04  0.1102203E+04  0.7818609E-02  0.9203047E-01
        1   -1    0    0  501    0  0.00000000000E+00  0.00000000000E+00  0.46836323945E+03  0.46836323948E+03  0.50400001928E-02 0.  1.
       -1   -1    0    0    0  501  0.00000000000E+00  0.00000000000E+00 -0.64845579222E+03  0.64845579224E+03  0.50400001928E-02 0. -1.
    10030    2    1    2    0    0  0.00000000000E+00  0.00000000000E+00 -0.18009255277E+03  0.11168190317E+04  0.11022029859E+04 0.  0.
        1    1    3    3  502    0  0.18475321405E+03  0.46062789550E+03 -0.33280851353E+03  0.59755611863E+03  0.50400001928E-02 0. -1.
       -1    1    3    3    0  502 -0.18475321405E+03 -0.46062789550E+03  0.15271596076E+03  0.51926291309E+03  0.50400001928E-02 0.  1.
</event>
<event>
 5   0  0.1429680E-03  0.1111967E+04  0.7818609E-02  0.9193606E-01
        2   -1    0    0  501    0  0.00000000000E+00  0.00000000000E+00  0.54722283366E+03  0.54722283367E+03  0.25500000920E-02 0. -1.
       -2   -1    0    0    0  501  0.00000000000E+00  0.00000000000E+00 -0.56488439763E+03  0.56488439763E+03  0.25500000920E-02 0.  1.
    10030    2    1    2    0    0  0.00000000000E+00  0.00000000000E+00 -0.17661563964E+02  0.11121072313E+04  0.11119669793E+04 0.  0.
        3    1    3    3  502    0  0.33208439616E+03  0.21080095171E+03 -0.40181868838E+03  0.56229472339E+03  0.10100000352E+00 0.  1.
       -3    1    3    3    0  502 -0.33208439616E+03 -0.21080095171E+03  0.38415712442E+03  0.54981250791E+03  0.10100000352E+00 0. -1.
</event>
<event>
 5   0  0.8009636E-04  0.1105773E+04  0.7818609E-02  0.9199583E-01
       -1   -1    0    0    0  501  0.00000000000E+00  0.00000000000E+00  0.22200625779E+03  0.22200625784E+03  0.50400001928E-02 0.  1.
        1   -1    0    0  501    0  0.00000000000E+00  0.00000000000E+00 -0.13769142397E+04  0.13769142397E+04  0.50400001928E-02 0. -1.
    10030    2    1    2    0    0  0.00000000000E+00  0.00000000000E+00 -0.11549079819E+04  0.15989204976E+04  0.11057731733E+04 0.  0.
        1    1    3    3  502    0  0.27732575022E+03 -0.39994715840E+03 -0.95677457053E+03  0.10734453317E+04  0.50400001928E-02 0. -1.
       -1    1    3    3    0  502 -0.27732575022E+03  0.39994715840E+03 -0.19813341142E+03  0.52547516592E+03  0.50400001928E-02 0.  1.
</event>
<event>
 5   0  0.1396936E-03  0.1092753E+04  0.7818609E-02  0.9212285E-01
        2   -1    0    0  501    0  0.00000000000E+00  0.00000000000E+00  0.34885429236E+03  0.34885429237E+03  0.25500000920E-02 0. -1.
       -2   -1    0    0    0  501  0.00000000000E+00  0.00000000000E+00 -0.85573568411E+03  0.85573568411E+03  0.25500000920E-02 0.  1.
    10030    2    1    2    0    0  0.00000000000E+00  0.00000000000E+00 -0.50688139175E+03  0.12045899765E+04  0.10927526098E+04 0.  0.
        2    1    3    3  502    0  0.11368484148E+03  0.47390554902E+03 -0.52573623027E+03  0.71687467273E+03  0.25500000920E-02 0.  1.
       -2    1    3    3    0  502 -0.11368484148E+03 -0.47390554902E+03  0.18854838521E+02  0.48771530375E+03  0.25500000920E-02 0. -1.
</event>
<event>
 5   0  0.1402775E-03  0.1101886E+04  0.7818609E-02  0.9203356E-01
       -2   -1    0    0    0  501  0.00000000000E+00  0.00000000000E+00  0.20361425607E+03  0.20361425609E+03  0.25500000920E-02 0. -1.
        2   -1    0    0  501    0  0.00000000000E+00  0.00000000000E+00 -0.14907508294E+04  0.14907508294E+04  0.25500000920E-02 0.  1.
    10030    2    1    2    0    0  0.00000000000E+00  0.00000000000E+00 -0.12871365734E+04  0.16943650855E+04  0.11018858764E+04 0.  0.
        5    1    3    3  502    0  0.11941838437E+03  0.37240193195E+03 -0.12402498303E+04  0.13004559512E+04  0.46999998093E+01 0.  1.
       -5    1    3    3    0  502 -0.11941838437E+03 -0.37240193195E+03 -0.46886743074E+02  0.39390913434E+03  0.46999998093E+01 0. -1.
</event>
<event>
 5   0  0.8009636E-04  0.1101430E+04  0.7818609E-02  0.9203799E-01
       -1   -1    0    0    0  501  0.00000000000E+00  0.00000000000E+00  0.38219694588E+03  0.38219694591E+03  0.50400001928E-02 0. -1.
        1   -1    0    0  501    0  0.00000000000E+00  0.00000000000E+00 -0.79353613511E+03  0.79353613512E+03  0.50400001928E-02 0.  1.
    10030    2    1    2    0    0  0.00000000000E+00  0.00000000000E+00 -0.41133918923E+03  0.11757330810E+04  0.11014301382E+04 0.  0.
        1    1    3    3  502    0 -0.59962904009E+02 -0.42345085655E+03  0.16469596286E+03  0.45829132435E+03  0.50400001928E-02 0. -1.
       -1    1    3    3    0  502  0.59962904009E+02  0.42345085655E+03 -0.57603515209E+03  0.71744175668E+03  0.50400001928E-02 0.  1.
</event>
<event>
 5   0  0.7946038E-04  0.1096259E+04  0.7818609E-02  0.9208846E-01
       -1   -1    0    0    0  501  0.00000000000E+00  0.00000000000E+00  0.23570169346E+03  0.23570169351E+03  0.50400001928E-02 0.  1.
        1   -1    0    0  501    0  0.00000000000E+00  0.00000000000E+00 -0.12746867892E+04  0.12746867892E+04  0.50400001928E-02 0. -1.
    10030    2    1    2    0    0  0.00000000000E+00  0.00000000000E+00 -0.10389850957E+04  0.15103884827E+04  0.10962587922E+04 0.  0.
        4    1    3    3  502    0  0.51674973398E+03  0.16115159114E+03 -0.40061997883E+03  0.67342267799E+03  0.12699999809E+01 0.  1.
       -4    1    3    3    0  502 -0.51674973398E+03 -0.16115159114E+03 -0.63836511688E+03  0.83696580470E+03  0.12699999809E+01 0. -1.
</event>
<event>
 5   0  0.8150924E-04  0.1102619E+04  0.7818609E-02  0.9202643E-01
        1   -1    0    0  501    0  0.00000000000E+00  0.00000000000E+00  0.57765831905E+03  0.57765831908E+03  0.50400001928E-02 0.  1.
       -1   -1    0    0    0  501  0.00000000000E+00  0.00000000000E+00 -0.52616290797E+03  0.52616290799E+03  0.50400001928E-02 0. -1.
    10030    2    1    2    0    0  0.00000000000E+00  0.00000000000E+00  0.51495411088E+02  0.11038212271E+04  0.11026193922E+04 0.  0.
        3    1    3    3  502    0  0.25837940178E+03 -0.11459392116E+03  0.49960356678E+03  0.57401691279E+03  0.10100000352E+00 0.  1.
       -3    1    3    3    0  502 -0.25837940178E+03  0.11459392116E+03 -0.44810815569E+03  0.52980431428E+03  0.10100000352E+00 0. -1.
</event>
<event>
 5   0  0.5409500E-04  0.1106841E+04  0.7818609E-02  0.9198550E-01
       -3   -1    0    0    0  501  0.00000000000E+00  0.00000000000E+00  0.10252381355E+04  0.10252381404E+04  0.10100000352E+00 0.  1.
        3   -1    0    0  501    0  0.00000000000E+00  0.00000000000E+00 -0.29873472504E+03  0.29873474212E+03  0.10100000352E+00 0. -1.
    10030    2    1    2    0    0  0.00000000000E+00  0.00000000000E+00  0.72650341042E+03  0.13239728826E+04  0.11068409951E+04 0.  0.
        4    1    3    3  502    0  0.25879746634E+03  0.12458136205E+03 -0.20259735292E+03  0.35148818566E+03  0.12699999809E+01 0. -1.
       -4    1    3    3    0  502 -0.25879746634E+03 -0.12458136205E+03  0.92910076334E+03  0.97248469689E+03  0.12699999809E+01 0.  1.
</event>
<event>
 5   0  0.5409500E-04  0.1095785E+04  0.7818609E-02  0.9209310E-01
        3   -1    0    0  501    0  0.00000000000E+00  0.00000000000E+00  0.22390518479E+03  0.22390520757E+03  0.10100000352E+00 0. -1.
       -3   -1    0    0    0  501  0.00000000000E+00  0.00000000000E+00 -0.13406834583E+04  0.13406834621E+04  0.10100000352E+00 0.  1.
    10030    2    1    2    0    0  0.00000000000E+00  0.00000000000E+00 -0.11167782735E+04  0.15645886696E+04  0.10957846472E+04 0.  0.
        2    1    3    3  502    0  0.13645473591E+02  0.28547736331E+03  0.10903690680E+03  0.30589634023E+03  0.25500000920E-02 0. -1.
       -2    1    3    3    0  502 -0.13645473591E+02 -0.28547736331E+03 -0.12258151803E+04  0.12586923294E+04  0.25500000920E-02 0.  1.
</event>
<event>
 5   0  0.8150924E-04  0.1096008E+04  0.7818609E-02  0.9209091E-01
        1   -1    0    0  501    0  0.00000000000E+00  0.00000000000E+00  0.34878484083E+03  0.34878484086E+03  0.50400001928E-02 0.  1.
       -1   -1    0    0    0  501  0.00000000000E+00  0.00000000000E+00 -0.86101352978E+03  0.86101352980E+03  0.50400001928E-02 0. -1.
    10030    2    1    2    0    0  0.00000000000E+00  0.00000000000E+00 -0.51222868895E+03  0.12097983707E+04  0.10960081514E+04 0.  0.
        3    1    3    3  502    0  0.47588662501E+03 -0.16736803192E+01  0.43828099375E+02  0.47790354002E+03  0.10100000352E+00 0.  1.
       -3    1    3    3    0  502 -0.47588662501E+03  0.16736803192E+01 -0.55605678833E+03  0.73189483064E+03  0.10100000352E+00 0. -1.
</event>
<event>
 5   0  0.1402775E-03  0.1101946E+04  0.7818609E-02  0.9203297E-01
        2   -1    0    0  501    0  0.00000000000E+00  0.00000000000E+00  0.12744319004E+04  0.12744319004E+04  0.25500000920E-02 0.  1.
       -2   -1    0    0    0  501  0.00000000000E+00  0.00000000000E+00 -0.23820135005E+03  0.23820135007E+03  0.25500000920E-02 0. -1.
    10030    2    1    2    0    0  0.00000000000E+00  0.00000000000E+00  0.10362305504E+04  0.15126332505E+04  0.11019462768E+04 0.  0.
        5    1    3    3  502    0  0.97107373916E+01  0.55076584647E+03  0.53264204369E+03  0.76626819898E+03  0.46999998093E+01 0.  1.
       -5    1    3    3    0  502 -0.97107373916E+01 -0.55076584647E+03  0.50358850669E+03  0.74636505152E+03  0.46999998093E+01 0. -1.
</event>
<event>
 5   0  0.5409500E-04  0.1096575E+04  0.7818609E-02  0.9208537E-01
       -3   -1    0    0    0  501  0.00000000000E+00  0.00000000000E+00  0.31658990925E+03  0.31658992536E+03  0.10100000352E+00 0. -1.
        3   -1    0    0  501    0  0.00000000000E+00  0.00000000000E+00 -0.94955301755E+03  0.94955302292E+03  0.10100000352E+00 0.  1.
    10030    2    1    2    0    0  0.00000000000E+00  0.00000000000E+00 -0.63296310830E+03  0.12661429483E+04  0.10965745159E+04 0.  0.
        2    1    3    3  502    0  0.16772061890E+03 -0.20812525949E+03  0.23626484997E+03  0.35674558019E+03  0.25500000920E-02 0. -1.
       -2    1    3    3    0  502 -0.16772061890E+03  0.20812525949E+03 -0.86922795827E+03  0.90939736809E+03  0.25500000920E-02 0.  1.
</event>
<event>
 5   0  0.1402775E-03  0.1124563E+04  0.7818609E-02  0.9181576E-01
       -2   -1    0    0    0  501  0.00000000000E+00  0.00000000000E+00  0.56617483504E+03  0.56617483505E+03  0.25500000920E-02 0. -1.
        2   -1    0    0  501    0  0.00000000000E+00  0.00000000000E+00 -0.55841490384E+03  0.55841490385E+03  0.25500000920E-02 0.  1.
    10030    2    1    2    0    0  0.00000000000E+00  0.00000000000E+00  0.77599311999E+01  0.11245897389E+04  0.11245629659E+04 0.  0.
        5    1    3    3  502    0  0.55637767412E+03 -0.78416873628E+02  0.24690404653E+02  0.56243846633E+03  0.46999998093E+01 0.  1.
       -5    1    3    3    0  502 -0.55637767412E+03  0.78416873628E+02 -0.16930473453E+02  0.56215127257E+03  0.46999998093E+01 0. -1.
</event>
<event>
 5   0  0.7946038E-04  0.1101164E+04  0.7818609E-02  0.9204058E-01
       -1   -1    0    0    0  501  0.00000000000E+00  0.00000000000E+00  0.30267739200E+03  0.30267739204E+03  0.50400001928E-02 0. -1.
        1   -1    0    0  501    0  0.00000000000E+00  0.00000000000E+00 -0.10015303038E+04  0.10015303038E+04  0.50400001928E-02 0.  1.
    10030    2    1    2    0    0  0.00000000000E+00  0.00000000000E+00 -0.69885291179E+03  0.13042076958E+04  0.11011640757E+04 0.  0.
        4    1    3    3  502    0  0.37171672167E+02  0.22205750625E+01  0.30118247557E+03  0.30347843524E+03  0.12699999809E+01 0. -1.
       -4    1    3    3    0  502 -0.37171672167E+02 -0.22205750625E+01 -0.10000353874E+04  0.10007292606E+04  0.12699999809E+01 0.  1.
</event>
<event>
 5   0  0.8305271E-04  0.1089044E+04  0.7818609E-02  0.9215936E-01
        1   -1    0    0  501    0  0.00000000000E+00  0.00000000000E+00  0.66422711202E+03  0.66422711204E+03  0.50400001928E-02 0.  1.
       -1   -1    0    0    0  501  0.00000000000E+00  0.00000000000E+00 -0.44638993507E+03  0.44638993510E+03  0.50400001928E-02 0. -1.
    10030    2    1    2    0    0  0.00000000000E+00  0.00000000000E+00  0.21783717694E+03  0.11106170471E+04  0.10890441634E+04 0.  0.
        5    1    3    3  502    0 -0.23964437094E+03  0.44020553395E+03  0.32590526309E+03  0.59786843633E+03  0.46999998093E+01 0. -1.
       -5    1    3    3    0  502  0.23964437094E+03 -0.44020553395E+03 -0.10806808615E+03  0.51274861081E+03  0.46999998093E+01 0.  1.
</event>
<event>
 5   0  0.1429680E-03  0.1102725E+04  0.7818609E-02  0.9202540E-01
       -2   -1    0    0    0  501  0.00000000000E+00  0.00000000000E+00  0.17971348569E+03  0.17971348571E+03  0.25500000920E-02 0. -1.
        2   -1    0    0  501    0  0.00000000000E+00  0.00000000000E+00 -0.16915844602E+04  0.16915844602E+04  0.25500000920E-02 0.  1.
    10030    2    1    2    0    0  0.00000000000E+00  0.00000000000E+00 -0.15118709745E+04  0.18712979459E+04  0.11027248790E+04 0.  0.
        3    1    3    3  502    0  0.37266921273E+03  0.40544460934E+03 -0.70999610673E+03  0.89853333556E+03  0.10100000352E+00 0.  1.
       -3    1    3    3    0  502 -0.37266921273E+03 -0.40544460934E+03 -0.80187486777E+03  0.97276461033E+03  0.10100000352E+00 0. -1.
</event>
<event>
 5   0  0.1402775E-03  0.1094979E+04  0.7818609E-02  0.9210100E-01
        2   -1    0    0  501    0  0.00000000000E+00  0.00000000000E+00  0.19236801051E+04  0.19236801051E+04  0.25500000920E-02 0. -1.
       -2   -1    0    0    0  501  0.00000000000E+00  0.00000000000E+00 -0.15581839407E+03  0.15581839409E+03  0.25500000920E-02 0.  1.
    10030    2    1    2    0    0  0.00000000000E+00  0.00000000000E+00  0.17678617110E+04  0.20794984992E+04  0.10949789856E+04 0.  0.
        5    1    3    3  502    0 -0.45467334219E+03  0.27184861041E+03  0.11463475745E+04  0.12628398024E+04  0.46999998093E+01 0. -1.
       -5    1    3    3    0  502  0.45467334219E+03 -0.27184861041E+03  0.62151413656E+03  0.81665869677E+03  0.46999998093E+01 0.  1.
</event>
<event>
 5   0  0.5409500E-04  0.1100762E+04  0.7818609E-02  0.9204449E-01
       -3   -1    0    0    0  501  0.00000000000E+00  0.00000000000E+00  0.20681988074E+03  0.20681990540E+03  0.10100000352E+00 0.  1.
        3   -1    0    0  501    0  0.00000000000E+00  0.00000000000E+00 -0.14646532564E+04  0.14646532599E+04  0.10100000352E+00 0. -1.
    10030    2    1    2    0    0  0.00000000000E+00  0.00000000000E+00 -0.12578333757E+04  0.16714731653E+04  0.11007623456E+04 0.  0.
        2    1    3    3  502    0 -0.11939808322E+02 -0.28899125645E+03  0.82110929305E+02  0.30066710835E+03  0.25500000920E-02 0.  1.
       -2    1    3    3    0  502  0.11939808322E+02  0.28899125645E+03 -0.13399443050E+04  0.13708060570E+04  0.25500000920E-02 0. -1.
</event>
<event>
 5   0  0.1372794E-03  0.1101204E+04  0.7818609E-02  0.9204019E-01
        2   -1    0    0  501    0  0.00000000000E+00  0.00000000000E+00  0.14030610799E+04  0.14030610799E+04  0.25500000920E-02 0. -1.
       -2   -1    0    0    0  501  0.00000000000E+00  0.00000000000E+00 -0.21607215895E+03  0.21607215896E+03  0.25500000920E-02 0.  1.
    10030    2    1    2    0    0  0.00000000000E+00  0.00000000000E+00  0.11869889210E+04  0.16191332389E+04  0.11012037717E+04 0.  0.
        4    1    3    3  502    0  0.15552440039E+03 -0.52182854876E+03  0.47343093890E+03  0.72154787798E+03  0.12699999809E+01 0. -1.
       -4    1    3    3    0  502 -0.15552440039E+03  0.52182854876E+03  0.71355798206E+03  0.89758536088E+03  0.12699999809E+01 0.  1.
</event>
<event>
 5   0  0.8009636E-04  0.1097629E+04  0.7818609E-02  0.9207506E-01
        1   -1    0    0  501    0  0.00000000000E+00  0.00000000000E+00  0.89887964032E+03  0.89887964034E+03  0.50400001928E-02 0.  1.
       -1   -1    0    0    0  501  0.00000000000E+00  0.00000000000E+00 -0.33508099965E+03  0.33508099968E+03  0.50400001928E-02 0. -1.
    10030    2    1    2    0    0  0.00000000000E+00  0.00000000000E+00  0.56379864068E+03  0.12339606400E+04  0.10976292425E+04 0.  0.
        1    1    3    3  502    0  0.48201592524E+02  0.54129860597E+03  0.19576791940E+03  0.57762674163E+03  0.50400001928E-02 0.  1.
       -1    1    3    3    0  502 -0.48201592524E+02 -0.54129860597E+03  0.36803072127E+03  0.65633389839E+03  0.50400001928E-02 0. -1.
</event>
<event>
 5   0  0.8341767E-04  0.1124674E+04  0.7818609E-02  0.9181471E-01
        1   -1    0    0  501    0  0.00000000000E+00  0.00000000000E+00  0.12360994914E+04  0.12360994915E+04  0.50400001928E-02 0. -1.
       -1   -1    0    0    0  501  0.00000000000E+00  0.00000000000E+00 -0.25582330195E+03  0.25582330200E+03  0.50400001928E-02 0.  1.
    10030    2    1    2    0    0  0.00000000000E+00  0.00000000000E+00  0.98027618950E+03  0.14919227935E+04  0.11246742702E+04 0.  0.
        2    1    3    3  502    0  0.55601968544E+03 -0.20995826997E+02  0.59810504546E+03  0.81690168365E+03  0.25500000920E-02 0. -1.
       -2    1    3    3    0  502 -0.55601968544E+03  0.20995826997E+02  0.38217114404E+03  0.67502110981E+03  0.25500000920E-02 0.  1.
</event>
<event>
 5   0  0.7946038E-04  0.1101226E+04  0.7818609E-02  0.9203997E-01
       -1   -1    0    0    0  501  0.00000000000E+00  0.00000000000E+00  0.27797934950E+03  0.27797934955E+03  0.50400001928E-02 0.  1.
        1   -1    0    0  501    0  0.00000000000E+00  0.00000000000E+00 -0.10906380516E+04  0.10906380516E+04  0.50400001928E-02 0. -1.
    10030    2    1    2    0    0  0.00000000000E+00  0.00000000000E+00 -0.81265870209E+03  0.13686174011E+04  0.11012263276E+04 0.  0.
        4    1    3    3  502    0  0.44778499990E+03  0.31881858185E+03 -0.36670431877E+03  0.66078011817E+03  0.12699999809E+01 0. -1.
       -4    1    3    3    0  502 -0.44778499990E+03 -0.31881858185E+03 -0.44595438332E+03  0.70783728298E+03  0.12699999809E+01 0.  1.
</event>
<event>
 5   0  0.7946038E-04  0.1099505E+04  0.7818609E-02  0.9205675E-01
       -1   -1    0    0    0  501  0.00000000000E+00  0.00000000000E+00  0.34942946273E+03  0.34942946277E+03  0.50400001928E-02 0.  1.
        1   -1    0    0  501    0  0.00000000000E+00  0.00000000000E+00 -0.86491749341E+03  0.86491749343E+03  0.50400001928E-02 0. -1.
    10030    2    1    2    0    0  0.00000000000E+00  0.00000000000E+00 -0.51548803068E+03  0.12143469562E+04  0.10995047159E+04 0.  0.
        4    1    3    3  502    0  0.10844473400E+03 -0.47906701529E+03 -0.53043465178E+03  0.72293014751E+03  0.12699999809E+01 0. -1.
       -4    1    3    3    0  502 -0.10844473400E+03  0.47906701529E+03  0.14946621099E+02  0.49141680868E+03  0.12699999809E+01 0.  1.
</event>
<event>
 5   0  0.8009636E-04  0.1101342E+04  0.7818609E-02  0.9203885E-01
       -1   -1    0    0    0  501  0.00000000000E+00  0.00000000000E+00  0.41051877084E+03  0.41051877087E+03  0.50400001928E-02 0.  1.
        1   -1    0    0  501    0  0.00000000000E+00  0.00000000000E+00 -0.73867181473E+03  0.73867181475E+03  0.50400001928E-02 0. -1.
    10030    2    1    2    0    0  0.00000000000E+00  0.00000000000E+00 -0.32815304389E+03  0.11491905856E+04  0.11013421729E+04 0.  0.
        1    1    3    3  502    0 -0.16773403174E+03 -0.30409040028E+03 -0.60999901448E+03  0.70192910941E+03  0.50400001928E-02 0. -1.
       -1    1    3    3    0  502  0.16773403174E+03  0.30409040028E+03  0.28184597058E+03  0.44726147621E+03  0.50400001928E-02 0.  1.
</event>
<event>
 5   0  0.8305271E-04  0.1098781E+04  0.7818609E-02  0.9206381E-01
        1   -1    0    0  501    0  0.00000000000E+00  0.00000000000E+00  0.35695833680E+03  0.35695833683E+03  0.50400001928E-02 0. -1.
       -1   -1    0    0    0  501  0.00000000000E+00  0.00000000000E+00 -0.84556104530E+03  0.84556104532E+03  0.50400001928E-02 0.  1.
    10030    2    1    2    0    0  0.00000000000E+00  0.00000000000E+00 -0.48860270851E+03  0.12025193822E+04  0.10987812602E+04 0.  0.
        5    1    3    3  502    0 -0.35199879737E+03 -0.26487542827E+03 -0.60353836490E+03  0.74722338946E+03  0.46999998093E+01 0.  1.
       -5    1    3    3    0  502  0.35199879737E+03  0.26487542827E+03  0.11493565639E+03  0.45529599269E+03  0.46999998093E+01 0. -1.
</event>
<event>
 5   0  0.1372794E-03  0.1087863E+04  0.7818609E-02  0.9217102E-01
        2   -1    0    0  501    0  0.00000000000E+00  0.00000000000E+00  0.42740408288E+03  0.42740408289E+03  0.25500000920E-02 0. -1.
       -2   -1    0    0    0  501  0.00000000000E+00  0.00000000000E+00 -0.69222949840E+03  0.69222949841E+03  0.25500000920E-02 0.  1.
    10030    2    1    2    0    0  0.00000000000E+00  0.00000000000E+00 -0.26482541552E+03  0.11196335813E+04  0.10878634361E+04 0.  0.
        4    1    3    3  502    0 -0.59606345574E+02 -0.40602954265E+03  0.23501057803E+03  0.47291065818E+03  0.12699999809E+01 0. -1.
       -4    1    3    3    0  502  0.59606345574E+02  0.40602954265E+03 -0.49983599355E+03  0.64672292311E+03  0.12699999809E+01 0.  1.
</event>
<event>
 5   0  0.8305271E-04  0.1089981E+04  0.7818609E-02  0.9215013E-01
        1   -1    0    0  501    0  0.00000000000E+00  0.00000000000E+00  0.80996681761E+03  0.80996681763E+03  0.50400001928E-02 0. -1.
       -1   -1    0    0    0  501  0.00000000000E+00  0.00000000000E+00 -0.36669950316E+03  0.36669950320E+03  0.50400001928E-02 0.  1.
    10030    2    1    2    0    0  0.00000000000E+00  0.00000000000E+00  0.44326731445E+03  0.11766663208E+04  0.10899806046E+04 0.  0.
        5    1    3    3  502    0 -0.29445023339E+02  0.29442452528E+03 -0.27240835208E+03  0.40222035101E+03  0.46999998093E+01 0.  1.
       -5    1    3    3    0  502  0.29445023339E+02 -0.29442452528E+03  0.71567566653E+03  0.77444596981E+03  0.46999998093E+01 0. -1.
</event>
<event>
 5   0  0.1372794E-03  0.1099190E+04  0.7818609E-02  0.9205982E-01
        2   -1    0    0  501    0  0.00000000000E+00  0.00000000000E+00  0.18166489774E+04  0.18166489774E+04  0.25500000920E-02 0. -1.
       -2   -1    0    0    0  501  0.00000000000E+00  0.00000000000E+00 -0.16627025932E+03  0.16627025934E+03  0.25500000920E-02 0.  1.
    10030    2    1    2    0    0  0.00000000000E+00  0.00000000000E+00  0.16503787181E+04  0.19829192368E+04  0.10991900593E+04 0.  0.
        4    1    3    3  502    0  0.12227106271E+03 -0.12402310203E+03 -0.11517021100E+03  0.20880070167E+03  0.12699999809E+01 0.  1.
       -4    1    3    3    0  502 -0.12227106271E+03  0.12402310203E+03  0.17655489291E+04  0.17741185351E+04  0.12699999809E+01 0. -1.
</event>
<event>
 5   0  0.8009636E-04  0.1096046E+04  0.7818609E-02  0.9209054E-01
       -1   -1    0    0    0  501  0.00000000000E+00  0.00000000000E+00  0.22576859300E+03  0.22576859306E+03  0.50400001928E-02 0. -1.
        1   -1    0    0  501    0  0.00000000000E+00  0.00000000000E+00 -0.13302523764E+04  0.13302523764E+04  0.50400001928E-02 0.  1.
    10030    2    1    2    0    0  0.00000000000E+00  0.00000000000E+00 -0.11044837834E+04  0.15560209695E+04  0.10960459980E+04 0.  0.
        1    1    3    3  502    0 -0.32624340589E+03 -0.42575682574E+03 -0.71176081533E+03  0.89123907725E+03  0.50400001928E-02 0. -1.
       -1    1    3    3    0  502  0.32624340589E+03  0.42575682574E+03 -0.39272296810E+03  0.66478189224E+03  0.50400001928E-02 0.  1.
</event>
<event>
 5   0  0.1425432E-03  0.1120111E+04  0.7818609E-02  0.9185809E-01
       -2   -1    0    0    0  501  0.00000000000E+00  0.00000000000E+00  0.30267419375E+03  0.30267419376E+03  0.25500000920E-02 0.  1.
        2   -1    0    0  501    0  0.00000000000E+00  0.00000000000E+00 -0.10363037575E+04  0.10363037575E+04  0.25500000920E-02 0. -1.
    10030    2    1    2    0    0  0.00000000000E+00  0.00000000000E+00 -0.73362956377E+03  0.13389779513E+04  0.11201114307E+04 0.  0.
        1    1    3    3  502    0  0.20362079876E+03 -0.49575287273E+03 -0.56115438068E+03  0.77596815624E+03  0.50400001928E-02 0. -1.
       -1    1    3    3    0  502 -0.20362079876E+03  0.49575287273E+03 -0.17247518309E+03  0.56300979505E+03  0.50400001928E-02 0.  1.
</event>
<event>
 5   0  0.8150924E-04  0.1098320E+04  0.7818609E-02  0.9206831E-01
       -1   -1    0    0    0  501  0.00000000000E+00  0.00000000000E+00  0.14771181611E+03  0.14771181620E+03  0.50400001928E-02 0.  1.
        1   -1    0    0  501    0  0.00000000000E+00  0.00000000000E+00 -0.20416548253E+04  0.20416548254E+04  0.50400001928E-02 0. -1.
    10030    2    1    2    0    0  0.00000000000E+00  0.00000000000E+00 -0.18939430092E+04  0.21893666416E+04  0.10983197025E+04 0.  0.
        3    1    3    3  502    0  0.37382900575E+03  0.36879620091E+03 -0.62667730424E+03  0.81760822966E+03  0.10100000352E+00 0.  1.
       -3    1    3    3    0  502 -0.37382900575E+03 -0.36879620091E+03 -0.12672657050E+04  0.13717584119E+04  0.10100000352E+00 0. -1.
</event>
<event>
 5   0  0.1396936E-03  0.1105282E+04  0.7818609E-02  0.9200059E-01
        2   -1    0    0  501    0  0.00000000000E+00  0.00000000000E+00  0.60517724516E+03  0.60517724517E+03  0.25500000920E-02 0. -1.
       -2   -1    0    0    0  501  0.00000000000E+00  0.00000000000E+00 -0.50466531525E+03  0.50466531525E+03  0.25500000920E-02 0.  1.
    10030    2    1    2    0    0  0.00000000000E+00  0.00000000000E+00  0.10051192992E+03  0.11098425604E+04  0.11052818016E+04 0.  0.
        2    1    3    3  502    0  0.41076200382E+03  0.33677966660E+03 -0.10290538838E+03  0.54105035494E+03  0.25500000920E-02 0.  1.
       -2    1    3    3    0  502 -0.41076200382E+03 -0.33677966660E+03  0.20341731829E+03  0.56879220548E+03  0.25500000920E-02 0. -1.
</event>
<event>
 5   0  0.8009636E-04  0.1095356E+04  0.7818609E-02  0.9209730E-01
       -1   -1    0    0    0  501  0.00000000000E+00  0.00000000000E+00  0.65556430387E+03  0.65556430389E+03  0.50400001928E-02 0. -1.
        1   -1    0    0  501    0  0.00000000000E+00  0.00000000000E+00 -0.45754682713E+03  0.45754682716E+03  0.50400001928E-02 0.  1.
    10030    2    1    2    0    0  0.00000000000E+00  0.00000000000E+00  0.19801747674E+03  0.11131111310E+04  0.10953563205E+04 0.  0.
        1    1    3    3  502    0  0.17540518363E+03 -0.46042574441E+03 -0.14401725866E+03  0.51332233088E+03  0.50400001928E-02 0.  1.
       -1    1    3    3    0  502 -0.17540518363E+03  0.46042574441E+03  0.34203473541E+03  0.59978880017E+03  0.50400001928E-02 0. -1.
</event>
<event>
 5   0  0.8150924E-04  0.1099165E+04  0.7818609E-02  0.9206006E-01
       -1   -1    0    0    0  501  0.00000000000E+00  0.00000000000E+00  0.40753714210E+03  0.40753714213E+03  0.50400001928E-02 0. -1.
        1   -1    0    0  501    0  0.00000000000E+00  0.00000000000E+00 -0.74113674518E+03  0.74113674520E+03  0.50400001928E-02 0.  1.
    10030    2    1    2    0    0  0.00000000000E+00  0.00000000000E+00 -0.33359960308E+03  0.11486738873E+04  0.10991646848E+04 0.  0.
        3    1    3    3  502    0  0.95521965527E+02 -0.91837031076E+02 -0.72419288152E+03  0.73621588275E+03  0.10100000352E+00 0.  1.
       -3    1    3    3    0  502 -0.95521965527E+02  0.91837031076E+02  0.39059327844E+03  0.41245800458E+03  0.10100000352E+00 0. -1.
</event>
<event>
 5   0  0.8009636E-04  0.1097721E+04  0.7818609E-02  0.9207416E-01
       -1   -1    0    0    0  501  0.00000000000E+00  0.00000000000E+00  0.35767686361E+03  0.35767686364E+03  0.50400001928E-02 0.  1.
        1   -1    0    0  501    0  0.00000000000E+00  0.00000000000E+00 -0.84223519247E+03  0.84223519248E+03  0.50400001928E-02 0. -1.
    10030    2    1    2    0    0  0.00000000000E+00  0.00000000000E+00 -0.48455832886E+03  0.11999120561E+04  0.10977213528E+04 0.  0.
        1    1    3    3  502    0 -0.50188689087E+03  0.16718249243E+03 -0.40221336611E+03  0.66454196926E+03  0.50400001928E-02 0. -1.
       -1    1    3    3    0  502  0.50188689087E+03 -0.16718249243E+03 -0.82344962751E+02  0.53537008687E+03  0.50400001928E-02 0.  1.
</event>
<event>
 5   0  0.1402775E-03  0.1100734E+04  0.7818609E-02  0.9204477E-01
        2   -1    0    0  501    0  0.00000000000E+00  0.00000000000E+00  0.25049059409E+03  0.25049059410E+03  0.25500000920E-02 0.  1.
       -2   -1    0    0    0  501  0.00000000000E+00  0.00000000000E+00 -0.12092419793E+04  0.12092419793E+04  0.25500000920E-02 0. -1.
    10030    2    1    2    0    0  0.00000000000E+00  0.00000000000E+00 -0.95875138521E+03  0.14597325734E+04  0.11007338312E+04 0.  0.
        5    1    3    3  502    0  0.13461411814E+02  0.37187590625E+03 -0.10170923020E+04  0.10830381988E+04  0.46999998093E+01 0. -1.
       -5    1    3    3    0  502 -0.13461411814E+02 -0.37187590625E+03  0.58340916825E+02  0.37669437457E+03  0.46999998093E+01 0.  1.
</event>
<event>
 5   0  0.1429680E-03  0.1102511E+04  0.7818609E-02  0.9202748E-01
       -2   -1    0    0    0  501  0.00000000000E+00  0.00000000000E+00  0.28588803972E+03  0.28588803973E+03  0.25500000920E-02 0. -1.
        2   -1    0    0  501    0  0.00000000000E+00  0.00000000000E+00 -0.10629428168E+04  0.10629428168E+04  0.25500000920E-02 0.  1.
    10030    2    1    2    0    0  0.00000000000E+00  0.00000000000E+00 -0.77705477709E+03  0.13488308565E+04  0.11025110217E+04 0.  0.
        3    1    3    3  502    0 -0.62340323229E+01  0.52444793096E+03 -0.18091335014E+03  0.55481000884E+03  0.10100000352E+00 0. -1.
       -3    1    3    3    0  502  0.62340323229E+01 -0.52444793096E+03 -0.59614142695E+03  0.79402084770E+03  0.10100000352E+00 0.  1.
</event>
<event>
 5   0  0.1425432E-03  0.1101270E+04  0.7818609E-02  0.9203955E-01
        2   -1    0    0  501    0  0.00000000000E+00  0.00000000000E+00  0.10463852603E+04  0.10463852603E+04  0.25500000920E-02 0.  1.
       -2   -1    0    0    0  501  0.00000000000E+00  0.00000000000E+00 -0.28975836616E+03  0.28975836617E+03  0.25500000920E-02 0. -1.
    10030    2    1    2    0    0  0.00000000000E+00  0.00000000000E+00  0.75662689417E+03  0.13361436265E+04  0.11012699640E+04 0.  0.
        1    1    3    3  502    0  0.11968790460E+03 -0.52435403309E+03  0.23513392237E+03  0.58699259621E+03  0.50400001928E-02 0. -1.
       -1    1    3    3    0  502 -0.11968790460E+03  0.52435403309E+03  0.52149297180E+03  0.74915103029E+03  0.50400001928E-02 0.  1.
</event>
<event>
 5   0  0.8341767E-04  0.1099014E+04  0.7818609E-02  0.9206154E-01
       -1   -1    0    0    0  501  0.00000000000E+00  0.00000000000E+00  0.24718942773E+03  0.24718942778E+03  0.50400001928E-02 0.  1.
        1   -1    0    0  501    0  0.00000000000E+00  0.00000000000E+00 -0.12215646326E+04  0.12215646326E+04  0.50400001928E-02 0. -1.
    10030    2    1    2    0    0  0.00000000000E+00  0.00000000000E+00 -0.97437520485E+03  0.14687540604E+04  0.10990138534E+04 0.  0.
        2    1    3    3  502    0 -0.52741186315E+03 -0.95982570374E+02 -0.32580619570E+03  0.62731619170E+03  0.25500000920E-02 0.  1.
       -2    1    3    3    0  502  0.52741186315E+03  0.95982570374E+02 -0.64856900915E+03  0.84143786868E+03  0.25500000920E-02 0. -1.
</event>
<event>
 5   0  0.8009636E-04  0.1098347E+04  0.7818609E-02  0.9206805E-01
       -1   -1    0    0    0  501  0.00000000000E+00  0.00000000000E+00  0.62539463549E+03  0.62539463552E+03  0.50400001928E-02 0. -1.
        1   -1    0    0  501    0  0.00000000000E+00  0.00000000000E+00 -0.48224179311E+03  0.48224179313E+03  0.50400001928E-02 0.  1.
    10030    2    1    2    0    0  0.00000000000E+00  0.00000000000E+00  0.14315284239E+03  0.11076364286E+04  0.10983468131E+04 0.  0.
        1    1    3    3  502    0  0.50525671647E+03 -0.10858817221E+03  0.25893173478E+03  0.57803233818E+03  0.50400001928E-02 0. -1.
       -1    1    3    3    0  502 -0.50525671647E+03  0.10858817221E+03 -0.11577889239E+03  0.52960409046E+03  0.50400001928E-02 0.  1.
</event>
<event>
 5   0  0.1402775E-03  0.1099887E+04  0.7818609E-02  0.9205302E-01
       -2   -1    0    0    0  501  0.00000000000E+00  0.00000000000E+00  0.36302348196E+03  0.36302348197E+03  0.25500000920E-02 0. -1.
        2   -1    0    0  501    0  0.00000000000E+00  0.00000000000E+00 -0.83310784877E+03  0.83310784877E+03  0.25500000920E-02 0.  1.
    10030    2    1    2    0    0  0.00000000000E+00  0.00000000000E+00 -0.47008436681E+03  0.11961313307E+04  0.10998867435E+04 0.  0.
        5    1    3    3  502    0 -0.27949372191E+02  0.48220262802E+03  0.50859891196E+02  0.48570501378E+03  0.46999998093E+01 0. -1.
       -5    1    3    3    0  502  0.27949372191E+02 -0.48220262802E+03 -0.52094425800E+03  0.71042631696E+03  0.46999998093E+01 0.  1.
</event>
<event>
 5   0  0.8150924E-04  0.1093049E+04  0.7818609E-02  0.9211994E-01
       -1   -1    0    0    0  501  0.00000000000E+00  0.00000000000E+00  0.58586917838E+03  0.58586917840E+03  0.50400001928E-02 0.  1.
        1   -1    0    0  501    0  0.00000000000E+00  0.00000000000E+00 -0.50982174890E+03  0.50982174892E+03  0.50400001928E-02 0. -1.
    10030    2    1    2    0    0  0.00000000000E+00  0.00000000000E+00  0.76047429482E+02  0.10956909273E+04  0.10930486708E+04 0.  0.
        3    1    3    3  502    0  0.10268900731E+03  0.46260820904E+03  0.31096384351E+03  0.56678912257E+03  0.10100000352E+00 0.  1.
       -3    1    3    3    0  502 -0.10268900731E+03 -0.46260820904E+03 -0.23491641403E+03  0.52890180475E+03  0.10100000352E+00 0. -1.
</event>
<event>
 5   0  0.7946038E-04  0.1092476E+04  0.7818609E-02  0.9212557E-01
       -1   -1    0    0    0  501  0.00000000000E+00  0.00000000000E+00  0.33961987402E+03  0.33961987406E+03  0.50400001928E-02 0.  1.
        1   -1    0    0  501    0  0.00000000000E+00  0.00000000000E+00 -0.87855794896E+03  0.87855794897E+03  0.50400001928E-02 0. -1.
    10030    2    1    2    0    0  0.00000000000E+00  0.00000000000E+00 -0.53893807494E+03  0.12181778230E+04  0.10924756107E+04 0.  0.
        4    1    3    3  502    0  0.18516291506E+03  0.10537025554E+03 -0.83031955356E+03  0.85721664111E+03  0.12699999809E+01 0. -1.
       -4    1    3    3    0  502 -0.18516291506E+03 -0.10537025554E+03  0.29138147863E+03  0.36096118192E+03  0.12699999809E+01 0.  1.
</event>
<event>
 5   0  0.1402775E-03  0.1099344E+04  0.7818609E-02  0.9205831E-01
        2   -1    0    0  501    0  0.00000000000E+00  0.00000000000E+00  0.53632127221E+03  0.53632127222E+03  0.25500000920E-02 0. -1.
       -2   -1    0    0    0  501  0.00000000000E+00  0.00000000000E+00 -0.56335539858E+03  0.56335539859E+03  0.25500000920E-02 0.  1.
    10030    2    1    2    0    0  0.00000000000E+00  0.00000000000E+00 -0.27034126373E+02  0.10996766708E+04  0.10993443211E+04 0.  0.
        5    1    3    3  502    0  0.21733259456E+03  0.11781852332E+03 -0.50458576829E+03  0.56191062336E+03  0.46999998093E+01 0.  1.
       -5    1    3    3    0  502 -0.21733259456E+03 -0.11781852332E+03  0.47755164191E+03  0.53776604744E+03  0.46999998093E+01 0. -1.
</event>
<event>
 5   0  0.8305271E-04  0.1102388E+04  0.7818609E-02  0.9202867E-01
        1   -1    0    0  501    0  0.00000000000E+00  0.00000000000E+00  0.96387086474E+03  0.96387086475E+03  0.50400001928E-02 0. -1.
       -1   -1    0    0    0  501  0.00000000000E+00  0.00000000000E+00 -0.31520287110E+03  0.31520287114E+03  0.50400001928E-02 0.  1.
    10030    2    1    2    0    0  0.00000000000E+00  0.00000000000E+00  0.64866799364E+03  0.12790737359E+04  0.11023880696E+04 0.  0.
        5    1    3    3  502    0 -0.17694797817E+02 -0.50287303006E+03  0.63340672519E+02  0.50717701153E+03  0.46999998093E+01 0.  1.
       -5    1    3    3    0  502  0.17694797817E+02  0.50287303006E+03  0.58532732112E+03  0.77189672436E+03  0.46999998093E+01 0. -1.
</event>
<event>
 5   0  0.1402775E-03  0.1097970E+04  0.7818609E-02  0.9207173E-01
        2   -1    0    0  501    0  0.00000000000E+00  0.00000000000E+00  0.13322817716E+04  0.13322817716E+04  0.25500000920E-02 0.  1.
       -2   -1    0    0    0  501  0.00000000000E+00  0.00000000000E+00 -0.22621683877E+03  0.22621683879E+03  0.25500000920E-02 0. -1.
    10030    2    1    2    0    0  0.00000000000E+00  0.00000000000E+00  0.11060649328E+04  0.15584986103E+04  0.10979700738E+04 0.  0.
        5    1    3    3  502    0 -0.45286364449E+03 -0.30901048274E+03  0.59291639906E+03  0.80755489301E+03  0.46999998093E+01 0.  1.
       -5    1    3    3    0  502  0.45286364449E+03  0.30901048274E+03  0.51314853372E+03  0.75094371733E+03  0.46999998093E+01 0. -1.
</event>
<event>
 5   0  0.1372794E-03  0.1103962E+04  0.7818609E-02  0.9201339E-01
        2   -1    0    0  501    0  0.00000000000E+00  0.00000000000E+00  0.10840967283E+04  0.10840967283E+04  0.25500000920E-02 0. -1.
       -2   -1    0    0    0  501  0.00000000000E+00  0.00000000000E+00 -0.28104775598E+03  0.28104775599E+03  0.25500000920E-02 0.  1.
    10030    2    1    2    0    0  0.00000000000E+00  0.00000000000E+00  0.80304897229E+03  0.13651444843E+04  0.11039618703E+04 0.  0.
        4    1    3    3  502    0  0.11464731049E+03  0.31747293699E+03 -0.13855147491E+03  0.36487147823E+03  0.12699999809E+01 0.  1.
       -4    1    3    3    0  502 -0.11464731049E+03 -0.31747293699E+03  0.94160044720E+03  0.10002730060E+04  0.12699999809E+01 0. -1.
</event>
<event>
 5   0  0.1425432E-03  0.1095950E+04  0.7818609E-02  0.9209149E-01
       -2   -1    0    0    0  501  0.00000000000E+00  0.00000000000E+00  0.16092700652E+03  0.16092700654E+03  0.25500000920E-02 0.  1.
        2   -1    0    0  501    0  0.00000000000E+00  0.00000000000E+00 -0.18659164760E+04  0.18659164760E+04  0.25500000920E-02 0. -1.
    10030    2    1    2    0    0  0.00000000000E+00  0.00000000000E+00 -0.17049894695E+04  0.20268434825E+04  0.10959495480E+04 0.  0.
        1    1    3    3  502    0 -0.31229495886E+03  0.43216649405E+03 -0.61870654765E+03  0.81675811110E+03  0.50400001928E-02 0.  1.
       -1    1    3    3    0  502  0.31229495886E+03 -0.43216649405E+03 -0.10862829218E+04  0.12100853714E+04  0.50400001928E-02 0. -1.
</event>
<event>
 5   0  0.1425432E-03  0.1106447E+04  0.7818609E-02  0.9198931E-01
       -2   -1    0    0    0  501  0.00000000000E+00  0.00000000000E+00  0.20316826453E+03  0.20316826455E+03  0.25500000920E-02 0.  1.
        2   -1    0    0  501    0  0.00000000000E+00  0.00000000000E+00 -0.15064163160E+04  0.15064163160E+04  0.25500000920E-02 0. -1.
    10030    2    1    2    0    0  0.00000000000E+00  0.00000000000E+00 -0.13032480515E+04  0.17095845806E+04  0.11064465439E+04 0.  0.
        1    1    3    3  502    0  0.35780861689E+03  0.64070102669E+02 -0.72471923403E+01  0.36357187212E+03  0.50400001928E-02 0.  1.
       -1    1    3    3    0  502 -0.35780861689E+03 -0.64070102669E+02 -0.12960008591E+04  0.13460127084E+04  0.50400001928E-02 0. -1.
</event>
<event>
 5   0  0.8341767E-04  0.1098228E+04  0.7818609E-02  0.9206920E-01
        1   -1    0    0  501    0  0.00000000000E+00  0.00000000000E+00  0.15287609699E+04  0.15287609699E+04  0.50400001928E-02 0. -1.
       -1   -1    0    0    0  501  0.00000000000E+00  0.00000000000E+00 -0.19723577739E+03  0.19723577745E+03  0.50400001928E-02 0.  1.
    10030    2    1    2    0    0  0.00000000000E+00  0.00000000000E+00  0.13315251925E+04  0.17259967474E+04  0.10982283158E+04 0.  0.
        2    1    3    3  502    0 -0.31830742796E+03 -0.19984272157E+03  0.12949397554E+04  0.13483789164E+04  0.25500000920E-02 0. -1.
       -2    1    3    3    0  502  0.31830742796E+03  0.19984272157E+03  0.36585437118E+02  0.37761783098E+03  0.25500000920E-02 0.  1.
</event>
<event>
 5   0  0.1425432E-03  0.1104713E+04  0.7818609E-02  0.9200610E-01
       -2   -1    0    0    0  501  0.00000000000E+00  0.00000000000E+00  0.38670201895E+03  0.38670201896E+03  0.25500000920E-02 0.  1.
        2   -1    0    0  501    0  0.00000000000E+00  0.00000000000E+00 -0.78897368256E+03  0.78897368257E+03  0.25500000920E-02 0. -1.
    10030    2    1    2    0    0  0.00000000000E+00  0.00000000000E+00 -0.40227166361E+03  0.11756757015E+04  0.11047130233E+04 0.  0.
        1    1    3    3  502    0  0.39740237510E+03  0.15317386043E+03  0.17317717581E+03  0.45976212708E+03  0.50400001928E-02 0.  1.
       -1    1    3    3    0  502 -0.39740237510E+03 -0.15317386043E+03 -0.57544883942E+03  0.71591357444E+03  0.50400001928E-02 0. -1.
</event>
<event>
 5   0  0.8305271E-04  0.1110232E+04  0.7818609E-02  0.9195276E-01
        1   -1    0    0  501    0  0.00000000000E+00  0.00000000000E+00  0.63521675637E+03  0.63521675639E+03  0.50400001928E-02 0.  1.
       -1   -1    0    0    0  501  0.00000000000E+00  0.00000000000E+00 -0.48511614673E+03  0.48511614676E+03  0.50400001928E-02 0. -1.
    10030    2    1    2    0    0  0.00000000000E+00  0.00000000000E+00  0.15010060963E+03  0.11203329031E+04  0.11102322374E+04 0.  0.
        5    1    3    3  502    0 -0.49845170135E+03  0.12067684774E+03 -0.13928457319E+03  0.53145016933E+03  0.46999998093E+01 0. -1.
       -5    1    3    3    0  502  0.49845170135E+03 -0.12067684774E+03  0.28938518282E+03  0.58888273382E+03  0.46999998093E+01 0.  1.
</event>
<event>
 5   0  0.8150924E-04  0.1099594E+04  0.7818609E-02  0.9205588E-01
        1   -1    0    0  501    0  0.00000000000E+00  0.00000000000E+00  0.12075288173E+04  0.12075288174E+04  0.50400001928E-02 0.  1.
       -1   -1    0    0    0  501  0.00000000000E+00  0.00000000000E+00 -0.25032658124E+03  0.25032658130E+03  0.50400001928E-02 0. -1.
    10030    2    1    2    0    0  0.00000000000E+00  0.00000000000E+00  0.95720223611E+03  0.14578553987E+04  0.10995936716E+04 0.  0.
        3    1    3    3  502    0  0.61111368072E+02  0.44790262932E+03  0.63714506975E+02  0.45652044123E+03  0.10100000352E+00 0. -1.
       -3    1    3    3    0  502 -0.61111368072E+02 -0.44790262932E+03  0.89348772913E+03  0.10013349574E+04  0.10100000352E+00 0.  1.
</event>
<event>
 5   0  0.1372794E-03  0.1100366E+04  0.7818609E-02  0.9204835E-01
       -2   -1    0    0    0  501  0.00000000000E+00  0.00000000000E+00  0.14206015506E+03  0.14206015508E+03  0.25500000920E-02 0.  1.
        2   -1    0    0  501    0  0.00000000000E+00  0.00000000000E+00 -0.21307984988E+04  0.21307984988E+04  0.25500000920E-02 0. -1.
    10030    2    1    2    0    0  0.00000000000E+00  0.00000000000E+00 -0.19887383437E+04  0.22728586539E+04  0.11003664211E+04 0.  0.
        4    1    3    3  502    0  0.49408866021E+03 -0.95625021224E+02 -0.14536095693E+04  0.15382620524E+04  0.12699999809E+01 0. -1.
       -4    1    3    3    0  502 -0.49408866021E+03  0.95625021224E+02 -0.53512877438E+03  0.73459660148E+03  0.12699999809E+01 0.  1.
</event>
<event>
 5   0  0.7946038E-04  0.1100960E+04  0.7818609E-02  0.9204257E-01
       -1   -1    0    0    0  501  0.00000000000E+00  0.00000000000E+00  0.34843089305E+03  0.34843089309E+03  0.50400001928E-02 0. -1.
        1   -1    0    0  501    0  0.00000000000E+00  0.00000000000E+00 -0.86969400034E+03  0.86969400035E+03  0.50400001928E-02 0.  1.
    10030    2    1    2    0    0  0.00000000000E+00  0.00000000000E+00 -0.52126310729E+03  0.12181248934E+04  0.11009600488E+04 0.  0.
        4    1    3    3  502    0 -0.34213579329E+03 -0.24251720756E+03 -0.65516809351E+03  0.77789352785E+03  0.12699999809E+01 0.  1.
       -4    1    3    3    0  502  0.34213579329E+03  0.24251720756E+03  0.13390498622E+03  0.44023136559E+03  0.12699999809E+01 0. -1.
</event>
<event>
 5   0  0.1429680E-03  0.1098817E+04  0.7818609E-02  0.9206345E-01
       -2   -1    0    0    0  501  0.00000000000E+00  0.00000000000E+00  0.46036879852E+03  0.46036879853E+03  0.25500000920E-02 0.  1.
        2   -1    0    0  501    0  0.00000000000E+00  0.00000000000E+00 -0.65566991576E+03  0.65566991577E+03  0.25500000920E-02 0. -1.
    10030    2    1    2    0    0  0.00000000000E+00  0.00000000000E+00 -0.19530111724E+03  0.11160387143E+04  0.10988174941E+04 0.  0.
        3    1    3    3  502    0 -0.33515636861E+03 -0.41147931687E+03 -0.24202239941E+03  0.58328369739E+03  0.10100000352E+00 0. -1.
       -3    1    3    3    0  502  0.33515636861E+03  0.41147931687E+03  0.46721282170E+02  0.53275501690E+03  0.10100000352E+00 0.  1.
</event>
<event>
 5   0  0.1429680E-03  0.1097667E+04  0.7818609E-02  0.9207469E-01
        2   -1    0    0  501    0  0.00000000000E+00  0.00000000000E+00  0.40460757849E+03  0.40460757850E+03  0.25500000920E-02 0.  1.
       -2   -1    0    0    0  501  0.00000000000E+00  0.00000000000E+00 -0.74447027132E+03  0.74447027132E+03  0.25500000920E-02 0. -1.
    10030    2    1    2    0    0  0.00000000000E+00  0.00000000000E+00 -0.33986269283E+03  0.11490778498E+04  0.10976671877E+04 0.  0.
        3    1    3    3  502    0  0.25484986257E+03  0.33861872993E+03  0.19512375987E+03  0.46656659608E+03  0.10100000352E+00 0.  1.
       -3    1    3    3    0  502 -0.25484986257E+03 -0.33861872993E+03 -0.53498645270E+03  0.68251125374E+03  0.10100000352E+00 0. -1.
</event>
<event>
 5   0  0.1429680E-03  0.1098661E+04  0.7818609E-02  0.9206498E-01
        2   -1    0    0  501    0  0.00000000000E+00  0.00000000000E+00  0.14156664642E+04  0.14156664642E+04  0.25500000920E-02 0.  1.
       -2   -1    0    0    0  501  0.00000000000E+00  0.00000000000E+00 -0.21316054483E+03  0.21316054484E+03  0.25500000920E-02 0. -1.
    10030    2    1    2    0    0  0.00000000000E+00  0.00000000000E+00  0.12025059194E+04  0.16288270091E+04  0.10986614307E+04 0.  0.
        3    1    3    3  502    0 -0.38592145135E+02 -0.25416295669E+03  0.13209816586E+04  0.13457639892E+04  0.10100000352E+00 0.  1.
       -3    1    3    3    0  502  0.38592145135E+02  0.25416295669E+03 -0.11847573918E+03  0.28306301983E+03  0.10100000352E+00 0. -1.
</event>
<event>
 5   0  0.8341767E-04  0.1098347E+04  0.7818609E-02  0.9206804E-01
        1   -1    0    0  501    0  0.00000000000E+00  0.00000000000E+00  0.60827954938E+03  0.60827954940E+03  0.50400001928E-02 0. -1.
       -1   -1    0    0    0  501  0.00000000000E+00  0.00000000000E+00 -0.49581082121E+03  0.49581082123E+03  0.50400001928E-02 0.  1.
    10030    2    1    2    0    0  0.00000000000E+00  0.00000000000E+00  0.11246872817E+03  0.11040903706E+04  0.10983470907E+04 0.  0.
        2    1    3    3  502    0  0.35987143509E+03 -0.40746541005E+03 -0.21993335536E+02  0.54407648084E+03  0.25500000920E-02 0.  1.
       -2    1    3    3    0  502 -0.35987143509E+03  0.40746541005E+03  0.13446206370E+03  0.56001388980E+03  0.25500000920E-02 0. -1.
</event>
<event>
 5   0  0.1402775E-03  0.1090414E+04  0.7818609E-02  0.9214585E-01
        2   -1    0    0  501    0  0.00000000000E+00  0.00000000000E+00  0.16844990157E+04  0.16844990157E+04  0.25500000920E-02 0. -1.
       -2   -1    0    0    0  501  0.00000000000E+00  0.00000000000E+00 -0.17646245354E+03  0.17646245356E+03  0.25500000920E-02 0.  1.
    10030    2    1    2    0    0  0.00000000000E+00  0.00000000000E+00  0.15080365622E+04  0.18609614693E+04  0.10904142870E+04 0.  0.
        5    1    3    3  502    0  0.41087629552E+03 -0.17179269574E+03  0.12907245916E+04  0.13654025494E+04  0.46999998093E+01 0. -1.
       -5    1    3    3    0  502 -0.41087629552E+03  0.17179269574E+03  0.21731197057E+03  0.49555891989E+03  0.46999998093E+01 0.  1.
</event>
<event>
 5   0  0.1402775E-03  0.1101942E+04  0.7818609E-02  0.9203301E-01
       -2   -1    0    0    0  501  0.00000000000E+00  0.00000000000E+00  0.21957227439E+03  0.21957227440E+03  0.25500000920E-02 0.  1.
        2   -1    0    0  501    0  0.00000000000E+00  0.00000000000E+00 -0.13825472045E+04  0.13825472045E+04  0.25500000920E-02 0. -1.
    10030    2    1    2    0    0  0.00000000000E+00  0.00000000000E+00 -0.11629749301E+04  0.16021194789E+04  0.11019419842E+04 0.  0.
        5    1    3    3  502    0 -0.25294368731E+03 -0.61710799459E+02 -0.12874303827E+04  0.13135021173E+04  0.46999998093E+01 0. -1.
       -5    1    3    3    0  502  0.25294368731E+03  0.61710799459E+02  0.12445545265E+03  0.28861736159E+03  0.46999998093E+01 0.  1.
</event>
<event>
 5   0  0.1372794E-03  0.1098514E+04  0.7818609E-02  0.9206642E-01
       -2   -1    0    0    0  501  0.00000000000E+00  0.00000000000E+00  0.52650633297E+03  0.52650633298E+03  0.25500000920E-02 0.  1.
        2   -1    0    0  501    0  0.00000000000E+00  0.00000000000E+00 -0.57299024040E+03  0.57299024040E+03  0.25500000920E-02 0. -1.
    10030    2    1    2    0    0  0.00000000000E+00  0.00000000000E+00 -0.46483907428E+02  0.10994965734E+04  0.10985135235E+04 0.  0.
        4    1    3    3  502    0 -0.33094906313E+03  0.26476729978E+02  0.41470312321E+03  0.53123308718E+03  0.12699999809E+01 0.  1.
       -4    1    3    3    0  502  0.33094906313E+03 -0.26476729978E+02 -0.46118703064E+03  0.56826348620E+03  0.12699999809E+01 0. -1.
</event>
<event>
 5   0  0.1372794E-03  0.1088065E+04  0.7818609E-02  0.9216903E-01
        2   -1    0    0  501    0  0.00000000000E+00  0.00000000000E+00  0.46317201297E+03  0.46317201298E+03  0.25500000920E-02 0. -1.
       -2   -1    0    0    0  501  0.00000000000E+00  0.00000000000E+00 -0.63901001855E+03  0.63901001855E+03  0.25500000920E-02 0.  1.
    10030    2    1    2    0    0  0.00000000000E+00  0.00000000000E+00 -0.17583800557E+03  0.11021820315E+04  0.10880653594E+04 0.  0.
        4    1    3    3  502    0  0.10096868886E+02 -0.25790111635E+03 -0.57304266635E+03  0.62848583351E+03  0.12699999809E+01 0.  1.
       -4    1    3    3    0  502 -0.10096868886E+02  0.25790111635E+03  0.39720466078E+03  0.47369619802E+03  0.12699999809E+01 0. -1.
</event>
<event>
 5   0  0.8341767E-04  0.1120912E+04  0.7818609E-02  0.9185046E-01
        1   -1    0    0  501    0  0.00000000000E+00  0.00000000000E+00  0.46001523683E+03  0.46001523686E+03  0.50400001928E-02 0.  1.
       -1   -1    0    0    0  501  0.00000000000E+00  0.00000000000E+00 -0.68282694037E+03  0.68282694038E+03  0.50400001928E-02 0. -1.
    10030    2    1    2    0    0  0.00000000000E+00  0.00000000000E+00 -0.22281170353E+03  0.11428421772E+04  0.11209117659E+04 0.  0.
        2    1    3    3  502    0  0.16207141184E+03 -0.15707610907E+03 -0.63444433188E+03  0.67339413187E+03  0.25500000920E-02 0. -1.
       -2    1    3    3    0  502 -0.16207141184E+03  0.15707610907E+03  0.41163262835E+03  0.46944804537E+03  0.25500000920E-02 0.  1.
</event>
<event>
 5   0  0.1429680E-03  0.1082313E+04  0.7818609E-02  0.9222605E-01
        2   -1    0    0  501    0  0.00000000000E+00  0.00000000000E+00  0.13409284539E+04  0.13409284539E+04  0.25500000920E-02 0. -1.
       -2   -1    0    0    0  501  0.00000000000E+00  0.00000000000E+00 -0.21839358280E+03  0.21839358281E+03  0.25500000920E-02 0.  1.
    10030    2    1    2    0    0  0.00000000000E+00  0.00000000000E+00  0.11225348711E+04  0.15593220367E+04  0.10823126523E+04 0.  0.
        3    1    3    3  502    0 -0.23716312800E+03  0.74680616998E+02 -0.13122349327E+03  0.28114615278E+03  0.10100000352E+00 0.  1.
       -3    1    3    3    0  502  0.23716312800E+03 -0.74680616998E+02  0.12537583644E+04  0.12781758839E+04  0.10100000352E+00 0. -1.
</event>
<event>
 5   0  0.7946038E-04  0.1099755E+04  0.7818609E-02  0.9205431E-01
       -1   -1    0    0    0  501  0.00000000000E+00  0.00000000000E+00  0.41857743390E+03  0.41857743393E+03  0.50400001928E-02 0. -1.
        1   -1    0    0  501    0  0.00000000000E+00  0.00000000000E+00 -0.72236339049E+03  0.72236339051E+03  0.50400001928E-02 0.  1.
    10030    2    1    2    0    0  0.00000000000E+00  0.00000000000E+00 -0.30378595659E+03  0.11409408244E+04  0.10997545442E+04 0.  0.
        4    1    3    3  502    0 -0.45915603257E+03 -0.28495262278E+03 -0.46393185792E+02  0.54238012506E+03  0.12699999809E+01 0. -1.
       -4    1    3    3    0  502  0.45915603257E+03  0.28495262278E+03 -0.25739277080E+03  0.59856069937E+03  0.12699999809E+01 0.  1.
</event>
<event>
 5   0  0.1425432E-03  0.1103231E+04  0.7818609E-02  0.9202048E-01
       -2   -1    0    0    0  501  0.00000000000E+00  0.00000000000E+00  0.26343433396E+03  0.26343433397E+03  0.25500000920E-02 0.  1.
        2   -1    0    0  501    0  0.00000000000E+00  0.00000000000E+00 -0.11550494316E+04  0.11550494316E+04  0.25500000920E-02 0. -1.
    10030    2    1    2    0    0  0.00000000000E+00  0.00000000000E+00 -0.89161509763E+03  0.14184837656E+04  0.11032310324E+04 0.  0.
        1    1    3    3  502    0  0.67072952730E-01 -0.48565457069E+03 -0.10949176574E+03  0.49784416570E+03  0.50400001928E-02 0.  1.
       -1    1    3    3    0  502 -0.67072952730E-01  0.48565457069E+03 -0.78212333189E+03  0.92063959987E+03  0.50400001928E-02 0. -1.
</event>
<event>
 5   0  0.1396936E-03  0.1104369E+04  0.7818609E-02  0.9200944E-01
       -2   -1    0    0    0  501  0.00000000000E+00  0.00000000000E+00  0.14703656123E+03  0.14703656125E+03  0.25500000920E-02 0.  1.
        2   -1    0    0  501    0  0.00000000000E+00  0.00000000000E+00 -0.20736862780E+04  0.20736862780E+04  0.25500000920E-02 0. -1.
    10030    2    1    2    0    0  0.00000000000E+00  0.00000000000E+00 -0.19266497168E+04  0.22207228393E+04  0.11043689590E+04 0.  0.
        2    1    3    3  502    0 -0.23796905425E+03 -0.42552767679E+03 -0.44203443249E+03  0.65810144659E+03  0.25500000920E-02 0.  1.
       -2    1    3    3    0  502  0.23796905425E+03  0.42552767679E+03 -0.14846152843E+04  0.15626213927E+04  0.25500000920E-02 0. -1.
</event>
<event>
 5   0  0.7946038E-04  0.1144750E+04  0.7818609E-02  0.9162641E-01
       -1   -1    0    0    0  501  0.00000000000E+00  0.00000000000E+00  0.46878706731E+03  0.46878706734E+03  0.50400001928E-02 0. -1.
        1   -1    0    0  501    0  0.00000000000E+00  0.00000000000E+00 -0.69885248901E+03  0.69885248902E+03  0.50400001928E-02 0.  1.
    10030    2    1    2    0    0  0.00000000000E+00  0.00000000000E+00 -0.23006542169E+03  0.11676395564E+04  0.11447497697E+04 0.  0.
        4    1    3    3  502    0  0.99871082611E+02 -0.55927159069E+03 -0.18608511828E+03  0.59781956261E+03  0.12699999809E+01 0.  1.
       -4    1    3    3    0  502 -0.99871082611E+02  0.55927159069E+03 -0.43980303411E+02  0.56981999375E+03  0.12699999809E+01 0. -1.
</event>
<event>
 5   0  0.8341767E-04  0.1101402E+04  0.7818609E-02  0.9203826E-01
        1   -1    0    0  501    0  0.00000000000E+00  0.00000000000E+00  0.12257489064E+04  0.12257489064E+04  0.50400001928E-02 0.  1.
       -1   -1    0    0    0  501  0.00000000000E+00  0.00000000000E+00 -0.24741761107E+03  0.24741761112E+03  0.50400001928E-02 0. -1.
    10030    2    1    2    0    0  0.00000000000E+00  0.00000000000E+00  0.97833129530E+03  0.14731665175E+04  0.11014024991E+04 0.  0.
        2    1    3    3  502    0  0.42444807525E+03 -0.21305941770E+03  0.11627968065E+03  0.48894933091E+03  0.25500000920E-02 0. -1.
       -2    1    3    3    0  502 -0.42444807525E+03  0.21305941770E+03  0.86205161466E+03  0.98421718660E+03  0.25500000920E-02 0.  1.
</event>
<event>
 5   0  0.1372794E-03  0.1102272E+04  0.7818609E-02  0.9202980E-01
        2   -1    0    0  501    0  0.00000000000E+00  0.00000000000E+00  0.14334713109E+04  0.14334713109E+04  0.25500000920E-02 0. -1.
       -2   -1    0    0    0  501  0.00000000000E+00  0.00000000000E+00 -0.21189885391E+03  0.21189885393E+03  0.25500000920E-02 0.  1.
    10030    2    1    2    0    0  0.00000000000E+00  0.00000000000E+00  0.12215724570E+04  0.16453701648E+04  0.11022720679E+04 0.  0.
        4    1    3    3  502    0 -0.49169892937E+03  0.14492114774E+03  0.30861209237E+03  0.59834188610E+03  0.12699999809E+01 0.  1.
       -4    1    3    3    0  502  0.49169892937E+03 -0.14492114774E+03  0.91296036463E+03  0.10470282787E+04  0.12699999809E+01 0. -1.
</event>
<event>
 5   0  0.1372794E-03  0.1097986E+04  0.7818609E-02  0.9207157E-01
        2   -1    0    0  501    0  0.00000000000E+00  0.00000000000E+00  0.13220504045E+04  0.13220504046E+04  0.25500000920E-02 0.  1.
       -2   -1    0    0    0  501  0.00000000000E+00  0.00000000000E+00 -0.22797424476E+03  0.22797424477E+03  0.25500000920E-02 0. -1.
    10030    2    1    2    0    0  0.00000000000E+00  0.00000000000E+00  0.10940761598E+04  0.15500246493E+04  0.10979862340E+04 0.  0.
        4    1    3    3  502    0  0.54582127637E+03 -0.51786088679E+02  0.58669560348E+03  0.80300436410E+03  0.12699999809E+01 0. -1.
       -4    1    3    3    0  502 -0.54582127637E+03  0.51786088679E+02  0.50738055631E+03  0.74702028523E+03  0.12699999809E+01 0.  1.
</event>
<event>
 5   0  0.7946038E-04  0.1102066E+04  0.7818609E-02  0.9203181E-01
       -1   -1    0    0    0  501  0.00000000000E+00  0.00000000000E+00  0.71811067705E+03  0.71811067707E+03  0.50400001928E-02 0.  1.
        1   -1    0    0  501    0  0.00000000000E+00  0.00000000000E+00 -0.42282773802E+03  0.42282773805E+03  0.50400001928E-02 0. -1.
    10030    2    1    2    0    0  0.00000000000E+00  0.00000000000E+00  0.29528293903E+03  0.11409384151E+04  0.11020655393E+04 0.  0.
        4    1    3    3  502    0  0.26959162451E+03  0.45861043971E+03 -0.10646437949E+01  0.53198301268E+03  0.12699999809E+01 0. -1.
       -4    1    3    3    0  502 -0.26959162451E+03 -0.45861043971E+03  0.29634758283E+03  0.60895540244E+03  0.12699999809E+01 0.  1.
</event>
<event>
 5   0  0.8341767E-04  0.1098398E+04  0.7818609E-02  0.9206754E-01
       -1   -1    0    0    0  501  0.00000000000E+00  0.00000000000E+00  0.40319411559E+03  0.40319411562E+03  0.50400001928E-02 0. -1.
        1   -1    0    0  501    0  0.00000000000E+00  0.00000000000E+00 -0.74807586440E+03  0.74807586442E+03  0.50400001928E-02 0.  1.
    10030    2    1    2    0    0  0.00000000000E+00  0.00000000000E+00 -0.34488174881E+03  0.11512699800E+04  0.10983984460E+04 0.  0.
        2    1    3    3  502    0 -0.10639594962E+03  0.52804535508E+03 -0.28468333108E+03  0.60925905338E+03  0.25500000920E-02 0.  1.
       -2    1    3    3    0  502  0.10639594962E+03 -0.52804535508E+03 -0.60198417721E+02  0.54201092666E+03  0.25500000920E-02 0. -1.
</event>
<event>
 5   0  0.1402775E-03  0.1099996E+04  0.7818609E-02  0.9205196E-01
       -2   -1    0    0    0  501  0.00000000000E+00  0.00000000000E+00  0.18866924955E+03  0.18866924957E+03  0.25500000920E-02 0.  1.
        2   -1    0    0  501    0  0.00000000000E+00  0.00000000000E+00 -0.16033238608E+04  0.16033238608E+04  0.25500000920E-02 0. -1.
    10030    2    1    2    0    0  0.00000000000E+00  0.00000000000E+00 -0.14146546112E+04  0.17919931103E+04  0.10999961993E+04 0.  0.
        5    1    3    3  502    0  0.44389230637E+03 -0.30359519818E+02 -0.18066547470E+03  0.48023346806E+03  0.46999998093E+01 0.  1.
       -5    1    3    3    0  502 -0.44389230637E+03  0.30359519818E+02 -0.12339891365E+04  0.13117596423E+04  0.46999998093E+01 0. -1.
</event>
<event>
 5   0  0.1402775E-03  0.1100566E+04  0.7818609E-02  0.9204640E-01
        2   -1    0    0  501    0  0.00000000000E+00  0.00000000000E+00  0.30351286638E+03  0.30351286639E+03  0.25500000920E-02 0. -1.
       -2   -1    0    0    0  501  0.00000000000E+00  0.00000000000E+00 -0.99768855424E+03  0.99768855424E+03  0.25500000920E-02 0.  1.
    10030    2    1    2    0    0  0.00000000000E+00  0.00000000000E+00 -0.69417568786E+03  0.13012014206E+04  0.11005658778E+04 0.  0.
        5    1    3    3  502    0 -0.29053909312E+03  0.68256377294E+02 -0.89366106515E+03  0.94219110961E+03  0.46999998093E+01 0.  1.
       -5    1    3    3    0  502  0.29053909312E+03 -0.68256377294E+02  0.19948537729E+03  0.35901031103E+03  0.46999998093E+01 0. -1.
</event>
<event>
 5   0  0.8305271E-04  0.1097236E+04  0.7818609E-02  0.9207890E-01
       -1   -1    0    0    0  501  0.00000000000E+00  0.00000000000E+00  0.92318057174E+03  0.92318057175E+03  0.50400001928E-02 0.  1.
        1   -1    0    0  501    0  0.00000000000E+00  0.00000000000E+00 -0.32602700571E+03  0.32602700575E+03  0.50400001928E-02 0. -1.
    10030    2    1    2    0    0  0.00000000000E+00  0.00000000000E+00  0.59715356602E+03  0.12492075775E+04  0.10972361598E+04 0.  0.
        5    1    3    3  502    0 -0.14375270684E+02  0.35033024073E+03  0.77894146592E+03  0.85423054459E+03  0.46999998093E+01 0.  1.
       -5    1    3    3    0  502  0.14375270684E+02 -0.35033024073E+03 -0.18178789990E+03  0.39497703291E+03  0.46999998093E+01 0. -1.
</event>
<event>
 5   0  0.1396936E-03  0.1098235E+04  0.7818609E-02  0.9206914E-01
       -2   -1    0    0    0  501  0.00000000000E+00  0.00000000000E+00  0.39289243142E+03  0.39289243143E+03  0.25500000920E-02 0. -1.
        2   -1    0    0  501    0  0.00000000000E+00  0.00000000000E+00 -0.76746168460E+03  0.76746168460E+03  0.25500000920E-02 0.  1.
    10030    2    1    2    0    0  0.00000000000E+00  0.00000000000E+00 -0.37456925318E+03  0.11603541160E+04  0.10982347423E+04 0.  0.
        2    1    3    3  502    0 -0.51077183065E+03  0.19019786864E+03 -0.25789904437E+03  0.60297181469E+03  0.25500000920E-02 0.  1.
       -2    1    3    3    0  502  0.51077183065E+03 -0.19019786864E+03 -0.11667020881E+03  0.55738230134E+03  0.25500000920E-02 0. -1.
</event>
<event>
 5   0  0.7946038E-04  0.1101432E+04  0.7818609E-02  0.9203797E-01
       -1   -1    0    0    0  501  0.00000000000E+00  0.00000000000E+00  0.60657299633E+03  0.60657299635E+03  0.50400001928E-02 0.  1.
        1   -1    0    0  501    0  0.00000000000E+00  0.00000000000E+00 -0.50000306505E+03  0.50000306508E+03  0.50400001928E-02 0. -1.
    10030    2    1    2    0    0  0.00000000000E+00  0.00000000000E+00  0.10656993127E+03  0.11065760614E+04  0.11014324444E+04 0.  0.
        4    1    3    3  502    0 -0.35493000258E+03 -0.23316622074E+03  0.40555747682E+03  0.58721399262E+03  0.12699999809E+01 0.  1.
       -4    1    3    3    0  502  0.35493000258E+03  0.23316622074E+03 -0.29898754554E+03  0.51936206881E+03  0.12699999809E+01 0. -1.
</event>
<event>
 5   0  0.1429680E-03  0.1101129E+04  0.7818609E-02  0.9204092E-01
       -2   -1    0    0    0  501  0.00000000000E+00  0.00000000000E+00  0.31247915287E+03  0.31247915288E+03  0.25500000920E-02 0. -1.
        2   -1    0    0  501    0  0.00000000000E+00  0.00000000000E+00 -0.97005337966E+03  0.97005337966E+03  0.25500000920E-02 0.  1.
    10030    2    1    2    0    0  0.00000000000E+00  0.00000000000E+00 -0.65757422678E+03  0.12825325325E+04  0.11011293445E+04 0.  0.
        3    1    3    3  502    0  0.13354164142E+03 -0.46929407194E+03 -0.31717965681E+02  0.48895432864E+03  0.10100000352E+00 0. -1.
       -3    1    3    3    0  502 -0.13354164142E+03  0.46929407194E+03 -0.62585626110E+03  0.79357820390E+03  0.10100000352E+00 0.  1.
</event>
<event>
 5   0  0.5409500E-04  0.1092412E+04  0.7818609E-02  0.9212619E-01
        4   -1    0    0  501    0  0.00000000000E+00  0.00000000000E+00  0.13489846164E+04  0.13489852142E+04  0.12699999809E+01 0.  1.
       -4   -1    0    0    0  501  0.00000000000E+00  0.00000000000E+00 -0.22115738568E+03  0.22116103215E+03  0.12699999809E+01 0. -1.
    10030    2    1    2    0    0  0.00000000000E+00  0.00000000000E+00  0.11278272307E+04  0.15701462463E+04  0.10924124553E+04 0.  0.
        2    1    3    3  502    0  0.35452726696E+03  0.25177548421E+03  0.88813012045E+02  0.44381102801E+03  0.25500000920E-02 0. -1.
       -2    1    3    3    0  502 -0.35452726696E+03 -0.25177548421E+03  0.10390142186E+04  0.11263352183E+04  0.25500000920E-02 0.  1.
</event>
<event>
 5   0  0.1396936E-03  0.1119937E+04  0.7818609E-02  0.9185975E-01
        2   -1    0    0  501    0  0.00000000000E+00  0.00000000000E+00  0.15559405900E+04  0.15559405900E+04  0.25500000920E-02 0.  1.
       -2   -1    0    0    0  501  0.00000000000E+00  0.00000000000E+00 -0.20152732995E+03  0.20152732997E+03  0.25500000920E-02 0. -1.
    10030    2    1    2    0    0  0.00000000000E+00  0.00000000000E+00  0.13544132601E+04  0.17574679200E+04  0.11199366994E+04 0.  0.
        2    1    3    3  502    0  0.27778989663E+03 -0.40435857462E+03  0.11008810873E+04  0.12052436483E+04  0.25500000920E-02 0.  1.
       -2    1    3    3    0  502 -0.27778989663E+03  0.40435857462E+03  0.25353217277E+03  0.55222427163E+03  0.25500000920E-02 0. -1.
</event>
<event>
 5   0  0.8150924E-04  0.1077590E+04  0.7818609E-02  0.9227314E-01
        1   -1    0    0  501    0  0.00000000000E+00  0.00000000000E+00  0.16395902356E+03  0.16395902364E+03  0.50400001928E-02 0. -1.
       -1   -1    0    0    0  501  0.00000000000E+00  0.00000000000E+00 -0.17705641954E+04  0.17705641954E+04  0.50400001928E-02 0.  1.
    10030    2    1    2    0    0  0.00000000000E+00  0.00000000000E+00 -0.16066051718E+04  0.19345232190E+04  0.10775898602E+04 0.  0.
        3    1    3    3  502    0 -0.36944952239E+02 -0.35251153819E+03 -0.74804267457E+02  0.36224991744E+03  0.10100000352E+00 0. -1.
       -3    1    3    3    0  502  0.36944952239E+02  0.35251153819E+03 -0.15318009044E+04  0.15722733016E+04  0.10100000352E+00 0.  1.
</event>
<event>
 5   0  0.1396936E-03  0.1100179E+04  0.7818609E-02  0.9205018E-01
        2   -1    0    0  501    0  0.00000000000E+00  0.00000000000E+00  0.10336762985E+04  0.10336762985E+04  0.25500000920E-02 0. -1.
       -2   -1    0    0    0  501  0.00000000000E+00  0.00000000000E+00 -0.29273984721E+03  0.29273984722E+03  0.25500000920E-02 0.  1.
    10030    2    1    2    0    0  0.00000000000E+00  0.00000000000E+00  0.74093645125E+03  0.13264161457E+04  0.11001786067E+04 0.  0.
        2    1    3    3  502    0 -0.79159402220E+01  0.24932824443E+03 -0.22062726275E+03  0.33302195822E+03  0.25500000920E-02 0.  1.
       -2    1    3    3    0  502  0.79159402220E+01 -0.24932824443E+03  0.96156371400E+03  0.99339418746E+03  0.25500000920E-02 0. -1.
</event>
<event>
 5   0  0.8305271E-04  0.1093363E+04  0.7818609E-02  0.9211685E-01
       -1   -1    0    0    0  501  0.00000000000E+00  0.00000000000E+00  0.87102131847E+03  0.87102131849E+03  0.50400001928E-02 0. -1.
        1   -1    0    0  501    0  0.00000000000E+00  0.00000000000E+00 -0.34311514161E+03  0.34311514165E+03  0.50400001928E-02 0.  1.
    10030    2    1    2    0    0  0.00000000000E+00  0.00000000000E+00  0.52790617686E+03  0.12141364601E+04  0.10933628914E+04 0.  0.
        5    1    3    3  502    0  0.37192930264E+03  0.23997296766E+03 -0.92295565672E+02  0.45217141972E+03  0.46999998093E+01 0.  1.
       -5    1    3    3    0  502 -0.37192930264E+03 -0.23997296766E+03  0.62020174253E+03  0.76196504041E+03  0.46999998093E+01 0. -1.
</event>
<event>
 5   0  0.7946038E-04  0.1100434E+04  0.7818609E-02  0.9204769E-01
        1   -1    0    0  501    0  0.00000000000E+00  0.00000000000E+00  0.38642011885E+03  0.38642011888E+03  0.50400001928E-02 0. -1.
       -1   -1    0    0    0  501  0.00000000000E+00  0.00000000000E+00 -0.78344447967E+03  0.78344447968E+03  0.50400001928E-02 0.  1.
    10030    2    1    2    0    0  0.00000000000E+00  0.00000000000E+00 -0.39702436082E+03  0.11698645986E+04  0.11004339307E+04 0.  0.
        4    1    3    3  502    0  0.97214908504E+02 -0.12638503570E+03 -0.75834310105E+03  0.77492566578E+03  0.12699999809E+01 0.  1.
       -4    1    3    3    0  502 -0.97214908504E+02  0.12638503570E+03  0.36131874023E+03  0.39493893278E+03  0.12699999809E+01 0. -1.
</event>
<event>
 5   0  0.1429680E-03  0.1099503E+04  0.7818609E-02  0.9205676E-01
        2   -1    0    0  501    0  0.00000000000E+00  0.00000000000E+00  0.16554370351E+04  0.16554370351E+04  0.25500000920E-02 0.  1.
       -2   -1    0    0    0  501  0.00000000000E+00  0.00000000000E+00 -0.18256622492E+03  0.18256622493E+03  0.25500000920E-02 0. -1.
    10030    2    1    2    0    0  0.00000000000E+00  0.00000000000E+00  0.14728708102E+04  0.18380032601E+04  0.10995033244E+04 0.  0.
        3    1    3    3  502    0 -0.13792883720E+03  0.48510593256E+03  0.37066969393E+03  0.62589788475E+03  0.10100000352E+00 0. -1.
       -3    1    3    3    0  502  0.13792883720E+03 -0.48510593256E+03  0.11022011163E+04  0.12121053753E+04  0.10100000352E+00 0.  1.
</event>
<event>
 5   0  0.8150924E-04  0.1055172E+04  0.7818609E-02  0.9250021E-01
       -1   -1    0    0    0  501  0.00000000000E+00  0.00000000000E+00  0.20853088217E+03  0.20853088223E+03  0.50400001928E-02 0.  1.
        1   -1    0    0  501    0  0.00000000000E+00  0.00000000000E+00 -0.13347998072E+04  0.13347998072E+04  0.50400001928E-02 0. -1.
    10030    2    1    2    0    0  0.00000000000E+00  0.00000000000E+00 -0.11262689251E+04  0.15433306895E+04  0.10551719886E+04 0.  0.
        3    1    3    3  502    0  0.23673748992E+03 -0.42572497188E+03 -0.85951404406E+03  0.98795282932E+03  0.10100000352E+00 0. -1.
       -3    1    3    3    0  502 -0.23673748992E+03  0.42572497188E+03 -0.26675488099E+03  0.55537786015E+03  0.10100000352E+00 0.  1.
</event>
<event>
 5   0  0.8341767E-04  0.1095688E+04  0.7818609E-02  0.9209405E-01
        1   -1    0    0  501    0  0.00000000000E+00  0.00000000000E+00  0.77436578946E+03  0.77436578948E+03  0.50400001928E-02 0.  1.
       -1   -1    0    0    0  501  0.00000000000E+00  0.00000000000E+00 -0.38758571445E+03  0.38758571448E+03  0.50400001928E-02 0. -1.
    10030    2    1    2    0    0  0.00000000000E+00  0.00000000000E+00  0.38678007501E+03  0.11619515040E+04  0.10956881268E+04 0.  0.
        2    1    3    3  502    0  0.19675175339E+03 -0.45932842896E+03  0.43155912822E+03  0.66025535914E+03  0.25500000920E-02 0.  1.
       -2    1    3    3    0  502 -0.19675175339E+03  0.45932842896E+03 -0.44779053204E+02  0.50169614482E+03  0.25500000920E-02 0. -1.
</event>
<event>
 5   0  0.8341767E-04  0.1099603E+04  0.7818609E-02  0.9205579E-01
       -1   -1    0    0    0  501  0.00000000000E+00  0.00000000000E+00  0.49886380111E+03  0.49886380114E+03  0.50400001928E-02 0. -1.
        1   -1    0    0  501    0  0.00000000000E+00  0.00000000000E+00 -0.60594042863E+03  0.60594042865E+03  0.50400001928E-02 0.  1.
    10030    2    1    2    0    0  0.00000000000E+00  0.00000000000E+00 -0.10707662752E+03  0.11048042298E+04  0.10996031020E+04 0.  0.
        2    1    3    3  502    0 -0.31806198473E+03 -0.32484556005E+03 -0.36418302610E+03  0.58250951968E+03  0.25500000920E-02 0.  1.
       -2    1    3    3    0  502  0.31806198473E+03  0.32484556005E+03  0.25710639858E+03  0.52229471011E+03  0.25500000920E-02 0. -1.
</event>
<event>
 5   0  0.1372794E-03  0.1114205E+04  0.7818609E-02  0.9191457E-01
        2   -1    0    0  501    0  0.00000000000E+00  0.00000000000E+00  0.24883885796E+04  0.24883885796E+04  0.25500000920E-02 0. -1.
       -2   -1    0    0    0  501  0.00000000000E+00  0.00000000000E+00 -0.12472450496E+03  0.12472450498E+03  0.25500000920E-02 0.  1.
    10030    2    1    2    0    0  0.00000000000E+00  0.00000000000E+00  0.23636640746E+04  0.26131130846E+04  0.11142047097E+04 0.  0.
        4    1    3    3  502    0  0.81043013334E+02 -0.60096744780E+01  0.24744095658E+04  0.24757440090E+04  0.12699999809E+01 0. -1.
       -4    1    3    3    0  502 -0.81043013334E+02  0.60096744780E+01 -0.11074549116E+03  0.13736907552E+03  0.12699999809E+01 0.  1.
</event>
<event>
 5   0  0.7946038E-04  0.1105436E+04  0.7818609E-02  0.9199910E-01
       -1   -1    0    0    0  501  0.00000000000E+00  0.00000000000E+00  0.44672881287E+03  0.44672881290E+03  0.50400001928E-02 0. -1.
        1   -1    0    0  501    0  0.00000000000E+00  0.00000000000E+00 -0.68385333026E+03  0.68385333028E+03  0.50400001928E-02 0.  1.
    10030    2    1    2    0    0  0.00000000000E+00  0.00000000000E+00 -0.23712451739E+03  0.11305821432E+04  0.11054356362E+04 0.  0.
        4    1    3    3  502    0 -0.27436191850E+03  0.26025512768E+03  0.29370566648E+03  0.47882337582E+03  0.12699999809E+01 0. -1.
       -4    1    3    3    0  502  0.27436191850E+03 -0.26025512768E+03 -0.53083018388E+03  0.65175876736E+03  0.12699999809E+01 0.  1.
</event>
<event>
 5   0  0.8009636E-04  0.1124958E+04  0.7818609E-02  0.9181202E-01
        1   -1    0    0  501    0  0.00000000000E+00  0.00000000000E+00  0.47727918448E+03  0.47727918451E+03  0.50400001928E-02 0. -1.
       -1   -1    0    0    0  501  0.00000000000E+00  0.00000000000E+00 -0.66288809995E+03  0.66288809997E+03  0.50400001928E-02 0.  1.
    10030    2    1    2    0    0  0.00000000000E+00  0.00000000000E+00 -0.18560891547E+03  0.11401672845E+04  0.11249581179E+04 0.  0.
        1    1    3    3  502    0 -0.46587899735E+03 -0.20129761246E+03 -0.33860906354E+03  0.61009840755E+03  0.50400001928E-02 0.  1.
       -1    1    3    3    0  502  0.46587899735E+03  0.20129761246E+03  0.15300014808E+03  0.53006887693E+03  0.50400001928E-02 0. -1.
</event>
<event>
 5   0  0.1402775E-03  0.1104839E+04  0.7818609E-02  0.9200488E-01
       -2   -1    0    0    0  501  0.00000000000E+00  0.00000000000E+00  0.73678493735E+03  0.73678493735E+03  0.25500000920E-02 0.  1.
        2   -1    0    0  501    0  0.00000000000E+00  0.00000000000E+00 -0.41418787528E+03  0.41418787529E+03  0.25500000920E-02 0. -1.
    10030    2    1    2    0    0  0.00000000000E+00  0.00000000000E+00  0.32259706207E+03  0.11509728126E+04  0.11048391516E+04 0.  0.
        5    1    3    3  502    0  0.26235307838E+03  0.17617191790E+03 -0.31069812535E+03  0.44319419839E+03  0.46999998093E+01 0. -1.
       -5    1    3    3    0  502 -0.26235307838E+03 -0.17617191790E+03  0.63329518742E+03  0.70777861426E+03  0.46999998093E+01 0.  1.
</event>
<event>
 5   0  0.1425432E-03  0.1080767E+04  0.7818609E-02  0.9224143E-01
        2   -1    0    0  501    0  0.00000000000E+00  0.00000000000E+00  0.35279460225E+03  0.35279460226E+03  0.25500000920E-02 0.  1.
       -2   -1    0    0    0  501  0.00000000000E+00  0.00000000000E+00 -0.82771698653E+03  0.82771698653E+03  0.25500000920E-02 0. -1.
    10030    2    1    2    0    0  0.00000000000E+00  0.00000000000E+00 -0.47492238427E+03  0.11805115888E+04  0.10807665521E+04 0.  0.
        1    1    3    3  502    0 -0.28104950229E+03  0.32596037674E+03  0.11946082823E+03  0.44666528794E+03  0.50400001928E-02 0.  1.
       -1    1    3    3    0  502  0.28104950229E+03 -0.32596037674E+03 -0.59438321251E+03  0.73384630085E+03  0.50400001928E-02 0. -1.
</event>
<event>
 5   0  0.1425432E-03  0.1099683E+04  0.7818609E-02  0.9205501E-01
        2   -1    0    0  501    0  0.00000000000E+00  0.00000000000E+00  0.12909864631E+04  0.12909864631E+04  0.25500000920E-02 0.  1.
       -2   -1    0    0    0  501  0.00000000000E+00  0.00000000000E+00 -0.23418203835E+03  0.23418203837E+03  0.25500000920E-02 0. -1.
    10030    2    1    2    0    0  0.00000000000E+00  0.00000000000E+00  0.10568044248E+04  0.15251685015E+04  0.10996833025E+04 0.  0.
        1    1    3    3  502    0  0.40372237387E+03 -0.13651739658E+03  0.10102374863E+04  0.10964527046E+04  0.50400001928E-02 0.  1.
       -1    1    3    3    0  502 -0.40372237387E+03  0.13651739658E+03  0.46566938514E+02  0.42871579691E+03  0.50400001928E-02 0. -1.
</event>
<event>
 5   0  0.8150924E-04  0.1043617E+04  0.7818609E-02  0.9261959E-01
        1   -1    0    0  501    0  0.00000000000E+00  0.00000000000E+00  0.71011095878E+03  0.71011095879E+03  0.50400001928E-02 0.  1.
       -1   -1    0    0    0  501  0.00000000000E+00  0.00000000000E+00 -0.38343849147E+03  0.38343849151E+03  0.50400001928E-02 0. -1.
    10030    2    1    2    0    0  0.00000000000E+00  0.00000000000E+00  0.32667246730E+03  0.10935494503E+04  0.10436165480E+04 0.  0.
        3    1    3    3  502    0  0.28512706391E+03 -0.10427164092E+03 -0.28136775102E+03  0.41392975152E+03  0.10100000352E+00 0. -1.
       -3    1    3    3    0  502 -0.28512706391E+03  0.10427164092E+03  0.60804021832E+03  0.67961969878E+03  0.10100000352E+00 0.  1.
</event>
<event>
 5   0  0.1402775E-03  0.1101906E+04  0.7818609E-02  0.9203336E-01
        2   -1    0    0  501    0  0.00000000000E+00  0.00000000000E+00  0.27513824864E+04  0.27513824864E+04  0.25500000920E-02 0. -1.
       -2   -1    0    0    0  501  0.00000000000E+00  0.00000000000E+00 -0.11032608750E+03  0.11032608753E+03  0.25500000920E-02 0.  1.
    10030    2    1    2    0    0  0.00000000000E+00  0.00000000000E+00  0.26410563989E+04  0.28617085740E+04  0.11019061031E+04 0.  0.
        5    1    3    3  502    0  0.29294678672E+03  0.41617820053E+03  0.77264811467E+03  0.92521852206E+03  0.46999998093E+01 0.  1.
       -5    1    3    3    0  502 -0.29294678672E+03 -0.41617820053E+03  0.18684082843E+04  0.19364900519E+04  0.46999998093E+01 0. -1.
</event>
<event>
 5   0  0.1396936E-03  0.1093340E+04  0.7818609E-02  0.9211707E-01
       -2   -1    0    0    0  501  0.00000000000E+00  0.00000000000E+00  0.64520042850E+03  0.64520042851E+03  0.25500000920E-02 0.  1.
        2   -1    0    0  501    0  0.00000000000E+00  0.00000000000E+00 -0.46318656694E+03  0.46318656695E+03  0.25500000920E-02 0. -1.
    10030    2    1    2    0    0  0.00000000000E+00  0.00000000000E+00  0.18201386156E+03  0.11083869955E+04  0.10933401511E+04 0.  0.
        2    1    3    3  502    0 -0.23725601562E+03 -0.29597489520E+03 -0.30805581477E+03  0.48866137617E+03  0.25500000920E-02 0. -1.
       -2    1    3    3    0  502  0.23725601562E+03  0.29597489520E+03  0.49006967633E+03  0.61972561929E+03  0.25500000920E-02 0.  1.
</event>
<event>
 5   0  0.8305271E-04  0.1111061E+04  0.7818609E-02  0.9194478E-01
       -1   -1    0    0    0  501  0.00000000000E+00  0.00000000000E+00  0.21552864788E+03  0.21552864794E+03  0.50400001928E-02 0. -1.
        1   -1    0    0  501    0  0.00000000000E+00  0.00000000000E+00 -0.14318928592E+04  0.14318928592E+04  0.50400001928E-02 0.  1.
    10030    2    1    2    0    0  0.00000000000E+00  0.00000000000E+00 -0.12163642113E+04  0.16474215071E+04  0.11110606318E+04 0.  0.
        5    1    3    3  502    0  0.53134164517E+03 -0.66784845408E+02 -0.38921860432E+03  0.66204030951E+03  0.46999998093E+01 0. -1.
       -5    1    3    3    0  502 -0.53134164517E+03  0.66784845408E+02 -0.82714560699E+03  0.98538119762E+03  0.46999998093E+01 0.  1.
</event>
<event>
 5   0  0.1425432E-03  0.1098472E+04  0.7818609E-02  0.9206682E-01
        2   -1    0    0  501    0  0.00000000000E+00  0.00000000000E+00  0.15326936572E+04  0.15326936572E+04  0.25500000920E-02 0.  1.
       -2   -1    0    0    0  501  0.00000000000E+00  0.00000000000E+00 -0.19681715557E+03  0.19681715559E+03  0.25500000920E-02 0. -1.
    10030    2    1    2    0    0  0.00000000000E+00  0.00000000000E+00  0.13358765016E+04  0.17295108128E+04  0.10984724047E+04 0.  0.
        1    1    3    3  502    0  0.47013880634E+03  0.24550200196E+03  0.44328697301E+03  0.69123445419E+03  0.50400001928E-02 0.  1.
       -1    1    3    3    0  502 -0.47013880634E+03 -0.24550200196E+03  0.89258952864E+03  0.10382763586E+04  0.50400001928E-02 0. -1.
</event>
<event>
 5   0  0.1372794E-03  0.1092655E+04  0.7818609E-02  0.9212381E-01
       -2   -1    0    0    0  501  0.00000000000E+00  0.00000000000E+00  0.37604436259E+03  0.37604436260E+03  0.25500000920E-02 0. -1.
        2   -1    0    0  501    0  0.00000000000E+00  0.00000000000E+00 -0.79371878110E+03  0.79371878110E+03  0.25500000920E-02 0.  1.
    10030    2    1    2    0    0  0.00000000000E+00  0.00000000000E+00 -0.41767441851E+03  0.11697631437E+04  0.10926545165E+04 0.  0.
        4    1    3    3  502    0 -0.20455877061E+03  0.13460654038E+03  0.31400077853E+03  0.39819758056E+03  0.12699999809E+01 0. -1.
       -4    1    3    3    0  502  0.20455877061E+03 -0.13460654038E+03 -0.73167519704E+03  0.77156556313E+03  0.12699999809E+01 0.  1.
</event>
<event>
 5   0  0.1425432E-03  0.1098556E+04  0.7818609E-02  0.9206600E-01
       -2   -1    0    0    0  501  0.00000000000E+00  0.00000000000E+00  0.19971491004E+03  0.19971491006E+03  0.25500000920E-02 0.  1.
        2   -1    0    0  501    0  0.00000000000E+00  0.00000000000E+00 -0.15106861618E+04  0.15106861618E+04  0.25500000920E-02 0. -1.
    10030    2    1    2    0    0  0.00000000000E+00  0.00000000000E+00 -0.13109712518E+04  0.17104010719E+04  0.10985564181E+04 0.  0.
        1    1    3    3  502    0 -0.51523035105E+03 -0.87144076574E+02 -0.39195019297E+03  0.65320851075E+03  0.50400001928E-02 0.  1.
       -1    1    3    3    0  502  0.51523035105E+03  0.87144076574E+02 -0.91902105879E+03  0.10571925611E+04  0.50400001928E-02 0. -1.
</event>
<event>
 5   0  0.1396936E-03  0.1097041E+04  0.7818609E-02  0.9208081E-01
       -2   -1    0    0    0  501  0.00000000000E+00  0.00000000000E+00  0.62647455581E+03  0.62647455581E+03  0.25500000920E-02 0. -1.
        2   -1    0    0  501    0  0.00000000000E+00  0.00000000000E+00 -0.48026622239E+03  0.48026622240E+03  0.25500000920E-02 0.  1.
    10030    2    1    2    0    0  0.00000000000E+00  0.00000000000E+00  0.14620833341E+03  0.11067407782E+04  0.10970406890E+04 0.  0.
        2    1    3    3  502    0 -0.40961969006E+03  0.30630718091E+03  0.27300307837E+03  0.57977845801E+03  0.25500000920E-02 0. -1.
       -2    1    3    3    0  502  0.40961969006E+03 -0.30630718091E+03 -0.12679474496E+03  0.52696232021E+03  0.25500000920E-02 0.  1.
</event>
<event>
 5   0  0.8341767E-04  0.1104804E+04  0.7818609E-02  0.9200523E-01
        1   -1    0    0  501    0  0.00000000000E+00  0.00000000000E+00  0.25230482204E+03  0.25230482209E+03  0.50400001928E-02 0.  1.
       -1   -1    0    0    0  501  0.00000000000E+00  0.00000000000E+00 -0.12094407433E+04  0.12094407433E+04  0.50400001928E-02 0. -1.
    10030    2    1    2    0    0  0.00000000000E+00  0.00000000000E+00 -0.95713592125E+03  0.14617455654E+04  0.11048035691E+04 0.  0.
        2    1    3    3  502    0 -0.17844515629E+02 -0.33734444033E+03  0.99708173125E+02  0.35222353407E+03  0.25500000920E-02 0.  1.
       -2    1    3    3    0  502  0.17844515629E+02  0.33734444033E+03 -0.10568440944E+04  0.11095220313E+04  0.25500000920E-02 0. -1.
</event>
<event>
 5   0  0.8341767E-04  0.1100932E+04  0.7818609E-02  0.9204284E-01
        1   -1    0    0  501    0  0.00000000000E+00  0.00000000000E+00  0.88009969295E+03  0.88009969297E+03  0.50400001928E-02 0.  1.
       -1   -1    0    0    0  501  0.00000000000E+00  0.00000000000E+00 -0.34429387845E+03  0.34429387849E+03  0.50400001928E-02 0. -1.
    10030    2    1    2    0    0  0.00000000000E+00  0.00000000000E+00  0.53580581450E+03  0.12243935715E+04  0.11009322172E+04 0.  0.
        2    1    3    3  502    0  0.27985528438E+03 -0.34217916199E+03  0.63272529691E+03  0.77184639693E+03  0.25500000920E-02 0.  1.
       -2    1    3    3    0  502 -0.27985528438E+03  0.34217916199E+03 -0.96919482409E+02  0.45254717453E+03  0.25500000920E-02 0. -1.
</event>
<event>
 5   0  0.1425432E-03  0.1101293E+04  0.7818609E-02  0.9203933E-01
       -2   -1    0    0    0  501  0.00000000000E+00  0.00000000000E+00  0.62407625329E+03  0.62407625330E+03  0.25500000920E-02 0.  1.
        2   -1    0    0  501    0  0.00000000000E+00  0.00000000000E+00 -0.48585619695E+03  0.48585619695E+03  0.25500000920E-02 0. -1.
    10030    2    1    2    0    0  0.00000000000E+00  0.00000000000E+00  0.13822005635E+03  0.11099324502E+04  0.11012925407E+04 0.  0.
        1    1    3    3  502    0 -0.11428205578E+03 -0.26913912946E+03  0.53937007479E+03  0.61352778004E+03  0.50400001928E-02 0.  1.
       -1    1    3    3    0  502  0.11428205578E+03  0.26913912946E+03 -0.40115001844E+03  0.49640467021E+03  0.50400001928E-02 0. -1.
</event>
<event>
 5   0  0.8009636E-04  0.1090389E+04  0.7818609E-02  0.9214610E-01
        1   -1    0    0  501    0  0.00000000000E+00  0.00000000000E+00  0.54909283858E+03  0.54909283860E+03  0.50400001928E-02 0.  1.
       -1   -1    0    0    0  501  0.00000000000E+00  0.00000000000E+00 -0.54132417595E+03  0.54132417597E+03  0.50400001928E-02 0. -1.
    10030    2    1    2    0    0  0.00000000000E+00  0.00000000000E+00  0.77686626266E+01  0.10904170146E+04  0.10903893404E+04 0.  0.
        1    1    3    3  502    0 -0.59621455539E+02 -0.10942327341E+03  0.53466051526E+03  0.54899001569E+03  0.50400001928E-02 0.  1.
       -1    1    3    3    0  502  0.59621455539E+02  0.10942327341E+03 -0.52689185263E+03  0.54142699888E+03  0.50400001928E-02 0. -1.
</event>
<event>
 5   0  0.8305271E-04  0.1103126E+04  0.7818609E-02  0.9202151E-01
        1   -1    0    0  501    0  0.00000000000E+00  0.00000000000E+00  0.11781319316E+04  0.11781319316E+04  0.50400001928E-02 0. -1.
       -1   -1    0    0    0  501  0.00000000000E+00  0.00000000000E+00 -0.25822373050E+03  0.25822373055E+03  0.50400001928E-02 0.  1.
    10030    2    1    2    0    0  0.00000000000E+00  0.00000000000E+00  0.91990820107E+03  0.14363556621E+04  0.11031257815E+04 0.  0.
        5    1    3    3  502    0  0.29768927099E+03  0.93967694297E+02 -0.13209871839E+03  0.33899998677E+03  0.46999998093E+01 0.  1.
       -5    1    3    3    0  502 -0.29768927099E+03 -0.93967694297E+02  0.10520069195E+04  0.10973556754E+04  0.46999998093E+01 0. -1.
</event>
<event>
 5   0  0.1425432E-03  0.1101761E+04  0.7818609E-02  0.9203477E-01
        2   -1    0    0  501    0  0.00000000000E+00  0.00000000000E+00  0.15783243319E+04  0.15783243319E+04  0.25500000920E-02 0.  1.
       -2   -1    0    0    0  501  0.00000000000E+00  0.00000000000E+00 -0.19227320736E+03  0.19227320738E+03  0.25500000920E-02 0. -1.
    10030    2    1    2    0    0  0.00000000000E+00  0.00000000000E+00  0.13860511245E+04  0.17705975393E+04  0.11017612837E+04 0.  0.
        1    1    3    3  502    0 -0.35138375246E+02 -0.10088567181E+02  0.15763727456E+04  0.15767966000E+04  0.50400001928E-02 0.  1.
       -1    1    3    3    0  502  0.35138375246E+02  0.10088567181E+02 -0.19032162107E+03  0.19380093930E+03  0.50400001928E-02 0. -1.
</event>
<event>
 5   0  0.7946038E-04  0.1101458E+04  0.7818609E-02  0.9203772E-01
        1   -1    0    0  501    0  0.00000000000E+00  0.00000000000E+00  0.20854856474E+04  0.20854856474E+04  0.50400001928E-02 0.  1.
       -1   -1    0    0    0  501  0.00000000000E+00  0.00000000000E+00 -0.14543486275E+03  0.14543486284E+03  0.50400001928E-02 0. -1.
    10030    2    1    2    0    0  0.00000000000E+00  0.00000000000E+00  0.19400507847E+04  0.22309205103E+04  0.11014577959E+04 0.  0.
        4    1    3    3  502    0  0.46296258184E+03 -0.11397452542E+03  0.41174174237E+03  0.62996620540E+03  0.12699999809E+01 0. -1.
       -4    1    3    3    0  502 -0.46296258184E+03  0.11397452542E+03  0.15283090423E+04  0.16009543049E+04  0.12699999809E+01 0.  1.
</event>
<event>
 5   0  0.1396936E-03  0.1104374E+04  0.7818609E-02  0.9200939E-01
       -2   -1    0    0    0  501  0.00000000000E+00  0.00000000000E+00  0.13323681848E+03  0.13323681850E+03  0.25500000920E-02 0.  1.
        2   -1    0    0  501    0  0.00000000000E+00  0.00000000000E+00 -0.22884867049E+04  0.22884867049E+04  0.25500000920E-02 0. -1.
    10030    2    1    2    0    0  0.00000000000E+00  0.00000000000E+00 -0.21552498864E+04  0.24217235234E+04  0.11043743708E+04 0.  0.
        2    1    3    3  502    0  0.25637299879E+03  0.48673585642E+03 -0.97310689104E+03  0.11178443227E+04  0.25500000920E-02 0.  1.
       -2    1    3    3    0  502 -0.25637299879E+03 -0.48673585642E+03 -0.11821429953E+04  0.13038792006E+04  0.25500000920E-02 0. -1.
</event>
<event>
 5   0  0.7946038E-04  0.1101215E+04  0.7818609E-02  0.9204009E-01
        1   -1    0    0  501    0  0.00000000000E+00  0.00000000000E+00  0.45351669483E+03  0.45351669485E+03  0.50400001928E-02 0.  1.
       -1   -1    0    0    0  501  0.00000000000E+00  0.00000000000E+00 -0.66848343265E+03  0.66848343267E+03  0.50400001928E-02 0. -1.
    10030    2    1    2    0    0  0.00000000000E+00  0.00000000000E+00 -0.21496673782E+03  0.11220001275E+04  0.11012145966E+04 0.  0.
        4    1    3    3  502    0  0.93145487450E+02  0.20142983709E+03 -0.62089605921E+03  0.65936605186E+03  0.12699999809E+01 0. -1.
       -4    1    3    3    0  502 -0.93145487450E+02 -0.20142983709E+03  0.40592932139E+03  0.46263407566E+03  0.12699999809E+01 0.  1.
</event>
<event>
 5   0  0.8009636E-04  0.1105828E+04  0.7818609E-02  0.9199530E-01
        1   -1    0    0  501    0  0.00000000000E+00  0.00000000000E+00  0.82238304561E+03  0.82238304562E+03  0.50400001928E-02 0. -1.
       -1   -1    0    0    0  501  0.00000000000E+00  0.00000000000E+00 -0.37174177222E+03  0.37174177226E+03  0.50400001928E-02 0.  1.
    10030    2    1    2    0    0  0.00000000000E+00  0.00000000000E+00  0.45064127339E+03  0.11941248179E+04  0.11058284331E+04 0.  0.
        1    1    3    3  502    0 -0.54928147469E+03 -0.44814944510E+01  0.29347860792E+03  0.62278400394E+03  0.50400001928E-02 0. -1.
       -1    1    3    3    0  502  0.54928147469E+03  0.44814944510E+01  0.15716266547E+03  0.57134081394E+03  0.50400001928E-02 0.  1.
</event>
<event>
 5   0  0.1402775E-03  0.1093938E+04  0.7818609E-02  0.9211120E-01
       -2   -1    0    0    0  501  0.00000000000E+00  0.00000000000E+00  0.38690996274E+03  0.38690996275E+03  0.25500000920E-02 0.  1.
        2   -1    0    0  501    0  0.00000000000E+00  0.00000000000E+00 -0.77324249180E+03  0.77324249181E+03  0.25500000920E-02 0. -1.
    10030    2    1    2    0    0  0.00000000000E+00  0.00000000000E+00 -0.38633252906E+03  0.11601524546E+04  0.10939382500E+04 0.  0.
        5    1    3    3  502    0  0.45783899137E+02 -0.40701920935E+03  0.19125487776E+03  0.45206340315E+03  0.46999998093E+01 0.  1.
       -5    1    3    3    0  502 -0.45783899137E+02  0.40701920935E+03 -0.57758740682E+03  0.70808905141E+03  0.46999998093E+01 0. -1.
</event>
<event>
 5   0  0.8150924E-04  0.1099804E+04  0.7818609E-02  0.9205383E-01
       -1   -1    0    0    0  501  0.00000000000E+00  0.00000000000E+00  0.29759823235E+03  0.29759823239E+03  0.50400001928E-02 0. -1.
        1   -1    0    0  501    0  0.00000000000E+00  0.00000000000E+00 -0.10161091189E+04  0.10161091189E+04  0.50400001928E-02 0.  1.
    10030    2    1    2    0    0  0.00000000000E+00  0.00000000000E+00 -0.71851088651E+03  0.13137073513E+04  0.10998041238E+04 0.  0.
        3    1    3    3  502    0 -0.42400459421E+03  0.29312735952E+03 -0.13045883487E+03  0.53171708888E+03  0.10100000352E+00 0.  1.
       -3    1    3    3    0  502  0.42400459421E+03 -0.29312735952E+03 -0.58805205164E+03  0.78199026238E+03  0.10100000352E+00 0. -1.
</event>
<event>
 5   0  0.8150924E-04  0.1103694E+04  0.7818609E-02  0.9201598E-01
        1   -1    0    0  501    0  0.00000000000E+00  0.00000000000E+00  0.28746283097E+03  0.28746283102E+03  0.50400001928E-02 0. -1.
       -1   -1    0    0    0  501  0.00000000000E+00  0.00000000000E+00 -0.10593904206E+04  0.10593904206E+04  0.50400001928E-02 0.  1.
    10030    2    1    2    0    0  0.00000000000E+00  0.00000000000E+00 -0.77192758961E+03  0.13468532516E+04  0.11036944676E+04 0.  0.
        3    1    3    3  502    0 -0.43975650367E+03  0.49648844338E+02  0.16341137588E+02  0.44285193151E+03  0.10100000352E+00 0. -1.
       -3    1    3    3    0  502  0.43975650367E+03 -0.49648844338E+02 -0.78826872719E+03  0.90400132010E+03  0.10100000352E+00 0.  1.
</event>
<event>
 5   0  0.1396936E-03  0.1097521E+04  0.7818609E-02  0.9207611E-01
        2   -1    0    0  501    0  0.00000000000E+00  0.00000000000E+00  0.34713663669E+03  0.34713663670E+03  0.25500000920E-02 0.  1.
       -2   -1    0    0    0  501  0.00000000000E+00  0.00000000000E+00 -0.86749144302E+03  0.86749144303E+03  0.25500000920E-02 0. -1.
    10030    2    1    2    0    0  0.00000000000E+00  0.00000000000E+00 -0.52035480633E+03  0.12146280797E+04  0.10975209554E+04 0.  0.
        2    1    3    3  502    0  0.21995687222E+03 -0.32634386656E+03  0.16306425395E+03  0.42599447860E+03  0.25500000920E-02 0.  1.
       -2    1    3    3    0  502 -0.21995687222E+03  0.32634386656E+03 -0.68341906028E+03  0.78863360113E+03  0.25500000920E-02 0. -1.
</event>
<event>
 5   0  0.1372794E-03  0.1106136E+04  0.7818609E-02  0.9199232E-01
        2   -1    0    0  501    0  0.00000000000E+00  0.00000000000E+00  0.17242917276E+04  0.17242917276E+04  0.25500000920E-02 0. -1.
       -2   -1    0    0    0  501  0.00000000000E+00  0.00000000000E+00 -0.17739694264E+03  0.17739694265E+03  0.25500000920E-02 0.  1.
    10030    2    1    2    0    0  0.00000000000E+00  0.00000000000E+00  0.15468947849E+04  0.19016886702E+04  0.11061357615E+04 0.  0.
        4    1    3    3  502    0  0.21408029343E+03 -0.19814971996E+03 -0.34381700672E+02  0.29373014452E+03  0.12699999809E+01 0.  1.
       -4    1    3    3    0  502 -0.21408029343E+03  0.19814971996E+03  0.15812764856E+04  0.16079585257E+04  0.12699999809E+01 0. -1.
</event>
<event>
 5   0  0.8150924E-04  0.1105750E+04  0.7818609E-02  0.9199605E-01
        1   -1    0    0  501    0  0.00000000000E+00  0.00000000000E+00  0.11149855109E+04  0.11149855109E+04  0.50400001928E-02 0.  1.
       -1   -1    0    0    0  501  0.00000000000E+00  0.00000000000E+00 -0.27414788980E+03  0.27414788985E+03  0.50400001928E-02 0. -1.
    10030    2    1    2    0    0  0.00000000000E+00  0.00000000000E+00  0.84083762108E+03  0.13891334007E+04  0.11057502883E+04 0.  0.
        3    1    3    3  502    0 -0.28581360652E+03 -0.34563513730E+03  0.82656475793E+03  0.94040543122E+03  0.10100000352E+00 0.  1.
       -3    1    3    3    0  502  0.28581360652E+03  0.34563513730E+03  0.14272863147E+02  0.44872796952E+03  0.10100000352E+00 0. -1.
</event>
<event>
 5   0  0.1396936E-03  0.1100970E+04  0.7818609E-02  0.9204247E-01
        2   -1    0    0  501    0  0.00000000000E+00  0.00000000000E+00  0.13083962820E+04  0.13083962820E+04  0.25500000920E-02 0. -1.
       -2   -1    0    0    0  501  0.00000000000E+00  0.00000000000E+00 -0.23160699723E+03  0.23160699724E+03  0.25500000920E-02 0.  1.
    10030    2    1    2    0    0  0.00000000000E+00  0.00000000000E+00  0.10767892848E+04  0.15400032793E+04  0.11009699979E+04 0.  0.
        2    1    3    3  502    0 -0.23501115480E+03 -0.27813362542E+03  0.11158767335E+04  0.11737842394E+04  0.25500000920E-02 0. -1.
       -2    1    3    3    0  502  0.23501115480E+03  0.27813362542E+03 -0.39087448682E+02  0.36621903981E+03  0.25500000920E-02 0.  1.
</event>
<event>
 5   0  0.1372794E-03  0.1100726E+04  0.7818609E-02  0.9204484E-01
       -2   -1    0    0    0  501  0.00000000000E+00  0.00000000000E+00  0.32868022683E+03  0.32868022684E+03  0.25500000920E-02 0.  1.
        2   -1    0    0  501    0  0.00000000000E+00  0.00000000000E+00 -0.92156287804E+03  0.92156287805E+03  0.25500000920E-02 0. -1.
    10030    2    1    2    0    0  0.00000000000E+00  0.00000000000E+00 -0.59288265121E+03  0.12502431049E+04  0.11007261163E+04 0.  0.
        4    1    3    3  502    0  0.28146846887E+03 -0.47068882094E+03 -0.34880587275E+03  0.64995354825E+03  0.12699999809E+01 0. -1.
       -4    1    3    3    0  502 -0.28146846887E+03  0.47068882094E+03 -0.24407677847E+03  0.60028955664E+03  0.12699999809E+01 0.  1.
</event>
<event>
 5   0  0.1429680E-03  0.1097974E+04  0.7818609E-02  0.9207168E-01
       -2   -1    0    0    0  501  0.00000000000E+00  0.00000000000E+00  0.20642899973E+03  0.20642899974E+03  0.25500000920E-02 0.  1.
        2   -1    0    0  501    0  0.00000000000E+00  0.00000000000E+00 -0.14600030701E+04  0.14600030701E+04  0.25500000920E-02 0. -1.
    10030    2    1    2    0    0  0.00000000000E+00  0.00000000000E+00 -0.12535740703E+04  0.16664320698E+04  0.10979744503E+04 0.  0.
        3    1    3    3  502    0 -0.24524784318E+03 -0.37259423623E+03 -0.11124947834E+04  0.11985898476E+04  0.10100000352E+00 0. -1.
       -3    1    3    3    0  502  0.24524784318E+03  0.37259423623E+03 -0.14107928689E+03  0.46784222218E+03  0.10100000352E+00 0.  1.
</event>
<event>
 5   0  0.8150924E-04  0.1057414E+04  0.7818609E-02  0.9247723E-01
       -1   -1    0    0    0  501  0.00000000000E+00  0.00000000000E+00  0.45861101353E+03  0.45861101356E+03  0.50400001928E-02 0. -1.
        1   -1    0    0  501    0  0.00000000000E+00  0.00000000000E+00 -0.60951689733E+03  0.60951689735E+03  0.50400001928E-02 0.  1.
    10030    2    1    2    0    0  0.00000000000E+00  0.00000000000E+00 -0.15090588380E+03  0.10681279109E+04  0.10574141328E+04 0.  0.
        3    1    3    3  502    0  0.37725223920E+03  0.62132791493E+02 -0.44432602782E+03  0.58617861183E+03  0.10100000352E+00 0.  1.
       -3    1    3    3    0  502 -0.37725223920E+03 -0.62132791493E+02  0.29342014403E+03  0.48194929908E+03  0.10100000352E+00 0. -1.
</event>
<event>
 5   0  0.1396936E-03  0.1099283E+04  0.7818609E-02  0.9205891E-01
       -2   -1    0    0    0  501  0.00000000000E+00  0.00000000000E+00  0.52662482311E+03  0.52662482312E+03  0.25500000920E-02 0.  1.
        2   -1    0    0  501    0  0.00000000000E+00  0.00000000000E+00 -0.57366377260E+03  0.57366377261E+03  0.25500000920E-02 0. -1.
    10030    2    1    2    0    0  0.00000000000E+00  0.00000000000E+00 -0.47038949491E+02  0.11002885957E+04  0.10992826439E+04 0.  0.
        2    1    3    3  502    0  0.12762054158E+03 -0.13016582867E+03 -0.54252598467E+03  0.57233258655E+03  0.25500000920E-02 0. -1.
       -2    1    3    3    0  502 -0.12762054158E+03  0.13016582867E+03  0.49548703517E+03  0.52795600917E+03  0.25500000920E-02 0.  1.
</event>
<event>
 5   0  0.8305271E-04  0.1102881E+04  0.7818609E-02  0.9202388E-01
        1   -1    0    0  501    0  0.00000000000E+00  0.00000000000E+00  0.43356264159E+03  0.43356264162E+03  0.50400001928E-02 0. -1.
       -1   -1    0    0    0  501  0.00000000000E+00  0.00000000000E+00 -0.70136717966E+03  0.70136717968E+03  0.50400001928E-02 0.  1.
    10030    2    1    2    0    0  0.00000000000E+00  0.00000000000E+00 -0.26780453808E+03  0.11349298213E+04  0.11028809676E+04 0.  0.
        5    1    3    3  502    0 -0.81060624676E+02  0.27606091653E+03 -0.61798036711E+03  0.68169075001E+03  0.46999998093E+01 0.  1.
       -5    1    3    3    0  502  0.81060624676E+02 -0.27606091653E+03  0.35017582904E+03  0.45323907130E+03  0.46999998093E+01 0. -1.
</event>
<event>
 5   0  0.7946038E-04  0.1101115E+04  0.7818609E-02  0.9204106E-01
        1   -1    0    0  501    0  0.00000000000E+00  0.00000000000E+00  0.38054837765E+03  0.38054837768E+03  0.50400001928E-02 0. -1.
       -1   -1    0    0    0  501  0.00000000000E+00  0.00000000000E+00 -0.79651745047E+03  0.79651745048E+03  0.50400001928E-02 0.  1.
    10030    2    1    2    0    0  0.00000000000E+00  0.00000000000E+00 -0.41596907282E+03  0.11770658282E+04  0.11011147507E+04 0.  0.
        4    1    3    3  502    0 -0.48701694546E+03  0.16233474161E+03  0.46685565396E+01  0.51338239336E+03  0.12699999809E+01 0. -1.
       -4    1    3    3    0  502  0.48701694546E+03 -0.16233474161E+03 -0.42063762936E+03  0.66368343480E+03  0.12699999809E+01 0.  1.
</event>
<event>
 5   0  0.1396936E-03  0.1099344E+04  0.7818609E-02  0.9205832E-01
       -2   -1    0    0    0  501  0.00000000000E+00  0.00000000000E+00  0.50066895195E+03  0.50066895196E+03  0.25500000920E-02 0. -1.
        2   -1    0    0  501    0  0.00000000000E+00  0.00000000000E+00 -0.60347071800E+03  0.60347071800E+03  0.25500000920E-02 0.  1.
    10030    2    1    2    0    0  0.00000000000E+00  0.00000000000E+00 -0.10280176605E+03  0.11041396700E+04  0.10993435349E+04 0.  0.
        2    1    3    3  502    0 -0.45801933444E+03  0.24587196413E+03 -0.23079794352E+03  0.56877273512E+03  0.25500000920E-02 0.  1.
       -2    1    3    3    0  502  0.45801933444E+03 -0.24587196413E+03  0.12799617748E+03  0.53536693484E+03  0.25500000920E-02 0. -1.
</event>
<event>
 5   0  0.8305271E-04  0.1098341E+04  0.7818609E-02  0.9206810E-01
        1   -1    0    0  501    0  0.00000000000E+00  0.00000000000E+00  0.60261949654E+03  0.60261949656E+03  0.50400001928E-02 0. -1.
       -1   -1    0    0    0  501  0.00000000000E+00  0.00000000000E+00 -0.50046247303E+03  0.50046247306E+03  0.50400001928E-02 0.  1.
    10030    2    1    2    0    0  0.00000000000E+00  0.00000000000E+00  0.10215702351E+03  0.11030819696E+04  0.10983413742E+04 0.  0.
        5    1    3    3  502    0  0.23017437417E+03 -0.18660641487E+03 -0.41326340038E+03  0.50853802679E+03  0.46999998093E+01 0.  1.
       -5    1    3    3    0  502 -0.23017437417E+03  0.18660641487E+03  0.51542042389E+03  0.59454394283E+03  0.46999998093E+01 0. -1.
</event>
<event>
 5   0  0.8150924E-04  0.1100735E+04  0.7818609E-02  0.9204476E-01
       -1   -1    0    0    0  501  0.00000000000E+00  0.00000000000E+00  0.19200551922E+03  0.19200551929E+03  0.50400001928E-02 0.  1.
        1   -1    0    0  501    0  0.00000000000E+00  0.00000000000E+00 -0.15775811057E+04  0.15775811057E+04  0.50400001928E-02 0. -1.
    10030    2    1    2    0    0  0.00000000000E+00  0.00000000000E+00 -0.13855755864E+04  0.17695866250E+04  0.11007348080E+04 0.  0.
        3    1    3    3  502    0  0.36705341413E+03  0.22744534691E+03 -0.12413791269E+04  0.13143369970E+04  0.10100000352E+00 0. -1.
       -3    1    3    3    0  502 -0.36705341413E+03 -0.22744534691E+03 -0.14419645953E+03  0.45524962800E+03  0.10100000352E+00 0.  1.
</event>
<event>
 5   0  0.8150924E-04  0.1087302E+04  0.7818609E-02  0.9217657E-01
        1   -1    0    0  501    0  0.00000000000E+00  0.00000000000E+00  0.17009555349E+04  0.17009555349E+04  0.50400001928E-02 0. -1.
       -1   -1    0    0    0  501  0.00000000000E+00  0.00000000000E+00 -0.17375907434E+03  0.17375907442E+03  0.50400001928E-02 0.  1.
    10030    2    1    2    0    0  0.00000000000E+00  0.00000000000E+00  0.15271964605E+04  0.18747146093E+04  0.10873020911E+04 0.  0.
        3    1    3    3  502    0 -0.27812767426E+03  0.46338827900E+03  0.66199169883E+03  0.85458570069E+03  0.10100000352E+00 0.  1.
       -3    1    3    3    0  502  0.27812767426E+03 -0.46338827900E+03  0.86520476171E+03  0.10201289086E+04  0.10100000352E+00 0. -1.
</event>
<event>
 5   0  0.8341767E-04  0.1103446E+04  0.7818609E-02  0.9201840E-01
        1   -1    0    0  501    0  0.00000000000E+00  0.00000000000E+00  0.85004518659E+03  0.85004518660E+03  0.50400001928E-02 0. -1.
       -1   -1    0    0    0  501  0.00000000000E+00  0.00000000000E+00 -0.35809647719E+03  0.35809647722E+03  0.50400001928E-02 0.  1.
    10030    2    1    2    0    0  0.00000000000E+00  0.00000000000E+00  0.49194870940E+03  0.12081416638E+04  0.11034458515E+04 0.  0.
        2    1    3    3  502    0  0.48221160597E+03 -0.22954855293E+03  0.94351684317E+02  0.54233090584E+03  0.25500000920E-02 0.  1.
       -2    1    3    3    0  502 -0.48221160597E+03  0.22954855293E+03  0.39759702508E+03  0.66581075799E+03  0.25500000920E-02 0. -1.
</event>
<event>
 5   0  0.1402775E-03  0.1100449E+04  0.7818609E-02  0.9204755E-01
       -2   -1    0    0    0  501  0.00000000000E+00  0.00000000000E+00  0.10816545582E+04  0.10816545582E+04  0.25500000920E-02 0. -1.
        2   -1    0    0  501    0  0.00000000000E+00  0.00000000000E+00 -0.27989238477E+03  0.27989238478E+03  0.25500000920E-02 0.  1.
    10030    2    1    2    0    0  0.00000000000E+00  0.00000000000E+00  0.80176217344E+03  0.13615469430E+04  0.11004487699E+04 0.  0.
        5    1    3    3  502    0 -0.21513668379E+03  0.20324820135E+03 -0.17299013880E+03  0.34284297015E+03  0.46999998093E+01 0.  1.
       -5    1    3    3    0  502  0.21513668379E+03 -0.20324820135E+03  0.97475231224E+03  0.10187039728E+04  0.46999998093E+01 0. -1.
</event>
<event>
 5   0  0.7946038E-04  0.1101560E+04  0.7818609E-02  0.9203673E-01
        1   -1    0    0  501    0  0.00000000000E+00  0.00000000000E+00  0.65229930926E+03  0.65229930928E+03  0.50400001928E-02 0.  1.
       -1   -1    0    0    0  501  0.00000000000E+00  0.00000000000E+00 -0.46506055256E+03  0.46506055258E+03  0.50400001928E-02 0. -1.
    10030    2    1    2    0    0  0.00000000000E+00  0.00000000000E+00  0.18723875671E+03  0.11173598619E+04  0.11015601250E+04 0.  0.
        4    1    3    3  502    0 -0.23485227141E+03 -0.37177511013E+03 -0.24277682132E+03  0.50230918742E+03  0.12699999809E+01 0. -1.
       -4    1    3    3    0  502  0.23485227141E+03  0.37177511013E+03  0.43001557803E+03  0.61505067445E+03  0.12699999809E+01 0.  1.
</event>
<event>
 5   0  0.8150924E-04  0.1112011E+04  0.7818609E-02  0.9193563E-01
       -1   -1    0    0    0  501  0.00000000000E+00  0.00000000000E+00  0.11835902351E+03  0.11835902362E+03  0.50400001928E-02 0.  1.
        1   -1    0    0  501    0  0.00000000000E+00  0.00000000000E+00 -0.26119028093E+04  0.26119028093E+04  0.50400001928E-02 0. -1.
    10030    2    1    2    0    0  0.00000000000E+00  0.00000000000E+00 -0.24935437858E+04  0.27302618330E+04  0.11120112700E+04 0.  0.
        3    1    3    3  502    0  0.23372718636E+03 -0.32466453460E+03 -0.29869441085E+03  0.49925326133E+03  0.10100000352E+00 0.  1.
       -3    1    3    3    0  502 -0.23372718636E+03  0.32466453460E+03 -0.21948493750E+04  0.22310085716E+04  0.10100000352E+00 0. -1.
</event>
<event>
 5   0  0.1396936E-03  0.1100459E+04  0.7818609E-02  0.9204745E-01
        2   -1    0    0  501    0  0.00000000000E+00  0.00000000000E+00  0.27073193483E+04  0.27073193483E+04  0.25500000920E-02 0. -1.
       -2   -1    0    0    0  501  0.00000000000E+00  0.00000000000E+00 -0.11182742190E+03  0.11182742193E+03  0.25500000920E-02 0.  1.
    10030    2    1    2    0    0  0.00000000000E+00  0.00000000000E+00  0.25954919264E+04  0.28191467702E+04  0.11004590733E+04 0.  0.
        2    1    3    3  502    0  0.17942246636E+03 -0.27644079539E+03  0.24265069331E+04  0.24487849704E+04  0.25500000920E-02 0. -1.
       -2    1    3    3    0  502 -0.17942246636E+03  0.27644079539E+03  0.16898499324E+03  0.37036179978E+03  0.25500000920E-02 0.  1.
</event>
<event>
 5   0  0.5409500E-04  0.1105954E+04  0.7818609E-02  0.9199408E-01
       -4   -1    0    0    0  501  0.00000000000E+00  0.00000000000E+00  0.66411507187E+03  0.66411628619E+03  0.12699999809E+01 0.  1.
        4   -1    0    0  501    0  0.00000000000E+00  0.00000000000E+00 -0.46043507279E+03  0.46043682428E+03  0.12699999809E+01 0. -1.
    10030    2    1    2    0    0  0.00000000000E+00  0.00000000000E+00  0.20367999908E+03  0.11245531105E+04  0.11059539576E+04 0.  0.
        5    1    3    3  502    0 -0.11755802957E+03  0.41557465519E+03 -0.24927757575E+03  0.49868184660E+03  0.46999998093E+01 0. -1.
       -5    1    3    3    0  502  0.11755802957E+03 -0.41557465519E+03  0.45295757484E+03  0.62587126388E+03  0.46999998093E+01 0.  1.
</event>
<event>
 5   0  0.1402775E-03  0.1161915E+04  0.7818609E-02  0.9146861E-01
        2   -1    0    0  501    0  0.00000000000E+00  0.00000000000E+00  0.57075986182E+03  0.57075986183E+03  0.25500000920E-02 0.  1.
       -2   -1    0    0    0  501  0.00000000000E+00  0.00000000000E+00 -0.59133725501E+03  0.59133725502E+03  0.25500000920E-02 0. -1.
    10030    2    1    2    0    0  0.00000000000E+00  0.00000000000E+00 -0.20577393190E+02  0.11620971168E+04  0.11619149194E+04 0.  0.
        5    1    3    3  502    0 -0.10008389965E+03  0.32728444422E+01  0.56204397486E+03  0.57091419509E+03  0.46999998093E+01 0.  1.
       -5    1    3    3    0  502  0.10008389965E+03 -0.32728444422E+01 -0.58262136805E+03  0.59118292176E+03  0.46999998093E+01 0. -1.
</event>
<event>
 5   0  0.8009636E-04  0.1104367E+04  0.7818609E-02  0.9200946E-01
        1   -1    0    0  501    0  0.00000000000E+00  0.00000000000E+00  0.41671335009E+03  0.41671335012E+03  0.50400001928E-02 0. -1.
       -1   -1    0    0    0  501  0.00000000000E+00  0.00000000000E+00 -0.73169330728E+03  0.73169330729E+03  0.50400001928E-02 0.  1.
    10030    2    1    2    0    0  0.00000000000E+00  0.00000000000E+00 -0.31497995718E+03  0.11484066574E+04  0.11043665503E+04 0.  0.
        1    1    3    3  502    0  0.10558413538E+03 -0.36235916650E+03  0.26163922442E+03  0.45924640333E+03  0.50400001928E-02 0. -1.
       -1    1    3    3    0  502 -0.10558413538E+03  0.36235916650E+03 -0.57661918160E+03  0.68916025409E+03  0.50400001928E-02 0.  1.
</event>
<event>
 5   0  0.1429680E-03  0.1084593E+04  0.7818609E-02  0.9220340E-01
       -2   -1    0    0    0  501  0.00000000000E+00  0.00000000000E+00  0.20950331905E+03  0.20950331906E+03  0.25500000920E-02 0.  1.
        2   -1    0    0  501    0  0.00000000000E+00  0.00000000000E+00 -0.14037277267E+04  0.14037277267E+04  0.25500000920E-02 0. -1.
    10030    2    1    2    0    0  0.00000000000E+00  0.00000000000E+00 -0.11942244077E+04  0.16132310458E+04  0.10845932284E+04 0.  0.
        3    1    3    3  502    0  0.78084484494E+02  0.29829123271E+03 -0.12606535097E+04  0.12978143658E+04  0.10100000352E+00 0. -1.
       -3    1    3    3    0  502 -0.78084484494E+02 -0.29829123271E+03  0.66429102050E+02  0.31541668001E+03  0.10100000352E+00 0.  1.
</event>
<event>
 5   0  0.1402775E-03  0.1108559E+04  0.7818609E-02  0.9196890E-01
       -2   -1    0    0    0  501  0.00000000000E+00  0.00000000000E+00  0.49470150039E+03  0.49470150040E+03  0.25500000920E-02 0. -1.
        2   -1    0    0  501    0  0.00000000000E+00  0.00000000000E+00 -0.62103243652E+03  0.62103243653E+03  0.25500000920E-02 0.  1.
    10030    2    1    2    0    0  0.00000000000E+00  0.00000000000E+00 -0.12633093613E+03  0.11157339369E+04  0.11085588449E+04 0.  0.
        5    1    3    3  502    0 -0.12753107093E+03  0.49552328062E+03 -0.27760809938E+03  0.58214761232E+03  0.46999998093E+01 0.  1.
       -5    1    3    3    0  502  0.12753107093E+03 -0.49552328062E+03  0.15127716325E+03  0.53358632461E+03  0.46999998093E+01 0. -1.
</event>
<event>
 5   0  0.8009636E-04  0.1064557E+04  0.7818609E-02  0.9240443E-01
        1   -1    0    0  501    0  0.00000000000E+00  0.00000000000E+00  0.76150176700E+03  0.76150176702E+03  0.50400001928E-02 0. -1.
       -1   -1    0    0    0  501  0.00000000000E+00  0.00000000000E+00 -0.37205451813E+03  0.37205451816E+03  0.50400001928E-02 0.  1.
    10030    2    1    2    0    0  0.00000000000E+00  0.00000000000E+00  0.38944724887E+03  0.11335562852E+04  0.10645565706E+04 0.  0.
        1    1    3    3  502    0  0.88860335766E+02  0.34404228856E+03  0.61671701045E+03  0.71175917739E+03  0.50400001928E-02 0. -1.
       -1    1    3    3    0  502 -0.88860335766E+02 -0.34404228856E+03 -0.22726976158E+03  0.42179710779E+03  0.50400001928E-02 0.  1.
</event>
<event>
 5   0  0.1396936E-03  0.1097837E+04  0.7818609E-02  0.9207302E-01
        2   -1    0    0  501    0  0.00000000000E+00  0.00000000000E+00  0.21002361096E+04  0.21002361096E+04  0.25500000920E-02 0. -1.
       -2   -1    0    0    0  501  0.00000000000E+00  0.00000000000E+00 -0.14346560243E+03  0.14346560246E+03  0.25500000920E-02 0.  1.
    10030    2    1    2    0    0  0.00000000000E+00  0.00000000000E+00  0.19567705071E+04  0.22437017120E+04  0.10978372170E+04 0.  0.
        2    1    3    3  502    0  0.35026448898E+03 -0.27536681106E+03  0.16336589995E+04  0.16933262591E+04  0.25500000920E-02 0. -1.
       -2    1    3    3    0  502 -0.35026448898E+03  0.27536681106E+03  0.32311150761E+03  0.55037545297E+03  0.25500000920E-02 0.  1.
</event>
<event>
 5   0  0.1402775E-03  0.1089950E+04  0.7818609E-02  0.9215043E-01
       -2   -1    0    0    0  501  0.00000000000E+00  0.00000000000E+00  0.84813809112E+03  0.84813809113E+03  0.25500000920E-02 0.  1.
        2   -1    0    0  501    0  0.00000000000E+00  0.00000000000E+00 -0.35017645231E+03  0.35017645232E+03  0.25500000920E-02 0. -1.
    10030    2    1    2    0    0  0.00000000000E+00  0.00000000000E+00  0.49796163881E+03  0.11983145434E+04  0.10899504352E+04 0.  0.
        5    1    3    3  502    0 -0.43435821827E+03  0.17198815048E+03 -0.59502159674E+02  0.47096664711E+03  0.46999998093E+01 0. -1.
       -5    1    3    3    0  502  0.43435821827E+03 -0.17198815048E+03  0.55746379849E+03  0.72734789634E+03  0.46999998093E+01 0.  1.
</event>
<event>
 5   0  0.8341767E-04  0.1108069E+04  0.7818609E-02  0.9197363E-01
       -1   -1    0    0    0  501  0.00000000000E+00  0.00000000000E+00  0.40941618599E+03  0.40941618602E+03  0.50400001928E-02 0. -1.
        1   -1    0    0  501    0  0.00000000000E+00  0.00000000000E+00 -0.74973603502E+03  0.74973603503E+03  0.50400001928E-02 0.  1.
    10030    2    1    2    0    0  0.00000000000E+00  0.00000000000E+00 -0.34031984903E+03  0.11591522211E+04  0.11080687126E+04 0.  0.
        2    1    3    3  502    0  0.22730927917E+00 -0.43272954278E+03 -0.53208554623E+03  0.68583521154E+03  0.25500000920E-02 0.  1.
       -2    1    3    3    0  502 -0.22730927917E+00  0.43272954278E+03  0.19176569720E+03  0.47331700952E+03  0.25500000920E-02 0. -1.
</event>
<event>
 5   0  0.1402775E-03  0.1105583E+04  0.7818609E-02  0.9199767E-01
        2   -1    0    0  501    0  0.00000000000E+00  0.00000000000E+00  0.73932002930E+03  0.73932002930E+03  0.25500000920E-02 0.  1.
       -2   -1    0    0    0  501  0.00000000000E+00  0.00000000000E+00 -0.41332363427E+03  0.41332363428E+03  0.25500000920E-02 0. -1.
    10030    2    1    2    0    0  0.00000000000E+00  0.00000000000E+00  0.32599639502E+03  0.11526436636E+04  0.11055829981E+04 0.  0.
        5    1    3    3  502    0  0.23950839935E+03  0.44149740438E+03  0.40363037762E+03  0.64437861787E+03  0.46999998093E+01 0.  1.
       -5    1    3    3    0  502 -0.23950839935E+03 -0.44149740438E+03 -0.77633982593E+02  0.50826504571E+03  0.46999998093E+01 0. -1.
</event>
<event>
 5   0  0.7946038E-04  0.1057460E+04  0.7818609E-02  0.9247675E-01
       -1   -1    0    0    0  501  0.00000000000E+00  0.00000000000E+00  0.17991206323E+03  0.17991206330E+03  0.50400001928E-02 0.  1.
        1   -1    0    0  501    0  0.00000000000E+00  0.00000000000E+00 -0.15538461391E+04  0.15538461391E+04  0.50400001928E-02 0. -1.
    10030    2    1    2    0    0  0.00000000000E+00  0.00000000000E+00 -0.13739340759E+04  0.17337582024E+04  0.10574604766E+04 0.  0.
        4    1    3    3  502    0 -0.45310937885E+03 -0.26173493158E+03 -0.81119215011E+03  0.96532253724E+03  0.12699999809E+01 0. -1.
       -4    1    3    3    0  502  0.45310937885E+03  0.26173493158E+03 -0.56274192576E+03  0.76843566518E+03  0.12699999809E+01 0.  1.
</event>
<event>
 5   0  0.8305271E-04  0.1101280E+04  0.7818609E-02  0.9203945E-01
       -1   -1    0    0    0  501  0.00000000000E+00  0.00000000000E+00  0.35040794643E+03  0.35040794646E+03  0.50400001928E-02 0.  1.
        1   -1    0    0  501    0  0.00000000000E+00  0.00000000000E+00 -0.86529001025E+03  0.86529001026E+03  0.50400001928E-02 0. -1.
    10030    2    1    2    0    0  0.00000000000E+00  0.00000000000E+00 -0.51488206382E+03  0.12156979567E+04  0.11012801562E+04 0.  0.
        5    1    3    3  502    0  0.33308513536E+03 -0.41925551930E+03 -0.11580861118E+03  0.54786368951E+03  0.46999998093E+01 0.  1.
       -5    1    3    3    0  502 -0.33308513536E+03  0.41925551930E+03 -0.39907345265E+03  0.66783426722E+03  0.46999998093E+01 0. -1.
</event>
<event>
 5   0  0.8305271E-04  0.1100429E+04  0.7818609E-02  0.9204774E-01
       -1   -1    0    0    0  501  0.00000000000E+00  0.00000000000E+00  0.30823908487E+03  0.30823908491E+03  0.50400001928E-02 0.  1.
        1   -1    0    0  501    0  0.00000000000E+00  0.00000000000E+00 -0.98214592472E+03  0.98214592473E+03  0.50400001928E-02 0. -1.
    10030    2    1    2    0    0  0.00000000000E+00  0.00000000000E+00 -0.67390683985E+03  0.12903850096E+04  0.11004285730E+04 0.  0.
        5    1    3    3  502    0  0.57587425918E+02  0.92314926565E+02  0.29547427950E+03  0.31490553685E+03  0.46999998093E+01 0.  1.
       -5    1    3    3    0  502 -0.57587425918E+02 -0.92314926565E+02 -0.96938111935E+03  0.97547947280E+03  0.46999998093E+01 0. -1.
</event>
<event>
 5   0  0.5409500E-04  0.1101486E+04  0.7818609E-02  0.9203745E-01
        3   -1    0    0  501    0  0.00000000000E+00  0.00000000000E+00  0.34220206961E+03  0.34220208452E+03  0.10100000352E+00 0. -1.
       -3   -1    0    0    0  501  0.00000000000E+00  0.00000000000E+00 -0.88637048502E+03  0.88637049077E+03  0.10100000352E+00 0.  1.
    10030    2    1    2    0    0  0.00000000000E+00  0.00000000000E+00 -0.54416841541E+03  0.12285725753E+04  0.11014859547E+04 0.  0.
        2    1    3    3  502    0  0.53527793332E+03  0.10176833067E+03 -0.18258555477E+03  0.57464488499E+03  0.25500000920E-02 0. -1.
       -2    1    3    3    0  502 -0.53527793332E+03 -0.10176833067E+03 -0.36158286063E+03  0.65392769030E+03  0.25500000920E-02 0.  1.
</event>
<event>
 5   0  0.1429680E-03  0.1096004E+04  0.7818609E-02  0.9209095E-01
       -2   -1    0    0    0  501  0.00000000000E+00  0.00000000000E+00  0.26012712120E+03  0.26012712121E+03  0.25500000920E-02 0.  1.
        2   -1    0    0  501    0  0.00000000000E+00  0.00000000000E+00 -0.11544603754E+04  0.11544603754E+04  0.25500000920E-02 0. -1.
    10030    2    1    2    0    0  0.00000000000E+00  0.00000000000E+00 -0.89433325415E+03  0.14145874966E+04  0.10960044781E+04 0.  0.
        3    1    3    3  502    0 -0.20390590729E+03  0.50807101766E+03 -0.47858780126E+03  0.72715890404E+03  0.10100000352E+00 0. -1.
       -3    1    3    3    0  502  0.20390590729E+03 -0.50807101766E+03 -0.41574545290E+03  0.68742859253E+03  0.10100000352E+00 0.  1.
</event>
<event>
 5   0  0.8305271E-04  0.1099837E+04  0.7818609E-02  0.9205351E-01
       -1   -1    0    0    0  501  0.00000000000E+00  0.00000000000E+00  0.32373972240E+03  0.32373972244E+03  0.50400001928E-02 0.  1.
        1   -1    0    0  501    0  0.00000000000E+00  0.00000000000E+00 -0.93411506459E+03  0.93411506460E+03  0.50400001928E-02 0. -1.
    10030    2    1    2    0    0  0.00000000000E+00  0.00000000000E+00 -0.61037534219E+03  0.12578547870E+04  0.10998366274E+04 0.  0.
        5    1    3    3  502    0  0.18272481470E+03 -0.49435862798E+03 -0.48459968619E+03  0.71598726023E+03  0.46999998093E+01 0. -1.
       -5    1    3    3    0  502 -0.18272481470E+03  0.49435862798E+03 -0.12577565601E+03  0.54186752681E+03  0.46999998093E+01 0.  1.
</event>
<event>
 5   0  0.8305271E-04  0.1104466E+04  0.7818609E-02  0.9200850E-01
        1   -1    0    0  501    0  0.00000000000E+00  0.00000000000E+00  0.21829937343E+03  0.21829937349E+03  0.50400001928E-02 0. -1.
       -1   -1    0    0    0  501  0.00000000000E+00  0.00000000000E+00 -0.13969874679E+04  0.13969874679E+04  0.50400001928E-02 0.  1.
    10030    2    1    2    0    0  0.00000000000E+00  0.00000000000E+00 -0.11786880945E+04  0.16152868414E+04  0.11044663671E+04 0.  0.
        5    1    3    3  502    0  0.28102664307E+02 -0.49467404659E+03 -0.94592895664E+03  0.10678463621E+04  0.46999998093E+01 0.  1.
       -5    1    3    3    0  502 -0.28102664307E+02  0.49467404659E+03 -0.23275913783E+03  0.54744047927E+03  0.46999998093E+01 0. -1.
</event>
<event>
 5   0  0.1429680E-03  0.1095817E+04  0.7818609E-02  0.9209278E-01
        2   -1    0    0  501    0  0.00000000000E+00  0.00000000000E+00  0.21795436652E+04  0.21795436652E+04  0.25500000920E-02 0.  1.
       -2   -1    0    0    0  501  0.00000000000E+00  0.00000000000E+00 -0.13773699767E+03  0.13773699769E+03  0.25500000920E-02 0. -1.
    10030    2    1    2    0    0  0.00000000000E+00  0.00000000000E+00  0.20418066675E+04  0.23172806629E+04  0.10958171394E+04 0.  0.
        3    1    3    3  502    0 -0.82657452397E+02 -0.48090362585E+02  0.21617596616E+04  0.21638737908E+04  0.10100000352E+00 0.  1.
       -3    1    3    3    0  502  0.82657452397E+02  0.48090362585E+02 -0.11995299413E+03  0.15340687212E+03  0.10100000352E+00 0. -1.
</event>
<event>
 5   0  0.1425432E-03  0.1069364E+04  0.7818609E-02  0.9235577E-01
        2   -1    0    0  501    0  0.00000000000E+00  0.00000000000E+00  0.69409670679E+03  0.69409670680E+03  0.25500000920E-02 0.  1.
       -2   -1    0    0    0  501  0.00000000000E+00  0.00000000000E+00 -0.41188031359E+03  0.41188031360E+03  0.25500000920E-02 0. -1.
    10030    2    1    2    0    0  0.00000000000E+00  0.00000000000E+00  0.28221639320E+03  0.11059770204E+04  0.10693638656E+04 0.  0.
        1    1    3    3  502    0 -0.11772468730E+03  0.33174231777E+03 -0.27512959799E+03  0.44677551758E+03  0.50400001928E-02 0. -1.
       -1    1    3    3    0  502  0.11772468730E+03 -0.33174231777E+03  0.55734599118E+03  0.65920150281E+03  0.50400001928E-02 0.  1.
</event>
<event>
 5   0  0.1372794E-03  0.1102865E+04  0.7818609E-02  0.9202403E-01
        2   -1    0    0  501    0  0.00000000000E+00  0.00000000000E+00  0.28104881607E+04  0.28104881607E+04  0.25500000920E-02 0. -1.
       -2   -1    0    0    0  501  0.00000000000E+00  0.00000000000E+00 -0.10819403765E+03  0.10819403768E+03  0.25500000920E-02 0.  1.
    10030    2    1    2    0    0  0.00000000000E+00  0.00000000000E+00  0.27022941231E+04  0.29186821984E+04  0.11028654713E+04 0.  0.
        4    1    3    3  502    0 -0.15260824914E+03  0.33338091179E+03  0.26112834491E+03  0.45013524131E+03  0.12699999809E+01 0.  1.
       -4    1    3    3    0  502  0.15260824914E+03 -0.33338091179E+03  0.24411657781E+04  0.24685469571E+04  0.12699999809E+01 0. -1.
</event>
<event>
 5   0  0.8341767E-04  0.1106650E+04  0.7818609E-02  0.9198734E-01
       -1   -1    0    0    0  501  0.00000000000E+00  0.00000000000E+00  0.25597805119E+03  0.25597805124E+03  0.50400001928E-02 0. -1.
        1   -1    0    0  501    0  0.00000000000E+00  0.00000000000E+00 -0.11960738525E+04  0.11960738525E+04  0.50400001928E-02 0.  1.
    10030    2    1    2    0    0  0.00000000000E+00  0.00000000000E+00 -0.94009580129E+03  0.14520519037E+04  0.11066501776E+04 0.  0.
        2    1    3    3  502    0 -0.35509267168E+03  0.41326792460E+03 -0.34359741104E+03  0.64415864805E+03  0.25500000920E-02 0. -1.
       -2    1    3    3    0  502  0.35509267168E+03 -0.41326792460E+03 -0.59649839026E+03  0.80789325568E+03  0.25500000920E-02 0.  1.
</event>
<event>
 5   0  0.1402775E-03  0.1094375E+04  0.7818609E-02  0.9210692E-01
        2   -1    0    0  501    0  0.00000000000E+00  0.00000000000E+00  0.71233120516E+03  0.71233120517E+03  0.25500000920E-02 0.  1.
       -2   -1    0    0    0  501  0.00000000000E+00  0.00000000000E+00 -0.42032996024E+03  0.42032996025E+03  0.25500000920E-02 0. -1.
    10030    2    1    2    0    0  0.00000000000E+00  0.00000000000E+00  0.29200124492E+03  0.11326611654E+04  0.10943749762E+04 0.  0.
        5    1    3    3  502    0 -0.47329130744E+03 -0.24407944094E+03  0.15853131307E+02  0.53277842201E+03  0.46999998093E+01 0. -1.
       -5    1    3    3    0  502  0.47329130744E+03  0.24407944094E+03  0.27614811362E+03  0.59988274341E+03  0.46999998093E+01 0.  1.
</event>
<event>
 5   0  0.7946038E-04  0.1105407E+04  0.7818609E-02  0.9199938E-01
        1   -1    0    0  501    0  0.00000000000E+00  0.00000000000E+00  0.18364368520E+04  0.18364368520E+04  0.50400001928E-02 0. -1.
       -1   -1    0    0    0  501  0.00000000000E+00  0.00000000000E+00 -0.16634452683E+03  0.16634452691E+03  0.50400001928E-02 0.  1.
    10030    2    1    2    0    0  0.00000000000E+00  0.00000000000E+00  0.16700923252E+04  0.20027813789E+04  0.11054071092E+04 0.  0.
        4    1    3    3  502    0 -0.66473113681E+02  0.14708759691E+03  0.17927799982E+04  0.18000319917E+04  0.12699999809E+01 0. -1.
       -4    1    3    3    0  502  0.66473113681E+02 -0.14708759691E+03 -0.12268767307E+03  0.20274938725E+03  0.12699999809E+01 0.  1.
</event>
<event>
 5   0  0.1425432E-03  0.1098155E+04  0.7818609E-02  0.9206992E-01
       -2   -1    0    0    0  501  0.00000000000E+00  0.00000000000E+00  0.32170644887E+03  0.32170644888E+03  0.25500000920E-02 0.  1.
        2   -1    0    0  501    0  0.00000000000E+00  0.00000000000E+00 -0.93714707486E+03  0.93714707486E+03  0.25500000920E-02 0. -1.
    10030    2    1    2    0    0  0.00000000000E+00  0.00000000000E+00 -0.61544062598E+03  0.12588535237E+04  0.10981552851E+04 0.  0.
        1    1    3    3  502    0 -0.39970706314E+03  0.37579798346E+03 -0.33326060945E+03  0.64191315186E+03  0.50400001928E-02 0.  1.
       -1    1    3    3    0  502  0.39970706314E+03 -0.37579798346E+03 -0.28218001653E+03  0.61694037188E+03  0.50400001928E-02 0. -1.
</event>
<event>
 5   0  0.1402775E-03  0.1098943E+04  0.7818609E-02  0.9206223E-01
        2   -1    0    0  501    0  0.00000000000E+00  0.00000000000E+00  0.18936354690E+03  0.18936354692E+03  0.25500000920E-02 0. -1.
       -2   -1    0    0    0  501  0.00000000000E+00  0.00000000000E+00 -0.15943878712E+04  0.15943878712E+04  0.25500000920E-02 0.  1.
    10030    2    1    2    0    0  0.00000000000E+00  0.00000000000E+00 -0.14050243243E+04  0.17837514181E+04  0.10989430239E+04 0.  0.
        5    1    3    3  502    0 -0.18011712832E+03  0.35460697505E+03 -0.87192939807E+02  0.40720140645E+03  0.46999998093E+01 0. -1.
       -5    1    3    3    0  502  0.18011712832E+03 -0.35460697505E+03 -0.13178313845E+04  0.13765500116E+04  0.46999998093E+01 0.  1.
</event>
<event>
 5   0  0.1396936E-03  0.1098504E+04  0.7818609E-02  0.9206651E-01
        2   -1    0    0  501    0  0.00000000000E+00  0.00000000000E+00  0.55981958533E+03  0.55981958534E+03  0.25500000920E-02 0.  1.
       -2   -1    0    0    0  501  0.00000000000E+00  0.00000000000E+00 -0.53888426509E+03  0.53888426510E+03  0.25500000920E-02 0. -1.
    10030    2    1    2    0    0  0.00000000000E+00  0.00000000000E+00  0.20935320240E+02  0.10987038504E+04  0.10985043757E+04 0.  0.
        2    1    3    3  502    0  0.28044372229E+03  0.40175868172E+03  0.25874497832E+03  0.55408274068E+03  0.25500000920E-02 0.  1.
       -2    1    3    3    0  502 -0.28044372229E+03 -0.40175868172E+03 -0.23780965808E+03  0.54462110976E+03  0.25500000920E-02 0. -1.
</event>
<event>
 5   0  0.8009636E-04  0.1101274E+04  0.7818609E-02  0.9203951E-01
       -1   -1    0    0    0  501  0.00000000000E+00  0.00000000000E+00  0.38440268702E+03  0.38440268705E+03  0.50400001928E-02 0.  1.
        1   -1    0    0  501    0  0.00000000000E+00  0.00000000000E+00 -0.78875930676E+03  0.78875930678E+03  0.50400001928E-02 0. -1.
    10030    2    1    2    0    0  0.00000000000E+00  0.00000000000E+00 -0.40435661975E+03  0.11731619938E+04  0.11012741656E+04 0.  0.
        1    1    3    3  502    0  0.17644306211E+03 -0.51101036380E+03 -0.31358739066E+03  0.62498063784E+03  0.50400001928E-02 0.  1.
       -1    1    3    3    0  502 -0.17644306211E+03  0.51101036380E+03 -0.90769229094E+02  0.54818135599E+03  0.50400001928E-02 0. -1.
</event>
<event>
 5   0  0.7946038E-04  0.1099549E+04  0.7818609E-02  0.9205631E-01
        1   -1    0    0  501    0  0.00000000000E+00  0.00000000000E+00  0.76360362549E+03  0.76360362551E+03  0.50400001928E-02 0.  1.
       -1   -1    0    0    0  501  0.00000000000E+00  0.00000000000E+00 -0.39582335730E+03  0.39582335733E+03  0.50400001928E-02 0. -1.
    10030    2    1    2    0    0  0.00000000000E+00  0.00000000000E+00  0.36778026819E+03  0.11594269828E+04  0.10995492726E+04 0.  0.
        4    1    3    3  502    0 -0.28042664831E+03 -0.29245828545E+03 -0.20793603917E+03  0.45542283990E+03  0.12699999809E+01 0. -1.
       -4    1    3    3    0  502  0.28042664831E+03  0.29245828545E+03  0.57571630737E+03  0.70400414294E+03  0.12699999809E+01 0.  1.
</event>
<event>
 5   0  0.1396936E-03  0.1097855E+04  0.7818609E-02  0.9207285E-01
        2   -1    0    0  501    0  0.00000000000E+00  0.00000000000E+00  0.50494898436E+03  0.50494898437E+03  0.25500000920E-02 0.  1.
       -2   -1    0    0    0  501  0.00000000000E+00  0.00000000000E+00 -0.59673629404E+03  0.59673629404E+03  0.25500000920E-02 0. -1.
    10030    2    1    2    0    0  0.00000000000E+00  0.00000000000E+00 -0.91787309675E+02  0.11016852784E+04  0.10978549733E+04 0.  0.
        2    1    3    3  502    0  0.20063649321E+03  0.42758584464E+03 -0.32657782090E+03  0.57422794259E+03  0.25500000920E-02 0. -1.
       -2    1    3    3    0  502 -0.20063649321E+03 -0.42758584464E+03  0.23479051123E+03  0.52745733582E+03  0.25500000920E-02 0.  1.
</event>
<event>
 5   0  0.1402775E-03  0.1103242E+04  0.7818609E-02  0.9202038E-01
        2   -1    0    0  501    0  0.00000000000E+00  0.00000000000E+00  0.41930105683E+03  0.41930105684E+03  0.25500000920E-02 0.  1.
       -2   -1    0    0    0  501  0.00000000000E+00  0.00000000000E+00 -0.72569687649E+03  0.72569687650E+03  0.25500000920E-02 0. -1.
    10030    2    1    2    0    0  0.00000000000E+00  0.00000000000E+00 -0.30639581966E+03  0.11449979333E+04  0.11032415280E+04 0.  0.
        5    1    3    3  502    0  0.48750015287E+03 -0.71186782713E+02 -0.41065852448E+03  0.64139416181E+03  0.46999998093E+01 0. -1.
       -5    1    3    3    0  502 -0.48750015287E+03  0.71186782713E+02  0.10426270482E+03  0.50360377152E+03  0.46999998093E+01 0.  1.
</event>
<event>
 5   0  0.7946038E-04  0.1093644E+04  0.7818609E-02  0.9211410E-01
       -1   -1    0    0    0  501  0.00000000000E+00  0.00000000000E+00  0.70037190875E+03  0.70037190877E+03  0.50400001928E-02 0.  1.
        1   -1    0    0  501    0  0.00000000000E+00  0.00000000000E+00 -0.42693609281E+03  0.42693609284E+03  0.50400001928E-02 0. -1.
    10030    2    1    2    0    0  0.00000000000E+00  0.00000000000E+00  0.27343581594E+03  0.11273080016E+04  0.10936435366E+04 0.  0.
        4    1    3    3  502    0  0.38619803182E+03  0.78964451605E+02 -0.25393094233E+03  0.46889960628E+03  0.12699999809E+01 0. -1.
       -4    1    3    3    0  502 -0.38619803182E+03 -0.78964451605E+02  0.52736675828E+03  0.65840839532E+03  0.12699999809E+01 0.  1.
</event>
<event>
 5   0  0.8341767E-04  0.1096634E+04  0.7818609E-02  0.9208479E-01
        1   -1    0    0  501    0  0.00000000000E+00  0.00000000000E+00  0.76626220528E+03  0.76626220530E+03  0.50400001928E-02 0.  1.
       -1   -1    0    0    0  501  0.00000000000E+00  0.00000000000E+00 -0.39236091396E+03  0.39236091400E+03  0.50400001928E-02 0. -1.
    10030    2    1    2    0    0  0.00000000000E+00  0.00000000000E+00  0.37390129132E+03  0.11586231193E+04  0.10966336475E+04 0.  0.
        2    1    3    3  502    0  0.44915878042E+03  0.22808785637E+03  0.41571658970E+03  0.65313701718E+03  0.25500000920E-02 0.  1.
       -2    1    3    3    0  502 -0.44915878042E+03 -0.22808785637E+03 -0.41815298378E+02  0.50548610212E+03  0.25500000920E-02 0. -1.
</event>
<event>
 5   0  0.1372794E-03  0.1102001E+04  0.7818609E-02  0.9203244E-01
        2   -1    0    0  501    0  0.00000000000E+00  0.00000000000E+00  0.19209500859E+04  0.19209500859E+04  0.25500000920E-02 0. -1.
       -2   -1    0    0    0  501  0.00000000000E+00  0.00000000000E+00 -0.15804753526E+03  0.15804753528E+03  0.25500000920E-02 0.  1.
    10030    2    1    2    0    0  0.00000000000E+00  0.00000000000E+00  0.17629025507E+04  0.20789976212E+04  0.11020007740E+04 0.  0.
        4    1    3    3  502    0 -0.51008642933E+03 -0.29468269817E+02  0.49232771844E+03  0.70953839893E+03  0.12699999809E+01 0. -1.
       -4    1    3    3    0  502  0.51008642933E+03  0.29468269817E+02  0.12705748322E+04  0.13694592223E+04  0.12699999809E+01 0.  1.
</event>
<event>
 5   0  0.8305271E-04  0.1097292E+04  0.7818609E-02  0.9207835E-01
        1   -1    0    0  501    0  0.00000000000E+00  0.00000000000E+00  0.35028165927E+03  0.35028165930E+03  0.50400001928E-02 0. -1.
       -1   -1    0    0    0  501  0.00000000000E+00  0.00000000000E+00 -0.85934388912E+03  0.85934388913E+03  0.50400001928E-02 0.  1.
    10030    2    1    2    0    0  0.00000000000E+00  0.00000000000E+00 -0.50906222985E+03  0.12096255484E+04  0.10972919455E+04 0.  0.
        5    1    3    3  502    0  0.42371294366E+03 -0.25851037205E+03  0.31274170673E+01  0.49637903040E+03  0.46999998093E+01 0. -1.
       -5    1    3    3    0  502 -0.42371294366E+03  0.25851037205E+03 -0.51218964692E+03  0.71324651804E+03  0.46999998093E+01 0.  1.
</event>
<event>
 5   0  0.1372794E-03  0.1092067E+04  0.7818609E-02  0.9212958E-01
       -2   -1    0    0    0  501  0.00000000000E+00  0.00000000000E+00  0.17733600679E+03  0.17733600681E+03  0.25500000920E-02 0. -1.
        2   -1    0    0  501    0  0.00000000000E+00  0.00000000000E+00 -0.16812866851E+04  0.16812866851E+04  0.25500000920E-02 0.  1.
    10030    2    1    2    0    0  0.00000000000E+00  0.00000000000E+00 -0.15039506783E+04  0.18586226919E+04  0.10920671537E+04 0.  0.
        4    1    3    3  502    0  0.51912410081E+03 -0.10654646252E+03 -0.52806260138E+03  0.74812679713E+03  0.12699999809E+01 0. -1.
       -4    1    3    3    0  502 -0.51912410081E+03  0.10654646252E+03 -0.97588807695E+03  0.11104958948E+04  0.12699999809E+01 0.  1.
</event>
<event>
 5   0  0.1372794E-03  0.1096951E+04  0.7818609E-02  0.9208169E-01
        2   -1    0    0  501    0  0.00000000000E+00  0.00000000000E+00  0.92108781265E+03  0.92108781266E+03  0.25500000920E-02 0.  1.
       -2   -1    0    0    0  501  0.00000000000E+00  0.00000000000E+00 -0.32659769088E+03  0.32659769089E+03  0.25500000920E-02 0. -1.
    10030    2    1    2    0    0  0.00000000000E+00  0.00000000000E+00  0.59449012178E+03  0.12476855035E+04  0.10969505964E+04 0.  0.
        4    1    3    3  502    0 -0.29320933982E+03  0.39472698279E+03  0.20869154840E+02  0.49215672546E+03  0.12699999809E+01 0. -1.
       -4    1    3    3    0  502  0.29320933982E+03 -0.39472698279E+03  0.57362096694E+03  0.75552877808E+03  0.12699999809E+01 0.  1.
</event>
<event>
 5   0  0.1429680E-03  0.1084005E+04  0.7818609E-02  0.9220923E-01
       -2   -1    0    0    0  501  0.00000000000E+00  0.00000000000E+00  0.15529194046E+03  0.15529194048E+03  0.25500000920E-02 0. -1.
        2   -1    0    0  501    0  0.00000000000E+00  0.00000000000E+00 -0.18917073943E+04  0.18917073943E+04  0.25500000920E-02 0.  1.
    10030    2    1    2    0    0  0.00000000000E+00  0.00000000000E+00 -0.17364154538E+04  0.20469993348E+04  0.10840053728E+04 0.  0.
        3    1    3    3  502    0 -0.51696885312E+03  0.16079782047E+03 -0.81990954150E+03  0.98252959274E+03  0.10100000352E+00 0. -1.
       -3    1    3    3    0  502  0.51696885312E+03 -0.16079782047E+03 -0.91650591232E+03  0.10644697420E+04  0.10100000352E+00 0.  1.
</event>
<event>
 5   0  0.8341767E-04  0.1101365E+04  0.7818609E-02  0.9203862E-01
       -1   -1    0    0    0  501  0.00000000000E+00  0.00000000000E+00  0.22420658683E+03  0.22420658688E+03  0.50400001928E-02 0. -1.
        1   -1    0    0  501    0  0.00000000000E+00  0.00000000000E+00 -0.13525528810E+04  0.13525528810E+04  0.50400001928E-02 0.  1.
    10030    2    1    2    0    0  0.00000000000E+00  0.00000000000E+00 -0.11283462942E+04  0.15767594679E+04  0.11013650893E+04 0.  0.
        2    1    3    3  502    0 -0.51795229370E+03 -0.96902956612E+02 -0.33517096972E+03  0.62450327501E+03  0.25500000920E-02 0. -1.
       -2    1    3    3    0  502  0.51795229370E+03  0.96902956612E+02 -0.79317532446E+03  0.95225619289E+03  0.25500000920E-02 0.  1.
</event>
<event>
 5   0  0.7946038E-04  0.1094848E+04  0.7818609E-02  0.9210228E-01
       -1   -1    0    0    0  501  0.00000000000E+00  0.00000000000E+00  0.19298458900E+03  0.19298458907E+03  0.50400001928E-02 0. -1.
        1   -1    0    0  501    0  0.00000000000E+00  0.00000000000E+00 -0.15528339403E+04  0.15528339403E+04  0.50400001928E-02 0.  1.
    10030    2    1    2    0    0  0.00000000000E+00  0.00000000000E+00 -0.13598493513E+04  0.17458185294E+04  0.10948479709E+04 0.  0.
        4    1    3    3  502    0 -0.24870664257E+02  0.22668194358E+03 -0.14734857631E+04  0.14910282225E+04  0.12699999809E+01 0.  1.
       -4    1    3    3    0  502  0.24870664257E+02 -0.22668194358E+03  0.11363641178E+03  0.25479030686E+03  0.12699999809E+01 0. -1.
</event>
<event>
 5   0  0.8305271E-04  0.1103219E+04  0.7818609E-02  0.9202060E-01
        1   -1    0    0  501    0  0.00000000000E+00  0.00000000000E+00  0.55985921204E+03  0.55985921207E+03  0.50400001928E-02 0. -1.
       -1   -1    0    0    0  501  0.00000000000E+00  0.00000000000E+00 -0.54348158773E+03  0.54348158775E+03  0.50400001928E-02 0.  1.
    10030    2    1    2    0    0  0.00000000000E+00  0.00000000000E+00  0.16377624315E+02  0.11033407998E+04  0.11032192411E+04 0.  0.
        5    1    3    3  502    0 -0.11825745479E+03 -0.28417966659E+03  0.46595987615E+03  0.55846540152E+03  0.46999998093E+01 0. -1.
       -5    1    3    3    0  502  0.11825745479E+03  0.28417966659E+03 -0.44958225183E+03  0.54487539830E+03  0.46999998093E+01 0.  1.
</event>
<event>
 5   0  0.1425432E-03  0.1096366E+04  0.7818609E-02  0.9208741E-01
       -2   -1    0    0    0  501  0.00000000000E+00  0.00000000000E+00  0.60801778879E+03  0.60801778880E+03  0.25500000920E-02 0.  1.
        2   -1    0    0  501    0  0.00000000000E+00  0.00000000000E+00 -0.49423680985E+03  0.49423680986E+03  0.25500000920E-02 0. -1.
    10030    2    1    2    0    0  0.00000000000E+00  0.00000000000E+00  0.11378097894E+03  0.11022545987E+04  0.10963663115E+04 0.  0.
        1    1    3    3  502    0  0.49365663907E+02 -0.38960429336E+03  0.44140542844E+03  0.59081911484E+03  0.50400001928E-02 0.  1.
       -1    1    3    3    0  502 -0.49365663907E+02  0.38960429336E+03 -0.32762444950E+03  0.51143548382E+03  0.50400001928E-02 0. -1.
</event>
<event>
 5   0  0.1402775E-03  0.1095345E+04  0.7818609E-02  0.9209741E-01
       -2   -1    0    0    0  501  0.00000000000E+00  0.00000000000E+00  0.13277633889E+03  0.13277633891E+03  0.25500000920E-02 0.  1.
        2   -1    0    0  501    0  0.00000000000E+00  0.00000000000E+00 -0.22590261663E+04  0.22590261663E+04  0.25500000920E-02 0. -1.
    10030    2    1    2    0    0  0.00000000000E+00  0.00000000000E+00 -0.21262498274E+04  0.23918025052E+04  0.10953451033E+04 0.  0.
        5    1    3    3  502    0 -0.53881071827E+03 -0.45080429279E+02 -0.87308969759E+03  0.10269649192E+04  0.46999998093E+01 0.  1.
       -5    1    3    3    0  502  0.53881071827E+03  0.45080429279E+02 -0.12531601298E+04  0.13648375860E+04  0.46999998093E+01 0. -1.
</event>
<event>
 5   0  0.1372794E-03  0.1099637E+04  0.7818609E-02  0.9205546E-01
        2   -1    0    0  501    0  0.00000000000E+00  0.00000000000E+00  0.12261345436E+04  0.12261345437E+04  0.25500000920E-02 0.  1.
       -2   -1    0    0    0  501  0.00000000000E+00  0.00000000000E+00 -0.24654728789E+03  0.24654728791E+03  0.25500000920E-02 0. -1.
    10030    2    1    2    0    0  0.00000000000E+00  0.00000000000E+00  0.97958725576E+03  0.14726818316E+04  0.10996365697E+04 0.  0.
        4    1    3    3  502    0  0.18183742613E+03  0.51466051174E+03  0.40138077526E+03  0.67753112957E+03  0.12699999809E+01 0.  1.
       -4    1    3    3    0  502 -0.18183742613E+03 -0.51466051174E+03  0.57820648050E+03  0.79515070199E+03  0.12699999809E+01 0. -1.
</event>
<event>
 5   0  0.8305271E-04  0.1100620E+04  0.7818609E-02  0.9204588E-01
        1   -1    0    0  501    0  0.00000000000E+00  0.00000000000E+00  0.19985632632E+03  0.19985632639E+03  0.50400001928E-02 0. -1.
       -1   -1    0    0    0  501  0.00000000000E+00  0.00000000000E+00 -0.15152935153E+04  0.15152935153E+04  0.50400001928E-02 0.  1.
    10030    2    1    2    0    0  0.00000000000E+00  0.00000000000E+00 -0.13154371890E+04  0.17151498417E+04  0.11006198169E+04 0.  0.
        5    1    3    3  502    0 -0.87204892617E+02 -0.26714456529E+03  0.79576496256E+02  0.29210515369E+03  0.46999998093E+01 0. -1.
       -5    1    3    3    0  502  0.87204892617E+02  0.26714456529E+03 -0.13950136853E+04  0.14230446880E+04  0.46999998093E+01 0.  1.
</event>
<event>
 5   0  0.8009636E-04  0.1098202E+04  0.7818609E-02  0.9206946E-01
       -1   -1    0    0    0  501  0.00000000000E+00  0.00000000000E+00  0.49730273061E+03  0.49730273063E+03  0.50400001928E-02 0.  1.
        1   -1    0    0  501    0  0.00000000000E+00  0.00000000000E+00 -0.60629416101E+03  0.60629416103E+03  0.50400001928E-02 0. -1.
    10030    2    1    2    0    0  0.00000000000E+00  0.00000000000E+00 -0.10899143040E+03  0.11035968917E+04  0.10982016970E+04 0.  0.
        1    1    3    3  502    0  0.32481939914E+03 -0.17604384675E+03  0.35371743941E+03  0.51148324019E+03  0.50400001928E-02 0.  1.
       -1    1    3    3    0  502 -0.32481939914E+03  0.17604384675E+03 -0.46270886981E+03  0.59211365147E+03  0.50400001928E-02 0. -1.
</event>
<event>
 5   0  0.8341767E-04  0.1099979E+04  0.7818609E-02  0.9205212E-01
        1   -1    0    0  501    0  0.00000000000E+00  0.00000000000E+00  0.56665753932E+03  0.56665753934E+03  0.50400001928E-02 0. -1.
       -1   -1    0    0    0  501  0.00000000000E+00  0.00000000000E+00 -0.53381201314E+03  0.53381201316E+03  0.50400001928E-02 0.  1.
    10030    2    1    2    0    0  0.00000000000E+00  0.00000000000E+00  0.32845526178E+02  0.11004695525E+04  0.10999792759E+04 0.  0.
        2    1    3    3  502    0  0.46214242867E+03 -0.29681911216E+03  0.44920404811E+02  0.55108534048E+03  0.25500000920E-02 0. -1.
       -2    1    3    3    0  502 -0.46214242867E+03  0.29681911216E+03 -0.12074878633E+02  0.54938421202E+03  0.25500000920E-02 0.  1.
</event>
<event>
 5   0  0.8341767E-04  0.1100018E+04  0.7818609E-02  0.9205174E-01
        1   -1    0    0  501    0  0.00000000000E+00  0.00000000000E+00  0.86732199556E+03  0.86732199557E+03  0.50400001928E-02 0. -1.
       -1   -1    0    0    0  501  0.00000000000E+00  0.00000000000E+00 -0.34878636525E+03  0.34878636528E+03  0.50400001928E-02 0.  1.
    10030    2    1    2    0    0  0.00000000000E+00  0.00000000000E+00  0.51853563031E+03  0.12161083609E+04  0.11000183387E+04 0.  0.
        2    1    3    3  502    0 -0.48002892260E+03 -0.26648786768E+03  0.22316341377E+03  0.59265964887E+03  0.25500000920E-02 0. -1.
       -2    1    3    3    0  502  0.48002892260E+03  0.26648786768E+03  0.29537221655E+03  0.62344871198E+03  0.25500000920E-02 0.  1.
</event>
<event>
 5   0  0.8305271E-04  0.1098587E+04  0.7818609E-02  0.9206570E-01
        1   -1    0    0  501    0  0.00000000000E+00  0.00000000000E+00  0.84494865738E+03  0.84494865740E+03  0.50400001928E-02 0.  1.
       -1   -1    0    0    0  501  0.00000000000E+00  0.00000000000E+00 -0.35709053367E+03  0.35709053370E+03  0.50400001928E-02 0. -1.
    10030    2    1    2    0    0  0.00000000000E+00  0.00000000000E+00  0.48785812372E+03  0.12020391911E+04  0.10985866684E+04 0.  0.
        5    1    3    3  502    0  0.51636663965E+02 -0.43909304869E+03  0.60055426850E+03  0.74575905618E+03  0.46999998093E+01 0.  1.
       -5    1    3    3    0  502 -0.51636663965E+02  0.43909304869E+03 -0.11269614478E+03  0.45628013491E+03  0.46999998093E+01 0. -1.
</event>
<event>
 5   0  0.1425432E-03  0.1096343E+04  0.7818609E-02  0.9208764E-01
       -2   -1    0    0    0  501  0.00000000000E+00  0.00000000000E+00  0.27050063818E+03  0.27050063819E+03  0.25500000920E-02 0.  1.
        2   -1    0    0  501    0  0.00000000000E+00  0.00000000000E+00 -0.11108727510E+04  0.11108727510E+04  0.25500000920E-02 0. -1.
    10030    2    1    2    0    0  0.00000000000E+00  0.00000000000E+00 -0.84037211277E+03  0.13813733891E+04  0.10963426254E+04 0.  0.
        1    1    3    3  502    0  0.36633302499E+03 -0.80534940498E+02  0.83501662671E+02  0.38426330756E+03  0.50400001928E-02 0.  1.
       -1    1    3    3    0  502 -0.36633302499E+03  0.80534940498E+02 -0.92387377544E+03  0.99711008159E+03  0.50400001928E-02 0. -1.
</event>
<event>
 5   0  0.8341767E-04  0.1093023E+04  0.7818609E-02  0.9212019E-01
        1   -1    0    0  501    0  0.00000000000E+00  0.00000000000E+00  0.73283857301E+03  0.73283857303E+03  0.50400001928E-02 0. -1.
       -1   -1    0    0    0  501  0.00000000000E+00  0.00000000000E+00 -0.40755911896E+03  0.40755911899E+03  0.50400001928E-02 0.  1.
    10030    2    1    2    0    0  0.00000000000E+00  0.00000000000E+00  0.32527945405E+03  0.11403976920E+04  0.10930234090E+04 0.  0.
        2    1    3    3  502    0 -0.47001764645E+03 -0.24768241593E+03  0.29630111924E+03  0.60832353268E+03  0.25500000920E-02 0. -1.
       -2    1    3    3    0  502  0.47001764645E+03  0.24768241593E+03  0.28978334813E+02  0.53207415934E+03  0.25500000920E-02 0.  1.
</event>
<event>
 5   0  0.8009636E-04  0.1101950E+04  0.7818609E-02  0.9203293E-01
        1   -1    0    0  501    0  0.00000000000E+00  0.00000000000E+00  0.11353375813E+04  0.11353375813E+04  0.50400001928E-02 0. -1.
       -1   -1    0    0    0  501  0.00000000000E+00  0.00000000000E+00 -0.26738603938E+03  0.26738603943E+03  0.50400001928E-02 0.  1.
    10030    2    1    2    0    0  0.00000000000E+00  0.00000000000E+00  0.86795154194E+03  0.14027236208E+04  0.11019499431E+04 0.  0.
        1    1    3    3  502    0 -0.34479681323E+03  0.42956486498E+03  0.45020789368E+03  0.71140562494E+03  0.50400001928E-02 0. -1.
       -1    1    3    3    0  502  0.34479681323E+03 -0.42956486498E+03  0.41774364826E+03  0.69131799581E+03  0.50400001928E-02 0.  1.
</event>
<event>
 5   0  0.1372794E-03  0.1106410E+04  0.7818609E-02  0.9198967E-01
        2   -1    0    0  501    0  0.00000000000E+00  0.00000000000E+00  0.58740012083E+03  0.58740012083E+03  0.25500000920E-02 0. -1.
       -2   -1    0    0    0  501  0.00000000000E+00  0.00000000000E+00 -0.52100044329E+03  0.52100044330E+03  0.25500000920E-02 0.  1.
    10030    2    1    2    0    0  0.00000000000E+00  0.00000000000E+00  0.66399677538E+02  0.11084005641E+04  0.11064099120E+04 0.  0.
        4    1    3    3  502    0  0.10655543301E+03 -0.32280283339E+03 -0.40402369068E+03  0.52800803505E+03  0.12699999809E+01 0.  1.
       -4    1    3    3    0  502 -0.10655543301E+03  0.32280283339E+03  0.47042336822E+03  0.58039252908E+03  0.12699999809E+01 0. -1.
</event>
<event>
 5   0  0.8305271E-04  0.1095213E+04  0.7818609E-02  0.9209870E-01
        1   -1    0    0  501    0  0.00000000000E+00  0.00000000000E+00  0.58251688441E+03  0.58251688443E+03  0.50400001928E-02 0.  1.
       -1   -1    0    0    0  501  0.00000000000E+00  0.00000000000E+00 -0.51478859143E+03  0.51478859145E+03  0.50400001928E-02 0. -1.
    10030    2    1    2    0    0  0.00000000000E+00  0.00000000000E+00  0.67728292985E+02  0.10973054759E+04  0.10952133060E+04 0.  0.
        5    1    3    3  502    0 -0.26964935445E+03 -0.62275106615E+01  0.51132606733E+03  0.57812281859E+03  0.46999998093E+01 0.  1.
       -5    1    3    3    0  502  0.26964935445E+03  0.62275106615E+01 -0.44359777434E+03  0.51918265730E+03  0.46999998093E+01 0. -1.
</event>
<event>
 5   0  0.8305271E-04  0.1100308E+04  0.7818609E-02  0.9204892E-01
       -1   -1    0    0    0  501  0.00000000000E+00  0.00000000000E+00  0.24267019068E+03  0.24267019073E+03  0.50400001928E-02 0. -1.
        1   -1    0    0  501    0  0.00000000000E+00  0.00000000000E+00 -0.12472459686E+04  0.12472459686E+04  0.50400001928E-02 0.  1.
    10030    2    1    2    0    0  0.00000000000E+00  0.00000000000E+00 -0.10045757779E+04  0.14899161593E+04  0.11003079879E+04 0.  0.
        5    1    3    3  502    0  0.73328843764E+02 -0.13473876718E+02 -0.12403460789E+04  0.12425937189E+04  0.46999998093E+01 0.  1.
       -5    1    3    3    0  502 -0.73328843764E+02  0.13473876718E+02  0.23577030105E+03  0.24732244042E+03  0.46999998093E+01 0. -1.
</event>
<event>
 5   0  0.8341767E-04  0.1071693E+04  0.7818609E-02  0.9233230E-01
        1   -1    0    0  501    0  0.00000000000E+00  0.00000000000E+00  0.14640043744E+04  0.14640043745E+04  0.50400001928E-02 0.  1.
       -1   -1    0    0    0  501  0.00000000000E+00  0.00000000000E+00 -0.19612747240E+03  0.19612747247E+03  0.50400001928E-02 0. -1.
    10030    2    1    2    0    0  0.00000000000E+00  0.00000000000E+00  0.12678769020E+04  0.16601318469E+04  0.10716930113E+04 0.  0.
        2    1    3    3  502    0 -0.51412571037E+03  0.38784522386E+02  0.40784796128E+03  0.65739595737E+03  0.25500000920E-02 0.  1.
       -2    1    3    3    0  502  0.51412571037E+03 -0.38784522386E+02  0.86002894077E+03  0.10027358896E+04  0.25500000920E-02 0. -1.
</event>
<event>
 5   0  0.1425432E-03  0.1098127E+04  0.7818609E-02  0.9207020E-01
        2   -1    0    0  501    0  0.00000000000E+00  0.00000000000E+00  0.32369266893E+03  0.32369266894E+03  0.25500000920E-02 0. -1.
       -2   -1    0    0    0  501  0.00000000000E+00  0.00000000000E+00 -0.93134824336E+03  0.93134824336E+03  0.25500000920E-02 0.  1.
    10030    2    1    2    0    0  0.00000000000E+00  0.00000000000E+00 -0.60765557443E+03  0.12550409123E+04  0.10981267661E+04 0.  0.
        1    1    3    3  502    0 -0.17783599709E+03  0.17352414848E+03  0.25576295082E+03  0.35658233131E+03  0.50400001928E-02 0. -1.
       -1    1    3    3    0  502  0.17783599709E+03 -0.17352414848E+03 -0.86341852525E+03  0.89845858098E+03  0.50400001928E-02 0.  1.
</event>
<event>
 5   0  0.8341767E-04  0.1102412E+04  0.7818609E-02  0.9202844E-01
        1   -1    0    0  501    0  0.00000000000E+00  0.00000000000E+00  0.91638231978E+03  0.91638231979E+03  0.50400001928E-02 0. -1.
       -1   -1    0    0    0  501  0.00000000000E+00  0.00000000000E+00 -0.33155181179E+03  0.33155181183E+03  0.50400001928E-02 0.  1.
    10030    2    1    2    0    0  0.00000000000E+00  0.00000000000E+00  0.58483050799E+03  0.12479341316E+04  0.11024122975E+04 0.  0.
        2    1    3    3  502    0 -0.25353980058E+03 -0.18955146794E+03  0.80321843778E+03  0.86334931996E+03  0.25500000920E-02 0. -1.
       -2    1    3    3    0  502  0.25353980058E+03  0.18955146794E+03 -0.21838792979E+03  0.38458481166E+03  0.25500000920E-02 0.  1.
</event>
<event>
 5   0  0.1425432E-03  0.1101342E+04  0.7818609E-02  0.9203885E-01
        2   -1    0    0  501    0  0.00000000000E+00  0.00000000000E+00  0.50841280400E+03  0.50841280401E+03  0.25500000920E-02 0. -1.
       -2   -1    0    0    0  501  0.00000000000E+00  0.00000000000E+00 -0.59644130171E+03  0.59644130171E+03  0.25500000920E-02 0.  1.
    10030    2    1    2    0    0  0.00000000000E+00  0.00000000000E+00 -0.88028497705E+02  0.11048541057E+04  0.11013417174E+04 0.  0.
        1    1    3    3  502    0  0.80854166844E+01  0.22197273833E+03 -0.54950726017E+03  0.59270186395E+03  0.50400001928E-02 0.  1.
       -1    1    3    3    0  502 -0.80854166844E+01 -0.22197273833E+03  0.46147876246E+03  0.51215224178E+03  0.50400001928E-02 0. -1.
</event>
<event>
 5   0  0.1429680E-03  0.1125943E+04  0.7818609E-02  0.9180268E-01
       -2   -1    0    0    0  501  0.00000000000E+00  0.00000000000E+00  0.25185438012E+03  0.25185438013E+03  0.25500000920E-02 0. -1.
        2   -1    0    0  501    0  0.00000000000E+00  0.00000000000E+00 -0.12584141857E+04  0.12584141857E+04  0.25500000920E-02 0.  1.
    10030    2    1    2    0    0  0.00000000000E+00  0.00000000000E+00 -0.10065598056E+04  0.15102685659E+04  0.11259433817E+04 0.  0.
        3    1    3    3  502    0 -0.19433834336E+03  0.38064954153E+03 -0.99479432024E+03  0.10827175139E+04  0.10100000352E+00 0.  1.
       -3    1    3    3    0  502  0.19433834336E+03 -0.38064954153E+03 -0.11765485370E+02  0.42755105194E+03  0.10100000352E+00 0. -1.
</event>
<event>
 5   0  0.1429680E-03  0.1110623E+04  0.7818609E-02  0.9194900E-01
        2   -1    0    0  501    0  0.00000000000E+00  0.00000000000E+00  0.58800443081E+03  0.58800443082E+03  0.25500000920E-02 0.  1.
       -2   -1    0    0    0  501  0.00000000000E+00  0.00000000000E+00 -0.52443583669E+03  0.52443583670E+03  0.25500000920E-02 0. -1.
    10030    2    1    2    0    0  0.00000000000E+00  0.00000000000E+00  0.63568594123E+02  0.11124402675E+04  0.11106225203E+04 0.  0.
        3    1    3    3  502    0  0.32390420042E+03 -0.19649888518E+03 -0.37489110746E+03  0.53298132761E+03  0.10100000352E+00 0. -1.
       -3    1    3    3    0  502 -0.32390420042E+03  0.19649888518E+03  0.43845970159E+03  0.57945893991E+03  0.10100000352E+00 0.  1.
</event>
<event>
 5   0  0.8009636E-04  0.1106786E+04  0.7818609E-02  0.9198603E-01
        1   -1    0    0  501    0  0.00000000000E+00  0.00000000000E+00  0.83943730179E+03  0.83943730180E+03  0.50400001928E-02 0. -1.
       -1   -1    0    0    0  501  0.00000000000E+00  0.00000000000E+00 -0.36482035633E+03  0.36482035637E+03  0.50400001928E-02 0.  1.
    10030    2    1    2    0    0  0.00000000000E+00  0.00000000000E+00  0.47461694545E+03  0.12042576582E+04  0.11067860057E+04 0.  0.
        1    1    3    3  502    0 -0.16294181999E+02 -0.38611267436E+03  0.66829207748E+03  0.77198626835E+03  0.50400001928E-02 0. -1.
       -1    1    3    3    0  502  0.16294181999E+02  0.38611267436E+03 -0.19367513203E+03  0.43227138982E+03  0.50400001928E-02 0.  1.
</event>
<event>
 5   0  0.8305271E-04  0.1117571E+04  0.7818609E-02  0.9188233E-01
       -1   -1    0    0    0  501  0.00000000000E+00  0.00000000000E+00  0.19344708385E+03  0.19344708392E+03  0.50400001928E-02 0. -1.
        1   -1    0    0  501    0  0.00000000000E+00  0.00000000000E+00 -0.16140906800E+04  0.16140906800E+04  0.50400001928E-02 0.  1.
    10030    2    1    2    0    0  0.00000000000E+00  0.00000000000E+00 -0.14206435961E+04  0.18075377639E+04  0.11175708213E+04 0.  0.
        5    1    3    3  502    0 -0.44597579201E+03  0.53522249547E+02 -0.17277675877E+03  0.48128259538E+03  0.46999998093E+01 0. -1.
       -5    1    3    3    0  502  0.44597579201E+03 -0.53522249547E+02 -0.12478668373E+04  0.13262551685E+04  0.46999998093E+01 0.  1.
</event>
<event>
 5   0  0.1429680E-03  0.1099739E+04  0.7818609E-02  0.9205446E-01
        2   -1    0    0  501    0  0.00000000000E+00  0.00000000000E+00  0.65245035234E+03  0.65245035235E+03  0.25500000920E-02 0. -1.
       -2   -1    0    0    0  501  0.00000000000E+00  0.00000000000E+00 -0.46341693593E+03  0.46341693593E+03  0.25500000920E-02 0.  1.
    10030    2    1    2    0    0  0.00000000000E+00  0.00000000000E+00  0.18903341641E+03  0.11158672883E+04  0.10997391384E+04 0.  0.
        3    1    3    3  502    0 -0.18326140348E+03  0.50589747646E+03 -0.20456724972E+02  0.53845657810E+03  0.10100000352E+00 0.  1.
       -3    1    3    3    0  502  0.18326140348E+03 -0.50589747646E+03  0.20949014139E+03  0.57741071018E+03  0.10100000352E+00 0. -1.
</event>
<event>
 5   0  0.8305271E-04  0.1102449E+04  0.7818609E-02  0.9202808E-01
       -1   -1    0    0    0  501  0.00000000000E+00  0.00000000000E+00  0.34493360409E+03  0.34493360412E+03  0.50400001928E-02 0.  1.
        1   -1    0    0  501    0  0.00000000000E+00  0.00000000000E+00 -0.88088944591E+03  0.88088944592E+03  0.50400001928E-02 0. -1.
    10030    2    1    2    0    0  0.00000000000E+00  0.00000000000E+00 -0.53595584182E+03  0.12258230500E+04  0.11024488585E+04 0.  0.
        5    1    3    3  502    0 -0.33009570744E+03 -0.41913401352E+03 -0.11394825440E+03  0.54556648728E+03  0.46999998093E+01 0.  1.
       -5    1    3    3    0  502  0.33009570744E+03  0.41913401352E+03 -0.42200758742E+03  0.68025656277E+03  0.46999998093E+01 0. -1.
</event>
<event>
 5   0  0.1396936E-03  0.1097845E+04  0.7818609E-02  0.9207295E-01
       -2   -1    0    0    0  501  0.00000000000E+00  0.00000000000E+00  0.70868613959E+03  0.70868613960E+03  0.25500000920E-02 0.  1.
        2   -1    0    0  501    0  0.00000000000E+00  0.00000000000E+00 -0.42517504746E+03  0.42517504747E+03  0.25500000920E-02 0. -1.
    10030    2    1    2    0    0  0.00000000000E+00  0.00000000000E+00  0.28351109213E+03  0.11338611871E+04  0.10978445483E+04 0.  0.
        2    1    3    3  502    0 -0.23691507280E+03  0.17863960731E+03 -0.33521198221E+03  0.44766944729E+03  0.25500000920E-02 0. -1.
       -2    1    3    3    0  502  0.23691507280E+03 -0.17863960731E+03  0.61872307434E+03  0.68619173978E+03  0.25500000920E-02 0.  1.
</event>
<event>
 5   0  0.8009636E-04  0.1110070E+04  0.7818609E-02  0.9195432E-01
        1   -1    0    0  501    0  0.00000000000E+00  0.00000000000E+00  0.74485278555E+03  0.74485278557E+03  0.50400001928E-02 0.  1.
       -1   -1    0    0    0  501  0.00000000000E+00  0.00000000000E+00 -0.41359026578E+03  0.41359026581E+03  0.50400001928E-02 0. -1.
    10030    2    1    2    0    0  0.00000000000E+00  0.00000000000E+00  0.33126251977E+03  0.11584430514E+04  0.11100700186E+04 0.  0.
        1    1    3    3  502    0 -0.23725524751E+03 -0.48672970910E+03  0.29287914778E+03  0.61560868856E+03  0.50400001928E-02 0. -1.
       -1    1    3    3    0  502  0.23725524751E+03  0.48672970910E+03  0.38383371982E+02  0.54283436282E+03  0.50400001928E-02 0.  1.
</event>
<event>
 5   0  0.8009636E-04  0.1101004E+04  0.7818609E-02  0.9204214E-01
        1   -1    0    0  501    0  0.00000000000E+00  0.00000000000E+00  0.16801034013E+04  0.16801034013E+04  0.50400001928E-02 0.  1.
       -1   -1    0    0    0  501  0.00000000000E+00  0.00000000000E+00 -0.18037736868E+03  0.18037736875E+03  0.50400001928E-02 0. -1.
    10030    2    1    2    0    0  0.00000000000E+00  0.00000000000E+00  0.14997260326E+04  0.18604807700E+04  0.11010043246E+04 0.  0.
        1    1    3    3  502    0  0.45360332353E+03  0.14757720862E+03  0.12142289122E+04  0.13045638577E+04  0.50400001928E-02 0.  1.
       -1    1    3    3    0  502 -0.45360332353E+03 -0.14757720862E+03  0.28549712041E+03  0.55591691232E+03  0.50400001928E-02 0. -1.
</event>
<event>
 5   0  0.8341767E-04  0.1096687E+04  0.7818609E-02  0.9208427E-01
       -1   -1    0    0    0  501  0.00000000000E+00  0.00000000000E+00  0.35087977834E+03  0.35087977837E+03  0.50400001928E-02 0.  1.
        1   -1    0    0  501    0  0.00000000000E+00  0.00000000000E+00 -0.85693288082E+03  0.85693288083E+03  0.50400001928E-02 0. -1.
    10030    2    1    2    0    0  0.00000000000E+00  0.00000000000E+00 -0.50605310248E+03  0.12078126592E+04  0.10966866814E+04 0.  0.
        2    1    3    3  502    0 -0.46757568170E+03  0.91717794873E+02 -0.55189328392E+03  0.72912644230E+03  0.25500000920E-02 0. -1.
       -2    1    3    3    0  502  0.46757568170E+03 -0.91717794873E+02  0.45840181443E+02  0.47868621690E+03  0.25500000920E-02 0.  1.
</event>
<event>
 5   0  0.1372794E-03  0.1113047E+04  0.7818609E-02  0.9192567E-01
        2   -1    0    0  501    0  0.00000000000E+00  0.00000000000E+00  0.17619465444E+04  0.17619465444E+04  0.25500000920E-02 0.  1.
       -2   -1    0    0    0  501  0.00000000000E+00  0.00000000000E+00 -0.17578210748E+03  0.17578210750E+03  0.25500000920E-02 0. -1.
    10030    2    1    2    0    0  0.00000000000E+00  0.00000000000E+00  0.15861644369E+04  0.19377286519E+04  0.11130474866E+04 0.  0.
        4    1    3    3  502    0  0.52952335733E+03 -0.17102117702E+03  0.80804148950E+03  0.98110952018E+03  0.12699999809E+01 0. -1.
       -4    1    3    3    0  502 -0.52952335733E+03  0.17102117702E+03  0.77812294739E+03  0.95661913168E+03  0.12699999809E+01 0.  1.
</event>
<event>
 5   0  0.8150924E-04  0.1066669E+04  0.7818609E-02  0.9238302E-01
        1   -1    0    0  501    0  0.00000000000E+00  0.00000000000E+00  0.37840547288E+03  0.37840547291E+03  0.50400001928E-02 0.  1.
       -1   -1    0    0    0  501  0.00000000000E+00  0.00000000000E+00 -0.75169492374E+03  0.75169492375E+03  0.50400001928E-02 0. -1.
    10030    2    1    2    0    0  0.00000000000E+00  0.00000000000E+00 -0.37328945086E+03  0.11301003967E+04  0.10666685954E+04 0.  0.
        3    1    3    3  502    0  0.13854177907E+03  0.10844137561E+02 -0.73217676943E+03  0.74524777877E+03  0.10100000352E+00 0. -1.
       -3    1    3    3    0  502 -0.13854177907E+03 -0.10844137561E+02  0.35888731857E+03  0.38485261790E+03  0.10100000352E+00 0.  1.
</event>
<event>
 5   0  0.8305271E-04  0.1097177E+04  0.7818609E-02  0.9207948E-01
        1   -1    0    0  501    0  0.00000000000E+00  0.00000000000E+00  0.58606601835E+03  0.58606601838E+03  0.50400001928E-02 0. -1.
       -1   -1    0    0    0  501  0.00000000000E+00  0.00000000000E+00 -0.51350772216E+03  0.51350772219E+03  0.50400001928E-02 0.  1.
    10030    2    1    2    0    0  0.00000000000E+00  0.00000000000E+00  0.72558296190E+02  0.10995737406E+04  0.10971771528E+04 0.  0.
        5    1    3    3  502    0 -0.71442394949E+02 -0.12673596073E+03 -0.49380087305E+03  0.51480813101E+03  0.46999998093E+01 0.  1.
       -5    1    3    3    0  502  0.71442394949E+02  0.12673596073E+03  0.56635916924E+03  0.58476560955E+03  0.46999998093E+01 0. -1.
</event>
<event>
 5   0  0.7946038E-04  0.1056974E+04  0.7818609E-02  0.9248173E-01
        1   -1    0    0  501    0  0.00000000000E+00  0.00000000000E+00  0.58956484396E+03  0.58956484398E+03  0.50400001928E-02 0.  1.
       -1   -1    0    0    0  501  0.00000000000E+00  0.00000000000E+00 -0.47373664651E+03  0.47373664653E+03  0.50400001928E-02 0. -1.
    10030    2    1    2    0    0  0.00000000000E+00  0.00000000000E+00  0.11582819745E+03  0.10633014905E+04  0.10569739299E+04 0.  0.
        4    1    3    3  502    0 -0.33858417379E+03  0.28835097589E+03 -0.22929694809E+03  0.50036409877E+03  0.12699999809E+01 0. -1.
       -4    1    3    3    0  502  0.33858417379E+03 -0.28835097589E+03  0.34512514554E+03  0.56293739174E+03  0.12699999809E+01 0.  1.
</event>
<event>
 5   0  0.1396936E-03  0.1102042E+04  0.7818609E-02  0.9203204E-01
        2   -1    0    0  501    0  0.00000000000E+00  0.00000000000E+00  0.12282680738E+04  0.12282680738E+04  0.25500000920E-02 0. -1.
       -2   -1    0    0    0  501  0.00000000000E+00  0.00000000000E+00 -0.24719697565E+03  0.24719697566E+03  0.25500000920E-02 0.  1.
    10030    2    1    2    0    0  0.00000000000E+00  0.00000000000E+00  0.98107109819E+03  0.14754650495E+04  0.11020420194E+04 0.  0.
        2    1    3    3  502    0  0.57662608941E+02  0.11916314813E+03 -0.22559002920E+03  0.26156393792E+03  0.25500000920E-02 0.  1.
       -2    1    3    3    0  502 -0.57662608941E+02 -0.11916314813E+03  0.12066611274E+04  0.12139011116E+04  0.25500000920E-02 0. -1.
</event>
<event>
 5   0  0.5409500E-04  0.1097260E+04  0.7818609E-02  0.9207867E-01
       -3   -1    0    0    0  501  0.00000000000E+00  0.00000000000E+00  0.16616822186E+04  0.16616822217E+04  0.10100000352E+00 0. -1.
        3   -1    0    0  501    0  0.00000000000E+00  0.00000000000E+00 -0.18113853863E+03  0.18113856679E+03  0.10100000352E+00 0.  1.
    10030    2    1    2    0    0  0.00000000000E+00  0.00000000000E+00  0.14805436800E+04  0.18428207885E+04  0.10972597095E+04 0.  0.
        3    1    3    3  502    0  0.52782162146E+03 -0.36103232569E+02  0.49633937210E+03  0.72543220909E+03  0.10100000352E+00 0.  1.
       -3    1    3    3    0  502 -0.52782162146E+03  0.36103232569E+02  0.98420430789E+03  0.11173885794E+04  0.10100000352E+00 0. -1.
</event>
<event>
 5   0  0.1372794E-03  0.1098699E+04  0.7818609E-02  0.9206461E-01
       -2   -1    0    0    0  501  0.00000000000E+00  0.00000000000E+00  0.28729763973E+03  0.28729763974E+03  0.25500000920E-02 0. -1.
        2   -1    0    0  501    0  0.00000000000E+00  0.00000000000E+00 -0.10504252009E+04  0.10504252009E+04  0.25500000920E-02 0.  1.
    10030    2    1    2    0    0  0.00000000000E+00  0.00000000000E+00 -0.76312756118E+03  0.13377228407E+04  0.10986986501E+04 0.  0.
        4    1    3    3  502    0  0.40813455377E+03 -0.31276094392E+03 -0.61699518310E+03  0.80316741150E+03  0.12699999809E+01 0.  1.
       -4    1    3    3    0  502 -0.40813455377E+03  0.31276094392E+03 -0.14613237808E+03  0.53455542916E+03  0.12699999809E+01 0. -1.
</event>
<event>
 5   0  0.1372794E-03  0.1100603E+04  0.7818609E-02  0.9204605E-01
        2   -1    0    0  501    0  0.00000000000E+00  0.00000000000E+00  0.49034286202E+03  0.49034286202E+03  0.25500000920E-02 0.  1.
       -2   -1    0    0    0  501  0.00000000000E+00  0.00000000000E+00 -0.61759160406E+03  0.61759160407E+03  0.25500000920E-02 0. -1.
    10030    2    1    2    0    0  0.00000000000E+00  0.00000000000E+00 -0.12724874204E+03  0.11079344661E+04  0.11006028070E+04 0.  0.
        4    1    3    3  502    0  0.33896837840E+03  0.35496689426E+03 -0.31413742698E+03  0.58273921570E+03  0.12699999809E+01 0. -1.
       -4    1    3    3    0  502 -0.33896837840E+03 -0.35496689426E+03  0.18688868494E+03  0.52519525039E+03  0.12699999809E+01 0.  1.
</event>
<event>
 5   0  0.7946038E-04  0.1105802E+04  0.7818609E-02  0.9199555E-01
       -1   -1    0    0    0  501  0.00000000000E+00  0.00000000000E+00  0.23988388143E+03  0.23988388149E+03  0.50400001928E-02 0.  1.
        1   -1    0    0  501    0  0.00000000000E+00  0.00000000000E+00 -0.12743650937E+04  0.12743650937E+04  0.50400001928E-02 0. -1.
    10030    2    1    2    0    0  0.00000000000E+00  0.00000000000E+00 -0.10344812123E+04  0.15142489752E+04  0.11058022338E+04 0.  0.
        4    1    3    3  502    0 -0.38069700295E+03 -0.59674635834E+02  0.25703892172E+02  0.38620405641E+03  0.12699999809E+01 0.  1.
       -4    1    3    3    0  502  0.38069700295E+03  0.59674635834E+02 -0.10601851044E+04  0.11280449188E+04  0.12699999809E+01 0. -1.
</event>
<event>
 5   0  0.1396936E-03  0.1103122E+04  0.7818609E-02  0.9202155E-01
        2   -1    0    0  501    0  0.00000000000E+00  0.00000000000E+00  0.36292203098E+03  0.36292203099E+03  0.25500000920E-02 0. -1.
       -2   -1    0    0    0  501  0.00000000000E+00  0.00000000000E+00 -0.83824978646E+03  0.83824978646E+03  0.25500000920E-02 0.  1.
    10030    2    1    2    0    0  0.00000000000E+00  0.00000000000E+00 -0.47532775548E+03  0.12011718174E+04  0.11031215980E+04 0.  0.
        2    1    3    3  502    0 -0.21396035570E+03 -0.24618363098E+03  0.24665578775E+03  0.40893091300E+03  0.25500000920E-02 0. -1.
       -2    1    3    3    0  502  0.21396035570E+03  0.24618363098E+03 -0.72198354323E+03  0.79224090444E+03  0.25500000920E-02 0.  1.
</event>
<event>
 5   0  0.1372794E-03  0.1098604E+04  0.7818609E-02  0.9206554E-01
        2   -1    0    0  501    0  0.00000000000E+00  0.00000000000E+00  0.10790931622E+04  0.10790931622E+04  0.25500000920E-02 0.  1.
       -2   -1    0    0    0  501  0.00000000000E+00  0.00000000000E+00 -0.27961685570E+03  0.27961685571E+03  0.25500000920E-02 0. -1.
    10030    2    1    2    0    0  0.00000000000E+00  0.00000000000E+00  0.79947630650E+03  0.13587100179E+04  0.10986039087E+04 0.  0.
        4    1    3    3  502    0 -0.71004253363E+02 -0.18747629190E+03 -0.23275584349E+03  0.30719026612E+03  0.12699999809E+01 0. -1.
       -4    1    3    3    0  502  0.71004253363E+02  0.18747629190E+03  0.10322321500E+04  0.10515197518E+04  0.12699999809E+01 0.  1.
</event>
<event>
 5   0  0.1402775E-03  0.1099086E+04  0.7818609E-02  0.9206083E-01
       -2   -1    0    0    0  501  0.00000000000E+00  0.00000000000E+00  0.33032278665E+03  0.33032278665E+03  0.25500000920E-02 0. -1.
        2   -1    0    0  501    0  0.00000000000E+00  0.00000000000E+00 -0.91425039447E+03  0.91425039448E+03  0.25500000920E-02 0.  1.
    10030    2    1    2    0    0  0.00000000000E+00  0.00000000000E+00 -0.58392760783E+03  0.12445731811E+04  0.10990864170E+04 0.  0.
        5    1    3    3  502    0 -0.18143606614E+03 -0.50944701027E+03 -0.40245176402E+03  0.67412522185E+03  0.46999998093E+01 0. -1.
       -5    1    3    3    0  502  0.18143606614E+03  0.50944701027E+03 -0.18147584381E+03  0.57044795928E+03  0.46999998093E+01 0.  1.
</event>
<event>
 5   0  0.5409500E-04  0.1101522E+04  0.7818609E-02  0.9203710E-01
        4   -1    0    0  501    0  0.00000000000E+00  0.00000000000E+00  0.19307778245E+03  0.19308195922E+03  0.12699999809E+01 0. -1.
       -4   -1    0    0    0  501  0.00000000000E+00  0.00000000000E+00 -0.15710429714E+04  0.15710434847E+04  0.12699999809E+01 0.  1.
    10030    2    1    2    0    0  0.00000000000E+00  0.00000000000E+00 -0.13779651890E+04  0.17641254439E+04  0.11015219108E+04 0.  0.
        4    1    3    3  502    0 -0.32525561357E+03 -0.24549193223E+03 -0.95596167002E+02  0.41856629462E+03  0.12699999809E+01 0. -1.
       -4    1    3    3    0  502  0.32525561357E+03  0.24549193223E+03 -0.12823690220E+04  0.13455591493E+04  0.12699999809E+01 0.  1.
</event>
<event>
 5   0  0.1402775E-03  0.1101551E+04  0.7818609E-02  0.9203681E-01
        2   -1    0    0  501    0  0.00000000000E+00  0.00000000000E+00  0.64537746183E+03  0.64537746184E+03  0.25500000920E-02 0. -1.
       -2   -1    0    0    0  501  0.00000000000E+00  0.00000000000E+00 -0.47004082765E+03  0.47004082766E+03  0.25500000920E-02 0.  1.
    10030    2    1    2    0    0  0.00000000000E+00  0.00000000000E+00  0.17533663418E+03  0.11154182895E+04  0.11015511905E+04 0.  0.
        5    1    3    3  502    0 -0.94797534421E+02  0.53363858385E+03  0.18675184510E+03  0.57328444279E+03  0.46999998093E+01 0. -1.
       -5    1    3    3    0  502  0.94797534421E+02 -0.53363858385E+03 -0.11415210923E+02  0.54213384670E+03  0.46999998093E+01 0.  1.
</event>
<event>
 5   0  0.8305271E-04  0.1097914E+04  0.7818609E-02  0.9207227E-01
       -1   -1    0    0    0  501  0.00000000000E+00  0.00000000000E+00  0.38607470569E+03  0.38607470572E+03  0.50400001928E-02 0. -1.
        1   -1    0    0  501    0  0.00000000000E+00  0.00000000000E+00 -0.78055840892E+03  0.78055840894E+03  0.50400001928E-02 0.  1.
    10030    2    1    2    0    0  0.00000000000E+00  0.00000000000E+00 -0.39448370323E+03  0.11666331147E+04  0.10979141278E+04 0.  0.
        5    1    3    3  502    0 -0.48504704633E+03 -0.25081019630E+03 -0.25693046719E+03  0.60349958301E+03  0.46999998093E+01 0.  1.
       -5    1    3    3    0  502  0.48504704633E+03  0.25081019630E+03 -0.13755323604E+03  0.56313353165E+03  0.46999998093E+01 0. -1.
</event>
<event>
 5   0  0.8341767E-04  0.1099714E+04  0.7818609E-02  0.9205470E-01
        1   -1    0    0  501    0  0.00000000000E+00  0.00000000000E+00  0.11504048552E+04  0.11504048552E+04  0.50400001928E-02 0. -1.
       -1   -1    0    0    0  501  0.00000000000E+00  0.00000000000E+00 -0.26281439387E+03  0.26281439392E+03  0.50400001928E-02 0.  1.
    10030    2    1    2    0    0  0.00000000000E+00  0.00000000000E+00  0.88759046130E+03  0.14132192491E+04  0.10997144261E+04 0.  0.
        2    1    3    3  502    0  0.40463737481E+03 -0.33735564148E+03  0.64618067960E+03  0.83372039955E+03  0.25500000920E-02 0. -1.
       -2    1    3    3    0  502 -0.40463737481E+03  0.33735564148E+03  0.24140978171E+03  0.57949884956E+03  0.25500000920E-02 0.  1.
</event>
<event>
 5   0  0.1425432E-03  0.1103632E+04  0.7818609E-02  0.9201659E-01
       -2   -1    0    0    0  501  0.00000000000E+00  0.00000000000E+00  0.15830463758E+03  0.15830463761E+03  0.25500000920E-02 0. -1.
        2   -1    0    0  501    0  0.00000000000E+00  0.00000000000E+00 -0.19235122611E+04  0.19235122611E+04  0.25500000920E-02 0.  1.
    10030    2    1    2    0    0  0.00000000000E+00  0.00000000000E+00 -0.17652076235E+04  0.20818168987E+04  0.11036320245E+04 0.  0.
        1    1    3    3  502    0  0.21548142550E+03  0.42544617218E+03 -0.14062580614E+04  0.14849237103E+04  0.50400001928E-02 0.  1.
       -1    1    3    3    0  502 -0.21548142550E+03 -0.42544617218E+03 -0.35894956205E+03  0.59689318834E+03  0.50400001928E-02 0. -1.
</event>
<event>
 5   0  0.7946038E-04  0.1102084E+04  0.7818609E-02  0.9203163E-01
       -1   -1    0    0    0  501  0.00000000000E+00  0.00000000000E+00  0.60384318444E+03  0.60384318446E+03  0.50400001928E-02 0. -1.
        1   -1    0    0  501    0  0.00000000000E+00  0.00000000000E+00 -0.50285761534E+03  0.50285761537E+03  0.50400001928E-02 0.  1.
    10030    2    1    2    0    0  0.00000000000E+00  0.00000000000E+00  0.10098556910E+03  0.11067007998E+04  0.11020837424E+04 0.  0.
        4    1    3    3  502    0 -0.46803874147E+02  0.48880735258E+03 -0.20059934619E+03  0.53043844239E+03  0.12699999809E+01 0.  1.
       -4    1    3    3    0  502  0.46803874147E+02 -0.48880735258E+03  0.30158491529E+03  0.57626235744E+03  0.12699999809E+01 0. -1.
</event>
<event>
 5   0  0.1429680E-03  0.1102760E+04  0.7818609E-02  0.9202506E-01
        2   -1    0    0  501    0  0.00000000000E+00  0.00000000000E+00  0.13764244068E+04  0.13764244068E+04  0.25500000920E-02 0.  1.
       -2   -1    0    0    0  501  0.00000000000E+00  0.00000000000E+00 -0.22087640039E+03  0.22087640040E+03  0.25500000920E-02 0. -1.
    10030    2    1    2    0    0  0.00000000000E+00  0.00000000000E+00  0.11555480064E+04  0.15973008072E+04  0.11027595720E+04 0.  0.
        3    1    3    3  502    0  0.10496202985E+03  0.97364745155E+02 -0.19348424434E+03  0.24069292536E+03  0.10100000352E+00 0. -1.
       -3    1    3    3    0  502 -0.10496202985E+03 -0.97364745155E+02  0.13490322508E+04  0.13566078819E+04  0.10100000352E+00 0.  1.
</event>
<event>
 5   0  0.8305271E-04  0.1097189E+04  0.7818609E-02  0.9207936E-01
        1   -1    0    0  501    0  0.00000000000E+00  0.00000000000E+00  0.11271876927E+04  0.11271876927E+04  0.50400001928E-02 0.  1.
       -1   -1    0    0    0  501  0.00000000000E+00  0.00000000000E+00 -0.26699706581E+03  0.26699706585E+03  0.50400001928E-02 0. -1.
    10030    2    1    2    0    0  0.00000000000E+00  0.00000000000E+00  0.86019062685E+03  0.13941847585E+04  0.10971887834E+04 0.  0.
        5    1    3    3  502    0 -0.24746824016E+03 -0.37048803544E+03  0.83677865058E+03  0.94800976491E+03  0.46999998093E+01 0.  1.
       -5    1    3    3    0  502  0.24746824016E+03  0.37048803544E+03  0.23411976265E+02  0.44617499361E+03  0.46999998093E+01 0. -1.
</event>
<event>
 5   0  0.8150924E-04  0.1096571E+04  0.7818609E-02  0.9208540E-01
       -1   -1    0    0    0  501  0.00000000000E+00  0.00000000000E+00  0.36164555864E+03  0.36164555868E+03  0.50400001928E-02 0.  1.
        1   -1    0    0  501    0  0.00000000000E+00  0.00000000000E+00 -0.83124819306E+03  0.83124819307E+03  0.50400001928E-02 0. -1.
    10030    2    1    2    0    0  0.00000000000E+00  0.00000000000E+00 -0.46960263441E+03  0.11928937518E+04  0.10965714152E+04 0.  0.
        3    1    3    3  502    0  0.37661312974E+03  0.50840394502E+02 -0.66473198286E+03  0.76569629386E+03  0.10100000352E+00 0. -1.
       -3    1    3    3    0  502 -0.37661312974E+03 -0.50840394502E+02  0.19512934844E+03  0.42719745789E+03  0.10100000352E+00 0.  1.
</event>
<event>
 5   0  0.5409500E-04  0.1102327E+04  0.7818609E-02  0.9202927E-01
       -3   -1    0    0    0  501  0.00000000000E+00  0.00000000000E+00  0.64490613999E+03  0.64490614790E+03  0.10100000352E+00 0. -1.
        3   -1    0    0  501    0  0.00000000000E+00  0.00000000000E+00 -0.47104735085E+03  0.47104736168E+03  0.10100000352E+00 0.  1.
    10030    2    1    2    0    0  0.00000000000E+00  0.00000000000E+00  0.17385878914E+03  0.11159535096E+04  0.11023272459E+04 0.  0.
        2    1    3    3  502    0 -0.43640565221E+03  0.33634409467E+03  0.10139220646E+03  0.56022997317E+03  0.25500000920E-02 0. -1.
       -2    1    3    3    0  502  0.43640565221E+03 -0.33634409467E+03  0.72466582687E+02  0.55572353641E+03  0.25500000920E-02 0.  1.
</event>
<event>
 5   0  0.1396936E-03  0.1100198E+04  0.7818609E-02  0.9204999E-01
        2   -1    0    0  501    0  0.00000000000E+00  0.00000000000E+00  0.22496065113E+04  0.22496065113E+04  0.25500000920E-02 0.  1.
       -2   -1    0    0    0  501  0.00000000000E+00  0.00000000000E+00 -0.13451629254E+03  0.13451629256E+03  0.25500000920E-02 0. -1.
    10030    2    1    2    0    0  0.00000000000E+00  0.00000000000E+00  0.21150902188E+04  0.23841228039E+04  0.11001976688E+04 0.  0.
        2    1    3    3  502    0  0.10918080638E+03 -0.86809647203E+02 -0.95557612998E+02  0.16907874124E+03  0.25500000920E-02 0. -1.
       -2    1    3    3    0  502 -0.10918080638E+03  0.86809647203E+02  0.22106478318E+04  0.22150440627E+04  0.25500000920E-02 0.  1.
</event>
<event>
 5   0  0.1402775E-03  0.1101136E+04  0.7818609E-02  0.9204085E-01
       -2   -1    0    0    0  501  0.00000000000E+00  0.00000000000E+00  0.17663912747E+03  0.17663912749E+03  0.25500000920E-02 0.  1.
        2   -1    0    0  501    0  0.00000000000E+00  0.00000000000E+00 -0.17160697181E+04  0.17160697182E+04  0.25500000920E-02 0. -1.
    10030    2    1    2    0    0  0.00000000000E+00  0.00000000000E+00 -0.15394305907E+04  0.18927088456E+04  0.11011358821E+04 0.  0.
        5    1    3    3  502    0  0.51619543201E+03  0.18359005051E+03 -0.67651615380E+03  0.87055110535E+03  0.46999998093E+01 0.  1.
       -5    1    3    3    0  502 -0.51619543201E+03 -0.18359005051E+03 -0.86291443688E+03  0.10221577403E+04  0.46999998093E+01 0. -1.
</event>
<event>
 5   0  0.7946038E-04  0.1096154E+04  0.7818609E-02  0.9208949E-01
        1   -1    0    0  501    0  0.00000000000E+00  0.00000000000E+00  0.64045461915E+03  0.64045461917E+03  0.50400001928E-02 0.  1.
       -1   -1    0    0    0  501  0.00000000000E+00  0.00000000000E+00 -0.46902360920E+03  0.46902360923E+03  0.50400001928E-02 0. -1.
    10030    2    1    2    0    0  0.00000000000E+00  0.00000000000E+00  0.17143100995E+03  0.11094782284E+04  0.10961538889E+04 0.  0.
        4    1    3    3  502    0 -0.12687201920E+03  0.34905738052E+03 -0.32223360539E+03  0.49170486421E+03  0.12699999809E+01 0. -1.
       -4    1    3    3    0  502  0.12687201920E+03 -0.34905738052E+03  0.49366461534E+03  0.61777336418E+03  0.12699999809E+01 0.  1.
</event>
<event>
 5   0  0.1372794E-03  0.1114284E+04  0.7818609E-02  0.9191380E-01
        2   -1    0    0  501    0  0.00000000000E+00  0.00000000000E+00  0.29659088667E+03  0.29659088668E+03  0.25500000920E-02 0. -1.
       -2   -1    0    0    0  501  0.00000000000E+00  0.00000000000E+00 -0.10465841376E+04  0.10465841376E+04  0.25500000920E-02 0.  1.
    10030    2    1    2    0    0  0.00000000000E+00  0.00000000000E+00 -0.74999325097E+03  0.13431750243E+04  0.11142841960E+04 0.  0.
        4    1    3    3  502    0 -0.36515511057E+03  0.17030778608E+03  0.88834063947E+02  0.41259677725E+03  0.12699999809E+01 0. -1.
       -4    1    3    3    0  502  0.36515511057E+03 -0.17030778608E+03 -0.83882731492E+03  0.93057824708E+03  0.12699999809E+01 0.  1.
</event>
<event>
 5   0  0.8305271E-04  0.1100804E+04  0.7818609E-02  0.9204409E-01
       -1   -1    0    0    0  501  0.00000000000E+00  0.00000000000E+00  0.91411617713E+03  0.91411617714E+03  0.50400001928E-02 0. -1.
        1   -1    0    0  501    0  0.00000000000E+00  0.00000000000E+00 -0.33140463195E+03  0.33140463199E+03  0.50400001928E-02 0.  1.
    10030    2    1    2    0    0  0.00000000000E+00  0.00000000000E+00  0.58271154518E+03  0.12455208091E+04  0.11008039522E+04 0.  0.
        5    1    3    3  502    0 -0.11455634843E+03  0.53832798773E+03  0.29164629997E+03  0.62289632655E+03  0.46999998093E+01 0.  1.
       -5    1    3    3    0  502  0.11455634843E+03 -0.53832798773E+03  0.29106524521E+03  0.62262448258E+03  0.46999998093E+01 0. -1.
</event>
<event>
 5   0  0.1396936E-03  0.1085030E+04  0.7818609E-02  0.9219907E-01
        2   -1    0    0  501    0  0.00000000000E+00  0.00000000000E+00  0.10742972654E+04  0.10742972654E+04  0.25500000920E-02 0. -1.
       -2   -1    0    0    0  501  0.00000000000E+00  0.00000000000E+00 -0.27396752597E+03  0.27396752598E+03  0.25500000920E-02 0.  1.
    10030    2    1    2    0    0  0.00000000000E+00  0.00000000000E+00  0.80032973947E+03  0.13482647914E+04  0.10850300714E+04 0.  0.
        2    1    3    3  502    0  0.10302505962E+03 -0.16722202767E+03 -0.22823655319E+03  0.30111342326E+03  0.25500000920E-02 0.  1.
       -2    1    3    3    0  502 -0.10302505962E+03  0.16722202767E+03  0.10285662927E+04  0.10471513682E+04  0.25500000920E-02 0. -1.
</event>
<event>
 5   0  0.1429680E-03  0.1099045E+04  0.7818609E-02  0.9206124E-01
       -2   -1    0    0    0  501  0.00000000000E+00  0.00000000000E+00  0.43683164098E+03  0.43683164099E+03  0.25500000920E-02 0. -1.
        2   -1    0    0  501    0  0.00000000000E+00  0.00000000000E+00 -0.69128395713E+03  0.69128395713E+03  0.25500000920E-02 0.  1.
    10030    2    1    2    0    0  0.00000000000E+00  0.00000000000E+00 -0.25445231615E+03  0.11281155981E+04  0.10990445039E+04 0.  0.
        3    1    3    3  502    0 -0.23199801666E+02 -0.10559933090E+03 -0.68025885218E+03  0.68879718761E+03  0.10100000352E+00 0.  1.
       -3    1    3    3    0  502  0.23199801666E+02  0.10559933090E+03  0.42580653603E+03  0.43931841051E+03  0.10100000352E+00 0. -1.
</event>
<event>
 5   0  0.8341767E-04  0.1095333E+04  0.7818609E-02  0.9209752E-01
       -1   -1    0    0    0  501  0.00000000000E+00  0.00000000000E+00  0.30671864470E+03  0.30671864474E+03  0.50400001928E-02 0.  1.
        1   -1    0    0  501    0  0.00000000000E+00  0.00000000000E+00 -0.97789515903E+03  0.97789515904E+03  0.50400001928E-02 0. -1.
    10030    2    1    2    0    0  0.00000000000E+00  0.00000000000E+00 -0.67117651433E+03  0.12846138038E+04  0.10953331509E+04 0.  0.
        2    1    3    3  502    0  0.18357156713E+03 -0.48331716413E+03 -0.54748902808E+03  0.75301941361E+03  0.25500000920E-02 0. -1.
       -2    1    3    3    0  502 -0.18357156713E+03  0.48331716413E+03 -0.12368748625E+03  0.53159439017E+03  0.25500000920E-02 0.  1.
</event>
<event>
 5   0  0.8305271E-04  0.1101912E+04  0.7818609E-02  0.9203331E-01
        1   -1    0    0  501    0  0.00000000000E+00  0.00000000000E+00  0.56805120862E+03  0.56805120864E+03  0.50400001928E-02 0.  1.
       -1   -1    0    0    0  501  0.00000000000E+00  0.00000000000E+00 -0.53437483771E+03  0.53437483774E+03  0.50400001928E-02 0. -1.
    10030    2    1    2    0    0  0.00000000000E+00  0.00000000000E+00  0.33676370904E+02  0.11024260464E+04  0.11019115617E+04 0.  0.
        5    1    3    3  502    0  0.15931624412E+03  0.30608773867E+02 -0.50991654068E+03  0.53512197781E+03  0.46999998093E+01 0. -1.
       -5    1    3    3    0  502 -0.15931624412E+03 -0.30608773867E+02  0.54359291159E+03  0.56730406856E+03  0.46999998093E+01 0.  1.
</event>
<event>
 5   0  0.1429680E-03  0.1098968E+04  0.7818609E-02  0.9206198E-01
       -2   -1    0    0    0  501  0.00000000000E+00  0.00000000000E+00  0.20430774519E+03  0.20430774521E+03  0.25500000920E-02 0. -1.
        2   -1    0    0  501    0  0.00000000000E+00  0.00000000000E+00 -0.14778321667E+04  0.14778321667E+04  0.25500000920E-02 0.  1.
    10030    2    1    2    0    0  0.00000000000E+00  0.00000000000E+00 -0.12735244215E+04  0.16821399119E+04  0.10989678025E+04 0.  0.
        3    1    3    3  502    0 -0.37583340184E+03 -0.30709494165E+03 -0.10311085130E+04  0.11396239840E+04  0.10100000352E+00 0.  1.
       -3    1    3    3    0  502  0.37583340184E+03  0.30709494165E+03 -0.24241590849E+03  0.54251592789E+03  0.10100000352E+00 0. -1.
</event>
<event>
 5   0  0.1429680E-03  0.1104937E+04  0.7818609E-02  0.9200393E-01
       -2   -1    0    0    0  501  0.00000000000E+00  0.00000000000E+00  0.48040022358E+03  0.48040022359E+03  0.25500000920E-02 0.  1.
        2   -1    0    0  501    0  0.00000000000E+00  0.00000000000E+00 -0.63534815721E+03  0.63534815721E+03  0.25500000920E-02 0. -1.
    10030    2    1    2    0    0  0.00000000000E+00  0.00000000000E+00 -0.15494793362E+03  0.11157483808E+04  0.11049369154E+04 0.  0.
        3    1    3    3  502    0 -0.44665374028E+03  0.15692118146E+03 -0.36503675835E+03  0.59780905484E+03  0.10100000352E+00 0.  1.
       -3    1    3    3    0  502  0.44665374028E+03 -0.15692118146E+03  0.21008882473E+03  0.51793932596E+03  0.10100000352E+00 0. -1.
</event>
<event>
 5   0  0.1396936E-03  0.1098749E+04  0.7818609E-02  0.9206412E-01
        2   -1    0    0  501    0  0.00000000000E+00  0.00000000000E+00  0.97671198077E+03  0.97671198077E+03  0.25500000920E-02 0. -1.
       -2   -1    0    0    0  501  0.00000000000E+00  0.00000000000E+00 -0.30900875624E+03  0.30900875625E+03  0.25500000920E-02 0.  1.
    10030    2    1    2    0    0  0.00000000000E+00  0.00000000000E+00  0.66770322454E+03  0.12857207370E+04  0.10987493880E+04 0.  0.
        2    1    3    3  502    0  0.14918358483E+03 -0.52432136047E+03  0.25410898798E+03  0.60144825946E+03  0.25500000920E-02 0. -1.
       -2    1    3    3    0  502 -0.14918358483E+03  0.52432136047E+03  0.41359423655E+03  0.68427247756E+03  0.25500000920E-02 0.  1.
</event>
<event>
 5   0  0.8009636E-04  0.1106387E+04  0.7818609E-02  0.9198989E-01
       -1   -1    0    0    0  501  0.00000000000E+00  0.00000000000E+00  0.33569390833E+03  0.33569390837E+03  0.50400001928E-02 0.  1.
        1   -1    0    0  501    0  0.00000000000E+00  0.00000000000E+00 -0.91161289605E+03  0.91161289607E+03  0.50400001928E-02 0. -1.
    10030    2    1    2    0    0  0.00000000000E+00  0.00000000000E+00 -0.57591898772E+03  0.12473068044E+04  0.11063867244E+04 0.  0.
        1    1    3    3  502    0  0.17655266857E+03 -0.43113270119E+03 -0.62424205699E+03  0.77892515465E+03  0.50400001928E-02 0. -1.
       -1    1    3    3    0  502 -0.17655266857E+03  0.43113270119E+03  0.48323069269E+02  0.46838164979E+03  0.50400001928E-02 0.  1.
</event>
<event>
 5   0  0.1372794E-03  0.1100896E+04  0.7818609E-02  0.9204319E-01
        2   -1    0    0  501    0  0.00000000000E+00  0.00000000000E+00  0.16535557928E+04  0.16535557928E+04  0.25500000920E-02 0. -1.
       -2   -1    0    0    0  501  0.00000000000E+00  0.00000000000E+00 -0.18323738332E+03  0.18323738334E+03  0.25500000920E-02 0.  1.
    10030    2    1    2    0    0  0.00000000000E+00  0.00000000000E+00  0.14703184094E+04  0.18367931761E+04  0.11008964287E+04 0.  0.
        4    1    3    3  502    0  0.26484461131E+03  0.99741916284E+02 -0.52556168524E+02  0.28784523924E+03  0.12699999809E+01 0.  1.
       -4    1    3    3    0  502 -0.26484461131E+03 -0.99741916284E+02  0.15228745780E+04  0.15489479369E+04  0.12699999809E+01 0. -1.
</event>
<event>
 5   0  0.1429680E-03  0.1099825E+04  0.7818609E-02  0.9205363E-01
       -2   -1    0    0    0  501  0.00000000000E+00  0.00000000000E+00  0.32010121346E+03  0.32010121347E+03  0.25500000920E-02 0.  1.
        2   -1    0    0  501    0  0.00000000000E+00  0.00000000000E+00 -0.94471251783E+03  0.94471251783E+03  0.25500000920E-02 0. -1.
    10030    2    1    2    0    0  0.00000000000E+00  0.00000000000E+00 -0.62461130437E+03  0.12648137313E+04  0.10998247557E+04 0.  0.
        3    1    3    3  502    0  0.53300479421E+03  0.21154751294E+02 -0.46600352887E+03  0.70830850149E+03  0.10100000352E+00 0. -1.
       -3    1    3    3    0  502 -0.53300479421E+03 -0.21154751294E+02 -0.15860777550E+03  0.55650522981E+03  0.10100000352E+00 0.  1.
</event>
<event>
 5   0  0.8341767E-04  0.1078201E+04  0.7818609E-02  0.9226703E-01
       -1   -1    0    0    0  501  0.00000000000E+00  0.00000000000E+00  0.29784274063E+03  0.29784274067E+03  0.50400001928E-02 0.  1.
        1   -1    0    0  501    0  0.00000000000E+00  0.00000000000E+00 -0.97578170255E+03  0.97578170256E+03  0.50400001928E-02 0. -1.
    10030    2    1    2    0    0  0.00000000000E+00  0.00000000000E+00 -0.67793896192E+03  0.12736244432E+04  0.10782012736E+04 0.  0.
        2    1    3    3  502    0 -0.29512795814E+03 -0.38243596918E+03 -0.62166025609E+03  0.78728600661E+03  0.25500000920E-02 0. -1.
       -2    1    3    3    0  502  0.29512795814E+03  0.38243596918E+03 -0.56278705831E+02  0.48633843662E+03  0.25500000920E-02 0.  1.
</event>
<event>
 5   0  0.8009636E-04  0.1120432E+04  0.7818609E-02  0.9185504E-01
        1   -1    0    0  501    0  0.00000000000E+00  0.00000000000E+00  0.31831720642E+03  0.31831720646E+03  0.50400001928E-02 0.  1.
       -1   -1    0    0    0  501  0.00000000000E+00  0.00000000000E+00 -0.98594026891E+03  0.98594026892E+03  0.50400001928E-02 0. -1.
    10030    2    1    2    0    0  0.00000000000E+00  0.00000000000E+00 -0.66762306249E+03  0.13042574754E+04  0.11204316171E+04 0.  0.
        1    1    3    3  502    0  0.44804763564E+03  0.31812779121E+03 -0.46074169178E+03  0.71710172354E+03  0.50400001928E-02 0. -1.
       -1    1    3    3    0  502 -0.44804763564E+03 -0.31812779121E+03 -0.20688137072E+03  0.58715575184E+03  0.50400001928E-02 0.  1.
</event>
<event>
 5   0  0.1425432E-03  0.1100521E+04  0.7818609E-02  0.9204684E-01
       -2   -1    0    0    0  501  0.00000000000E+00  0.00000000000E+00  0.13959305885E+03  0.13959305887E+03  0.25500000920E-02 0.  1.
        2   -1    0    0  501    0  0.00000000000E+00  0.00000000000E+00 -0.21690680598E+04  0.21690680598E+04  0.25500000920E-02 0. -1.
    10030    2    1    2    0    0  0.00000000000E+00  0.00000000000E+00 -0.20294750010E+04  0.23086611187E+04  0.11005214134E+04 0.  0.
        1    1    3    3  502    0 -0.27226304584E+03 -0.19365165233E+03 -0.97548696353E+02  0.34805728949E+03  0.50400001928E-02 0.  1.
       -1    1    3    3    0  502  0.27226304584E+03  0.19365165233E+03 -0.19319263046E+04  0.19606038292E+04  0.50400001928E-02 0. -1.
</event>
<event>
 5   0  0.8305271E-04  0.1127158E+04  0.7818609E-02  0.9179118E-01
        1   -1    0    0  501    0  0.00000000000E+00  0.00000000000E+00  0.37129872660E+03  0.37129872663E+03  0.50400001928E-02 0. -1.
       -1   -1    0    0    0  501  0.00000000000E+00  0.00000000000E+00 -0.85543385126E+03  0.85543385127E+03  0.50400001928E-02 0.  1.
    10030    2    1    2    0    0  0.00000000000E+00  0.00000000000E+00 -0.48413512466E+03  0.12267325779E+04  0.11271583734E+04 0.  0.
        5    1    3    3  502    0 -0.21999251008E+03  0.51665781423E+03 -0.29389142897E+03  0.63381879391E+03  0.46999998093E+01 0. -1.
       -5    1    3    3    0  502  0.21999251008E+03 -0.51665781423E+03 -0.19024369569E+03  0.59291378399E+03  0.46999998093E+01 0.  1.
</event>
<event>
 5   0  0.7946038E-04  0.1099440E+04  0.7818609E-02  0.9205738E-01
       -1   -1    0    0    0  501  0.00000000000E+00  0.00000000000E+00  0.44819860942E+03  0.44819860945E+03  0.50400001928E-02 0.  1.
        1   -1    0    0  501    0  0.00000000000E+00  0.00000000000E+00 -0.67423680350E+03  0.67423680352E+03  0.50400001928E-02 0. -1.
    10030    2    1    2    0    0  0.00000000000E+00  0.00000000000E+00 -0.22603819407E+03  0.11224354130E+04  0.10994398533E+04 0.  0.
        4    1    3    3  502    0 -0.24408285342E+03 -0.47562222872E+03 -0.24374989872E+03  0.58754452581E+03  0.12699999809E+01 0. -1.
       -4    1    3    3    0  502  0.24408285342E+03  0.47562222872E+03  0.17711704643E+02  0.53489088716E+03  0.12699999809E+01 0.  1.
</event>
<event>
 5   0  0.1429680E-03  0.1100064E+04  0.7818609E-02  0.9205129E-01
        2   -1    0    0  501    0  0.00000000000E+00  0.00000000000E+00  0.13709870811E+04  0.13709870811E+04  0.25500000920E-02 0. -1.
       -2   -1    0    0    0  501  0.00000000000E+00  0.00000000000E+00 -0.22066965465E+03  0.22066965466E+03  0.25500000920E-02 0.  1.
    10030    2    1    2    0    0  0.00000000000E+00  0.00000000000E+00  0.11503174265E+04  0.15916567358E+04  0.11000640813E+04 0.  0.
        3    1    3    3  502    0 -0.32292487092E+03  0.36885802720E+03  0.21431308419E+03  0.53503908712E+03  0.10100000352E+00 0.  1.
       -3    1    3    3    0  502  0.32292487092E+03 -0.36885802720E+03  0.93600434230E+03  0.10566176487E+04  0.10100000352E+00 0. -1.
</event>
<event>
 5   0  0.7946038E-04  0.1100635E+04  0.7818609E-02  0.9204573E-01
        1   -1    0    0  501    0  0.00000000000E+00  0.00000000000E+00  0.16458696108E+04  0.16458696108E+04  0.50400001928E-02 0.  1.
       -1   -1    0    0    0  501  0.00000000000E+00  0.00000000000E+00 -0.18400570546E+03  0.18400570553E+03  0.50400001928E-02 0. -1.
    10030    2    1    2    0    0  0.00000000000E+00  0.00000000000E+00  0.14618639054E+04  0.18298753164E+04  0.11006350874E+04 0.  0.
        4    1    3    3  502    0 -0.10953746237E+03 -0.38994890774E+03  0.13503102012E+04  0.14097509918E+04  0.12699999809E+01 0.  1.
       -4    1    3    3    0  502  0.10953746237E+03  0.38994890774E+03  0.11155370413E+03  0.42012432460E+03  0.12699999809E+01 0. -1.
</event>
<event>
 5   0  0.8009636E-04  0.1097163E+04  0.7818609E-02  0.9207961E-01
        1   -1    0    0  501    0  0.00000000000E+00  0.00000000000E+00  0.32769978700E+03  0.32769978704E+03  0.50400001928E-02 0.  1.
       -1   -1    0    0    0  501  0.00000000000E+00  0.00000000000E+00 -0.91834576154E+03  0.91834576155E+03  0.50400001928E-02 0. -1.
    10030    2    1    2    0    0  0.00000000000E+00  0.00000000000E+00 -0.59064597454E+03  0.12460455486E+04  0.10971630881E+04 0.  0.
        1    1    3    3  502    0  0.29924514879E+03 -0.21534109199E+03  0.16603070675E+03  0.40433357588E+03  0.50400001928E-02 0.  1.
       -1    1    3    3    0  502 -0.29924514879E+03  0.21534109199E+03 -0.75667668129E+03  0.84171197271E+03  0.50400001928E-02 0. -1.
</event>
<event>
 5   0  0.8341767E-04  0.1106079E+04  0.7818609E-02  0.9199287E-01
        1   -1    0    0  501    0  0.00000000000E+00  0.00000000000E+00  0.53359054476E+03  0.53359054479E+03  0.50400001928E-02 0. -1.
       -1   -1    0    0    0  501  0.00000000000E+00  0.00000000000E+00 -0.57319764561E+03  0.57319764563E+03  0.50400001928E-02 0.  1.
    10030    2    1    2    0    0  0.00000000000E+00  0.00000000000E+00 -0.39607100849E+02  0.11067881904E+04  0.11060792811E+04 0.  0.
        2    1    3    3  502    0 -0.67979467290E+02  0.54008414525E+03 -0.11754292696E+03  0.55689175933E+03  0.25500000920E-02 0. -1.
       -2    1    3    3    0  502  0.67979467290E+02 -0.54008414525E+03  0.77935826112E+02  0.54989643109E+03  0.25500000920E-02 0.  1.
</event>
<event>
 5   0  0.1425432E-03  0.1104015E+04  0.7818609E-02  0.9201287E-01
       -2   -1    0    0    0  501  0.00000000000E+00  0.00000000000E+00  0.95133301044E+03  0.95133301044E+03  0.25500000920E-02 0. -1.
        2   -1    0    0  501    0  0.00000000000E+00  0.00000000000E+00 -0.32030030730E+03  0.32030030731E+03  0.25500000920E-02 0.  1.
    10030    2    1    2    0    0  0.00000000000E+00  0.00000000000E+00  0.63103270314E+03  0.12716333178E+04  0.11040149557E+04 0.  0.
        1    1    3    3  502    0  0.26167395536E+03 -0.16722352689E+03 -0.21014471773E+03  0.37496369061E+03  0.50400001928E-02 0.  1.
       -1    1    3    3    0  502 -0.26167395536E+03  0.16722352689E+03  0.84117742086E+03  0.89666962715E+03  0.50400001928E-02 0. -1.
</event>
<event>
 5   0  0.5409500E-04  0.1103098E+04  0.7818609E-02  0.9202178E-01
        3   -1    0    0  501    0  0.00000000000E+00  0.00000000000E+00  0.32493050608E+03  0.32493052177E+03  0.10100000352E+00 0.  1.
       -3   -1    0    0    0  501  0.00000000000E+00  0.00000000000E+00 -0.93621933459E+03  0.93621934004E+03  0.10100000352E+00 0. -1.
    10030    2    1    2    0    0  0.00000000000E+00  0.00000000000E+00 -0.61128882851E+03  0.12611498618E+04  0.11030978842E+04 0.  0.
        2    1    3    3  502    0  0.83000649622E+02 -0.31526945582E+03  0.20298328463E+03  0.38403925770E+03  0.25500000920E-02 0.  1.
       -2    1    3    3    0  502 -0.83000649622E+02  0.31526945582E+03 -0.81427211314E+03  0.87711060412E+03  0.25500000920E-02 0. -1.
</event>
<event>
 5   0  0.1429680E-03  0.1100000E+04  0.7818609E-02  0.9205192E-01
        2   -1    0    0  501    0  0.00000000000E+00  0.00000000000E+00  0.24789176033E+03  0.24789176034E+03  0.25500000920E-02 0.  1.
       -2   -1    0    0    0  501  0.00000000000E+00  0.00000000000E+00 -0.12202909515E+04  0.12202909515E+04  0.25500000920E-02 0. -1.
    10030    2    1    2    0    0  0.00000000000E+00  0.00000000000E+00 -0.97239919120E+03  0.14681827119E+04  0.11000001311E+04 0.  0.
        3    1    3    3  502    0  0.14955387587E+03  0.19217509902E+03 -0.11444199760E+04  0.11700404789E+04  0.10100000352E+00 0. -1.
       -3    1    3    3    0  502 -0.14955387587E+03 -0.19217509902E+03  0.17202078484E+03  0.29814223299E+03  0.10100000352E+00 0.  1.
</event>
<event>
 5   0  0.1396936E-03  0.1100455E+04  0.7818609E-02  0.9204748E-01
        2   -1    0    0  501    0  0.00000000000E+00  0.00000000000E+00  0.91307754778E+03  0.91307754778E+03  0.25500000920E-02 0.  1.
       -2   -1    0    0    0  501  0.00000000000E+00  0.00000000000E+00 -0.33157133584E+03  0.33157133585E+03  0.25500000920E-02 0. -1.
    10030    2    1    2    0    0  0.00000000000E+00  0.00000000000E+00  0.58150621194E+03  0.12446488836E+04  0.11004550736E+04 0.  0.
        2    1    3    3  502    0 -0.52727875788E+03  0.14801195963E+03  0.23069212334E+03  0.59426364897E+03  0.25500000920E-02 0.  1.
       -2    1    3    3    0  502  0.52727875788E+03 -0.14801195963E+03  0.35081408859E+03  0.65038523467E+03  0.25500000920E-02 0. -1.
</event>
<event>
 5   0  0.1372794E-03  0.1094817E+04  0.7818609E-02  0.9210259E-01
        2   -1    0    0  501    0  0.00000000000E+00  0.00000000000E+00  0.16234962184E+04  0.16234962184E+04  0.25500000920E-02 0.  1.
       -2   -1    0    0    0  501  0.00000000000E+00  0.00000000000E+00 -0.18457447516E+03  0.18457447518E+03  0.25500000920E-02 0. -1.
    10030    2    1    2    0    0  0.00000000000E+00  0.00000000000E+00  0.14389217432E+04  0.18080706936E+04  0.10948168111E+04 0.  0.
        4    1    3    3  502    0 -0.16951405205E+03 -0.52028524120E+03  0.74410082855E+03  0.92364462972E+03  0.12699999809E+01 0.  1.
       -4    1    3    3    0  502  0.16951405205E+03  0.52028524120E+03  0.69482091467E+03  0.88442606385E+03  0.12699999809E+01 0. -1.
</event>
<event>
 5   0  0.1429680E-03  0.1100299E+04  0.7818609E-02  0.9204900E-01
       -2   -1    0    0    0  501  0.00000000000E+00  0.00000000000E+00  0.68334405182E+03  0.68334405182E+03  0.25500000920E-02 0. -1.
        2   -1    0    0  501    0  0.00000000000E+00  0.00000000000E+00 -0.44291675095E+03  0.44291675096E+03  0.25500000920E-02 0.  1.
    10030    2    1    2    0    0  0.00000000000E+00  0.00000000000E+00  0.24042730086E+03  0.11262608028E+04  0.11002990997E+04 0.  0.
        3    1    3    3  502    0 -0.10109640414E+03  0.23323008294E+03 -0.37919983346E+03  0.45651865068E+03  0.10100000352E+00 0.  1.
       -3    1    3    3    0  502  0.10109640414E+03 -0.23323008294E+03  0.61962713432E+03  0.66974215211E+03  0.10100000352E+00 0. -1.
</event>
<event>
 5   0  0.8009636E-04  0.1098074E+04  0.7818609E-02  0.9207071E-01
        1   -1    0    0  501    0  0.00000000000E+00  0.00000000000E+00  0.61973807425E+03  0.61973807428E+03  0.50400001928E-02 0.  1.
       -1   -1    0    0    0  501  0.00000000000E+00  0.00000000000E+00 -0.48640209383E+03  0.48640209386E+03  0.50400001928E-02 0. -1.
    10030    2    1    2    0    0  0.00000000000E+00  0.00000000000E+00  0.13333598042E+03  0.11061401681E+04  0.10980744910E+04 0.  0.
        1    1    3    3  502    0 -0.28632566979E+03  0.41369614246E+03 -0.15475330931E+03  0.52637959139E+03  0.50400001928E-02 0. -1.
       -1    1    3    3    0  502  0.28632566979E+03 -0.41369614246E+03  0.28808928973E+03  0.57976057674E+03  0.50400001928E-02 0.  1.
</event>
<event>
 5   0  0.5409500E-04  0.1099325E+04  0.7818609E-02  0.9205850E-01
       -3   -1    0    0    0  501  0.00000000000E+00  0.00000000000E+00  0.14024785145E+04  0.14024785182E+04  0.10100000352E+00 0.  1.
        3   -1    0    0  501    0  0.00000000000E+00  0.00000000000E+00 -0.21542489400E+03  0.21542491767E+03  0.10100000352E+00 0. -1.
    10030    2    1    2    0    0  0.00000000000E+00  0.00000000000E+00  0.11870536205E+04  0.16179034358E+04  0.10993248972E+04 0.  0.
        2    1    3    3  502    0 -0.30983860331E+03 -0.33249515490E+03  0.10485154447E+04  0.11427762799E+04  0.25500000920E-02 0.  1.
       -2    1    3    3    0  502  0.30983860331E+03  0.33249515490E+03  0.13853817583E+03  0.47512715593E+03  0.25500000920E-02 0. -1.
</event>
<event>
 5   0  0.5409500E-04  0.1102803E+04  0.7818609E-02  0.9202464E-01
       -3   -1    0    0    0  501  0.00000000000E+00  0.00000000000E+00  0.16180822487E+04  0.16180822518E+04  0.10100000352E+00 0.  1.
        3   -1    0    0  501    0  0.00000000000E+00  0.00000000000E+00 -0.18790363197E+03  0.18790365911E+03  0.10100000352E+00 0. -1.
    10030    2    1    2    0    0  0.00000000000E+00  0.00000000000E+00  0.14301786167E+04  0.18059859109E+04  0.11028028994E+04 0.  0.
        1    1    3    3  502    0 -0.97708903729E+02  0.21832428320E+02 -0.17289399973E+03  0.19978993959E+03  0.50400001928E-02 0. -1.
       -1    1    3    3    0  502  0.97708903729E+02 -0.21832428320E+02  0.16030726164E+04  0.16061959713E+04  0.50400001928E-02 0.  1.
</event>
<event>
 5   0  0.1372794E-03  0.1105767E+04  0.7818609E-02  0.9199589E-01
        2   -1    0    0  501    0  0.00000000000E+00  0.00000000000E+00  0.20722319402E+04  0.20722319402E+04  0.25500000920E-02 0. -1.
       -2   -1    0    0    0  501  0.00000000000E+00  0.00000000000E+00 -0.14751255974E+03  0.14751255977E+03  0.25500000920E-02 0.  1.
    10030    2    1    2    0    0  0.00000000000E+00  0.00000000000E+00  0.19247193805E+04  0.22197445000E+04  0.11057671327E+04 0.  0.
        4    1    3    3  502    0  0.11810815114E+03  0.15513649017E+03  0.20009218035E+04  0.20103995977E+04  0.12699999809E+01 0. -1.
       -4    1    3    3    0  502 -0.11810815114E+03 -0.15513649017E+03 -0.76202422984E+02  0.20934490229E+03  0.12699999809E+01 0.  1.
</event>
<event>
 5   0  0.1396936E-03  0.1104376E+04  0.7818609E-02  0.9200937E-01
       -2   -1    0    0    0  501  0.00000000000E+00  0.00000000000E+00  0.27693364971E+03  0.27693364972E+03  0.25500000920E-02 0.  1.
        2   -1    0    0  501    0  0.00000000000E+00  0.00000000000E+00 -0.11010272653E+04  0.11010272653E+04  0.25500000920E-02 0. -1.
    10030    2    1    2    0    0  0.00000000000E+00  0.00000000000E+00 -0.82409361557E+03  0.13779609150E+04  0.11043758400E+04 0.  0.
        2    1    3    3  502    0  0.42838633166E+03  0.31599045440E+03 -0.22889542202E+03  0.57944622758E+03  0.25500000920E-02 0. -1.
       -2    1    3    3    0  502 -0.42838633166E+03 -0.31599045440E+03 -0.59519819355E+03  0.79851468743E+03  0.25500000920E-02 0.  1.
</event>
<event>
 5   0  0.8341767E-04  0.1100445E+04  0.7818609E-02  0.9204758E-01
        1   -1    0    0  501    0  0.00000000000E+00  0.00000000000E+00  0.93567566475E+03  0.93567566477E+03  0.50400001928E-02 0.  1.
       -1   -1    0    0    0  501  0.00000000000E+00  0.00000000000E+00 -0.32355737096E+03  0.32355737100E+03  0.50400001928E-02 0. -1.
    10030    2    1    2    0    0  0.00000000000E+00  0.00000000000E+00  0.61211829380E+03  0.12592330358E+04  0.11004449249E+04 0.  0.
        2    1    3    3  502    0 -0.37062554552E+03  0.18141346042E+03  0.72254243617E+03  0.83207073658E+03  0.25500000920E-02 0.  1.
       -2    1    3    3    0  502  0.37062554552E+03 -0.18141346042E+03 -0.11042414237E+03  0.42716229918E+03  0.25500000920E-02 0. -1.
</event>
<event>
 5   0  0.5409500E-04  0.1102007E+04  0.7818609E-02  0.9203238E-01
        4   -1    0    0  501    0  0.00000000000E+00  0.00000000000E+00  0.89930510329E+03  0.89930600004E+03  0.12699999809E+01 0. -1.
       -4   -1    0    0    0  501  0.00000000000E+00  0.00000000000E+00 -0.33759724259E+03  0.33759963137E+03  0.12699999809E+01 0.  1.
    10030    2    1    2    0    0  0.00000000000E+00  0.00000000000E+00  0.56170786070E+03  0.12369056314E+04  0.11020071779E+04 0.  0.
        1    1    3    3  502    0  0.45520610295E+03  0.29796866146E+03  0.18295907485E+03  0.57399646555E+03  0.50400001928E-02 0. -1.
       -1    1    3    3    0  502 -0.45520610295E+03 -0.29796866146E+03  0.37874878585E+03  0.66290916586E+03  0.50400001928E-02 0.  1.
</event>
<event>
 5   0  0.1425432E-03  0.1026800E+04  0.7818609E-02  0.9279629E-01
        2   -1    0    0  501    0  0.00000000000E+00  0.00000000000E+00  0.62675137066E+03  0.62675137067E+03  0.25500000920E-02 0. -1.
       -2   -1    0    0    0  501  0.00000000000E+00  0.00000000000E+00 -0.42054905967E+03  0.42054905967E+03  0.25500000920E-02 0.  1.
    10030    2    1    2    0    0  0.00000000000E+00  0.00000000000E+00  0.20620231100E+03  0.10473004303E+04  0.10268002719E+04 0.  0.
        1    1    3    3  502    0 -0.32519329092E+03 -0.28595686601E+03  0.38439283338E+03  0.57903355348E+03  0.50400001928E-02 0. -1.
       -1    1    3    3    0  502  0.32519329092E+03  0.28595686601E+03 -0.17819052238E+03  0.46826687686E+03  0.50400001928E-02 0.  1.
</event>
<event>
 5   0  0.7946038E-04  0.1097209E+04  0.7818609E-02  0.9207916E-01
        1   -1    0    0  501    0  0.00000000000E+00  0.00000000000E+00  0.54588767028E+03  0.54588767030E+03  0.50400001928E-02 0.  1.
       -1   -1    0    0    0  501  0.00000000000E+00  0.00000000000E+00 -0.55133518134E+03  0.55133518136E+03  0.50400001928E-02 0. -1.
    10030    2    1    2    0    0  0.00000000000E+00  0.00000000000E+00 -0.54475110591E+01  0.10972228517E+04  0.10972093286E+04 0.  0.
        4    1    3    3  502    0  0.13109277731E+03  0.53093983421E+03 -0.46118310599E+02  0.54882687187E+03  0.12699999809E+01 0. -1.
       -4    1    3    3    0  502 -0.13109277731E+03 -0.53093983421E+03  0.40670799539E+02  0.54839597979E+03  0.12699999809E+01 0.  1.
</event>
<event>
 5   0  0.8305271E-04  0.1100439E+04  0.7818609E-02  0.9204764E-01
       -1   -1    0    0    0  501  0.00000000000E+00  0.00000000000E+00  0.15850544628E+04  0.15850544628E+04  0.50400001928E-02 0.  1.
        1   -1    0    0  501    0  0.00000000000E+00  0.00000000000E+00 -0.19099744017E+03  0.19099744024E+03  0.50400001928E-02 0. -1.
    10030    2    1    2    0    0  0.00000000000E+00  0.00000000000E+00  0.13940570226E+04  0.17760519030E+04  0.11004387216E+04 0.  0.
        5    1    3    3  502    0 -0.37447441056E+03 -0.14239228551E+03  0.13056661975E+04  0.13657572832E+04  0.46999998093E+01 0.  1.
       -5    1    3    3    0  502  0.37447441056E+03  0.14239228551E+03  0.88390825077E+02  0.41029461987E+03  0.46999998093E+01 0. -1.
</event>
<event>
 5   0  0.8009636E-04  0.1104115E+04  0.7818609E-02  0.9201190E-01
        1   -1    0    0  501    0  0.00000000000E+00  0.00000000000E+00  0.59584738358E+03  0.59584738360E+03  0.50400001928E-02 0. -1.
       -1   -1    0    0    0  501  0.00000000000E+00  0.00000000000E+00 -0.51148616206E+03  0.51148616208E+03  0.50400001928E-02 0.  1.
    10030    2    1    2    0    0  0.00000000000E+00  0.00000000000E+00  0.84361221523E+02  0.11073335457E+04  0.11041153770E+04 0.  0.
        1    1    3    3  502    0 -0.33942487349E+03 -0.37810448182E+03 -0.17430834309E+03  0.53717375440E+03  0.50400001928E-02 0.  1.
       -1    1    3    3    0  502  0.33942487349E+03  0.37810448182E+03  0.25866956461E+03  0.57015979129E+03  0.50400001928E-02 0. -1.
</event>
<event>
 5   0  0.8150924E-04  0.1097807E+04  0.7818609E-02  0.9207332E-01
       -1   -1    0    0    0  501  0.00000000000E+00  0.00000000000E+00  0.76704298506E+03  0.76704298508E+03  0.50400001928E-02 0. -1.
        1   -1    0    0  501    0  0.00000000000E+00  0.00000000000E+00 -0.39280068459E+03  0.39280068462E+03  0.50400001928E-02 0.  1.
    10030    2    1    2    0    0  0.00000000000E+00  0.00000000000E+00  0.37424230048E+03  0.11598436697E+04  0.10978069223E+04 0.  0.
        3    1    3    3  502    0 -0.50930183831E+02  0.71673417867E+02  0.75955448628E+03  0.76462669995E+03  0.10100000352E+00 0. -1.
       -3    1    3    3    0  502  0.50930183831E+02 -0.71673417867E+02 -0.38531218580E+03  0.39521696975E+03  0.10100000352E+00 0.  1.
</event>
<event>
 5   0  0.1429680E-03  0.1097317E+04  0.7818609E-02  0.9207810E-01
       -2   -1    0    0    0  501  0.00000000000E+00  0.00000000000E+00  0.53902863705E+03  0.53902863706E+03  0.25500000920E-02 0. -1.
        2   -1    0    0  501    0  0.00000000000E+00  0.00000000000E+00 -0.55846090355E+03  0.55846090356E+03  0.25500000920E-02 0.  1.
    10030    2    1    2    0    0  0.00000000000E+00  0.00000000000E+00 -0.19432266502E+02  0.10974895406E+04  0.10973174922E+04 0.  0.
        3    1    3    3  502    0 -0.10733068734E+03  0.43228796154E+02 -0.54611897510E+03  0.55824237606E+03  0.10100000352E+00 0.  1.
       -3    1    3    3    0  502  0.10733068734E+03 -0.43228796154E+02  0.52668670860E+03  0.53924716455E+03  0.10100000352E+00 0. -1.
</event>
<event>
 5   0  0.1425432E-03  0.1099086E+04  0.7818609E-02  0.9206083E-01
       -2   -1    0    0    0  501  0.00000000000E+00  0.00000000000E+00  0.84484840142E+03  0.84484840142E+03  0.25500000920E-02 0. -1.
        2   -1    0    0  501    0  0.00000000000E+00  0.00000000000E+00 -0.35745763465E+03  0.35745763466E+03  0.25500000920E-02 0.  1.
    10030    2    1    2    0    0  0.00000000000E+00  0.00000000000E+00  0.48739076677E+03  0.12023060361E+04  0.10990860043E+04 0.  0.
        1    1    3    3  502    0  0.27835539986E+03  0.41709891036E+03 -0.22390640981E+01  0.50145612279E+03  0.50400001928E-02 0.  1.
       -1    1    3    3    0  502 -0.27835539986E+03 -0.41709891036E+03  0.48962983086E+03  0.70084991329E+03  0.50400001928E-02 0. -1.
</event>
<event>
 5   0  0.5409500E-04  0.1100988E+04  0.7818609E-02  0.9204229E-01
       -3   -1    0    0    0  501  0.00000000000E+00  0.00000000000E+00  0.26913004096E+03  0.26913005991E+03  0.10100000352E+00 0. -1.
        3   -1    0    0  501    0  0.00000000000E+00  0.00000000000E+00 -0.11260121688E+04  0.11260121733E+04  0.10100000352E+00 0.  1.
    10030    2    1    2    0    0  0.00000000000E+00  0.00000000000E+00 -0.85688212783E+03  0.13951422332E+04  0.11009881334E+04 0.  0.
        2    1    3    3  502    0 -0.51207932559E+03  0.20017448398E+03 -0.39376917455E+03  0.67627599585E+03  0.25500000920E-02 0.  1.
       -2    1    3    3    0  502  0.51207932559E+03 -0.20017448398E+03 -0.46311295328E+03  0.71886623738E+03  0.25500000920E-02 0. -1.
</event>
<event>
 5   0  0.1372794E-03  0.1099690E+04  0.7818609E-02  0.9205494E-01
        2   -1    0    0  501    0  0.00000000000E+00  0.00000000000E+00  0.27547496724E+03  0.27547496725E+03  0.25500000920E-02 0. -1.
       -2   -1    0    0    0  501  0.00000000000E+00  0.00000000000E+00 -0.10974845655E+04  0.10974845655E+04  0.25500000920E-02 0.  1.
    10030    2    1    2    0    0  0.00000000000E+00  0.00000000000E+00 -0.82200959827E+03  0.13729595328E+04  0.10996900013E+04 0.  0.
        4    1    3    3  502    0 -0.49588500945E+03  0.76861286674E+02 -0.13038915745E+03  0.51847135434E+03  0.12699999809E+01 0.  1.
       -4    1    3    3    0  502  0.49588500945E+03 -0.76861286674E+02 -0.69162044082E+03  0.85448817842E+03  0.12699999809E+01 0. -1.
</event>
<event>
 5   0  0.8341767E-04  0.1101391E+04  0.7818609E-02  0.9203837E-01
       -1   -1    0    0    0  501  0.00000000000E+00  0.00000000000E+00  0.23878873945E+03  0.23878873951E+03  0.50400001928E-02 0. -1.
        1   -1    0    0  501    0  0.00000000000E+00  0.00000000000E+00 -0.12700153132E+04  0.12700153132E+04  0.50400001928E-02 0.  1.
    10030    2    1    2    0    0  0.00000000000E+00  0.00000000000E+00 -0.10312265737E+04  0.15088040527E+04  0.11013906768E+04 0.  0.
        2    1    3    3  502    0 -0.45301352584E+02 -0.36303884005E+03  0.48243206101E+02  0.36902143416E+03  0.25500000920E-02 0. -1.
       -2    1    3    3    0  502  0.45301352584E+02  0.36303884005E+03 -0.10794697798E+04  0.11397826185E+04  0.25500000920E-02 0.  1.
</event>
<event>
 5   0  0.1402775E-03  0.1098492E+04  0.7818609E-02  0.9206663E-01
       -2   -1    0    0    0  501  0.00000000000E+00  0.00000000000E+00  0.23135143501E+03  0.23135143502E+03  0.25500000920E-02 0.  1.
        2   -1    0    0  501    0  0.00000000000E+00  0.00000000000E+00 -0.13039522214E+04  0.13039522214E+04  0.25500000920E-02 0. -1.
    10030    2    1    2    0    0  0.00000000000E+00  0.00000000000E+00 -0.10726007864E+04  0.15353036564E+04  0.10984920894E+04 0.  0.
        5    1    3    3  502    0 -0.38520878310E+03  0.11493175910E+03 -0.10593527066E+04  0.11330690017E+04  0.46999998093E+01 0. -1.
       -5    1    3    3    0  502  0.38520878310E+03 -0.11493175910E+03 -0.13248079861E+02  0.40223465470E+03  0.46999998093E+01 0.  1.
</event>
<event>
 5   0  0.1402775E-03  0.1100517E+04  0.7818609E-02  0.9204688E-01
        2   -1    0    0  501    0  0.00000000000E+00  0.00000000000E+00  0.93214490391E+03  0.93214490391E+03  0.25500000920E-02 0.  1.
       -2   -1    0    0    0  501  0.00000000000E+00  0.00000000000E+00 -0.32482541333E+03  0.32482541334E+03  0.25500000920E-02 0. -1.
    10030    2    1    2    0    0  0.00000000000E+00  0.00000000000E+00  0.60731949058E+03  0.12569703173E+04  0.11005168853E+04 0.  0.
        5    1    3    3  502    0 -0.32856153188E+03  0.41041705694E+02 -0.19827555756E+03  0.38596941402E+03  0.46999998093E+01 0. -1.
       -5    1    3    3    0  502  0.32856153188E+03 -0.41041705694E+02  0.80559504814E+03  0.87100090323E+03  0.46999998093E+01 0.  1.
</event>
<event>
 5   0  0.1429680E-03  0.1091776E+04  0.7818609E-02  0.9213244E-01
       -2   -1    0    0    0  501  0.00000000000E+00  0.00000000000E+00  0.16886590164E+03  0.16886590166E+03  0.25500000920E-02 0.  1.
        2   -1    0    0  501    0  0.00000000000E+00  0.00000000000E+00 -0.17646776009E+04  0.17646776009E+04  0.25500000920E-02 0. -1.
    10030    2    1    2    0    0  0.00000000000E+00  0.00000000000E+00 -0.15958116992E+04  0.19335435025E+04  0.10917763035E+04 0.  0.
        3    1    3    3  502    0 -0.46706443863E+03  0.77034294707E+02 -0.31643163276E+03  0.56939657604E+03  0.10100000352E+00 0.  1.
       -3    1    3    3    0  502  0.46706443863E+03 -0.77034294707E+02 -0.12793800665E+04  0.13641469265E+04  0.10100000352E+00 0. -1.
</event>
<event>
 5   0  0.1402775E-03  0.1099113E+04  0.7818609E-02  0.9206056E-01
       -2   -1    0    0    0  501  0.00000000000E+00  0.00000000000E+00  0.19991432148E+03  0.19991432150E+03  0.25500000920E-02 0.  1.
        2   -1    0    0  501    0  0.00000000000E+00  0.00000000000E+00 -0.15107100676E+04  0.15107100676E+04  0.25500000920E-02 0. -1.
    10030    2    1    2    0    0  0.00000000000E+00  0.00000000000E+00 -0.13107957461E+04  0.17106243891E+04  0.10991134211E+04 0.  0.
        5    1    3    3  502    0 -0.21385863883E+03  0.40691390686E+03 -0.11240584565E+04  0.12144315331E+04  0.46999998093E+01 0. -1.
       -5    1    3    3    0  502  0.21385863883E+03 -0.40691390686E+03 -0.18673728962E+03  0.49619285599E+03  0.46999998093E+01 0.  1.
</event>
<event>
 5   0  0.1396936E-03  0.1100176E+04  0.7818609E-02  0.9205021E-01
       -2   -1    0    0    0  501  0.00000000000E+00  0.00000000000E+00  0.65347513625E+03  0.65347513626E+03  0.25500000920E-02 0. -1.
        2   -1    0    0  501    0  0.00000000000E+00  0.00000000000E+00 -0.46305758757E+03  0.46305758758E+03  0.25500000920E-02 0.  1.
    10030    2    1    2    0    0  0.00000000000E+00  0.00000000000E+00  0.19041754868E+03  0.11165327238E+04  0.11001756590E+04 0.  0.
        2    1    3    3  502    0  0.28441105416E+03 -0.38186670155E+02 -0.38107539941E+03  0.47703912790E+03  0.25500000920E-02 0.  1.
       -2    1    3    3    0  502 -0.28441105416E+03  0.38186670155E+02  0.57149294809E+03  0.63949359593E+03  0.25500000920E-02 0. -1.
</event>
<event>
 5   0  0.1402775E-03  0.1100891E+04  0.7818609E-02  0.9204324E-01
       -2   -1    0    0    0  501  0.00000000000E+00  0.00000000000E+00  0.20290677830E+03  0.20290677831E+03  0.25500000920E-02 0. -1.
        2   -1    0    0  501    0  0.00000000000E+00  0.00000000000E+00 -0.14932493511E+04  0.14932493511E+04  0.25500000920E-02 0.  1.
    10030    2    1    2    0    0  0.00000000000E+00  0.00000000000E+00 -0.12903425728E+04  0.16961561294E+04  0.11008913026E+04 0.  0.
        5    1    3    3  502    0  0.15888564727E+02 -0.40940515619E+03 -0.78861119409E+02  0.41726034386E+03  0.46999998093E+01 0. -1.
       -5    1    3    3    0  502 -0.15888564727E+02  0.40940515619E+03 -0.12114814534E+04  0.12788957856E+04  0.46999998093E+01 0.  1.
</event>
<event>
 5   0  0.1396936E-03  0.1098827E+04  0.7818609E-02  0.9206336E-01
        2   -1    0    0  501    0  0.00000000000E+00  0.00000000000E+00  0.81415293853E+03  0.81415293853E+03  0.25500000920E-02 0. -1.
       -2   -1    0    0    0  501  0.00000000000E+00  0.00000000000E+00 -0.37075986801E+03  0.37075986802E+03  0.25500000920E-02 0.  1.
    10030    2    1    2    0    0  0.00000000000E+00  0.00000000000E+00  0.44339307051E+03  0.11849128066E+04  0.10988270765E+04 0.  0.
        2    1    3    3  502    0  0.58293859172E+02  0.16835023398E+01  0.81080587566E+03  0.81290047128E+03  0.25500000920E-02 0. -1.
       -2    1    3    3    0  502 -0.58293859172E+02 -0.16835023398E+01 -0.36741280515E+03  0.37201233527E+03  0.25500000920E-02 0.  1.
</event>
<event>
 5   0  0.1372794E-03  0.1097935E+04  0.7818609E-02  0.9207207E-01
       -2   -1    0    0    0  501  0.00000000000E+00  0.00000000000E+00  0.40774214893E+03  0.40774214894E+03  0.25500000920E-02 0. -1.
        2   -1    0    0  501    0  0.00000000000E+00  0.00000000000E+00 -0.73910778395E+03  0.73910778396E+03  0.25500000920E-02 0.  1.
    10030    2    1    2    0    0  0.00000000000E+00  0.00000000000E+00 -0.33136563503E+03  0.11468499329E+04  0.10979351459E+04 0.  0.
        4    1    3    3  502    0 -0.44303220123E+01  0.54155840091E+03 -0.71913413094E+02  0.54633165864E+03  0.12699999809E+01 0. -1.
       -4    1    3    3    0  502  0.44303220123E+01 -0.54155840091E+03 -0.25945222193E+03  0.60051827426E+03  0.12699999809E+01 0.  1.
</event>
<event>
 5   0  0.1425432E-03  0.1101746E+04  0.7818609E-02  0.9203492E-01
       -2   -1    0    0    0  501  0.00000000000E+00  0.00000000000E+00  0.19505266940E+03  0.19505266942E+03  0.25500000920E-02 0.  1.
        2   -1    0    0  501    0  0.00000000000E+00  0.00000000000E+00 -0.15557897211E+04  0.15557897211E+04  0.25500000920E-02 0. -1.
    10030    2    1    2    0    0  0.00000000000E+00  0.00000000000E+00 -0.13607370517E+04  0.17508423905E+04  0.11017457749E+04 0.  0.
        1    1    3    3  502    0  0.67927751848E+02 -0.49010186279E+03 -0.10652156751E+04  0.11745205191E+04  0.50400001928E-02 0. -1.
       -1    1    3    3    0  502 -0.67927751848E+02  0.49010186279E+03 -0.29552137662E+03  0.57632187140E+03  0.50400001928E-02 0.  1.
</event>
<event>
 5   0  0.8009636E-04  0.1100106E+04  0.7818609E-02  0.9205089E-01
        1   -1    0    0  501    0  0.00000000000E+00  0.00000000000E+00  0.65973305153E+03  0.65973305155E+03  0.50400001928E-02 0.  1.
       -1   -1    0    0    0  501  0.00000000000E+00  0.00000000000E+00 -0.45860684980E+03  0.45860684983E+03  0.50400001928E-02 0. -1.
    10030    2    1    2    0    0  0.00000000000E+00  0.00000000000E+00  0.20112620173E+03  0.11183399014E+04  0.11001056249E+04 0.  0.
        1    1    3    3  502    0 -0.51914882493E+03  0.17399677479E+03  0.47082013406E+02  0.54955172284E+03  0.50400001928E-02 0. -1.
       -1    1    3    3    0  502  0.51914882493E+03 -0.17399677479E+03  0.15404418832E+03  0.56878817854E+03  0.50400001928E-02 0.  1.
</event>
<event>
 5   0  0.8305271E-04  0.1100650E+04  0.7818609E-02  0.9204558E-01
        1   -1    0    0  501    0  0.00000000000E+00  0.00000000000E+00  0.16904337037E+04  0.16904337037E+04  0.50400001928E-02 0. -1.
       -1   -1    0    0    0  501  0.00000000000E+00  0.00000000000E+00 -0.17915985419E+03  0.17915985426E+03  0.50400001928E-02 0.  1.
    10030    2    1    2    0    0  0.00000000000E+00  0.00000000000E+00  0.15112738495E+04  0.18695935579E+04  0.11006504548E+04 0.  0.
        5    1    3    3  502    0  0.53637509482E+03  0.10025688266E+03  0.87677744234E+03  0.10327199322E+04  0.46999998093E+01 0. -1.
       -5    1    3    3    0  502 -0.53637509482E+03 -0.10025688266E+03  0.63449640714E+03  0.83687362578E+03  0.46999998093E+01 0.  1.
</event>
<event>
 5   0  0.8341767E-04  0.1107843E+04  0.7818609E-02  0.9197581E-01
        1   -1    0    0  501    0  0.00000000000E+00  0.00000000000E+00  0.96558510801E+03  0.96558510802E+03  0.50400001928E-02 0. -1.
       -1   -1    0    0    0  501  0.00000000000E+00  0.00000000000E+00 -0.31776504284E+03  0.31776504288E+03  0.50400001928E-02 0.  1.
    10030    2    1    2    0    0  0.00000000000E+00  0.00000000000E+00  0.64782006517E+03  0.12833501509E+04  0.11078432980E+04 0.  0.
        2    1    3    3  502    0 -0.21118380827E+03  0.25064974141E+03 -0.19338127336E+03  0.38055250707E+03  0.25500000920E-02 0.  1.
       -2    1    3    3    0  502  0.21118380827E+03 -0.25064974141E+03  0.84120133854E+03  0.90279764383E+03  0.25500000920E-02 0. -1.
</event>
<event>
 5   0  0.8305271E-04  0.1108496E+04  0.7818609E-02  0.9196950E-01
       -1   -1    0    0    0  501  0.00000000000E+00  0.00000000000E+00  0.14685498659E+04  0.14685498659E+04  0.50400001928E-02 0. -1.
        1   -1    0    0  501    0  0.00000000000E+00  0.00000000000E+00 -0.20917980767E+03  0.20917980773E+03  0.50400001928E-02 0.  1.
    10030    2    1    2    0    0  0.00000000000E+00  0.00000000000E+00  0.12593700582E+04  0.16777296736E+04  0.11084962400E+04 0.  0.
        5    1    3    3  502    0 -0.36351047213E+03 -0.37125722882E+03  0.92159052707E+03  0.10579806155E+04  0.46999998093E+01 0. -1.
       -5    1    3    3    0  502  0.36351047213E+03  0.37125722882E+03  0.33777953112E+03  0.61974905804E+03  0.46999998093E+01 0.  1.
</event>
<event>
 5   0  0.1425432E-03  0.1100866E+04  0.7818609E-02  0.9204349E-01
        2   -1    0    0  501    0  0.00000000000E+00  0.00000000000E+00  0.20422305399E+03  0.20422305400E+03  0.25500000920E-02 0.  1.
       -2   -1    0    0    0  501  0.00000000000E+00  0.00000000000E+00 -0.14835557719E+04  0.14835557719E+04  0.25500000920E-02 0. -1.
    10030    2    1    2    0    0  0.00000000000E+00  0.00000000000E+00 -0.12793327179E+04  0.16877788259E+04  0.11008656421E+04 0.  0.
        1    1    3    3  502    0  0.13306306087E+03 -0.53731740369E+02  0.17503943984E+03  0.22634417072E+03  0.50400001928E-02 0.  1.
       -1    1    3    3    0  502 -0.13306306087E+03  0.53731740369E+02 -0.14543721578E+04  0.14614346552E+04  0.50400001928E-02 0. -1.
</event>
<event>
 5   0  0.1372794E-03  0.1099438E+04  0.7818609E-02  0.9205740E-01
       -2   -1    0    0    0  501  0.00000000000E+00  0.00000000000E+00  0.30355082960E+03  0.30355082961E+03  0.25500000920E-02 0. -1.
        2   -1    0    0  501    0  0.00000000000E+00  0.00000000000E+00 -0.99552049743E+03  0.99552049743E+03  0.25500000920E-02 0.  1.
    10030    2    1    2    0    0  0.00000000000E+00  0.00000000000E+00 -0.69196966783E+03  0.12990713270E+04  0.10994381709E+04 0.  0.
        4    1    3    3  502    0 -0.42465809749E+03 -0.29903099037E+03 -0.55878501646E+03  0.76288684645E+03  0.12699999809E+01 0. -1.
       -4    1    3    3    0  502  0.42465809749E+03  0.29903099037E+03 -0.13318465137E+03  0.53618448059E+03  0.12699999809E+01 0.  1.
</event>
<event>
 5   0  0.7946038E-04  0.1108320E+04  0.7818609E-02  0.9197120E-01
        1   -1    0    0  501    0  0.00000000000E+00  0.00000000000E+00  0.18770930837E+04  0.18770930837E+04  0.50400001928E-02 0. -1.
       -1   -1    0    0    0  501  0.00000000000E+00  0.00000000000E+00 -0.16360050670E+03  0.16360050678E+03  0.50400001928E-02 0.  1.
    10030    2    1    2    0    0  0.00000000000E+00  0.00000000000E+00  0.17134925770E+04  0.20406935905E+04  0.11083201337E+04 0.  0.
        4    1    3    3  502    0  0.41148803404E+03 -0.34913186958E+03  0.62474667702E+03  0.82554556983E+03  0.12699999809E+01 0. -1.
       -4    1    3    3    0  502 -0.41148803404E+03  0.34913186958E+03  0.10887459000E+04  0.12151480207E+04  0.12699999809E+01 0.  1.
</event>
<event>
 5   0  0.8341767E-04  0.1085592E+04  0.7818609E-02  0.9219350E-01
        1   -1    0    0  501    0  0.00000000000E+00  0.00000000000E+00  0.19656170358E+04  0.19656170358E+04  0.50400001928E-02 0.  1.
       -1   -1    0    0    0  501  0.00000000000E+00  0.00000000000E+00 -0.14989051362E+03  0.14989051370E+03  0.50400001928E-02 0. -1.
    10030    2    1    2    0    0  0.00000000000E+00  0.00000000000E+00  0.18157265222E+04  0.21155075495E+04  0.10855917228E+04 0.  0.
        2    1    3    3  502    0 -0.13012239108E+03 -0.20771537984E+03  0.18516320673E+04  0.18677844705E+04  0.25500000920E-02 0.  1.
       -2    1    3    3    0  502  0.13012239108E+03  0.20771537984E+03 -0.35905545119E+02  0.24772307898E+03  0.25500000920E-02 0. -1.
</event>
<event>
 5   0  0.8341767E-04  0.1107980E+04  0.7818609E-02  0.9197449E-01
       -1   -1    0    0    0  501  0.00000000000E+00  0.00000000000E+00  0.29141965100E+03  0.29141965104E+03  0.50400001928E-02 0.  1.
        1   -1    0    0  501    0  0.00000000000E+00  0.00000000000E+00 -0.10531376011E+04  0.10531376011E+04  0.50400001928E-02 0. -1.
    10030    2    1    2    0    0  0.00000000000E+00  0.00000000000E+00 -0.76171795007E+03  0.13445572521E+04  0.11079801301E+04 0.  0.
        2    1    3    3  502    0  0.35729453232E+03 -0.38788674634E+03 -0.58676272117E+03  0.78892712070E+03  0.25500000920E-02 0. -1.
       -2    1    3    3    0  502 -0.35729453232E+03  0.38788674634E+03 -0.17495522890E+03  0.55563013142E+03  0.25500000920E-02 0.  1.
</event>
<event>
 5   0  0.1396936E-03  0.1098527E+04  0.7818609E-02  0.9206629E-01
       -2   -1    0    0    0  501  0.00000000000E+00  0.00000000000E+00  0.23939644429E+03  0.23939644430E+03  0.25500000920E-02 0.  1.
        2   -1    0    0  501    0  0.00000000000E+00  0.00000000000E+00 -0.12602114669E+04  0.12602114669E+04  0.25500000920E-02 0. -1.
    10030    2    1    2    0    0  0.00000000000E+00  0.00000000000E+00 -0.10208150226E+04  0.14996079112E+04  0.10985265481E+04 0.  0.
        2    1    3    3  502    0  0.99338523772E+02  0.27413056062E+02 -0.12468965397E+04  0.12511477125E+04  0.25500000920E-02 0. -1.
       -2    1    3    3    0  502 -0.99338523772E+02 -0.27413056062E+02  0.22608151707E+03  0.24846019865E+03  0.25500000920E-02 0.  1.
</event>
<event>
 5   0  0.8009636E-04  0.1100304E+04  0.7818609E-02  0.9204896E-01
       -1   -1    0    0    0  501  0.00000000000E+00  0.00000000000E+00  0.43236665172E+03  0.43236665175E+03  0.50400001928E-02 0.  1.
        1   -1    0    0  501    0  0.00000000000E+00  0.00000000000E+00 -0.70002416420E+03  0.70002416422E+03  0.50400001928E-02 0. -1.
    10030    2    1    2    0    0  0.00000000000E+00  0.00000000000E+00 -0.26765751248E+03  0.11323908160E+04  0.11003037836E+04 0.  0.
        1    1    3    3  502    0  0.29508939301E+03 -0.71684744150E+01 -0.61162818183E+03  0.67913045118E+03  0.50400001928E-02 0. -1.
       -1    1    3    3    0  502 -0.29508939301E+03  0.71684744150E+01  0.34397066935E+03  0.45326036479E+03  0.50400001928E-02 0.  1.
</event>
<event>
 5   0  0.8341767E-04  0.1130862E+04  0.7818609E-02  0.9175623E-01
        1   -1    0    0  501    0  0.00000000000E+00  0.00000000000E+00  0.10582953394E+04  0.10582953394E+04  0.50400001928E-02 0. -1.
       -1   -1    0    0    0  501  0.00000000000E+00  0.00000000000E+00 -0.30210098078E+03  0.30210098082E+03  0.50400001928E-02 0.  1.
    10030    2    1    2    0    0  0.00000000000E+00  0.00000000000E+00  0.75619435862E+03  0.13603963202E+04  0.11308617246E+04 0.  0.
        2    1    3    3  502    0 -0.49938718667E+03 -0.14877833799E+03  0.11401921022E+03  0.53340691444E+03  0.25500000920E-02 0.  1.
       -2    1    3    3    0  502  0.49938718667E+03  0.14877833799E+03  0.64217514840E+03  0.82698940579E+03  0.25500000920E-02 0. -1.
</event>
<event>
 5   0  0.8150924E-04  0.1098518E+04  0.7818609E-02  0.9206637E-01
       -1   -1    0    0    0  501  0.00000000000E+00  0.00000000000E+00  0.51818247487E+03  0.51818247490E+03  0.50400001928E-02 0.  1.
        1   -1    0    0  501    0  0.00000000000E+00  0.00000000000E+00 -0.58219958841E+03  0.58219958843E+03  0.50400001928E-02 0. -1.
    10030    2    1    2    0    0  0.00000000000E+00  0.00000000000E+00 -0.64017113532E+02  0.11003820633E+04  0.10985183178E+04 0.  0.
        3    1    3    3  502    0  0.47450318141E+03  0.10591302631E+03  0.22399259388E+03  0.53529760940E+03  0.10100000352E+00 0.  1.
       -3    1    3    3    0  502 -0.47450318141E+03 -0.10591302631E+03 -0.28800970741E+03  0.56508445393E+03  0.10100000352E+00 0. -1.
</event>
<event>
 5   0  0.7946038E-04  0.1104330E+04  0.7818609E-02  0.9200982E-01
        1   -1    0    0  501    0  0.00000000000E+00  0.00000000000E+00  0.19151064736E+04  0.19151064736E+04  0.50400001928E-02 0.  1.
       -1   -1    0    0    0  501  0.00000000000E+00  0.00000000000E+00 -0.15920071556E+03  0.15920071563E+03  0.50400001928E-02 0. -1.
    10030    2    1    2    0    0  0.00000000000E+00  0.00000000000E+00  0.17559057580E+04  0.20743071892E+04  0.11043302424E+04 0.  0.
        4    1    3    3  502    0  0.23270930944E+03 -0.32984497759E+03  0.15855993965E+04  0.16361779827E+04  0.12699999809E+01 0.  1.
       -4    1    3    3    0  502 -0.23270930944E+03  0.32984497759E+03  0.17030636152E+03  0.43812920654E+03  0.12699999809E+01 0. -1.
</event>
<event>
 5   0  0.1372794E-03  0.1098977E+04  0.7818609E-02  0.9206189E-01
        2   -1    0    0  501    0  0.00000000000E+00  0.00000000000E+00  0.44979248795E+03  0.44979248796E+03  0.25500000920E-02 0.  1.
       -2   -1    0    0    0  501  0.00000000000E+00  0.00000000000E+00 -0.67128256819E+03  0.67128256820E+03  0.25500000920E-02 0. -1.
    10030    2    1    2    0    0  0.00000000000E+00  0.00000000000E+00 -0.22149008024E+03  0.11210750562E+04  0.10989774456E+04 0.  0.
        4    1    3    3  502    0  0.39454492366E+03 -0.11698267954E+03 -0.48218967387E+03  0.63392360627E+03  0.12699999809E+01 0. -1.
       -4    1    3    3    0  502 -0.39454492366E+03  0.11698267954E+03  0.26069959363E+03  0.48715144988E+03  0.12699999809E+01 0.  1.
</event>
<event>
 5   0  0.1396936E-03  0.1098409E+04  0.7818609E-02  0.9206744E-01
        2   -1    0    0  501    0  0.00000000000E+00  0.00000000000E+00  0.10344118471E+04  0.10344118472E+04  0.25500000920E-02 0. -1.
       -2   -1    0    0    0  501  0.00000000000E+00  0.00000000000E+00 -0.29159145652E+03  0.29159145653E+03  0.25500000920E-02 0.  1.
    10030    2    1    2    0    0  0.00000000000E+00  0.00000000000E+00  0.74282039063E+03  0.13260033037E+04  0.10984091354E+04 0.  0.
        2    1    3    3  502    0 -0.30637485535E+03  0.37543816686E+03  0.59385375793E+02  0.48820691514E+03  0.25500000920E-02 0.  1.
       -2    1    3    3    0  502  0.30637485535E+03 -0.37543816686E+03  0.68343501484E+03  0.83779638854E+03  0.25500000920E-02 0. -1.
</event>
<event>
 5   0  0.1402775E-03  0.1095781E+04  0.7818609E-02  0.9209314E-01
       -2   -1    0    0    0  501  0.00000000000E+00  0.00000000000E+00  0.17301679717E+03  0.17301679719E+03  0.25500000920E-02 0.  1.
        2   -1    0    0  501    0  0.00000000000E+00  0.00000000000E+00 -0.17349983193E+04  0.17349983193E+04  0.25500000920E-02 0. -1.
    10030    2    1    2    0    0  0.00000000000E+00  0.00000000000E+00 -0.15619815221E+04  0.19080151165E+04  0.10957807305E+04 0.  0.
        5    1    3    3  502    0 -0.13520702022E+03  0.15421987767E+03  0.10361482044E+03  0.22983217790E+03  0.46999998093E+01 0.  1.
       -5    1    3    3    0  502  0.13520702022E+03 -0.15421987767E+03 -0.16655963426E+04  0.16781829386E+04  0.46999998093E+01 0. -1.
</event>
<event>
 5   0  0.1429680E-03  0.1102601E+04  0.7818609E-02  0.9202661E-01
       -2   -1    0    0    0  501  0.00000000000E+00  0.00000000000E+00  0.12254141776E+04  0.12254141776E+04  0.25500000920E-02 0. -1.
        2   -1    0    0  501    0  0.00000000000E+00  0.00000000000E+00 -0.24802392609E+03  0.24802392611E+03  0.25500000920E-02 0.  1.
    10030    2    1    2    0    0  0.00000000000E+00  0.00000000000E+00  0.97739025148E+03  0.14734381037E+04  0.11026006266E+04 0.  0.
        3    1    3    3  502    0 -0.21768474637E+03 -0.36720411407E+03  0.22496944156E+02  0.42747120709E+03  0.10100000352E+00 0.  1.
       -3    1    3    3    0  502  0.21768474637E+03  0.36720411407E+03  0.95489330733E+03  0.10459668966E+04  0.10100000352E+00 0. -1.
</event>
<event>
 5   0  0.1425432E-03  0.1108598E+04  0.7818609E-02  0.9196852E-01
       -2   -1    0    0    0  501  0.00000000000E+00  0.00000000000E+00  0.15578901679E+03  0.15578901681E+03  0.25500000920E-02 0. -1.
        2   -1    0    0  501    0  0.00000000000E+00  0.00000000000E+00 -0.19722024399E+04  0.19722024399E+04  0.25500000920E-02 0.  1.
    10030    2    1    2    0    0  0.00000000000E+00  0.00000000000E+00 -0.18164134231E+04  0.21279914567E+04  0.11085981761E+04 0.  0.
        1    1    3    3  502    0  0.30739204928E+03 -0.46010338513E+03 -0.84563810000E+03  0.10105883401E+04  0.50400001928E-02 0.  1.
       -1    1    3    3    0  502 -0.30739204928E+03  0.46010338513E+03 -0.97077532307E+03  0.11174031166E+04  0.50400001928E-02 0. -1.
</event>
<event>
 5   0  0.8150924E-04  0.1104598E+04  0.7818609E-02  0.9200722E-01
       -1   -1    0    0    0  501  0.00000000000E+00  0.00000000000E+00  0.68656964742E+03  0.68656964744E+03  0.50400001928E-02 0.  1.
        1   -1    0    0  501    0  0.00000000000E+00  0.00000000000E+00 -0.44428735082E+03  0.44428735085E+03  0.50400001928E-02 0. -1.
    10030    2    1    2    0    0  0.00000000000E+00  0.00000000000E+00  0.24228229660E+03  0.11308569983E+04  0.11045980442E+04 0.  0.
        3    1    3    3  502    0  0.26994134288E+03  0.23005009425E+03 -0.31229418355E+03  0.47256644162E+03  0.10100000352E+00 0. -1.
       -3    1    3    3    0  502 -0.26994134288E+03 -0.23005009425E+03  0.55457648015E+03  0.65829055667E+03  0.10100000352E+00 0.  1.
</event>
<event>
 5   0  0.8150924E-04  0.1099086E+04  0.7818609E-02  0.9206083E-01
       -1   -1    0    0    0  501  0.00000000000E+00  0.00000000000E+00  0.55110909063E+03  0.55110909065E+03  0.50400001928E-02 0. -1.
        1   -1    0    0  501    0  0.00000000000E+00  0.00000000000E+00 -0.54798185313E+03  0.54798185315E+03  0.50400001928E-02 0.  1.
    10030    2    1    2    0    0  0.00000000000E+00  0.00000000000E+00  0.31272375045E+01  0.10990909438E+04  0.10990864948E+04 0.  0.
        3    1    3    3  502    0 -0.34620650123E+03  0.28037191668E+03 -0.32019911306E+03  0.54862996214E+03  0.10100000352E+00 0.  1.
       -3    1    3    3    0  502  0.34620650123E+03 -0.28037191668E+03  0.32332635056E+03  0.55046098166E+03  0.10100000352E+00 0. -1.
</event>
<event>
 5   0  0.1402775E-03  0.1099709E+04  0.7818609E-02  0.9205475E-01
       -2   -1    0    0    0  501  0.00000000000E+00  0.00000000000E+00  0.42498573598E+03  0.42498573598E+03  0.25500000920E-02 0. -1.
        2   -1    0    0  501    0  0.00000000000E+00  0.00000000000E+00 -0.71141224875E+03  0.71141224876E+03  0.25500000920E-02 0.  1.
    10030    2    1    2    0    0  0.00000000000E+00  0.00000000000E+00 -0.28642651278E+03  0.11363979847E+04  0.10997091581E+04 0.  0.
        5    1    3    3  502    0 -0.29658612916E+01  0.54981491989E+03 -0.14689957410E+03  0.56912812032E+03  0.46999998093E+01 0. -1.
       -5    1    3    3    0  502  0.29658612916E+01 -0.54981491989E+03 -0.13952693868E+03  0.56726986442E+03  0.46999998093E+01 0.  1.
</event>
<event>
 5   0  0.7946038E-04  0.1102017E+04  0.7818609E-02  0.9203228E-01
        1   -1    0    0  501    0  0.00000000000E+00  0.00000000000E+00  0.66806351051E+03  0.66806351053E+03  0.50400001928E-02 0.  1.
       -1   -1    0    0    0  501  0.00000000000E+00  0.00000000000E+00 -0.45446332865E+03  0.45446332867E+03  0.50400001928E-02 0. -1.
    10030    2    1    2    0    0  0.00000000000E+00  0.00000000000E+00  0.21360018186E+03  0.11225268392E+04  0.11020169994E+04 0.  0.
        4    1    3    3  502    0 -0.38591333305E+03  0.36633571315E+03  0.25256402207E+03  0.58900013031E+03  0.12699999809E+01 0.  1.
       -4    1    3    3    0  502  0.38591333305E+03 -0.36633571315E+03 -0.38963840208E+02  0.53352670889E+03  0.12699999809E+01 0. -1.
</event>
<event>
 5   0  0.1425432E-03  0.1104465E+04  0.7818609E-02  0.9200850E-01
       -2   -1    0    0    0  501  0.00000000000E+00  0.00000000000E+00  0.23181702486E+03  0.23181702488E+03  0.25500000920E-02 0. -1.
        2   -1    0    0  501    0  0.00000000000E+00  0.00000000000E+00 -0.13155244207E+04  0.13155244207E+04  0.25500000920E-02 0.  1.
    10030    2    1    2    0    0  0.00000000000E+00  0.00000000000E+00 -0.10837073959E+04  0.15473414456E+04  0.11044654044E+04 0.  0.
        1    1    3    3  502    0 -0.32727955314E+03  0.80388628430E+01  0.81206615750E+02  0.33729963488E+03  0.50400001928E-02 0. -1.
       -1    1    3    3    0  502  0.32727955314E+03 -0.80388628430E+01 -0.11649140116E+04  0.12100418107E+04  0.50400001928E-02 0.  1.
</event>
<event>
 5   0  0.1429680E-03  0.1102257E+04  0.7818609E-02  0.9202995E-01
       -2   -1    0    0    0  501  0.00000000000E+00  0.00000000000E+00  0.21697066045E+03  0.21697066046E+03  0.25500000920E-02 0.  1.
        2   -1    0    0  501    0  0.00000000000E+00  0.00000000000E+00 -0.13999242102E+04  0.13999242102E+04  0.25500000920E-02 0. -1.
    10030    2    1    2    0    0  0.00000000000E+00  0.00000000000E+00 -0.11829535498E+04  0.16168948707E+04  0.11022567405E+04 0.  0.
        3    1    3    3  502    0 -0.50206840081E+03 -0.11547381162E+03 -0.87868713131E+03  0.10185764405E+04  0.10100000352E+00 0. -1.
       -3    1    3    3    0  502  0.50206840081E+03  0.11547381162E+03 -0.30426641847E+03  0.59831843016E+03  0.10100000352E+00 0.  1.
</event>
<event>
 5   0  0.8009636E-04  0.1101785E+04  0.7818609E-02  0.9203453E-01
       -1   -1    0    0    0  501  0.00000000000E+00  0.00000000000E+00  0.39302741994E+03  0.39302741998E+03  0.50400001928E-02 0.  1.
        1   -1    0    0  501    0  0.00000000000E+00  0.00000000000E+00 -0.77216695835E+03  0.77216695837E+03  0.50400001928E-02 0. -1.
    10030    2    1    2    0    0  0.00000000000E+00  0.00000000000E+00 -0.37913953841E+03  0.11651943783E+04  0.11017854373E+04 0.  0.
        1    1    3    3  502    0  0.24631364308E+03 -0.40326444410E+03  0.10990614940E+03  0.48515150658E+03  0.50400001928E-02 0.  1.
       -1    1    3    3    0  502 -0.24631364308E+03  0.40326444410E+03 -0.48904568781E+03  0.68004287176E+03  0.50400001928E-02 0. -1.
</event>
<event>
 5   0  0.1429680E-03  0.1094243E+04  0.7818609E-02  0.9210822E-01
        2   -1    0    0  501    0  0.00000000000E+00  0.00000000000E+00  0.98305839648E+03  0.98305839648E+03  0.25500000920E-02 0.  1.
       -2   -1    0    0    0  501  0.00000000000E+00  0.00000000000E+00 -0.30450045278E+03  0.30450045279E+03  0.25500000920E-02 0. -1.
    10030    2    1    2    0    0  0.00000000000E+00  0.00000000000E+00  0.67855794370E+03  0.12875588493E+04  0.10942426181E+04 0.  0.
        3    1    3    3  502    0  0.24786738595E+03 -0.41969971990E+03  0.63168862678E+03  0.79788258992E+03  0.10100000352E+00 0. -1.
       -3    1    3    3    0  502 -0.24786738595E+03  0.41969971990E+03  0.46869316921E+02  0.48967625935E+03  0.10100000352E+00 0.  1.
</event>
<event>
 5   0  0.1425432E-03  0.1101127E+04  0.7818609E-02  0.9204094E-01
        2   -1    0    0  501    0  0.00000000000E+00  0.00000000000E+00  0.97348786566E+03  0.97348786566E+03  0.25500000920E-02 0.  1.
       -2   -1    0    0    0  501  0.00000000000E+00  0.00000000000E+00 -0.31137521697E+03  0.31137521698E+03  0.25500000920E-02 0. -1.
    10030    2    1    2    0    0  0.00000000000E+00  0.00000000000E+00  0.66211264869E+03  0.12848630826E+04  0.11011266873E+04 0.  0.
        1    1    3    3  502    0  0.99512210646E+01 -0.52205601811E+03  0.53476814609E+03  0.74740784244E+03  0.50400001928E-02 0. -1.
       -1    1    3    3    0  502 -0.99512210646E+01  0.52205601811E+03  0.12734450260E+03  0.53745524020E+03  0.50400001928E-02 0.  1.
</event>
<event>
 5   0  0.8341767E-04  0.1104174E+04  0.7818609E-02  0.9201134E-01
       -1   -1    0    0    0  501  0.00000000000E+00  0.00000000000E+00  0.32747867386E+03  0.32747867390E+03  0.50400001928E-02 0. -1.
        1   -1    0    0  501    0  0.00000000000E+00  0.00000000000E+00 -0.93074714453E+03  0.93074714455E+03  0.50400001928E-02 0.  1.
    10030    2    1    2    0    0  0.00000000000E+00  0.00000000000E+00 -0.60326847068E+03  0.12582258184E+04  0.11041736107E+04 0.  0.
        2    1    3    3  502    0 -0.27618453345E+03 -0.32658917404E+03 -0.69942473758E+03  0.81983739160E+03  0.25500000920E-02 0.  1.
       -2    1    3    3    0  502  0.27618453345E+03  0.32658917404E+03  0.96156266902E+02  0.43838842684E+03  0.25500000920E-02 0. -1.
</event>
<event>
 5   0  0.1372794E-03  0.1086586E+04  0.7818609E-02  0.9218365E-01
        2   -1    0    0  501    0  0.00000000000E+00  0.00000000000E+00  0.10941208852E+04  0.10941208852E+04  0.25500000920E-02 0. -1.
       -2   -1    0    0    0  501  0.00000000000E+00  0.00000000000E+00 -0.26977582289E+03  0.26977582290E+03  0.25500000920E-02 0.  1.
    10030    2    1    2    0    0  0.00000000000E+00  0.00000000000E+00  0.82434506232E+03  0.13638967081E+04  0.10865861441E+04 0.  0.
        4    1    3    3  502    0 -0.22732447151E+03  0.40016989576E+03  0.49780242253E+02  0.46291688913E+03  0.12699999809E+01 0.  1.
       -4    1    3    3    0  502  0.22732447151E+03 -0.40016989576E+03  0.77456482007E+03  0.90097981898E+03  0.12699999809E+01 0. -1.
</event>
<event>
 5   0  0.1396936E-03  0.1099773E+04  0.7818609E-02  0.9205413E-01
        2   -1    0    0  501    0  0.00000000000E+00  0.00000000000E+00  0.83857455974E+03  0.83857455974E+03  0.25500000920E-02 0.  1.
       -2   -1    0    0    0  501  0.00000000000E+00  0.00000000000E+00 -0.36058251391E+03  0.36058251392E+03  0.25500000920E-02 0. -1.
    10030    2    1    2    0    0  0.00000000000E+00  0.00000000000E+00  0.47799204583E+03  0.11991570737E+04  0.10997732909E+04 0.  0.
        2    1    3    3  502    0  0.15202472360E+02  0.75399554387E+02  0.83267997447E+03  0.83622493855E+03  0.25500000920E-02 0.  1.
       -2    1    3    3    0  502 -0.15202472360E+02 -0.75399554387E+02 -0.35468792864E+03  0.36293213511E+03  0.25500000920E-02 0. -1.
</event>
<event>
 5   0  0.8150924E-04  0.1098369E+04  0.7818609E-02  0.9206783E-01
        1   -1    0    0  501    0  0.00000000000E+00  0.00000000000E+00  0.99530463705E+03  0.99530463706E+03  0.50400001928E-02 0. -1.
       -1   -1    0    0    0  501  0.00000000000E+00  0.00000000000E+00 -0.30302650933E+03  0.30302650937E+03  0.50400001928E-02 0.  1.
    10030    2    1    2    0    0  0.00000000000E+00  0.00000000000E+00  0.69227812772E+03  0.12983311464E+04  0.10983691363E+04 0.  0.
        3    1    3    3  502    0 -0.35802573527E+02 -0.14161200669E+03 -0.27964403664E+03  0.31549418717E+03  0.10100000352E+00 0.  1.
       -3    1    3    3    0  502  0.35802573527E+02  0.14161200669E+03  0.97192216436E+03  0.98283695926E+03  0.10100000352E+00 0. -1.
</event>
<event>
 5   0  0.7946038E-04  0.1104906E+04  0.7818609E-02  0.9200423E-01
       -1   -1    0    0    0  501  0.00000000000E+00  0.00000000000E+00  0.22874353950E+03  0.22874353955E+03  0.50400001928E-02 0.  1.
        1   -1    0    0  501    0  0.00000000000E+00  0.00000000000E+00 -0.13342640198E+04  0.13342640198E+04  0.50400001928E-02 0. -1.
    10030    2    1    2    0    0  0.00000000000E+00  0.00000000000E+00 -0.11055204803E+04  0.15630075593E+04  0.11049059228E+04 0.  0.
        4    1    3    3  502    0 -0.35302814558E+03  0.17756754695E+03 -0.10988856445E+04  0.11677801068E+04  0.12699999809E+01 0. -1.
       -4    1    3    3    0  502  0.35302814558E+03 -0.17756754695E+03 -0.66348358161E+01  0.39522745255E+03  0.12699999809E+01 0.  1.
</event>
<event>
 5   0  0.8305271E-04  0.1089969E+04  0.7818609E-02  0.9215024E-01
       -1   -1    0    0    0  501  0.00000000000E+00  0.00000000000E+00  0.17011953443E+04  0.17011953443E+04  0.50400001928E-02 0.  1.
        1   -1    0    0  501    0  0.00000000000E+00  0.00000000000E+00 -0.17458791457E+03  0.17458791464E+03  0.50400001928E-02 0. -1.
    10030    2    1    2    0    0  0.00000000000E+00  0.00000000000E+00  0.15266074297E+04  0.18757832589E+04  0.10899690776E+04 0.  0.
        5    1    3    3  502    0 -0.30759493365E+03  0.38270625967E+03  0.11702179343E+04  0.12690590326E+04  0.46999998093E+01 0.  1.
       -5    1    3    3    0  502  0.30759493365E+03 -0.38270625967E+03  0.35638949538E+03  0.60672422633E+03  0.46999998093E+01 0. -1.
</event>
<event>
 5   0  0.7946038E-04  0.1095306E+04  0.7818609E-02  0.9209779E-01
       -1   -1    0    0    0  501  0.00000000000E+00  0.00000000000E+00  0.62866237958E+03  0.62866237960E+03  0.50400001928E-02 0. -1.
        1   -1    0    0  501    0  0.00000000000E+00  0.00000000000E+00 -0.47708217926E+03  0.47708217929E+03  0.50400001928E-02 0.  1.
    10030    2    1    2    0    0  0.00000000000E+00  0.00000000000E+00  0.15158020032E+03  0.11057445589E+04  0.10953056525E+04 0.  0.
        4    1    3    3  502    0 -0.18341234927E+01 -0.15320783736E+03 -0.45500222790E+03  0.48010899359E+03  0.12699999809E+01 0.  1.
       -4    1    3    3    0  502  0.18341234927E+01  0.15320783736E+03  0.60658242821E+03  0.62563556529E+03  0.12699999809E+01 0. -1.
</event>
<event>
 5   0  0.8009636E-04  0.1106690E+04  0.7818609E-02  0.9198695E-01
       -1   -1    0    0    0  501  0.00000000000E+00  0.00000000000E+00  0.35827246469E+03  0.35827246473E+03  0.50400001928E-02 0.  1.
        1   -1    0    0  501    0  0.00000000000E+00  0.00000000000E+00 -0.85463136916E+03  0.85463136917E+03  0.50400001928E-02 0. -1.
    10030    2    1    2    0    0  0.00000000000E+00  0.00000000000E+00 -0.49635890446E+03  0.12129038339E+04  0.11066903579E+04 0.  0.
        1    1    3    3  502    0 -0.30659844275E+03 -0.43163359109E+03 -0.71864776952E+02  0.53429833262E+03  0.50400001928E-02 0.  1.
       -1    1    3    3    0  502  0.30659844275E+03  0.43163359109E+03 -0.42449412751E+03  0.67860550128E+03  0.50400001928E-02 0. -1.
</event>
<event>
 5   0  0.1402775E-03  0.1098060E+04  0.7818609E-02  0.9207085E-01
        2   -1    0    0  501    0  0.00000000000E+00  0.00000000000E+00  0.36105538853E+03  0.36105538854E+03  0.25500000920E-02 0. -1.
       -2   -1    0    0    0  501  0.00000000000E+00  0.00000000000E+00 -0.83486901005E+03  0.83486901005E+03  0.25500000920E-02 0.  1.
    10030    2    1    2    0    0  0.00000000000E+00  0.00000000000E+00 -0.47381362151E+03  0.11959243986E+04  0.10980600253E+04 0.  0.
        5    1    3    3  502    0  0.20449232678E+00  0.16444929571E+03 -0.80739226167E+03  0.82398298944E+03  0.46999998093E+01 0.  1.
       -5    1    3    3    0  502 -0.20449232678E+00 -0.16444929571E+03  0.33357864016E+03  0.37194140916E+03  0.46999998093E+01 0. -1.
</event>
<event>
 5   0  0.7946038E-04  0.1102893E+04  0.7818609E-02  0.9202376E-01
        1   -1    0    0  501    0  0.00000000000E+00  0.00000000000E+00  0.10149600118E+04  0.10149600118E+04  0.50400001928E-02 0.  1.
       -1   -1    0    0    0  501  0.00000000000E+00  0.00000000000E+00 -0.29961131422E+03  0.29961131426E+03  0.50400001928E-02 0. -1.
    10030    2    1    2    0    0  0.00000000000E+00  0.00000000000E+00  0.71534869762E+03  0.13145713261E+04  0.11028934728E+04 0.  0.
        4    1    3    3  502    0  0.99144638577E+02  0.13125252923E+03 -0.26968722180E+03  0.31589507164E+03  0.12699999809E+01 0. -1.
       -4    1    3    3    0  502 -0.99144638577E+02 -0.13125252923E+03  0.98503591942E+03  0.99867625446E+03  0.12699999809E+01 0.  1.
</event>
<event>
 5   0  0.5409500E-04  0.1103607E+04  0.7818609E-02  0.9201683E-01
        4   -1    0    0  501    0  0.00000000000E+00  0.00000000000E+00  0.76506454562E+03  0.76506559972E+03  0.12699999809E+01 0. -1.
       -4   -1    0    0    0  501  0.00000000000E+00  0.00000000000E+00 -0.39798663242E+03  0.39798865874E+03  0.12699999809E+01 0.  1.
    10030    2    1    2    0    0  0.00000000000E+00  0.00000000000E+00  0.36707791320E+03  0.11630542585E+04  0.11036072733E+04 0.  0.
        2    1    3    3  502    0 -0.28960481368E+03 -0.46899001893E+03  0.15636908207E+03  0.57295189658E+03  0.25500000920E-02 0. -1.
       -2    1    3    3    0  502  0.28960481368E+03  0.46899001893E+03  0.21070883113E+03  0.59010236187E+03  0.25500000920E-02 0.  1.
</event>
<event>
 5   0  0.1429680E-03  0.1102233E+04  0.7818609E-02  0.9203018E-01
       -2   -1    0    0    0  501  0.00000000000E+00  0.00000000000E+00  0.18598823414E+04  0.18598823414E+04  0.25500000920E-02 0. -1.
        2   -1    0    0  501    0  0.00000000000E+00  0.00000000000E+00 -0.16330562866E+03  0.16330562868E+03  0.25500000920E-02 0.  1.
    10030    2    1    2    0    0  0.00000000000E+00  0.00000000000E+00  0.16965767127E+04  0.20231879701E+04  0.11022327432E+04 0.  0.
        3    1    3    3  502    0 -0.12324784523E+03  0.27338094988E+02  0.18329843374E+04  0.18373265888E+04  0.10100000352E+00 0. -1.
       -3    1    3    3    0  502  0.12324784523E+03 -0.27338094988E+02 -0.13640762462E+03  0.18586138127E+03  0.10100000352E+00 0.  1.
</event>
<event>
 5   0  0.1429680E-03  0.1103432E+04  0.7818609E-02  0.9201853E-01
        2   -1    0    0  501    0  0.00000000000E+00  0.00000000000E+00  0.16670324306E+04  0.16670324306E+04  0.25500000920E-02 0. -1.
       -2   -1    0    0    0  501  0.00000000000E+00  0.00000000000E+00 -0.18259436831E+03  0.18259436833E+03  0.25500000920E-02 0.  1.
    10030    2    1    2    0    0  0.00000000000E+00  0.00000000000E+00  0.14844380622E+04  0.18496267989E+04  0.11034323425E+04 0.  0.
        3    1    3    3  502    0 -0.99036659418E+02 -0.25757607431E+03 -0.58594592778E+02  0.28211173401E+03  0.10100000352E+00 0.  1.
       -3    1    3    3    0  502  0.99036659418E+02  0.25757607431E+03  0.15430326550E+04  0.15675150649E+04  0.10100000352E+00 0. -1.
</event>
<event>
 5   0  0.8305271E-04  0.1097213E+04  0.7818609E-02  0.9207912E-01
        1   -1    0    0  501    0  0.00000000000E+00  0.00000000000E+00  0.76269213264E+03  0.76269213266E+03  0.50400001928E-02 0. -1.
       -1   -1    0    0    0  501  0.00000000000E+00  0.00000000000E+00 -0.39461432608E+03  0.39461432612E+03  0.50400001928E-02 0.  1.
    10030    2    1    2    0    0  0.00000000000E+00  0.00000000000E+00  0.36807780656E+03  0.11573064588E+04  0.10972132736E+04 0.  0.
        5    1    3    3  502    0  0.52346062862E+03 -0.13391416150E+02  0.35657276661E+03  0.63352710095E+03  0.46999998093E+01 0. -1.
       -5    1    3    3    0  502 -0.52346062862E+03  0.13391416150E+02  0.11505039947E+02  0.52377935783E+03  0.46999998093E+01 0.  1.
</event>
<event>
 5   0  0.1402775E-03  0.1098406E+04  0.7818609E-02  0.9206747E-01
       -2   -1    0    0    0  501  0.00000000000E+00  0.00000000000E+00  0.12507904189E+03  0.12507904191E+03  0.25500000920E-02 0.  1.
        2   -1    0    0  501    0  0.00000000000E+00  0.00000000000E+00 -0.24114649746E+04  0.24114649746E+04  0.25500000920E-02 0. -1.
    10030    2    1    2    0    0  0.00000000000E+00  0.00000000000E+00 -0.22863859327E+04  0.25365440165E+04  0.10984056238E+04 0.  0.
        5    1    3    3  502    0  0.24280921767E+03  0.12608016698E+03 -0.43548091340E+02  0.27707589384E+03  0.46999998093E+01 0.  1.
       -5    1    3    3    0  502 -0.24280921767E+03 -0.12608016698E+03 -0.22428378414E+04  0.22594681227E+04  0.46999998093E+01 0. -1.
</event>
<event>
 5   0  0.1429680E-03  0.1102729E+04  0.7818609E-02  0.9202536E-01
        2   -1    0    0  501    0  0.00000000000E+00  0.00000000000E+00  0.87320074384E+03  0.87320074385E+03  0.25500000920E-02 0.  1.
       -2   -1    0    0    0  501  0.00000000000E+00  0.00000000000E+00 -0.34814798886E+03  0.34814798887E+03  0.25500000920E-02 0. -1.
    10030    2    1    2    0    0  0.00000000000E+00  0.00000000000E+00  0.52505275499E+03  0.12213487327E+04  0.11027294915E+04 0.  0.
        3    1    3    3  502    0  0.37676166946E+03  0.10599293979E+03 -0.16760292800E+03  0.42576356177E+03  0.10100000352E+00 0. -1.
       -3    1    3    3    0  502 -0.37676166946E+03 -0.10599293979E+03  0.69265568298E+03  0.79558517094E+03  0.10100000352E+00 0.  1.
</event>
<event>
 5   0  0.8150924E-04  0.1101383E+04  0.7818609E-02  0.9203845E-01
        1   -1    0    0  501    0  0.00000000000E+00  0.00000000000E+00  0.94000084117E+03  0.94000084119E+03  0.50400001928E-02 0.  1.
       -1   -1    0    0    0  501  0.00000000000E+00  0.00000000000E+00 -0.32261815884E+03  0.32261815888E+03  0.50400001928E-02 0. -1.
    10030    2    1    2    0    0  0.00000000000E+00  0.00000000000E+00  0.61738268234E+03  0.12626190001E+04  0.11013833860E+04 0.  0.
        3    1    3    3  502    0 -0.47389876793E+03  0.22847537588E+03  0.12214137475E+03  0.54009218218E+03  0.10100000352E+00 0. -1.
       -3    1    3    3    0  502  0.47389876793E+03 -0.22847537588E+03  0.49524130758E+03  0.72252681788E+03  0.10100000352E+00 0.  1.
</event>
<event>
 5   0  0.8150924E-04  0.1114186E+04  0.7818609E-02  0.9191474E-01
       -1   -1    0    0    0  501  0.00000000000E+00  0.00000000000E+00  0.26327812009E+03  0.26327812014E+03  0.50400001928E-02 0. -1.
        1   -1    0    0  501    0  0.00000000000E+00  0.00000000000E+00 -0.11788017460E+04  0.11788017460E+04  0.50400001928E-02 0.  1.
    10030    2    1    2    0    0  0.00000000000E+00  0.00000000000E+00 -0.91552362590E+03  0.14420798661E+04  0.11141861742E+04 0.  0.
        3    1    3    3  502    0  0.38207492804E+03 -0.40429252747E+03 -0.49699820697E+03  0.74594968083E+03  0.10100000352E+00 0. -1.
       -3    1    3    3    0  502 -0.38207492804E+03  0.40429252747E+03 -0.41852541893E+03  0.69613018530E+03  0.10100000352E+00 0.  1.
</event>
<event>
 5   0  0.7946038E-04  0.1097515E+04  0.7818609E-02  0.9207618E-01
        1   -1    0    0  501    0  0.00000000000E+00  0.00000000000E+00  0.51357180372E+03  0.51357180374E+03  0.50400001928E-02 0. -1.
       -1   -1    0    0    0  501  0.00000000000E+00  0.00000000000E+00 -0.58635358577E+03  0.58635358579E+03  0.50400001928E-02 0.  1.
    10030    2    1    2    0    0  0.00000000000E+00  0.00000000000E+00 -0.72781782055E+02  0.10999253895E+04  0.10975147720E+04 0.  0.
        4    1    3    3  502    0  0.82805567656E+02  0.45154025811E+03  0.26491491061E+03  0.53002536684E+03  0.12699999809E+01 0. -1.
       -4    1    3    3    0  502 -0.82805567656E+02 -0.45154025811E+03 -0.33769669266E+03  0.56990002269E+03  0.12699999809E+01 0.  1.
</event>
<event>
 5   0  0.1425432E-03  0.1095951E+04  0.7818609E-02  0.9209147E-01
       -2   -1    0    0    0  501  0.00000000000E+00  0.00000000000E+00  0.13613992779E+03  0.13613992781E+03  0.25500000920E-02 0. -1.
        2   -1    0    0  501    0  0.00000000000E+00  0.00000000000E+00 -0.22056508990E+04  0.22056508990E+04  0.25500000920E-02 0.  1.
    10030    2    1    2    0    0  0.00000000000E+00  0.00000000000E+00 -0.20695109712E+04  0.23417908268E+04  0.10959510101E+04 0.  0.
        1    1    3    3  502    0  0.39546867835E+03 -0.12365168556E+03 -0.26851722816E+03  0.49374762455E+03  0.50400001928E-02 0. -1.
       -1    1    3    3    0  502 -0.39546867835E+03  0.12365168556E+03 -0.18009937431E+04  0.18480432023E+04  0.50400001928E-02 0.  1.
</event>
<event>
 5   0  0.5409500E-04  0.1103544E+04  0.7818609E-02  0.9201745E-01
       -4   -1    0    0    0  501  0.00000000000E+00  0.00000000000E+00  0.57612974264E+03  0.57613114241E+03  0.12699999809E+01 0. -1.
        4   -1    0    0  501    0  0.00000000000E+00  0.00000000000E+00 -0.52844106880E+03  0.52844259489E+03  0.12699999809E+01 0.  1.
    10030    2    1    2    0    0  0.00000000000E+00  0.00000000000E+00  0.47688673837E+02  0.11045737373E+04  0.11035438059E+04 0.  0.
        2    1    3    3  502    0  0.43565217118E+03  0.31371223285E+03 -0.10372677541E+03  0.54677913570E+03  0.25500000920E-02 0.  1.
       -2    1    3    3    0  502 -0.43565217118E+03 -0.31371223285E+03  0.15141544925E+03  0.55779460160E+03  0.25500000920E-02 0. -1.
</event>
<event>
 5   0  0.1396936E-03  0.1084045E+04  0.7818609E-02  0.9220884E-01
       -2   -1    0    0    0  501  0.00000000000E+00  0.00000000000E+00  0.46369539159E+03  0.46369539160E+03  0.25500000920E-02 0. -1.
        2   -1    0    0  501    0  0.00000000000E+00  0.00000000000E+00 -0.63358016762E+03  0.63358016763E+03  0.25500000920E-02 0.  1.
    10030    2    1    2    0    0  0.00000000000E+00  0.00000000000E+00 -0.16988477603E+03  0.10972755592E+04  0.10840446558E+04 0.  0.
        2    1    3    3  502    0  0.68627367648E+02 -0.53109348342E+03 -0.16973956800E+03  0.56176643249E+03  0.25500000920E-02 0.  1.
       -2    1    3    3    0  502 -0.68627367648E+02  0.53109348342E+03 -0.14520803329E+00  0.53550912673E+03  0.25500000920E-02 0. -1.
</event>
<event>
 5   0  0.1429680E-03  0.1100049E+04  0.7818609E-02  0.9205144E-01
        2   -1    0    0  501    0  0.00000000000E+00  0.00000000000E+00  0.40515968183E+03  0.40515968183E+03  0.25500000920E-02 0.  1.
       -2   -1    0    0    0  501  0.00000000000E+00  0.00000000000E+00 -0.74668636975E+03  0.74668636975E+03  0.25500000920E-02 0. -1.
    10030    2    1    2    0    0  0.00000000000E+00  0.00000000000E+00 -0.34152668792E+03  0.11518460516E+04  0.11000494752E+04 0.  0.
        3    1    3    3  502    0 -0.15039166256E+03  0.14393721478E+03 -0.70384373099E+03  0.73398336617E+03  0.10100000352E+00 0. -1.
       -3    1    3    3    0  502  0.15039166256E+03 -0.14393721478E+03  0.36231704306E+03  0.41786268541E+03  0.10100000352E+00 0.  1.
</event>
<event>
 5   0  0.8341767E-04  0.1095579E+04  0.7818609E-02  0.9209511E-01
        1   -1    0    0  501    0  0.00000000000E+00  0.00000000000E+00  0.63162157314E+03  0.63162157316E+03  0.50400001928E-02 0.  1.
       -1   -1    0    0    0  501  0.00000000000E+00  0.00000000000E+00 -0.47508439362E+03  0.47508439365E+03  0.50400001928E-02 0. -1.
    10030    2    1    2    0    0  0.00000000000E+00  0.00000000000E+00  0.15653717952E+03  0.11067059668E+04  0.10955793939E+04 0.  0.
        2    1    3    3  502    0 -0.51724267972E+02 -0.45436767689E+03 -0.22637031827E+03  0.51026356592E+03  0.25500000920E-02 0. -1.
       -2    1    3    3    0  502  0.51724267972E+02  0.45436767689E+03  0.38290749780E+03  0.59644240089E+03  0.25500000920E-02 0.  1.
</event>
<event>
 5   0  0.8009636E-04  0.1096578E+04  0.7818609E-02  0.9208534E-01
        1   -1    0    0  501    0  0.00000000000E+00  0.00000000000E+00  0.12798108840E+04  0.12798108840E+04  0.50400001928E-02 0.  1.
       -1   -1    0    0    0  501  0.00000000000E+00  0.00000000000E+00 -0.23489463772E+03  0.23489463777E+03  0.50400001928E-02 0. -1.
    10030    2    1    2    0    0  0.00000000000E+00  0.00000000000E+00  0.10449162463E+04  0.15147055218E+04  0.10965777929E+04 0.  0.
        1    1    3    3  502    0 -0.13847473030E+03 -0.45464770271E+03  0.90008944528E+03  0.10178608913E+04  0.50400001928E-02 0.  1.
       -1    1    3    3    0  502  0.13847473030E+03  0.45464770271E+03  0.14482680099E+03  0.49684463047E+03  0.50400001928E-02 0. -1.
</event>
<event>
 5   0  0.1429680E-03  0.1108642E+04  0.7818609E-02  0.9196809E-01
       -2   -1    0    0    0  501  0.00000000000E+00  0.00000000000E+00  0.18306282820E+03  0.18306282822E+03  0.25500000920E-02 0. -1.
        2   -1    0    0  501    0  0.00000000000E+00  0.00000000000E+00 -0.16785044557E+04  0.16785044557E+04  0.25500000920E-02 0.  1.
    10030    2    1    2    0    0  0.00000000000E+00  0.00000000000E+00 -0.14954416275E+04  0.18615672839E+04  0.11086420032E+04 0.  0.
        3    1    3    3  502    0 -0.25463305183E+02 -0.49762547557E+03 -0.33988537723E+03  0.60315965855E+03  0.10100000352E+00 0. -1.
       -3    1    3    3    0  502  0.25463305183E+02  0.49762547557E+03 -0.11555562503E+04  0.12584076254E+04  0.10100000352E+00 0.  1.
</event>
<event>
 5   0  0.1402775E-03  0.1155413E+04  0.7818609E-02  0.9152805E-01
        2   -1    0    0  501    0  0.00000000000E+00  0.00000000000E+00  0.10155735263E+04  0.10155735263E+04  0.25500000920E-02 0. -1.
       -2   -1    0    0    0  501  0.00000000000E+00  0.00000000000E+00 -0.32862678314E+03  0.32862678315E+03  0.25500000920E-02 0.  1.
    10030    2    1    2    0    0  0.00000000000E+00  0.00000000000E+00  0.68694674315E+03  0.13442003094E+04  0.11554127591E+04 0.  0.
        5    1    3    3  502    0 -0.55012808466E+03 -0.79269647130E+01  0.54837221224E+03  0.77681266690E+03  0.46999998093E+01 0. -1.
       -5    1    3    3    0  502  0.55012808466E+03  0.79269647130E+01  0.13857453092E+03  0.56738764255E+03  0.46999998093E+01 0.  1.
</event>
<event>
 5   0  0.8150924E-04  0.1100915E+04  0.7818609E-02  0.9204300E-01
        1   -1    0    0  501    0  0.00000000000E+00  0.00000000000E+00  0.10749355646E+04  0.10749355646E+04  0.50400001928E-02 0. -1.
       -1   -1    0    0    0  501  0.00000000000E+00  0.00000000000E+00 -0.28188078046E+03  0.28188078051E+03  0.50400001928E-02 0.  1.
    10030    2    1    2    0    0  0.00000000000E+00  0.00000000000E+00  0.79305478415E+03  0.13568163451E+04  0.11009153935E+04 0.  0.
        3    1    3    3  502    0  0.51044600333E+03  0.20248126026E+03  0.44345555473E+03  0.70583753250E+03  0.10100000352E+00 0.  1.
       -3    1    3    3    0  502 -0.51044600333E+03 -0.20248126026E+03  0.34959922942E+03  0.65097881263E+03  0.10100000352E+00 0. -1.
</event>
<event>
 5   0  0.8341767E-04  0.1103406E+04  0.7818609E-02  0.9201878E-01
       -1   -1    0    0    0  501  0.00000000000E+00  0.00000000000E+00  0.52513268150E+03  0.52513268153E+03  0.50400001928E-02 0. -1.
        1   -1    0    0  501    0  0.00000000000E+00  0.00000000000E+00 -0.57961808365E+03  0.57961808367E+03  0.50400001928E-02 0.  1.
    10030    2    1    2    0    0  0.00000000000E+00  0.00000000000E+00 -0.54485402149E+02  0.11047507652E+04  0.11034063595E+04 0.  0.
        2    1    3    3  502    0 -0.34215569043E+03 -0.36076216023E+03 -0.26660834461E+03  0.56418069992E+03  0.25500000920E-02 0.  1.
       -2    1    3    3    0  502  0.34215569043E+03  0.36076216023E+03  0.21212294246E+03  0.54057006527E+03  0.25500000920E-02 0. -1.
</event>
<event>
 5   0  0.8341767E-04  0.1101081E+04  0.7818609E-02  0.9204139E-01
        1   -1    0    0  501    0  0.00000000000E+00  0.00000000000E+00  0.11392224393E+04  0.11392224393E+04  0.50400001928E-02 0. -1.
       -1   -1    0    0    0  501  0.00000000000E+00  0.00000000000E+00 -0.26605429338E+03  0.26605429342E+03  0.50400001928E-02 0.  1.
    10030    2    1    2    0    0  0.00000000000E+00  0.00000000000E+00  0.87316814589E+03  0.14052767327E+04  0.11010813251E+04 0.  0.
        2    1    3    3  502    0  0.11854234076E+03  0.49727879184E+03  0.69738233906E+03  0.86468526656E+03  0.25500000920E-02 0. -1.
       -2    1    3    3    0  502 -0.11854234076E+03 -0.49727879184E+03  0.17578580683E+03  0.54059146614E+03  0.25500000920E-02 0.  1.
</event>
<event>
 5   0  0.1372794E-03  0.1094570E+04  0.7818609E-02  0.9210500E-01
        2   -1    0    0  501    0  0.00000000000E+00  0.00000000000E+00  0.16444660776E+04  0.16444660776E+04  0.25500000920E-02 0. -1.
       -2   -1    0    0    0  501  0.00000000000E+00  0.00000000000E+00 -0.18213877458E+03  0.18213877460E+03  0.25500000920E-02 0.  1.
    10030    2    1    2    0    0  0.00000000000E+00  0.00000000000E+00  0.14623273030E+04  0.18266048522E+04  0.10945703015E+04 0.  0.
        4    1    3    3  502    0  0.41943947284E+03 -0.28389013879E+03  0.10771959967E+04  0.11903259681E+04  0.12699999809E+01 0. -1.
       -4    1    3    3    0  502 -0.41943947284E+03  0.28389013879E+03  0.38513130634E+03  0.63627888406E+03  0.12699999809E+01 0.  1.
</event>
<event>
 5   0  0.8305271E-04  0.1106703E+04  0.7818609E-02  0.9198683E-01
        1   -1    0    0  501    0  0.00000000000E+00  0.00000000000E+00  0.67689695664E+03  0.67689695666E+03  0.50400001928E-02 0.  1.
       -1   -1    0    0    0  501  0.00000000000E+00  0.00000000000E+00 -0.45235523953E+03  0.45235523956E+03  0.50400001928E-02 0. -1.
    10030    2    1    2    0    0  0.00000000000E+00  0.00000000000E+00  0.22454171711E+03  0.11292521962E+04  0.11067030044E+04 0.  0.
        5    1    3    3  502    0 -0.14634326369E+03  0.51944311172E+03  0.23698348114E+03  0.58942408966E+03  0.46999998093E+01 0.  1.
       -5    1    3    3    0  502  0.14634326369E+03 -0.51944311172E+03 -0.12441764034E+02  0.53982810656E+03  0.46999998093E+01 0. -1.
</event>
<event>
 5   0  0.1402775E-03  0.1097886E+04  0.7818609E-02  0.9207255E-01
       -2   -1    0    0    0  501  0.00000000000E+00  0.00000000000E+00  0.63072706300E+03  0.63072706301E+03  0.25500000920E-02 0.  1.
        2   -1    0    0  501    0  0.00000000000E+00  0.00000000000E+00 -0.47776332382E+03  0.47776332383E+03  0.25500000920E-02 0. -1.
    10030    2    1    2    0    0  0.00000000000E+00  0.00000000000E+00  0.15296373918E+03  0.11084903868E+04  0.10978857100E+04 0.  0.
        5    1    3    3  502    0  0.52524141855E+03 -0.15948029354E+03  0.74551263685E+02  0.55397878362E+03  0.46999998093E+01 0. -1.
       -5    1    3    3    0  502 -0.52524141855E+03  0.15948029354E+03  0.78412475495E+02  0.55451160322E+03  0.46999998093E+01 0.  1.
</event>
<event>
 5   0  0.8341767E-04  0.1101073E+04  0.7818609E-02  0.9204146E-01
       -1   -1    0    0    0  501  0.00000000000E+00  0.00000000000E+00  0.64128307375E+03  0.64128307377E+03  0.50400001928E-02 0.  1.
        1   -1    0    0  501    0  0.00000000000E+00  0.00000000000E+00 -0.47263162740E+03  0.47263162742E+03  0.50400001928E-02 0. -1.
    10030    2    1    2    0    0  0.00000000000E+00  0.00000000000E+00  0.16865144635E+03  0.11139147012E+04  0.11010734086E+04 0.  0.
        2    1    3    3  502    0  0.20897568554E+03  0.30548697790E+03 -0.32797799471E+03  0.49453280563E+03  0.25500000920E-02 0. -1.
       -2    1    3    3    0  502 -0.20897568554E+03 -0.30548697790E+03  0.49662944107E+03  0.61938189557E+03  0.25500000920E-02 0.  1.
</event>
<event>
 5   0  0.1425432E-03  0.1100685E+04  0.7818609E-02  0.9204525E-01
       -2   -1    0    0    0  501  0.00000000000E+00  0.00000000000E+00  0.93604494294E+03  0.93604494295E+03  0.25500000920E-02 0.  1.
        2   -1    0    0  501    0  0.00000000000E+00  0.00000000000E+00 -0.32357058741E+03  0.32357058742E+03  0.25500000920E-02 0. -1.
    10030    2    1    2    0    0  0.00000000000E+00  0.00000000000E+00  0.61247435554E+03  0.12596155304E+04  0.11006845362E+04 0.  0.
        1    1    3    3  502    0 -0.85361050478E+02  0.11574403158E+03 -0.30168583641E+03  0.33421180963E+03  0.50400001928E-02 0. -1.
       -1    1    3    3    0  502  0.85361050478E+02 -0.11574403158E+03  0.91416019194E+03  0.92540372073E+03  0.50400001928E-02 0.  1.
</event>
<event>
 5   0  0.8305271E-04  0.1099403E+04  0.7818609E-02  0.9205774E-01
       -1   -1    0    0    0  501  0.00000000000E+00  0.00000000000E+00  0.80256688051E+03  0.80256688053E+03  0.50400001928E-02 0. -1.
        1   -1    0    0  501    0  0.00000000000E+00  0.00000000000E+00 -0.37650646924E+03  0.37650646928E+03  0.50400001928E-02 0.  1.
    10030    2    1    2    0    0  0.00000000000E+00  0.00000000000E+00  0.42606041127E+03  0.11790733498E+04  0.10994027880E+04 0.  0.
        5    1    3    3  502    0 -0.76135675758E+02 -0.91489772118E+02 -0.36249857699E+03  0.38156824795E+03  0.46999998093E+01 0.  1.
       -5    1    3    3    0  502  0.76135675758E+02  0.91489772118E+02  0.78855898826E+03  0.79750510185E+03  0.46999998093E+01 0. -1.
</event>
<event>
 5   0  0.5409500E-04  0.1092697E+04  0.7818609E-02  0.9212339E-01
       -4   -1    0    0    0  501  0.00000000000E+00  0.00000000000E+00  0.37028844062E+03  0.37029061851E+03  0.12699999809E+01 0. -1.
        4   -1    0    0  501    0  0.00000000000E+00  0.00000000000E+00 -0.80611478880E+03  0.80611578921E+03  0.12699999809E+01 0.  1.
    10030    2    1    2    0    0  0.00000000000E+00  0.00000000000E+00 -0.43582634817E+03  0.11764064077E+04  0.10926973187E+04 0.  0.
        3    1    3    3  502    0 -0.16482242470E+03  0.41085099817E+03 -0.56264942119E+03  0.71591853988E+03  0.10100000352E+00 0.  1.
       -3    1    3    3    0  502  0.16482242470E+03 -0.41085099817E+03  0.12682307302E+03  0.46048786784E+03  0.10100000352E+00 0. -1.
</event>
<event>
 5   0  0.1396936E-03  0.1100269E+04  0.7818609E-02  0.9204930E-01
        2   -1    0    0  501    0  0.00000000000E+00  0.00000000000E+00  0.51394675073E+03  0.51394675074E+03  0.25500000920E-02 0. -1.
       -2   -1    0    0    0  501  0.00000000000E+00  0.00000000000E+00 -0.58887024282E+03  0.58887024283E+03  0.25500000920E-02 0.  1.
    10030    2    1    2    0    0  0.00000000000E+00  0.00000000000E+00 -0.74923492090E+02  0.11028169936E+04  0.11002689633E+04 0.  0.
        2    1    3    3  502    0  0.46172447772E+03 -0.26307721812E+03 -0.18008967448E+03  0.56109839323E+03  0.25500000920E-02 0.  1.
       -2    1    3    3    0  502 -0.46172447772E+03  0.26307721812E+03  0.10516618239E+03  0.54171860034E+03  0.25500000920E-02 0. -1.
</event>
<event>
 5   0  0.1396936E-03  0.1100690E+04  0.7818609E-02  0.9204520E-01
        2   -1    0    0  501    0  0.00000000000E+00  0.00000000000E+00  0.16230685605E+04  0.16230685605E+04  0.25500000920E-02 0. -1.
       -2   -1    0    0    0  501  0.00000000000E+00  0.00000000000E+00 -0.18660916721E+03  0.18660916723E+03  0.25500000920E-02 0.  1.
    10030    2    1    2    0    0  0.00000000000E+00  0.00000000000E+00  0.14364593933E+04  0.18096777277E+04  0.11006897336E+04 0.  0.
        2    1    3    3  502    0  0.33725773893E+03  0.42368916705E+03  0.87952368712E+03  0.10328684374E+04  0.25500000920E-02 0. -1.
       -2    1    3    3    0  502 -0.33725773893E+03 -0.42368916705E+03  0.55693570615E+03  0.77680929032E+03  0.25500000920E-02 0.  1.
</event>
<event>
 5   0  0.1372794E-03  0.1092651E+04  0.7818609E-02  0.9212385E-01
       -2   -1    0    0    0  501  0.00000000000E+00  0.00000000000E+00  0.47794988489E+03  0.47794988490E+03  0.25500000920E-02 0.  1.
        2   -1    0    0  501    0  0.00000000000E+00  0.00000000000E+00 -0.62448285327E+03  0.62448285328E+03  0.25500000920E-02 0. -1.
    10030    2    1    2    0    0  0.00000000000E+00  0.00000000000E+00 -0.14653296838E+03  0.11024327382E+04  0.10926509193E+04 0.  0.
        4    1    3    3  502    0  0.21108875226E+03 -0.43278296445E+03 -0.33366678954E+03  0.58582821287E+03  0.12699999809E+01 0.  1.
       -4    1    3    3    0  502 -0.21108875226E+03  0.43278296445E+03  0.18713382116E+03  0.51660452531E+03  0.12699999809E+01 0. -1.
</event>
<event>
 5   0  0.1396936E-03  0.1099010E+04  0.7818609E-02  0.9206158E-01
        2   -1    0    0  501    0  0.00000000000E+00  0.00000000000E+00  0.32635666810E+03  0.32635666811E+03  0.25500000920E-02 0. -1.
       -2   -1    0    0    0  501  0.00000000000E+00  0.00000000000E+00 -0.92523165206E+03  0.92523165206E+03  0.25500000920E-02 0.  1.
    10030    2    1    2    0    0  0.00000000000E+00  0.00000000000E+00 -0.59887498396E+03  0.12515883202E+04  0.10990095890E+04 0.  0.
        2    1    3    3  502    0  0.42822924267E+03  0.19106708082E+03  0.26811025626E+02  0.46968685818E+03  0.25500000920E-02 0. -1.
       -2    1    3    3    0  502 -0.42822924267E+03 -0.19106708082E+03 -0.62568600959E+03  0.78190146198E+03  0.25500000920E-02 0.  1.
</event>
<event>
 5   0  0.1396936E-03  0.1097547E+04  0.7818609E-02  0.9207586E-01
        2   -1    0    0  501    0  0.00000000000E+00  0.00000000000E+00  0.60606114893E+03  0.60606114894E+03  0.25500000920E-02 0.  1.
       -2   -1    0    0    0  501  0.00000000000E+00  0.00000000000E+00 -0.49690097719E+03  0.49690097720E+03  0.25500000920E-02 0. -1.
    10030    2    1    2    0    0  0.00000000000E+00  0.00000000000E+00  0.10916017174E+03  0.11029621261E+04  0.10975470416E+04 0.  0.
        2    1    3    3  502    0 -0.41638055093E+03 -0.12273758577E+03  0.39196721023E+03  0.58487226986E+03  0.25500000920E-02 0.  1.
       -2    1    3    3    0  502  0.41638055093E+03  0.12273758577E+03 -0.28280703849E+03  0.51808985628E+03  0.25500000920E-02 0. -1.
</event>
<event>
 5   0  0.1429680E-03  0.1093384E+04  0.7818609E-02  0.9211664E-01
       -2   -1    0    0    0  501  0.00000000000E+00  0.00000000000E+00  0.20449211990E+03  0.20449211992E+03  0.25500000920E-02 0. -1.
        2   -1    0    0  501    0  0.00000000000E+00  0.00000000000E+00 -0.14615336466E+04  0.14615336466E+04  0.25500000920E-02 0.  1.
    10030    2    1    2    0    0  0.00000000000E+00  0.00000000000E+00 -0.12570415267E+04  0.16660257666E+04  0.10933839467E+04 0.  0.
        3    1    3    3  502    0  0.17231931407E+03 -0.51294699782E+03 -0.74717191644E+03  0.92253696484E+03  0.10100000352E+00 0.  1.
       -3    1    3    3    0  502 -0.17231931407E+03  0.51294699782E+03 -0.50986961030E+03  0.74348880172E+03  0.10100000352E+00 0. -1.
</event>
<event>
 5   0  0.7946038E-04  0.1023279E+04  0.7818609E-02  0.9283375E-01
        1   -1    0    0  501    0  0.00000000000E+00  0.00000000000E+00  0.91562550715E+03  0.91562550717E+03  0.50400001928E-02 0.  1.
       -1   -1    0    0    0  501  0.00000000000E+00  0.00000000000E+00 -0.28589729631E+03  0.28589729636E+03  0.50400001928E-02 0. -1.
    10030    2    1    2    0    0  0.00000000000E+00  0.00000000000E+00  0.62972821084E+03  0.12015228035E+04  0.10232787635E+04 0.  0.
        4    1    3    3  502    0  0.13830073390E+03  0.48204121482E+03  0.19579867405E+03  0.53835820737E+03  0.12699999809E+01 0.  1.
       -4    1    3    3    0  502 -0.13830073390E+03 -0.48204121482E+03  0.43392953679E+03  0.66316459615E+03  0.12699999809E+01 0. -1.
</event>
<event>
 5   0  0.8009636E-04  0.1098551E+04  0.7818609E-02  0.9206605E-01
        1   -1    0    0  501    0  0.00000000000E+00  0.00000000000E+00  0.12445223488E+04  0.12445223488E+04  0.50400001928E-02 0.  1.
       -1   -1    0    0    0  501  0.00000000000E+00  0.00000000000E+00 -0.24242515833E+03  0.24242515838E+03  0.50400001928E-02 0. -1.
    10030    2    1    2    0    0  0.00000000000E+00  0.00000000000E+00  0.10020971905E+04  0.14869475072E+04  0.10985509137E+04 0.  0.
        1    1    3    3  502    0 -0.37732617118E+03 -0.39893000400E+03  0.48272106393E+03  0.73112229698E+03  0.50400001928E-02 0. -1.
       -1    1    3    3    0  502  0.37732617118E+03  0.39893000400E+03  0.51937612654E+03  0.75582521022E+03  0.50400001928E-02 0.  1.
</event>
<event>
 5   0  0.8150924E-04  0.1101404E+04  0.7818609E-02  0.9203824E-01
        1   -1    0    0  501    0  0.00000000000E+00  0.00000000000E+00  0.52062757419E+03  0.52062757421E+03  0.50400001928E-02 0. -1.
       -1   -1    0    0    0  501  0.00000000000E+00  0.00000000000E+00 -0.58251402952E+03  0.58251402954E+03  0.50400001928E-02 0.  1.
    10030    2    1    2    0    0  0.00000000000E+00  0.00000000000E+00 -0.61886455333E+02  0.11031416038E+04  0.11014043148E+04 0.  0.
        3    1    3    3  502    0 -0.45194575725E+03 -0.30567944301E+03 -0.10574681818E+03  0.55576729764E+03  0.10100000352E+00 0. -1.
       -3    1    3    3    0  502  0.45194575725E+03  0.30567944301E+03  0.43860362846E+02  0.54737430612E+03  0.10100000352E+00 0.  1.
</event>
<event>
 5   0  0.8341767E-04  0.1098685E+04  0.7818609E-02  0.9206475E-01
       -1   -1    0    0    0  501  0.00000000000E+00  0.00000000000E+00  0.27273605654E+03  0.27273605659E+03  0.50400001928E-02 0. -1.
        1   -1    0    0  501    0  0.00000000000E+00  0.00000000000E+00 -0.11064799515E+04  0.11064799515E+04  0.50400001928E-02 0.  1.
    10030    2    1    2    0    0  0.00000000000E+00  0.00000000000E+00 -0.83374389497E+03  0.13792160081E+04  0.10986846293E+04 0.  0.
        2    1    3    3  502    0  0.36347440105E+03 -0.35426635316E+03 -0.15307648053E+03  0.53014214895E+03  0.25500000920E-02 0. -1.
       -2    1    3    3    0  502 -0.36347440105E+03  0.35426635316E+03 -0.68066741445E+03  0.84907385915E+03  0.25500000920E-02 0.  1.
</event>
<event>
 5   0  0.8009636E-04  0.1104994E+04  0.7818609E-02  0.9200338E-01
        1   -1    0    0  501    0  0.00000000000E+00  0.00000000000E+00  0.42737631701E+03  0.42737631704E+03  0.50400001928E-02 0.  1.
       -1   -1    0    0    0  501  0.00000000000E+00  0.00000000000E+00 -0.71424920355E+03  0.71424920356E+03  0.50400001928E-02 0. -1.
    10030    2    1    2    0    0  0.00000000000E+00  0.00000000000E+00 -0.28687288653E+03  0.11416255206E+04  0.11049944689E+04 0.  0.
        1    1    3    3  502    0  0.43287232044E+03 -0.21731649906E+03 -0.41804520134E+03  0.63981770603E+03  0.50400001928E-02 0. -1.
       -1    1    3    3    0  502 -0.43287232044E+03  0.21731649906E+03  0.13117231480E+03  0.50180781457E+03  0.50400001928E-02 0.  1.
</event>
<event>
 5   0  0.1372794E-03  0.1109315E+04  0.7818609E-02  0.9196160E-01
       -2   -1    0    0    0  501  0.00000000000E+00  0.00000000000E+00  0.18336156920E+03  0.18336156922E+03  0.25500000920E-02 0.  1.
        2   -1    0    0  501    0  0.00000000000E+00  0.00000000000E+00 -0.16778049963E+04  0.16778049963E+04  0.25500000920E-02 0. -1.
    10030    2    1    2    0    0  0.00000000000E+00  0.00000000000E+00 -0.14944434271E+04  0.18611665656E+04  0.11093150264E+04 0.  0.
        4    1    3    3  502    0 -0.20640368838E+03 -0.23466158058E+03  0.21579284876E+02  0.31326636974E+03  0.12699999809E+01 0.  1.
       -4    1    3    3    0  502  0.20640368838E+03  0.23466158058E+03 -0.15160227120E+04  0.15479001958E+04  0.12699999809E+01 0. -1.
</event>
<event>
 5   0  0.1372794E-03  0.1099877E+04  0.7818609E-02  0.9205312E-01
        2   -1    0    0  501    0  0.00000000000E+00  0.00000000000E+00  0.12235099561E+04  0.12235099561E+04  0.25500000920E-02 0.  1.
       -2   -1    0    0    0  501  0.00000000000E+00  0.00000000000E+00 -0.24718431558E+03  0.24718431559E+03  0.25500000920E-02 0. -1.
    10030    2    1    2    0    0  0.00000000000E+00  0.00000000000E+00  0.97632564055E+03  0.14706942717E+04  0.10998772134E+04 0.  0.
        4    1    3    3  502    0 -0.23585176702E+03 -0.25913909077E+03 -0.78590277653E+02  0.35910606931E+03  0.12699999809E+01 0. -1.
       -4    1    3    3    0  502  0.23585176702E+03  0.25913909077E+03  0.10549159182E+04  0.11115882024E+04  0.12699999809E+01 0.  1.
</event>
<event>
 5   0  0.1396936E-03  0.1100840E+04  0.7818609E-02  0.9204373E-01
        2   -1    0    0  501    0  0.00000000000E+00  0.00000000000E+00  0.50823611811E+03  0.50823611811E+03  0.25500000920E-02 0.  1.
       -2   -1    0    0    0  501  0.00000000000E+00  0.00000000000E+00 -0.59610569968E+03  0.59610569969E+03  0.25500000920E-02 0. -1.
    10030    2    1    2    0    0  0.00000000000E+00  0.00000000000E+00 -0.87869581577E+02  0.11043418178E+04  0.11008404913E+04 0.  0.
        2    1    3    3  502    0 -0.15931160344E+03  0.49592066674E+03 -0.22239086860E+03  0.56637019089E+03  0.25500000920E-02 0. -1.
       -2    1    3    3    0  502  0.15931160344E+03 -0.49592066674E+03  0.13452128703E+03  0.53797162691E+03  0.25500000920E-02 0.  1.
</event>
<event>
 5   0  0.5409500E-04  0.1097596E+04  0.7818609E-02  0.9207538E-01
       -3   -1    0    0    0  501  0.00000000000E+00  0.00000000000E+00  0.17313943783E+04  0.17313943812E+04  0.10100000352E+00 0. -1.
        3   -1    0    0  501    0  0.00000000000E+00  0.00000000000E+00 -0.17395183423E+03  0.17395186355E+03  0.10100000352E+00 0.  1.
    10030    2    1    2    0    0  0.00000000000E+00  0.00000000000E+00  0.15574425440E+04  0.19053462448E+04  0.10975960252E+04 0.  0.
        2    1    3    3  502    0 -0.42882036679E+03 -0.13325619162E+03  0.13263920847E+04  0.14003428445E+04  0.25500000920E-02 0.  1.
       -2    1    3    3    0  502  0.42882036679E+03  0.13325619162E+03  0.23105045931E+03  0.50500340032E+03  0.25500000920E-02 0. -1.
</event>
<event>
 5   0  0.7946038E-04  0.1104188E+04  0.7818609E-02  0.9201119E-01
        1   -1    0    0  501    0  0.00000000000E+00  0.00000000000E+00  0.82786529952E+03  0.82786529954E+03  0.50400001928E-02 0.  1.
       -1   -1    0    0    0  501  0.00000000000E+00  0.00000000000E+00 -0.36818537544E+03  0.36818537548E+03  0.50400001928E-02 0. -1.
    10030    2    1    2    0    0  0.00000000000E+00  0.00000000000E+00  0.45967992408E+03  0.11960506750E+04  0.11041882016E+04 0.  0.
        4    1    3    3  502    0  0.47489113979E+03 -0.20350656900E+03  0.44063131096E+03  0.67903908826E+03  0.12699999809E+01 0.  1.
       -4    1    3    3    0  502 -0.47489113979E+03  0.20350656900E+03  0.19048613115E+02  0.51701158676E+03  0.12699999809E+01 0. -1.
</event>
<event>
 5   0  0.8150924E-04  0.1098881E+04  0.7818609E-02  0.9206283E-01
       -1   -1    0    0    0  501  0.00000000000E+00  0.00000000000E+00  0.29365136314E+03  0.29365136319E+03  0.50400001928E-02 0.  1.
        1   -1    0    0  501    0  0.00000000000E+00  0.00000000000E+00 -0.10280382605E+04  0.10280382605E+04  0.50400001928E-02 0. -1.
    10030    2    1    2    0    0  0.00000000000E+00  0.00000000000E+00 -0.73438689731E+03  0.13216896236E+04  0.10988809518E+04 0.  0.
        3    1    3    3  502    0 -0.31139908605E+03 -0.29006295696E+03  0.50804740081E+02  0.42858726254E+03  0.10100000352E+00 0.  1.
       -3    1    3    3    0  502  0.31139908605E+03  0.29006295696E+03 -0.78519163739E+03  0.89310236111E+03  0.10100000352E+00 0. -1.
</event>
<event>
 5   0  0.5409500E-04  0.1099418E+04  0.7818609E-02  0.9205759E-01
       -3   -1    0    0    0  501  0.00000000000E+00  0.00000000000E+00  0.36943940938E+03  0.36943942319E+03  0.10100000352E+00 0.  1.
        3   -1    0    0  501    0  0.00000000000E+00  0.00000000000E+00 -0.81794233759E+03  0.81794234383E+03  0.10100000352E+00 0. -1.
    10030    2    1    2    0    0  0.00000000000E+00  0.00000000000E+00 -0.44850292821E+03  0.11873817670E+04  0.10994182935E+04 0.  0.
        5    1    3    3  502    0 -0.53580250121E+03  0.43688414156E+02 -0.10033220501E+03  0.54688357005E+03  0.46999998093E+01 0.  1.
       -5    1    3    3    0  502  0.53580250121E+03 -0.43688414156E+02 -0.34817072320E+03  0.64049819697E+03  0.46999998093E+01 0. -1.
</event>
<event>
 5   0  0.7946038E-04  0.1099675E+04  0.7818609E-02  0.9205508E-01
       -1   -1    0    0    0  501  0.00000000000E+00  0.00000000000E+00  0.42598633145E+03  0.42598633148E+03  0.50400001928E-02 0.  1.
        1   -1    0    0  501    0  0.00000000000E+00  0.00000000000E+00 -0.70969767434E+03  0.70969767436E+03  0.50400001928E-02 0. -1.
    10030    2    1    2    0    0  0.00000000000E+00  0.00000000000E+00 -0.28371134290E+03  0.11356840058E+04  0.10996754226E+04 0.  0.
        4    1    3    3  502    0 -0.15182751185E+03  0.38468856039E+03  0.23233870814E+03  0.47436248803E+03  0.12699999809E+01 0.  1.
       -4    1    3    3    0  502  0.15182751185E+03 -0.38468856039E+03 -0.51605005103E+03  0.66132151781E+03  0.12699999809E+01 0. -1.
</event>
<event>
 5   0  0.8341767E-04  0.1096951E+04  0.7818609E-02  0.9208169E-01
        1   -1    0    0  501    0  0.00000000000E+00  0.00000000000E+00  0.25810082194E+04  0.25810082194E+04  0.50400001928E-02 0.  1.
       -1   -1    0    0    0  501  0.00000000000E+00  0.00000000000E+00 -0.11655341970E+03  0.11655341981E+03  0.50400001928E-02 0. -1.
    10030    2    1    2    0    0  0.00000000000E+00  0.00000000000E+00  0.24644547997E+04  0.26975616392E+04  0.10969509276E+04 0.  0.
        2    1    3    3  502    0 -0.93095611484E+02 -0.17502905201E+03 -0.25363631173E+02  0.19986314247E+03  0.25500000920E-02 0. -1.
       -2    1    3    3    0  502  0.93095611484E+02  0.17502905201E+03  0.24898184308E+04  0.24976984967E+04  0.25500000920E-02 0.  1.
</event>
<event>
 5   0  0.1425432E-03  0.1074956E+04  0.7818609E-02  0.9229951E-01
       -2   -1    0    0    0  501  0.00000000000E+00  0.00000000000E+00  0.31780112135E+03  0.31780112136E+03  0.25500000920E-02 0.  1.
        2   -1    0    0  501    0  0.00000000000E+00  0.00000000000E+00 -0.90900497484E+03  0.90900497484E+03  0.25500000920E-02 0. -1.
    10030    2    1    2    0    0  0.00000000000E+00  0.00000000000E+00 -0.59120385349E+03  0.12268060962E+04  0.10749563718E+04 0.  0.
        1    1    3    3  502    0 -0.32091269274E+03  0.21178025393E+03 -0.72421653072E+03  0.81995452051E+03  0.50400001928E-02 0. -1.
       -1    1    3    3    0  502  0.32091269274E+03 -0.21178025393E+03  0.13301267723E+03  0.40685157569E+03  0.50400001928E-02 0.  1.
</event>
<event>
 5   0  0.1396936E-03  0.1103570E+04  0.7818609E-02  0.9201720E-01
        2   -1    0    0  501    0  0.00000000000E+00  0.00000000000E+00  0.44316316374E+03  0.44316316375E+03  0.25500000920E-02 0. -1.
       -2   -1    0    0    0  501  0.00000000000E+00  0.00000000000E+00 -0.68703020646E+03  0.68703020646E+03  0.25500000920E-02 0.  1.
    10030    2    1    2    0    0  0.00000000000E+00  0.00000000000E+00 -0.24386704271E+03  0.11301933702E+04  0.11035696261E+04 0.  0.
        2    1    3    3  502    0 -0.53583085365E+03 -0.32874075938E+02  0.87019421627E+01  0.53690886787E+03  0.25500000920E-02 0. -1.
       -2    1    3    3    0  502  0.53583085365E+03  0.32874075938E+02 -0.25256898488E+03  0.59328450234E+03  0.25500000920E-02 0.  1.
</event>
<event>
 5   0  0.1429680E-03  0.1112146E+04  0.7818609E-02  0.9193434E-01
        2   -1    0    0  501    0  0.00000000000E+00  0.00000000000E+00  0.41671385115E+03  0.41671385116E+03  0.25500000920E-02 0. -1.
       -2   -1    0    0    0  501  0.00000000000E+00  0.00000000000E+00 -0.74203739333E+03  0.74203739333E+03  0.25500000920E-02 0.  1.
    10030    2    1    2    0    0  0.00000000000E+00  0.00000000000E+00 -0.32532354218E+03  0.11587512445E+04  0.11121461413E+04 0.  0.
        3    1    3    3  502    0  0.78880893727E+01 -0.36163450455E+03 -0.60270563719E+03  0.70291950616E+03  0.10100000352E+00 0.  1.
       -3    1    3    3    0  502 -0.78880893727E+01  0.36163450455E+03  0.27738209501E+03  0.45583173833E+03  0.10100000352E+00 0. -1.
</event>
<event>
 5   0  0.1402775E-03  0.1094165E+04  0.7818609E-02  0.9210898E-01
        2   -1    0    0  501    0  0.00000000000E+00  0.00000000000E+00  0.14862571403E+04  0.14862571403E+04  0.25500000920E-02 0.  1.
       -2   -1    0    0    0  501  0.00000000000E+00  0.00000000000E+00 -0.20137771999E+03  0.20137772000E+03  0.25500000920E-02 0. -1.
    10030    2    1    2    0    0  0.00000000000E+00  0.00000000000E+00  0.12848794203E+04  0.16876348603E+04  0.10941646571E+04 0.  0.
        5    1    3    3  502    0 -0.29544909332E+03  0.43776649374E+03  0.86245322219E+03  0.10113245375E+04  0.46999998093E+01 0.  1.
       -5    1    3    3    0  502  0.29544909332E+03 -0.43776649374E+03  0.42242619808E+03  0.67631032271E+03  0.46999998093E+01 0. -1.
</event>
<event>
 5   0  0.8305271E-04  0.1097564E+04  0.7818609E-02  0.9207569E-01
       -1   -1    0    0    0  501  0.00000000000E+00  0.00000000000E+00  0.14977410499E+03  0.14977410507E+03  0.50400001928E-02 0. -1.
        1   -1    0    0  501    0  0.00000000000E+00  0.00000000000E+00 -0.20107735952E+04  0.20107735952E+04  0.50400001928E-02 0.  1.
    10030    2    1    2    0    0  0.00000000000E+00  0.00000000000E+00 -0.18609994902E+04  0.21605477002E+04  0.10975642408E+04 0.  0.
        5    1    3    3  502    0 -0.10336210225E+03 -0.22138319411E+03 -0.18977602439E+04  0.19134289316E+04  0.46999998093E+01 0.  1.
       -5    1    3    3    0  502  0.10336210225E+03  0.22138319411E+03  0.36760753733E+02  0.24711876867E+03  0.46999998093E+01 0. -1.
</event>
<event>
 5   0  0.8341767E-04  0.1097123E+04  0.7818609E-02  0.9208000E-01
       -1   -1    0    0    0  501  0.00000000000E+00  0.00000000000E+00  0.47037286235E+03  0.47037286238E+03  0.50400001928E-02 0.  1.
        1   -1    0    0  501    0  0.00000000000E+00  0.00000000000E+00 -0.63974728762E+03  0.63974728764E+03  0.50400001928E-02 0. -1.
    10030    2    1    2    0    0  0.00000000000E+00  0.00000000000E+00 -0.16937442527E+03  0.11101201500E+04  0.10971230795E+04 0.  0.
        2    1    3    3  502    0  0.48189819088E+03 -0.22562812415E+03 -0.21963069070E+03  0.57564881402E+03  0.25500000920E-02 0. -1.
       -2    1    3    3    0  502 -0.48189819088E+03  0.22562812415E+03  0.50256265430E+02  0.53447133600E+03  0.25500000920E-02 0.  1.
</event>
<event>
 5   0  0.8305271E-04  0.1099533E+04  0.7818609E-02  0.9205647E-01
        1   -1    0    0  501    0  0.00000000000E+00  0.00000000000E+00  0.42841871058E+03  0.42841871061E+03  0.50400001928E-02 0. -1.
       -1   -1    0    0    0  501  0.00000000000E+00  0.00000000000E+00 -0.70548546964E+03  0.70548546965E+03  0.50400001928E-02 0.  1.
    10030    2    1    2    0    0  0.00000000000E+00  0.00000000000E+00 -0.27706675905E+03  0.11339041803E+04  0.10995329468E+04 0.  0.
        5    1    3    3  502    0  0.16074509191E+03 -0.49885902523E+03  0.32549408217E+02  0.52514842245E+03  0.46999998093E+01 0. -1.
       -5    1    3    3    0  502 -0.16074509191E+03  0.49885902523E+03 -0.30961616727E+03  0.60875575781E+03  0.46999998093E+01 0.  1.
</event>
<event>
 5   0  0.1396936E-03  0.1102354E+04  0.7818609E-02  0.9202901E-01
       -2   -1    0    0    0  501  0.00000000000E+00  0.00000000000E+00  0.18516089149E+03  0.18516089151E+03  0.25500000920E-02 0. -1.
        2   -1    0    0  501    0  0.00000000000E+00  0.00000000000E+00 -0.16407139227E+04  0.16407139227E+04  0.25500000920E-02 0.  1.
    10030    2    1    2    0    0  0.00000000000E+00  0.00000000000E+00 -0.14555530312E+04  0.18258748142E+04  0.11023539407E+04 0.  0.
        2    1    3    3  502    0  0.42691060531E+01  0.44378191849E+03 -0.18638979017E+03  0.48135410077E+03  0.25500000920E-02 0. -1.
       -2    1    3    3    0  502 -0.42691060531E+01 -0.44378191849E+03 -0.12691632411E+04  0.13445207134E+04  0.25500000920E-02 0.  1.
</event>
<event>
 5   0  0.1425432E-03  0.1101467E+04  0.7818609E-02  0.9203764E-01
        2   -1    0    0  501    0  0.00000000000E+00  0.00000000000E+00  0.12210389021E+04  0.12210389021E+04  0.25500000920E-02 0.  1.
       -2   -1    0    0    0  501  0.00000000000E+00  0.00000000000E+00 -0.24840091379E+03  0.24840091380E+03  0.25500000920E-02 0. -1.
    10030    2    1    2    0    0  0.00000000000E+00  0.00000000000E+00  0.97263798836E+03  0.14694398160E+04  0.11014666206E+04 0.  0.
        1    1    3    3  502    0  0.35421484427E+02  0.17989903042E+03  0.11791254842E+04  0.11932959609E+04  0.50400001928E-02 0.  1.
       -1    1    3    3    0  502 -0.35421484427E+02 -0.17989903042E+03 -0.20648749588E+03  0.27614385505E+03  0.50400001928E-02 0. -1.
</event>
<event>
 5   0  0.1425432E-03  0.1099827E+04  0.7818609E-02  0.9205361E-01
       -2   -1    0    0    0  501  0.00000000000E+00  0.00000000000E+00  0.24479036529E+03  0.24479036530E+03  0.25500000920E-02 0.  1.
        2   -1    0    0  501    0  0.00000000000E+00  0.00000000000E+00 -0.12353616491E+04  0.12353616491E+04  0.25500000920E-02 0. -1.
    10030    2    1    2    0    0  0.00000000000E+00  0.00000000000E+00 -0.99057128380E+03  0.14801520144E+04  0.10998265852E+04 0.  0.
        1    1    3    3  502    0 -0.57552122209E+02  0.53002347555E+03 -0.31388882295E+03  0.61867869254E+03  0.50400001928E-02 0.  1.
       -1    1    3    3    0  502  0.57552122209E+02 -0.53002347555E+03 -0.67668246085E+03  0.86147332184E+03  0.50400001928E-02 0. -1.
</event>
<event>
 5   0  0.1429680E-03  0.1100043E+04  0.7818609E-02  0.9205150E-01
       -2   -1    0    0    0  501  0.00000000000E+00  0.00000000000E+00  0.33558934678E+03  0.33558934678E+03  0.25500000920E-02 0.  1.
        2   -1    0    0  501    0  0.00000000000E+00  0.00000000000E+00 -0.90146924201E+03  0.90146924201E+03  0.25500000920E-02 0. -1.
    10030    2    1    2    0    0  0.00000000000E+00  0.00000000000E+00 -0.56587989523E+03  0.12370585888E+04  0.11000426793E+04 0.  0.
        3    1    3    3  502    0  0.21639858107E+03  0.63857535031E+02  0.28115344310E+03  0.36049049840E+03  0.10100000352E+00 0.  1.
       -3    1    3    3    0  502 -0.21639858107E+03 -0.63857535031E+02 -0.84703333833E+03  0.87656809040E+03  0.10100000352E+00 0. -1.
</event>
<event>
 5   0  0.7946038E-04  0.1081439E+04  0.7818609E-02  0.9223474E-01
        1   -1    0    0  501    0  0.00000000000E+00  0.00000000000E+00  0.69403514226E+03  0.69403514227E+03  0.50400001928E-02 0. -1.
       -1   -1    0    0    0  501  0.00000000000E+00  0.00000000000E+00 -0.42127171924E+03  0.42127171927E+03  0.50400001928E-02 0.  1.
    10030    2    1    2    0    0  0.00000000000E+00  0.00000000000E+00  0.27276342302E+03  0.11153068615E+04  0.10814386300E+04 0.  0.
        4    1    3    3  502    0 -0.17741072253E+03 -0.27362570798E+03 -0.30843816905E+03  0.44886669464E+03  0.12699999809E+01 0.  1.
       -4    1    3    3    0  502  0.17741072253E+03  0.27362570798E+03  0.58120159207E+03  0.66644016690E+03  0.12699999809E+01 0. -1.
</event>
<event>
 5   0  0.1429680E-03  0.1101798E+04  0.7818609E-02  0.9203441E-01
       -2   -1    0    0    0  501  0.00000000000E+00  0.00000000000E+00  0.37388104154E+03  0.37388104155E+03  0.25500000920E-02 0.  1.
        2   -1    0    0  501    0  0.00000000000E+00  0.00000000000E+00 -0.81172787858E+03  0.81172787858E+03  0.25500000920E-02 0. -1.
    10030    2    1    2    0    0  0.00000000000E+00  0.00000000000E+00 -0.43784683704E+03  0.11856089201E+04  0.11017979210E+04 0.  0.
        3    1    3    3  502    0 -0.26195020617E+03 -0.10210890432E+03  0.29087088220E+03  0.40453679582E+03  0.10100000352E+00 0.  1.
       -3    1    3    3    0  502  0.26195020617E+03  0.10210890432E+03 -0.72871771924E+03  0.78107212432E+03  0.10100000352E+00 0. -1.
</event>
<event>
 5   0  0.8341767E-04  0.1094271E+04  0.7818609E-02  0.9210794E-01
        1   -1    0    0  501    0  0.00000000000E+00  0.00000000000E+00  0.48066348810E+03  0.48066348813E+03  0.50400001928E-02 0.  1.
       -1   -1    0    0    0  501  0.00000000000E+00  0.00000000000E+00 -0.62279959885E+03  0.62279959887E+03  0.50400001928E-02 0. -1.
    10030    2    1    2    0    0  0.00000000000E+00  0.00000000000E+00 -0.14213611075E+03  0.11034630870E+04  0.10942705837E+04 0.  0.
        2    1    3    3  502    0  0.51591714798E+03 -0.25629791450E+02 -0.25294292666E+03  0.57515868588E+03  0.25500000920E-02 0.  1.
       -2    1    3    3    0  502 -0.51591714798E+03  0.25629791450E+02  0.11080681591E+03  0.52830440112E+03  0.25500000920E-02 0. -1.
</event>
<event>
 5   0  0.1402775E-03  0.1098155E+04  0.7818609E-02  0.9206992E-01
       -2   -1    0    0    0  501  0.00000000000E+00  0.00000000000E+00  0.21564508986E+03  0.21564508987E+03  0.25500000920E-02 0. -1.
        2   -1    0    0  501    0  0.00000000000E+00  0.00000000000E+00 -0.13980650000E+04  0.13980650000E+04  0.25500000920E-02 0.  1.
    10030    2    1    2    0    0  0.00000000000E+00  0.00000000000E+00 -0.11824199101E+04  0.16137100898E+04  0.10981545475E+04 0.  0.
        5    1    3    3  502    0 -0.42700452794E+03 -0.26845573924E+03 -0.27242402899E+03  0.57326982511E+03  0.46999998093E+01 0. -1.
       -5    1    3    3    0  502  0.42700452794E+03  0.26845573924E+03 -0.90999588112E+03  0.10404402647E+04  0.46999998093E+01 0.  1.
</event>
<event>
 5   0  0.1429680E-03  0.1085192E+04  0.7818609E-02  0.9219746E-01
        2   -1    0    0  501    0  0.00000000000E+00  0.00000000000E+00  0.25285812947E+03  0.25285812948E+03  0.25500000920E-02 0.  1.
       -2   -1    0    0    0  501  0.00000000000E+00  0.00000000000E+00 -0.11643298806E+04  0.11643298807E+04  0.25500000920E-02 0. -1.
    10030    2    1    2    0    0  0.00000000000E+00  0.00000000000E+00 -0.91147175118E+03  0.14171880101E+04  0.10851917355E+04 0.  0.
        3    1    3    3  502    0  0.24072557242E+02  0.17888269216E+01 -0.11636283072E+04  0.11638786601E+04  0.10100000352E+00 0. -1.
       -3    1    3    3    0  502 -0.24072557242E+02 -0.17888269216E+01  0.25215655597E+03  0.25330935007E+03  0.10100000352E+00 0.  1.
</event>
<event>
 5   0  0.8341767E-04  0.1120481E+04  0.7818609E-02  0.9185456E-01
        1   -1    0    0  501    0  0.00000000000E+00  0.00000000000E+00  0.16905922518E+04  0.16905922518E+04  0.50400001928E-02 0.  1.
       -1   -1    0    0    0  501  0.00000000000E+00  0.00000000000E+00 -0.18565663483E+03  0.18565663490E+03  0.50400001928E-02 0. -1.
    10030    2    1    2    0    0  0.00000000000E+00  0.00000000000E+00  0.15049356170E+04  0.18762488867E+04  0.11204814473E+04 0.  0.
        2    1    3    3  502    0 -0.16698584402E+03  0.37151642733E+03  0.10835888007E+03  0.42148591291E+03  0.25500000920E-02 0. -1.
       -2    1    3    3    0  502  0.16698584402E+03 -0.37151642733E+03  0.13965767369E+04  0.14547629738E+04  0.25500000920E-02 0.  1.
</event>
<event>
 5   0  0.8341767E-04  0.1084507E+04  0.7818609E-02  0.9220425E-01
        1   -1    0    0  501    0  0.00000000000E+00  0.00000000000E+00  0.14823410936E+04  0.14823410936E+04  0.50400001928E-02 0. -1.
       -1   -1    0    0    0  501  0.00000000000E+00  0.00000000000E+00 -0.19836131188E+03  0.19836131195E+03  0.50400001928E-02 0.  1.
    10030    2    1    2    0    0  0.00000000000E+00  0.00000000000E+00  0.12839797817E+04  0.16807024056E+04  0.10845074902E+04 0.  0.
        2    1    3    3  502    0 -0.83075166692E+02 -0.47424554050E+03  0.10285829096E+04  0.11356905907E+04  0.25500000920E-02 0. -1.
       -2    1    3    3    0  502  0.83075166692E+02  0.47424554050E+03  0.25539687216E+03  0.54501181484E+03  0.25500000920E-02 0.  1.
</event>
<event>
 5   0  0.8305271E-04  0.1099955E+04  0.7818609E-02  0.9205236E-01
       -1   -1    0    0    0  501  0.00000000000E+00  0.00000000000E+00  0.34129105303E+03  0.34129105307E+03  0.50400001928E-02 0.  1.
        1   -1    0    0  501    0  0.00000000000E+00  0.00000000000E+00 -0.88626693736E+03  0.88626693738E+03  0.50400001928E-02 0. -1.
    10030    2    1    2    0    0  0.00000000000E+00  0.00000000000E+00 -0.54497588433E+03  0.12275579904E+04  0.10999545015E+04 0.  0.
        5    1    3    3  502    0 -0.39074929691E+03  0.11841716557E+03 -0.68366570017E+03  0.79632186817E+03  0.46999998093E+01 0. -1.
       -5    1    3    3    0  502  0.39074929691E+03 -0.11841716557E+03  0.13868981584E+03  0.43123612227E+03  0.46999998093E+01 0.  1.
</event>
<event>
 5   0  0.1396936E-03  0.1065623E+04  0.7818609E-02  0.9239361E-01
       -2   -1    0    0    0  501  0.00000000000E+00  0.00000000000E+00  0.12355001999E+03  0.12355002002E+03  0.25500000920E-02 0.  1.
        2   -1    0    0  501    0  0.00000000000E+00  0.00000000000E+00 -0.22977596858E+04  0.22977596858E+04  0.25500000920E-02 0. -1.
    10030    2    1    2    0    0  0.00000000000E+00  0.00000000000E+00 -0.21742096658E+04  0.24213097058E+04  0.10656233014E+04 0.  0.
        2    1    3    3  502    0 -0.15473065190E+03 -0.26079434485E+03 -0.20825594131E+04  0.21045210795E+04  0.25500000920E-02 0. -1.
       -2    1    3    3    0  502  0.15473065190E+03  0.26079434485E+03 -0.91650252729E+02  0.31678862634E+03  0.25500000920E-02 0.  1.
</event>
<event>
 5   0  0.1396936E-03  0.1093273E+04  0.7818609E-02  0.9211773E-01
        2   -1    0    0  501    0  0.00000000000E+00  0.00000000000E+00  0.85601083664E+03  0.85601083664E+03  0.25500000920E-02 0. -1.
       -2   -1    0    0    0  501  0.00000000000E+00  0.00000000000E+00 -0.34907435176E+03  0.34907435177E+03  0.25500000920E-02 0.  1.
    10030    2    1    2    0    0  0.00000000000E+00  0.00000000000E+00  0.50693648488E+03  0.12050851884E+04  0.10932729356E+04 0.  0.
        2    1    3    3  502    0 -0.17341118197E+03  0.49918872730E+03  0.99344606651E+02  0.53770826140E+03  0.25500000920E-02 0.  1.
       -2    1    3    3    0  502  0.17341118197E+03 -0.49918872730E+03  0.40759187823E+03  0.66737692701E+03  0.25500000920E-02 0. -1.
</event>
<event>
 5   0  0.8150924E-04  0.1102089E+04  0.7818609E-02  0.9203158E-01
        1   -1    0    0  501    0  0.00000000000E+00  0.00000000000E+00  0.74891782477E+03  0.74891782479E+03  0.50400001928E-02 0.  1.
       -1   -1    0    0    0  501  0.00000000000E+00  0.00000000000E+00 -0.40545202761E+03  0.40545202765E+03  0.50400001928E-02 0. -1.
    10030    2    1    2    0    0  0.00000000000E+00  0.00000000000E+00  0.34346579716E+03  0.11543698524E+04  0.11020893804E+04 0.  0.
        3    1    3    3  502    0 -0.80655721801E+02 -0.32111610047E+03 -0.28965039756E+03  0.43990710207E+03  0.10100000352E+00 0. -1.
       -3    1    3    3    0  502  0.80655721801E+02  0.32111610047E+03  0.63311619472E+03  0.71446275036E+03  0.10100000352E+00 0.  1.
</event>
<event>
 5   0  0.1372794E-03  0.1103621E+04  0.7818609E-02  0.9201670E-01
       -2   -1    0    0    0  501  0.00000000000E+00  0.00000000000E+00  0.12932611188E+03  0.12932611191E+03  0.25500000920E-02 0. -1.
        2   -1    0    0  501    0  0.00000000000E+00  0.00000000000E+00 -0.23544727438E+04  0.23544727438E+04  0.25500000920E-02 0.  1.
    10030    2    1    2    0    0  0.00000000000E+00  0.00000000000E+00 -0.22251466319E+04  0.24837988557E+04  0.11036209594E+04 0.  0.
        4    1    3    3  502    0 -0.29155808004E+03  0.43366389805E+03 -0.71362352028E+03  0.88449456307E+03  0.12699999809E+01 0. -1.
       -4    1    3    3    0  502  0.29155808004E+03 -0.43366389805E+03 -0.15115231116E+04  0.15993042926E+04  0.12699999809E+01 0.  1.
</event>
<event>
 5   0  0.8009636E-04  0.1112829E+04  0.7818609E-02  0.9192778E-01
       -1   -1    0    0    0  501  0.00000000000E+00  0.00000000000E+00  0.23278558043E+03  0.23278558049E+03  0.50400001928E-02 0.  1.
        1   -1    0    0  501    0  0.00000000000E+00  0.00000000000E+00 -0.13299662702E+04  0.13299662702E+04  0.50400001928E-02 0. -1.
    10030    2    1    2    0    0  0.00000000000E+00  0.00000000000E+00 -0.10971806898E+04  0.15627518507E+04  0.11128287743E+04 0.  0.
        1    1    3    3  502    0  0.34102262070E+03  0.12995794675E+03 -0.11384179440E+04  0.11954835470E+04  0.50400001928E-02 0. -1.
       -1    1    3    3    0  502 -0.34102262070E+03 -0.12995794675E+03  0.41237254270E+02  0.36726830372E+03  0.50400001928E-02 0.  1.
</event>
<event>
 5   0  0.1396936E-03  0.1097752E+04  0.7818609E-02  0.9207386E-01
        2   -1    0    0  501    0  0.00000000000E+00  0.00000000000E+00  0.29203670242E+03  0.29203670243E+03  0.25500000920E-02 0. -1.
       -2   -1    0    0    0  501  0.00000000000E+00  0.00000000000E+00 -0.10315989396E+04  0.10315989396E+04  0.25500000920E-02 0.  1.
    10030    2    1    2    0    0  0.00000000000E+00  0.00000000000E+00 -0.73956223717E+03  0.13236356420E+04  0.10977517981E+04 0.  0.
        2    1    3    3  502    0 -0.37016599556E+03 -0.60438608043E+02 -0.85297594751E+03  0.93179593079E+03  0.25500000920E-02 0.  1.
       -2    1    3    3    0  502  0.37016599556E+03  0.60438608043E+02  0.11341371034E+03  0.39183971124E+03  0.25500000920E-02 0. -1.
</event>
<event>
 5   0  0.8150924E-04  0.1102164E+04  0.7818609E-02  0.9203086E-01
        1   -1    0    0  501    0  0.00000000000E+00  0.00000000000E+00  0.33909188577E+03  0.33909188581E+03  0.50400001928E-02 0. -1.
       -1   -1    0    0    0  501  0.00000000000E+00  0.00000000000E+00 -0.89560138936E+03  0.89560138938E+03  0.50400001928E-02 0.  1.
    10030    2    1    2    0    0  0.00000000000E+00  0.00000000000E+00 -0.55650950359E+03  0.12346932752E+04  0.11021636250E+04 0.  0.
        3    1    3    3  502    0 -0.30667925041E+03  0.38504963171E+03 -0.55578574769E+03  0.74243733004E+03  0.10100000352E+00 0.  1.
       -3    1    3    3    0  502  0.30667925041E+03 -0.38504963171E+03 -0.72375590583E+00  0.49225594514E+03  0.10100000352E+00 0. -1.
</event>
<event>
 5   0  0.1425432E-03  0.1100741E+04  0.7818609E-02  0.9204470E-01
       -2   -1    0    0    0  501  0.00000000000E+00  0.00000000000E+00  0.31068090256E+03  0.31068090257E+03  0.25500000920E-02 0. -1.
        2   -1    0    0  501    0  0.00000000000E+00  0.00000000000E+00 -0.97497957326E+03  0.97497957326E+03  0.25500000920E-02 0.  1.
    10030    2    1    2    0    0  0.00000000000E+00  0.00000000000E+00 -0.66429867070E+03  0.12856604758E+04  0.11007407212E+04 0.  0.
        1    1    3    3  502    0  0.85574090731E+02 -0.54352832824E+03 -0.34699552943E+03  0.65050124218E+03  0.50400001928E-02 0. -1.
       -1    1    3    3    0  502 -0.85574090731E+02  0.54352832824E+03 -0.31730314127E+03  0.63515923365E+03  0.50400001928E-02 0.  1.
</event>
<event>
 5   0  0.1402775E-03  0.1101220E+04  0.7818609E-02  0.9204004E-01
        2   -1    0    0  501    0  0.00000000000E+00  0.00000000000E+00  0.97731354916E+03  0.97731354916E+03  0.25500000920E-02 0.  1.
       -2   -1    0    0    0  501  0.00000000000E+00  0.00000000000E+00 -0.31020889450E+03  0.31020889451E+03  0.25500000920E-02 0. -1.
    10030    2    1    2    0    0  0.00000000000E+00  0.00000000000E+00  0.66710465465E+03  0.12875224437E+04  0.11012199702E+04 0.  0.
        5    1    3    3  502    0 -0.20891525194E+02  0.36283352480E+03  0.81712400595E+03  0.89431446015E+03  0.46999998093E+01 0.  1.
       -5    1    3    3    0  502  0.20891525194E+02 -0.36283352480E+03 -0.15001935129E+03  0.39320798352E+03  0.46999998093E+01 0. -1.
</event>
<event>
 5   0  0.8009636E-04  0.1099731E+04  0.7818609E-02  0.9205454E-01
        1   -1    0    0  501    0  0.00000000000E+00  0.00000000000E+00  0.10465633623E+04  0.10465633623E+04  0.50400001928E-02 0.  1.
       -1   -1    0    0    0  501  0.00000000000E+00  0.00000000000E+00 -0.28889980433E+03  0.28889980437E+03  0.50400001928E-02 0. -1.
    10030    2    1    2    0    0  0.00000000000E+00  0.00000000000E+00  0.75766355798E+03  0.13354631667E+04  0.10997307864E+04 0.  0.
        1    1    3    3  502    0  0.93753764609E+02 -0.12097212971E+03  0.10201765084E+04  0.10315930074E+04  0.50400001928E-02 0.  1.
       -1    1    3    3    0  502 -0.93753764609E+02  0.12097212971E+03 -0.26251295043E+03  0.30387015930E+03  0.50400001928E-02 0. -1.
</event>
<event>
 5   0  0.7946038E-04  0.1099120E+04  0.7818609E-02  0.9206050E-01
        1   -1    0    0  501    0  0.00000000000E+00  0.00000000000E+00  0.76080538645E+03  0.76080538647E+03  0.50400001928E-02 0.  1.
       -1   -1    0    0    0  501  0.00000000000E+00  0.00000000000E+00 -0.39696932187E+03  0.39696932190E+03  0.50400001928E-02 0. -1.
    10030    2    1    2    0    0  0.00000000000E+00  0.00000000000E+00  0.36383606458E+03  0.11577747084E+04  0.10991203726E+04 0.  0.
        4    1    3    3  502    0  0.27092115105E+03 -0.39576292941E+03  0.46454234240E+03  0.66770335267E+03  0.12699999809E+01 0.  1.
       -4    1    3    3    0  502 -0.27092115105E+03  0.39576292941E+03 -0.10070627781E+03  0.49007135570E+03  0.12699999809E+01 0. -1.
</event>
<event>
 5   0  0.7946038E-04  0.1101881E+04  0.7818609E-02  0.9203360E-01
       -1   -1    0    0    0  501  0.00000000000E+00  0.00000000000E+00  0.63253737281E+03  0.63253737283E+03  0.50400001928E-02 0.  1.
        1   -1    0    0  501    0  0.00000000000E+00  0.00000000000E+00 -0.47986993304E+03  0.47986993307E+03  0.50400001928E-02 0. -1.
    10030    2    1    2    0    0  0.00000000000E+00  0.00000000000E+00  0.15266743977E+03  0.11124073059E+04  0.11018814215E+04 0.  0.
        4    1    3    3  502    0  0.47727944246E+03 -0.50176977760E+02 -0.19684432171E+03  0.51871253617E+03  0.12699999809E+01 0. -1.
       -4    1    3    3    0  502 -0.47727944246E+03  0.50176977760E+02  0.34951176148E+03  0.59369476973E+03  0.12699999809E+01 0.  1.
</event>
<event>
 5   0  0.1396936E-03  0.1098726E+04  0.7818609E-02  0.9206435E-01
        2   -1    0    0  501    0  0.00000000000E+00  0.00000000000E+00  0.58560158405E+03  0.58560158406E+03  0.25500000920E-02 0.  1.
       -2   -1    0    0    0  501  0.00000000000E+00  0.00000000000E+00 -0.51536673734E+03  0.51536673735E+03  0.25500000920E-02 0. -1.
    10030    2    1    2    0    0  0.00000000000E+00  0.00000000000E+00  0.70234846713E+02  0.11009683214E+04  0.10987257670E+04 0.  0.
        2    1    3    3  502    0  0.48787181120E+03 -0.14397782982E+03 -0.17279355808E+03  0.53722074919E+03  0.25500000920E-02 0.  1.
       -2    1    3    3    0  502 -0.48787181120E+03  0.14397782982E+03  0.24302840479E+03  0.56374757222E+03  0.25500000920E-02 0. -1.
</event>
<event>
 5   0  0.1396936E-03  0.1099780E+04  0.7818609E-02  0.9205406E-01
       -2   -1    0    0    0  501  0.00000000000E+00  0.00000000000E+00  0.65501072957E+03  0.65501072957E+03  0.25500000920E-02 0.  1.
        2   -1    0    0  501    0  0.00000000000E+00  0.00000000000E+00 -0.46163993379E+03  0.46163993380E+03  0.25500000920E-02 0. -1.
    10030    2    1    2    0    0  0.00000000000E+00  0.00000000000E+00  0.19337079578E+03  0.11166506634E+04  0.10997801777E+04 0.  0.
        2    1    3    3  502    0  0.29781756735E+03 -0.20877280214E+03 -0.32207026310E+03  0.48580926372E+03  0.25500000920E-02 0. -1.
       -2    1    3    3    0  502 -0.29781756735E+03  0.20877280214E+03  0.51544105887E+03  0.63084139965E+03  0.25500000920E-02 0.  1.
</event>
<event>
 5   0  0.1372794E-03  0.1099958E+04  0.7818609E-02  0.9205232E-01
        2   -1    0    0  501    0  0.00000000000E+00  0.00000000000E+00  0.79388491960E+03  0.79388491960E+03  0.25500000920E-02 0. -1.
       -2   -1    0    0    0  501  0.00000000000E+00  0.00000000000E+00 -0.38100875199E+03  0.38100875200E+03  0.25500000920E-02 0.  1.
    10030    2    1    2    0    0  0.00000000000E+00  0.00000000000E+00  0.41287616760E+03  0.11748936716E+04  0.10999583673E+04 0.  0.
        4    1    3    3  502    0  0.10359935901E+03 -0.42330863783E+03 -0.15190564762E+03  0.46151919649E+03  0.12699999809E+01 0.  1.
       -4    1    3    3    0  502 -0.10359935901E+03  0.42330863783E+03  0.56478181522E+03  0.71337447512E+03  0.12699999809E+01 0. -1.
</event>
<event>
 5   0  0.1402775E-03  0.1102022E+04  0.7818609E-02  0.9203224E-01
        2   -1    0    0  501    0  0.00000000000E+00  0.00000000000E+00  0.93110678917E+03  0.93110678918E+03  0.25500000920E-02 0.  1.
       -2   -1    0    0    0  501  0.00000000000E+00  0.00000000000E+00 -0.32607750181E+03  0.32607750182E+03  0.25500000920E-02 0. -1.
    10030    2    1    2    0    0  0.00000000000E+00  0.00000000000E+00  0.60502928736E+03  0.12571842910E+04  0.11020217343E+04 0.  0.
        5    1    3    3  502    0  0.34401658254E+03  0.73817909074E+02  0.78623777744E+03  0.86138750016E+03  0.46999998093E+01 0.  1.
       -5    1    3    3    0  502 -0.34401658254E+03 -0.73817909074E+02 -0.18120849008E+03  0.39579679084E+03  0.46999998093E+01 0. -1.
</event>
<event>
 5   0  0.1396936E-03  0.1107734E+04  0.7818609E-02  0.9197687E-01
       -2   -1    0    0    0  501  0.00000000000E+00  0.00000000000E+00  0.15716268709E+03  0.15716268711E+03  0.25500000920E-02 0.  1.
        2   -1    0    0  501    0  0.00000000000E+00  0.00000000000E+00 -0.19519172035E+04  0.19519172035E+04  0.25500000920E-02 0. -1.
    10030    2    1    2    0    0  0.00000000000E+00  0.00000000000E+00 -0.17947545164E+04  0.21090798906E+04  0.11077338177E+04 0.  0.
        2    1    3    3  502    0  0.27124417903E+02 -0.18996152124E+03  0.91852613849E+02  0.21273931530E+03  0.25500000920E-02 0.  1.
       -2    1    3    3    0  502 -0.27124417903E+02  0.18996152124E+03 -0.18866071303E+04  0.18963405753E+04  0.25500000920E-02 0. -1.
</event>
<event>
 5   0  0.1425432E-03  0.1088602E+04  0.7818609E-02  0.9216373E-01
       -2   -1    0    0    0  501  0.00000000000E+00  0.00000000000E+00  0.15561379891E+03  0.15561379893E+03  0.25500000920E-02 0. -1.
        2   -1    0    0  501    0  0.00000000000E+00  0.00000000000E+00 -0.19038398568E+04  0.19038398568E+04  0.25500000920E-02 0.  1.
    10030    2    1    2    0    0  0.00000000000E+00  0.00000000000E+00 -0.17482260579E+04  0.20594536557E+04  0.10886023198E+04 0.  0.
        1    1    3    3  502    0 -0.22491576912E+03  0.80093272990E+02  0.51265408198E+02  0.24419291079E+03  0.50400001928E-02 0. -1.
       -1    1    3    3    0  502  0.22491576912E+03 -0.80093272990E+02 -0.17994914660E+04  0.18152607449E+04  0.50400001928E-02 0.  1.
</event>
<event>
 5   0  0.1372794E-03  0.1099826E+04  0.7818609E-02  0.9205362E-01
       -2   -1    0    0    0  501  0.00000000000E+00  0.00000000000E+00  0.37173249822E+03  0.37173249823E+03  0.25500000920E-02 0. -1.
        2   -1    0    0  501    0  0.00000000000E+00  0.00000000000E+00 -0.81349910225E+03  0.81349910225E+03  0.25500000920E-02 0.  1.
    10030    2    1    2    0    0  0.00000000000E+00  0.00000000000E+00 -0.44176660403E+03  0.11852316005E+04  0.10998255381E+04 0.  0.
        4    1    3    3  502    0  0.29930395836E+03  0.31731062642E+03 -0.58175033031E+03  0.72712031525E+03  0.12699999809E+01 0.  1.
       -4    1    3    3    0  502 -0.29930395836E+03 -0.31731062642E+03  0.13998372628E+03  0.45811128523E+03  0.12699999809E+01 0. -1.
</event>
<event>
 5   0  0.1372794E-03  0.1101261E+04  0.7818609E-02  0.9203963E-01
        2   -1    0    0  501    0  0.00000000000E+00  0.00000000000E+00  0.49901305643E+03  0.49901305644E+03  0.25500000920E-02 0.  1.
       -2   -1    0    0    0  501  0.00000000000E+00  0.00000000000E+00 -0.60758766434E+03  0.60758766435E+03  0.25500000920E-02 0. -1.
    10030    2    1    2    0    0  0.00000000000E+00  0.00000000000E+00 -0.10857460791E+03  0.11066007208E+04  0.11012614175E+04 0.  0.
        4    1    3    3  502    0  0.51467969919E+03  0.75956015460E+02  0.12694248131E+03  0.53551892170E+03  0.12699999809E+01 0.  1.
       -4    1    3    3    0  502 -0.51467969919E+03 -0.75956015460E+02 -0.23551708922E+03  0.57108179909E+03  0.12699999809E+01 0. -1.
</event>
<event>
 5   0  0.1402775E-03  0.1098088E+04  0.7818609E-02  0.9207058E-01
       -2   -1    0    0    0  501  0.00000000000E+00  0.00000000000E+00  0.27513323692E+03  0.27513323693E+03  0.25500000920E-02 0.  1.
        2   -1    0    0  501    0  0.00000000000E+00  0.00000000000E+00 -0.10956474955E+04  0.10956474955E+04  0.25500000920E-02 0. -1.
    10030    2    1    2    0    0  0.00000000000E+00  0.00000000000E+00 -0.82051425863E+03  0.13707807325E+04  0.10980875047E+04 0.  0.
        5    1    3    3  502    0 -0.28893473064E+03 -0.39468322049E+03 -0.99001378068E+02  0.49908064074E+03  0.46999998093E+01 0.  1.
       -5    1    3    3    0  502  0.28893473064E+03  0.39468322049E+03 -0.72151288056E+03  0.87170009173E+03  0.46999998093E+01 0. -1.
</event>
<event>
 5   0  0.8341767E-04  0.1102569E+04  0.7818609E-02  0.9202692E-01
        1   -1    0    0  501    0  0.00000000000E+00  0.00000000000E+00  0.35347881122E+03  0.35347881126E+03  0.50400001928E-02 0. -1.
       -1   -1    0    0    0  501  0.00000000000E+00  0.00000000000E+00 -0.85978149314E+03  0.85978149316E+03  0.50400001928E-02 0.  1.
    10030    2    1    2    0    0  0.00000000000E+00  0.00000000000E+00 -0.50630268192E+03  0.12132603044E+04  0.11025688915E+04 0.  0.
        2    1    3    3  502    0  0.29354366162E+03 -0.86695286470E+00  0.26032832974E+03  0.39235121022E+03  0.25500000920E-02 0. -1.
       -2    1    3    3    0  502 -0.29354366162E+03  0.86695286470E+00 -0.76663101167E+03  0.82090909420E+03  0.25500000920E-02 0.  1.
</event>
<event>
 5   0  0.1402775E-03  0.1109094E+04  0.7818609E-02  0.9196374E-01
       -2   -1    0    0    0  501  0.00000000000E+00  0.00000000000E+00  0.44817072058E+03  0.44817072059E+03  0.25500000920E-02 0. -1.
        2   -1    0    0  501    0  0.00000000000E+00  0.00000000000E+00 -0.68617210812E+03  0.68617210813E+03  0.25500000920E-02 0.  1.
    10030    2    1    2    0    0  0.00000000000E+00  0.00000000000E+00 -0.23800138754E+03  0.11343428287E+04  0.11090937709E+04 0.  0.
        5    1    3    3  502    0  0.14462986120E+03 -0.42602885209E+03 -0.45054362371E+03  0.63673387410E+03  0.46999998093E+01 0.  1.
       -5    1    3    3    0  502 -0.14462986120E+03  0.42602885209E+03  0.21254223618E+03  0.49760895462E+03  0.46999998093E+01 0. -1.
</event>
<event>
 5   0  0.1429680E-03  0.1099672E+04  0.7818609E-02  0.9205511E-01
        2   -1    0    0  501    0  0.00000000000E+00  0.00000000000E+00  0.88615347664E+03  0.88615347665E+03  0.25500000920E-02 0. -1.
       -2   -1    0    0    0  501  0.00000000000E+00  0.00000000000E+00 -0.34115958665E+03  0.34115958666E+03  0.25500000920E-02 0.  1.
    10030    2    1    2    0    0  0.00000000000E+00  0.00000000000E+00  0.54499388999E+03  0.12273130633E+04  0.10996722308E+04 0.  0.
        3    1    3    3  502    0 -0.47775611490E+03 -0.26822056456E+03  0.22102961521E+03  0.59080223221E+03  0.10100000352E+00 0.  1.
       -3    1    3    3    0  502  0.47775611490E+03  0.26822056456E+03  0.32396427478E+03  0.63651083110E+03  0.10100000352E+00 0. -1.
</event>
<event>
 5   0  0.5409500E-04  0.1108725E+04  0.7818609E-02  0.9196730E-01
        4   -1    0    0  501    0  0.00000000000E+00  0.00000000000E+00  0.44569361946E+03  0.44569542888E+03  0.12699999809E+01 0.  1.
       -4   -1    0    0    0  501  0.00000000000E+00  0.00000000000E+00 -0.68952288821E+03  0.68952405779E+03  0.12699999809E+01 0. -1.
    10030    2    1    2    0    0  0.00000000000E+00  0.00000000000E+00 -0.24382926875E+03  0.11352194867E+04  0.11087247497E+04 0.  0.
        4    1    3    3  502    0 -0.53050109846E+02 -0.43059738153E+03  0.23142258417E+03  0.49171785050E+03  0.12699999809E+01 0.  1.
       -4    1    3    3    0  502  0.53050109846E+02  0.43059738153E+03 -0.47525185292E+03  0.64350163616E+03  0.12699999809E+01 0. -1.
</event>
<event>
 5   0  0.8009636E-04  0.1100943E+04  0.7818609E-02  0.9204273E-01
       -1   -1    0    0    0  501  0.00000000000E+00  0.00000000000E+00  0.35869497588E+03  0.35869497592E+03  0.50400001928E-02 0. -1.
        1   -1    0    0  501    0  0.00000000000E+00  0.00000000000E+00 -0.84478215729E+03  0.84478215730E+03  0.50400001928E-02 0.  1.
    10030    2    1    2    0    0  0.00000000000E+00  0.00000000000E+00 -0.48608718140E+03  0.12034771332E+04  0.11009434419E+04 0.  0.
        1    1    3    3  502    0  0.15383059215E+03  0.23515736920E+03  0.27438615419E+03  0.39274750286E+03  0.50400001928E-02 0. -1.
       -1    1    3    3    0  502 -0.15383059215E+03 -0.23515736920E+03 -0.76047333559E+03  0.81072963036E+03  0.50400001928E-02 0.  1.
</event>
<event>
 5   0  0.8305271E-04  0.1097337E+04  0.7818609E-02  0.9207791E-01
       -1   -1    0    0    0  501  0.00000000000E+00  0.00000000000E+00  0.53082749009E+03  0.53082749011E+03  0.50400001928E-02 0.  1.
        1   -1    0    0  501    0  0.00000000000E+00  0.00000000000E+00 -0.56710907990E+03  0.56710907992E+03  0.50400001928E-02 0. -1.
    10030    2    1    2    0    0  0.00000000000E+00  0.00000000000E+00 -0.36281589815E+02  0.10979365700E+04  0.10973369392E+04 0.  0.
        5    1    3    3  502    0 -0.42468803465E+03 -0.48711906644E+02 -0.36225055491E+03  0.56033947849E+03  0.46999998093E+01 0. -1.
       -5    1    3    3    0  502  0.42468803465E+03  0.48711906644E+02  0.32596896510E+03  0.53759709154E+03  0.46999998093E+01 0.  1.
</event>
<event>
 5   0  0.8305271E-04  0.1099041E+04  0.7818609E-02  0.9206127E-01
        1   -1    0    0  501    0  0.00000000000E+00  0.00000000000E+00  0.17859506366E+04  0.17859506366E+04  0.50400001928E-02 0.  1.
       -1   -1    0    0    0  501  0.00000000000E+00  0.00000000000E+00 -0.16908246822E+03  0.16908246829E+03  0.50400001928E-02 0. -1.
    10030    2    1    2    0    0  0.00000000000E+00  0.00000000000E+00  0.16168681684E+04  0.19550331049E+04  0.10990412946E+04 0.  0.
        5    1    3    3  502    0 -0.33721679855E+03 -0.34821106928E+03  0.34804181419E+03  0.59675900698E+03  0.46999998093E+01 0.  1.
       -5    1    3    3    0  502  0.33721679855E+03  0.34821106928E+03  0.12688263542E+04  0.13582740979E+04  0.46999998093E+01 0. -1.
</event>
<event>
 5   0  0.5409500E-04  0.1103823E+04  0.7818609E-02  0.9201473E-01
        3   -1    0    0  501    0  0.00000000000E+00  0.00000000000E+00  0.12001517575E+04  0.12001517618E+04  0.10100000352E+00 0.  1.
       -3   -1    0    0    0  501  0.00000000000E+00  0.00000000000E+00 -0.25380669496E+03  0.25380671505E+03  0.10100000352E+00 0. -1.
    10030    2    1    2    0    0  0.00000000000E+00  0.00000000000E+00  0.94634506254E+03  0.14539584768E+04  0.11038234799E+04 0.  0.
        5    1    3    3  502    0  0.19873386715E+03  0.47841711332E+03  0.22253562850E+03  0.56384597207E+03  0.46999998093E+01 0. -1.
       -5    1    3    3    0  502 -0.19873386715E+03 -0.47841711332E+03  0.72380943404E+03  0.89011250473E+03  0.46999998093E+01 0.  1.
</event>
<event>
 5   0  0.1425432E-03  0.1097648E+04  0.7818609E-02  0.9207488E-01
       -2   -1    0    0    0  501  0.00000000000E+00  0.00000000000E+00  0.53218442565E+03  0.53218442565E+03  0.25500000920E-02 0.  1.
        2   -1    0    0  501    0  0.00000000000E+00  0.00000000000E+00 -0.56598342809E+03  0.56598342810E+03  0.25500000920E-02 0. -1.
    10030    2    1    2    0    0  0.00000000000E+00  0.00000000000E+00 -0.33799002445E+02  0.10981678537E+04  0.10976476039E+04 0.  0.
        1    1    3    3  502    0  0.25708373331E+03  0.44569790296E+02 -0.49996274473E+03  0.56395146802E+03  0.50400001928E-02 0. -1.
       -1    1    3    3    0  502 -0.25708373331E+03 -0.44569790296E+02  0.46616374228E+03  0.53421638573E+03  0.50400001928E-02 0.  1.
</event>
<event>
 5   0  0.1425432E-03  0.1103856E+04  0.7818609E-02  0.9201442E-01
       -2   -1    0    0    0  501  0.00000000000E+00  0.00000000000E+00  0.18633991881E+03  0.18633991883E+03  0.25500000920E-02 0.  1.
        2   -1    0    0  501    0  0.00000000000E+00  0.00000000000E+00 -0.16347780923E+04  0.16347780923E+04  0.25500000920E-02 0. -1.
    10030    2    1    2    0    0  0.00000000000E+00  0.00000000000E+00 -0.14484381735E+04  0.18211180111E+04  0.11038558185E+04 0.  0.
        1    1    3    3  502    0  0.41603682916E+03 -0.33297221002E+03 -0.48704490441E+03  0.72192096160E+03  0.50400001928E-02 0. -1.
       -1    1    3    3    0  502 -0.41603682916E+03  0.33297221002E+03 -0.96139326908E+03  0.10991970495E+04  0.50400001928E-02 0.  1.
</event>
<event>
 5   0  0.7946038E-04  0.1098675E+04  0.7818609E-02  0.9206484E-01
        1   -1    0    0  501    0  0.00000000000E+00  0.00000000000E+00  0.90676979338E+03  0.90676979339E+03  0.50400001928E-02 0. -1.
       -1   -1    0    0    0  501  0.00000000000E+00  0.00000000000E+00 -0.33279881962E+03  0.33279881966E+03  0.50400001928E-02 0.  1.
    10030    2    1    2    0    0  0.00000000000E+00  0.00000000000E+00  0.57397097376E+03  0.12395686130E+04  0.10986754151E+04 0.  0.
        4    1    3    3  502    0  0.15216616468E+03  0.43384653786E+02  0.88050097866E+03  0.89460625762E+03  0.12699999809E+01 0. -1.
       -4    1    3    3    0  502 -0.15216616468E+03 -0.43384653786E+02 -0.30653000490E+03  0.34496235543E+03  0.12699999809E+01 0.  1.
</event>
<event>
 5   0  0.1396936E-03  0.1099164E+04  0.7818609E-02  0.9206007E-01
       -2   -1    0    0    0  501  0.00000000000E+00  0.00000000000E+00  0.23938140272E+03  0.23938140273E+03  0.25500000920E-02 0.  1.
        2   -1    0    0  501    0  0.00000000000E+00  0.00000000000E+00 -0.12617547940E+04  0.12617547940E+04  0.25500000920E-02 0. -1.
    10030    2    1    2    0    0  0.00000000000E+00  0.00000000000E+00 -0.10223733913E+04  0.15011361967E+04  0.10991644690E+04 0.  0.
        2    1    3    3  502    0 -0.95779300450E+02 -0.20576882426E+03 -0.11947581954E+04  0.12161256633E+04  0.25500000920E-02 0. -1.
       -2    1    3    3    0  502  0.95779300450E+02  0.20576882426E+03  0.17238480417E+03  0.28501053340E+03  0.25500000920E-02 0.  1.
</event>
<event>
 5   0  0.5409500E-04  0.1105988E+04  0.7818609E-02  0.9199375E-01
       -3   -1    0    0    0  501  0.00000000000E+00  0.00000000000E+00  0.15644667114E+04  0.15644667147E+04  0.10100000352E+00 0. -1.
        3   -1    0    0  501    0  0.00000000000E+00  0.00000000000E+00 -0.19546763809E+03  0.19546766418E+03  0.10100000352E+00 0.  1.
    10030    2    1    2    0    0  0.00000000000E+00  0.00000000000E+00  0.13689990733E+04  0.17599343788E+04  0.11059884968E+04 0.  0.
        4    1    3    3  502    0 -0.14588000319E+03 -0.50780760709E+03  0.94428004901E+03  0.10820424969E+04  0.12699999809E+01 0.  1.
       -4    1    3    3    0  502  0.14588000319E+03  0.50780760709E+03  0.42471902430E+03  0.67789188198E+03  0.12699999809E+01 0. -1.
</event>
<event>
 5   0  0.1402775E-03  0.1113768E+04  0.7818609E-02  0.9191875E-01
        2   -1    0    0  501    0  0.00000000000E+00  0.00000000000E+00  0.20180166542E+04  0.20180166542E+04  0.25500000920E-02 0.  1.
       -2   -1    0    0    0  501  0.00000000000E+00  0.00000000000E+00 -0.15367562395E+03  0.15367562398E+03  0.25500000920E-02 0. -1.
    10030    2    1    2    0    0  0.00000000000E+00  0.00000000000E+00  0.18643410302E+04  0.21716922782E+04  0.11137683215E+04 0.  0.
        5    1    3    3  502    0 -0.23011135127E+03  0.43801712419E+03  0.43395307910E+03  0.65813949884E+03  0.46999998093E+01 0. -1.
       -5    1    3    3    0  502  0.23011135127E+03 -0.43801712419E+03  0.14303879511E+04  0.15135527793E+04  0.46999998093E+01 0.  1.
</event>
<event>
 5   0  0.1402775E-03  0.1099205E+04  0.7818609E-02  0.9205967E-01
       -2   -1    0    0    0  501  0.00000000000E+00  0.00000000000E+00  0.12118469820E+04  0.12118469820E+04  0.25500000920E-02 0.  1.
        2   -1    0    0  501    0  0.00000000000E+00  0.00000000000E+00 -0.24925819706E+03  0.24925819707E+03  0.25500000920E-02 0. -1.
    10030    2    1    2    0    0  0.00000000000E+00  0.00000000000E+00  0.96258878496E+03  0.14611051791E+04  0.10992047923E+04 0.  0.
        5    1    3    3  502    0 -0.92123119453E+02 -0.20765132727E+03 -0.18390270478E+03  0.29231496315E+03  0.46999998093E+01 0. -1.
       -5    1    3    3    0  502  0.92123119453E+02  0.20765132727E+03  0.11464914897E+04  0.11687902160E+04  0.46999998093E+01 0.  1.
</event>
<event>
 5   0  0.8009636E-04  0.1100654E+04  0.7818609E-02  0.9204555E-01
       -1   -1    0    0    0  501  0.00000000000E+00  0.00000000000E+00  0.71108341074E+03  0.71108341076E+03  0.50400001928E-02 0. -1.
        1   -1    0    0  501    0  0.00000000000E+00  0.00000000000E+00 -0.42591297158E+03  0.42591297161E+03  0.50400001928E-02 0.  1.
    10030    2    1    2    0    0  0.00000000000E+00  0.00000000000E+00  0.28517043916E+03  0.11369963824E+04  0.11006537122E+04 0.  0.
        1    1    3    3  502    0 -0.15918666177E+02 -0.34760736912E+03  0.58301420073E+03  0.67896232979E+03  0.50400001928E-02 0. -1.
       -1    1    3    3    0  502  0.15918666177E+02  0.34760736912E+03 -0.29784376157E+03  0.45803405258E+03  0.50400001928E-02 0.  1.
</event>
<event>
 5   0  0.7946038E-04  0.1088020E+04  0.7818609E-02  0.9216948E-01
       -1   -1    0    0    0  501  0.00000000000E+00  0.00000000000E+00  0.45811369623E+03  0.45811369625E+03  0.50400001928E-02 0. -1.
        1   -1    0    0  501    0  0.00000000000E+00  0.00000000000E+00 -0.64601160043E+03  0.64601160045E+03  0.50400001928E-02 0.  1.
    10030    2    1    2    0    0  0.00000000000E+00  0.00000000000E+00 -0.18789790420E+03  0.11041252967E+04  0.10880197831E+04 0.  0.
        4    1    3    3  502    0  0.24259241259E+03 -0.20604747888E+03 -0.54165808157E+03  0.62825292075E+03  0.12699999809E+01 0.  1.
       -4    1    3    3    0  502 -0.24259241259E+03  0.20604747888E+03  0.35376017737E+03  0.47587237595E+03  0.12699999809E+01 0. -1.
</event>
<event>
 5   0  0.1429680E-03  0.1101010E+04  0.7818609E-02  0.9204208E-01
       -2   -1    0    0    0  501  0.00000000000E+00  0.00000000000E+00  0.26754908335E+03  0.26754908336E+03  0.25500000920E-02 0. -1.
        2   -1    0    0  501    0  0.00000000000E+00  0.00000000000E+00 -0.11327115500E+04  0.11327115500E+04  0.25500000920E-02 0.  1.
    10030    2    1    2    0    0  0.00000000000E+00  0.00000000000E+00 -0.86516246663E+03  0.14002606333E+04  0.11010103304E+04 0.  0.
        3    1    3    3  502    0 -0.49105511670E+03  0.86653103287E+02 -0.13591713991E+03  0.51683398404E+03  0.10100000352E+00 0. -1.
       -3    1    3    3    0  502  0.49105511670E+03 -0.86653103287E+02 -0.72924532672E+03  0.88342664930E+03  0.10100000352E+00 0.  1.
</event>
<event>
 5   0  0.1425432E-03  0.1094763E+04  0.7818609E-02  0.9210312E-01
       -2   -1    0    0    0  501  0.00000000000E+00  0.00000000000E+00  0.85040317209E+03  0.85040317209E+03  0.25500000920E-02 0.  1.
        2   -1    0    0  501    0  0.00000000000E+00  0.00000000000E+00 -0.35233436916E+03  0.35233436917E+03  0.25500000920E-02 0. -1.
    10030    2    1    2    0    0  0.00000000000E+00  0.00000000000E+00  0.49806880293E+03  0.12027375413E+04  0.10947625591E+04 0.  0.
        1    1    3    3  502    0 -0.11412743565E+03  0.30560056348E+03  0.73194324302E+03  0.80134741966E+03  0.50400001928E-02 0.  1.
       -1    1    3    3    0  502  0.11412743565E+03 -0.30560056348E+03 -0.23387444009E+03  0.40139012160E+03  0.50400001928E-02 0. -1.
</event>
<event>
 5   0  0.1402775E-03  0.1099438E+04  0.7818609E-02  0.9205740E-01
       -2   -1    0    0    0  501  0.00000000000E+00  0.00000000000E+00  0.27408815778E+03  0.27408815779E+03  0.25500000920E-02 0.  1.
        2   -1    0    0  501    0  0.00000000000E+00  0.00000000000E+00 -0.11025314971E+04  0.11025314971E+04  0.25500000920E-02 0. -1.
    10030    2    1    2    0    0  0.00000000000E+00  0.00000000000E+00 -0.82844333934E+03  0.13766196549E+04  0.10994377235E+04 0.  0.
        5    1    3    3  502    0 -0.37732939051E+03 -0.15074249821E+03  0.49344055408E+02  0.40933811881E+03  0.46999998093E+01 0.  1.
       -5    1    3    3    0  502  0.37732939051E+03  0.15074249821E+03 -0.87778739475E+03  0.96728153611E+03  0.46999998093E+01 0. -1.
</event>
<event>
 5   0  0.5409500E-04  0.1097469E+04  0.7818609E-02  0.9207662E-01
        4   -1    0    0  501    0  0.00000000000E+00  0.00000000000E+00  0.35003346944E+03  0.35003577336E+03  0.12699999809E+01 0. -1.
       -4   -1    0    0    0  501  0.00000000000E+00  0.00000000000E+00 -0.86022532795E+03  0.86022626544E+03  0.12699999809E+01 0.  1.
    10030    2    1    2    0    0  0.00000000000E+00  0.00000000000E+00 -0.51019185851E+03  0.12102620388E+04  0.10974691203E+04 0.  0.
        4    1    3    3  502    0  0.94147393897E+02 -0.36525546596E+03  0.18440225503E+03  0.41985841870E+03  0.12699999809E+01 0. -1.
       -4    1    3    3    0  502 -0.94147393897E+02  0.36525546596E+03 -0.69459411354E+03  0.79040362010E+03  0.12699999809E+01 0.  1.
</event>
<event>
 5   0  0.1429680E-03  0.1099308E+04  0.7818609E-02  0.9205866E-01
        2   -1    0    0  501    0  0.00000000000E+00  0.00000000000E+00  0.68380216496E+03  0.68380216497E+03  0.25500000920E-02 0.  1.
       -2   -1    0    0    0  501  0.00000000000E+00  0.00000000000E+00 -0.44182332116E+03  0.44182332117E+03  0.25500000920E-02 0. -1.
    10030    2    1    2    0    0  0.00000000000E+00  0.00000000000E+00  0.24197884380E+03  0.11256254861E+04  0.10993084072E+04 0.  0.
        3    1    3    3  502    0 -0.12352750951E+03  0.53435380599E+03  0.83693584180E+02  0.55479515302E+03  0.10100000352E+00 0.  1.
       -3    1    3    3    0  502  0.12352750951E+03 -0.53435380599E+03  0.15828525962E+03  0.57083033311E+03  0.10100000352E+00 0. -1.
</event>
<event>
 5   0  0.1372794E-03  0.1100037E+04  0.7818609E-02  0.9205156E-01
        2   -1    0    0  501    0  0.00000000000E+00  0.00000000000E+00  0.19388323786E+04  0.19388323786E+04  0.25500000920E-02 0. -1.
       -2   -1    0    0    0  501  0.00000000000E+00  0.00000000000E+00 -0.15603231645E+03  0.15603231647E+03  0.25500000920E-02 0.  1.
    10030    2    1    2    0    0  0.00000000000E+00  0.00000000000E+00  0.17828000621E+04  0.20948646950E+04  0.11000372853E+04 0.  0.
        4    1    3    3  502    0 -0.38729210437E+03  0.14322626385E+03  0.19948635023E+03  0.45859061656E+03  0.12699999809E+01 0.  1.
       -4    1    3    3    0  502  0.38729210437E+03 -0.14322626385E+03  0.15833137119E+04  0.16362740785E+04  0.12699999809E+01 0. -1.
</event>
<event>
 5   0  0.8305271E-04  0.1102340E+04  0.7818609E-02  0.9202914E-01
        1   -1    0    0  501    0  0.00000000000E+00  0.00000000000E+00  0.64939891693E+03  0.64939891695E+03  0.50400001928E-02 0.  1.
       -1   -1    0    0    0  501  0.00000000000E+00  0.00000000000E+00 -0.46779910693E+03  0.46779910696E+03  0.50400001928E-02 0. -1.
    10030    2    1    2    0    0  0.00000000000E+00  0.00000000000E+00  0.18159981000E+03  0.11171980239E+04  0.11023397542E+04 0.  0.
        5    1    3    3  502    0  0.28684452751E+02  0.44759139423E+03 -0.23383825173E+03  0.50582929135E+03  0.46999998093E+01 0. -1.
       -5    1    3    3    0  502 -0.28684452751E+02 -0.44759139423E+03  0.41543806173E+03  0.61136873256E+03  0.46999998093E+01 0.  1.
</event>
<event>
 5   0  0.1429680E-03  0.1100404E+04  0.7818609E-02  0.9204798E-01
        2   -1    0    0  501    0  0.00000000000E+00  0.00000000000E+00  0.95249805465E+03  0.95249805466E+03  0.25500000920E-02 0. -1.
       -2   -1    0    0    0  501  0.00000000000E+00  0.00000000000E+00 -0.31781934596E+03  0.31781934597E+03  0.25500000920E-02 0.  1.
    10030    2    1    2    0    0  0.00000000000E+00  0.00000000000E+00  0.63467870869E+03  0.12703174006E+04  0.11004041235E+04 0.  0.
        3    1    3    3  502    0  0.16640163751E+03 -0.51390518162E+03  0.19662617333E+03  0.57484772149E+03  0.10100000352E+00 0.  1.
       -3    1    3    3    0  502 -0.16640163751E+03  0.51390518162E+03  0.43805253536E+03  0.69546967914E+03  0.10100000352E+00 0. -1.
</event>
<event>
 5   0  0.1372794E-03  0.1101467E+04  0.7818609E-02  0.9203763E-01
        2   -1    0    0  501    0  0.00000000000E+00  0.00000000000E+00  0.10234423670E+04  0.10234423670E+04  0.25500000920E-02 0.  1.
       -2   -1    0    0    0  501  0.00000000000E+00  0.00000000000E+00 -0.29635992151E+03  0.29635992152E+03  0.25500000920E-02 0. -1.
    10030    2    1    2    0    0  0.00000000000E+00  0.00000000000E+00  0.72708244547E+03  0.13198022885E+04  0.11014668394E+04 0.  0.
        4    1    3    3  502    0  0.58203804118E+02  0.11854767727E+02 -0.29250878359E+03  0.29848152323E+03  0.12699999809E+01 0. -1.
       -4    1    3    3    0  502 -0.58203804118E+02 -0.11854767727E+02  0.10195912291E+04  0.10213207653E+04  0.12699999809E+01 0.  1.
</event>
<event>
 5   0  0.1425432E-03  0.1050763E+04  0.7818609E-02  0.9254556E-01
       -2   -1    0    0    0  501  0.00000000000E+00  0.00000000000E+00  0.12582730525E+03  0.12582730527E+03  0.25500000920E-02 0.  1.
        2   -1    0    0  501    0  0.00000000000E+00  0.00000000000E+00 -0.21936887906E+04  0.21936887906E+04  0.25500000920E-02 0. -1.
    10030    2    1    2    0    0  0.00000000000E+00  0.00000000000E+00 -0.20678614853E+04  0.23195160959E+04  0.10507634350E+04 0.  0.
        1    1    3    3  502    0  0.49909752242E+03  0.68263119911E+02 -0.70452535979E+03  0.86609131910E+03  0.50400001928E-02 0.  1.
       -1    1    3    3    0  502 -0.49909752242E+03 -0.68263119911E+02 -0.13633361256E+04  0.14534247768E+04  0.50400001928E-02 0. -1.
</event>
<event>
 5   0  0.7946038E-04  0.1089746E+04  0.7818609E-02  0.9215244E-01
       -1   -1    0    0    0  501  0.00000000000E+00  0.00000000000E+00  0.23905071750E+03  0.23905071755E+03  0.50400001928E-02 0. -1.
        1   -1    0    0  501    0  0.00000000000E+00  0.00000000000E+00 -0.12419392989E+04  0.12419392990E+04  0.50400001928E-02 0.  1.
    10030    2    1    2    0    0  0.00000000000E+00  0.00000000000E+00 -0.10028885814E+04  0.14809900165E+04  0.10897458062E+04 0.  0.
        4    1    3    3  502    0  0.30051620917E+03  0.41706264735E+03 -0.74694885816E+03  0.90674442562E+03  0.12699999809E+01 0. -1.
       -4    1    3    3    0  502 -0.30051620917E+03 -0.41706264735E+03 -0.25593972329E+03  0.57424559088E+03  0.12699999809E+01 0.  1.
</event>
<event>
 5   0  0.1429680E-03  0.1092409E+04  0.7818609E-02  0.9212623E-01
        2   -1    0    0  501    0  0.00000000000E+00  0.00000000000E+00  0.13609054366E+04  0.13609054366E+04  0.25500000920E-02 0. -1.
       -2   -1    0    0    0  501  0.00000000000E+00  0.00000000000E+00 -0.21922108284E+03  0.21922108285E+03  0.25500000920E-02 0.  1.
    10030    2    1    2    0    0  0.00000000000E+00  0.00000000000E+00  0.11416843538E+04  0.15801265195E+04  0.10924086479E+04 0.  0.
        3    1    3    3  502    0  0.36772126994E+03  0.21324796408E+03  0.10669709808E+04  0.11485298040E+04  0.10100000352E+00 0. -1.
       -3    1    3    3    0  502 -0.36772126994E+03 -0.21324796408E+03  0.74713373016E+02  0.43159671553E+03  0.10100000352E+00 0.  1.
</event>
<event>
 5   0  0.1402775E-03  0.1104702E+04  0.7818609E-02  0.9200621E-01
        2   -1    0    0  501    0  0.00000000000E+00  0.00000000000E+00  0.98241105568E+03  0.98241105568E+03  0.25500000920E-02 0. -1.
       -2   -1    0    0    0  501  0.00000000000E+00  0.00000000000E+00 -0.31055417722E+03  0.31055417723E+03  0.25500000920E-02 0.  1.
    10030    2    1    2    0    0  0.00000000000E+00  0.00000000000E+00  0.67185687846E+03  0.12929652329E+04  0.11047024162E+04 0.  0.
        5    1    3    3  502    0 -0.28813757664E+02 -0.52248817535E+02  0.97860448403E+03  0.98043306642E+03  0.46999998093E+01 0. -1.
       -5    1    3    3    0  502  0.28813757664E+02  0.52248817535E+02 -0.30674760558E+03  0.31253216649E+03  0.46999998093E+01 0.  1.
</event>
<event>
 5   0  0.8150924E-04  0.1108729E+04  0.7818609E-02  0.9196726E-01
       -1   -1    0    0    0  501  0.00000000000E+00  0.00000000000E+00  0.56669738930E+03  0.56669738932E+03  0.50400001928E-02 0. -1.
        1   -1    0    0  501    0  0.00000000000E+00  0.00000000000E+00 -0.54230003039E+03  0.54230003041E+03  0.50400001928E-02 0.  1.
    10030    2    1    2    0    0  0.00000000000E+00  0.00000000000E+00  0.24397358914E+02  0.11089974197E+04  0.11087290227E+04 0.  0.
        3    1    3    3  502    0  0.13997139892E+03  0.19405425011E+03  0.51239068650E+03  0.56550267047E+03  0.10100000352E+00 0. -1.
       -3    1    3    3    0  502 -0.13997139892E+03 -0.19405425011E+03 -0.48799332758E+03  0.54349474926E+03  0.10100000352E+00 0.  1.
</event>
<event>
 5   0  0.5409500E-04  0.1092504E+04  0.7818609E-02  0.9212529E-01
       -3   -1    0    0    0  501  0.00000000000E+00  0.00000000000E+00  0.51334927210E+03  0.51334928204E+03  0.10100000352E+00 0.  1.
        3   -1    0    0  501    0  0.00000000000E+00  0.00000000000E+00 -0.58126348951E+03  0.58126349829E+03  0.10100000352E+00 0. -1.
    10030    2    1    2    0    0  0.00000000000E+00  0.00000000000E+00 -0.67914217413E+02  0.10946127803E+04  0.10925039121E+04 0.  0.
        3    1    3    3  502    0 -0.44339680830E+02  0.19391921144E+03 -0.54368320385E+03  0.57893186491E+03  0.10100000352E+00 0. -1.
       -3    1    3    3    0  502  0.44339680830E+02 -0.19391921144E+03  0.47576898644E+03  0.51568091541E+03  0.10100000352E+00 0.  1.
</event>
<event>
 5   0  0.7946038E-04  0.1095965E+04  0.7818609E-02  0.9209133E-01
        1   -1    0    0  501    0  0.00000000000E+00  0.00000000000E+00  0.75355111352E+03  0.75355111354E+03  0.50400001928E-02 0. -1.
       -1   -1    0    0    0  501  0.00000000000E+00  0.00000000000E+00 -0.39849317660E+03  0.39849317663E+03  0.50400001928E-02 0.  1.
    10030    2    1    2    0    0  0.00000000000E+00  0.00000000000E+00  0.35505793692E+03  0.11520442902E+04  0.10959652859E+04 0.  0.
        4    1    3    3  502    0 -0.92704017956E+02 -0.47657792761E+03  0.44462263074E+03  0.65833992184E+03  0.12699999809E+01 0. -1.
       -4    1    3    3    0  502  0.92704017956E+02  0.47657792761E+03 -0.89564693822E+02  0.49370436833E+03  0.12699999809E+01 0.  1.
</event>
<event>
 5   0  0.1372794E-03  0.1101936E+04  0.7818609E-02  0.9203307E-01
        2   -1    0    0  501    0  0.00000000000E+00  0.00000000000E+00  0.36761557210E+03  0.36761557211E+03  0.25500000920E-02 0. -1.
       -2   -1    0    0    0  501  0.00000000000E+00  0.00000000000E+00 -0.82576968002E+03  0.82576968003E+03  0.25500000920E-02 0.  1.
    10030    2    1    2    0    0  0.00000000000E+00  0.00000000000E+00 -0.45815410792E+03  0.11933852521E+04  0.11019361022E+04 0.  0.
        4    1    3    3  502    0 -0.18201571317E+03 -0.29951478437E+03  0.23132133721E+03  0.41994047179E+03  0.12699999809E+01 0. -1.
       -4    1    3    3    0  502  0.18201571317E+03  0.29951478437E+03 -0.68947544513E+03  0.77344478034E+03  0.12699999809E+01 0.  1.
</event>
<event>
 5   0  0.8150924E-04  0.1101273E+04  0.7818609E-02  0.9203952E-01
        1   -1    0    0  501    0  0.00000000000E+00  0.00000000000E+00  0.61025517452E+03  0.61025517454E+03  0.50400001928E-02 0. -1.
       -1   -1    0    0    0  501  0.00000000000E+00  0.00000000000E+00 -0.49684192932E+03  0.49684192934E+03  0.50400001928E-02 0.  1.
    10030    2    1    2    0    0  0.00000000000E+00  0.00000000000E+00  0.11341324520E+03  0.11070971039E+04  0.11012726426E+04 0.  0.
        3    1    3    3  502    0  0.30701421423E+03 -0.15428401471E+03  0.48926018671E+03  0.59786020559E+03  0.10100000352E+00 0. -1.
       -3    1    3    3    0  502 -0.30701421423E+03  0.15428401471E+03 -0.37584694150E+03  0.50923689829E+03  0.10100000352E+00 0.  1.
</event>
<event>
 5   0  0.1402775E-03  0.1101114E+04  0.7818609E-02  0.9204106E-01
       -2   -1    0    0    0  501  0.00000000000E+00  0.00000000000E+00  0.21086747451E+03  0.21086747452E+03  0.25500000920E-02 0.  1.
        2   -1    0    0  501    0  0.00000000000E+00  0.00000000000E+00 -0.14374582843E+04  0.14374582843E+04  0.25500000920E-02 0. -1.
    10030    2    1    2    0    0  0.00000000000E+00  0.00000000000E+00 -0.12265908098E+04  0.16483257589E+04  0.11011143413E+04 0.  0.
        5    1    3    3  502    0 -0.77593581274E+01 -0.43787933026E+03 -0.11126899064E+04  0.11957840245E+04  0.46999998093E+01 0.  1.
       -5    1    3    3    0  502  0.77593581274E+01  0.43787933026E+03 -0.11390090341E+03  0.45254173432E+03  0.46999998093E+01 0. -1.
</event>
<event>
 5   0  0.1396936E-03  0.1098167E+04  0.7818609E-02  0.9206980E-01
       -2   -1    0    0    0  501  0.00000000000E+00  0.00000000000E+00  0.12762466385E+03  0.12762466388E+03  0.25500000920E-02 0. -1.
        2   -1    0    0  501    0  0.00000000000E+00  0.00000000000E+00 -0.23623384237E+04  0.23623384237E+04  0.25500000920E-02 0.  1.
    10030    2    1    2    0    0  0.00000000000E+00  0.00000000000E+00 -0.22347137598E+04  0.24899630875E+04  0.10981669222E+04 0.  0.
        2    1    3    3  502    0  0.36014204806E+03 -0.40066343031E+03 -0.87676680801E+03  0.10290546705E+04  0.25500000920E-02 0.  1.
       -2    1    3    3    0  502 -0.36014204806E+03  0.40066343031E+03 -0.13579469518E+04  0.14609084171E+04  0.25500000920E-02 0. -1.
</event>
<event>
 5   0  0.1402775E-03  0.1100336E+04  0.7818609E-02  0.9204864E-01
        2   -1    0    0  501    0  0.00000000000E+00  0.00000000000E+00  0.11230460869E+04  0.11230460869E+04  0.25500000920E-02 0. -1.
       -2   -1    0    0    0  501  0.00000000000E+00  0.00000000000E+00 -0.26952134821E+03  0.26952134822E+03  0.25500000920E-02 0.  1.
    10030    2    1    2    0    0  0.00000000000E+00  0.00000000000E+00  0.85352473865E+03  0.13925674351E+04  0.11003361222E+04 0.  0.
        5    1    3    3  502    0  0.44109848272E+03 -0.10579535445E+03  0.32797174225E+02  0.45481674674E+03  0.46999998093E+01 0.  1.
       -5    1    3    3    0  502 -0.44109848272E+03  0.10579535445E+03  0.82072756443E+03  0.93775068834E+03  0.46999998093E+01 0. -1.
</event>
<event>
 5   0  0.8305271E-04  0.1102880E+04  0.7818609E-02  0.9202389E-01
        1   -1    0    0  501    0  0.00000000000E+00  0.00000000000E+00  0.12113226742E+04  0.12113226742E+04  0.50400001928E-02 0. -1.
       -1   -1    0    0    0  501  0.00000000000E+00  0.00000000000E+00 -0.25103650942E+03  0.25103650947E+03  0.50400001928E-02 0.  1.
    10030    2    1    2    0    0  0.00000000000E+00  0.00000000000E+00  0.96028616481E+03  0.14623591837E+04  0.11028802582E+04 0.  0.
        5    1    3    3  502    0 -0.24618055151E+03  0.15277517874E+03  0.11022348674E+04  0.11396880766E+04  0.46999998093E+01 0. -1.
       -5    1    3    3    0  502  0.24618055151E+03 -0.15277517874E+03 -0.14194870256E+03  0.32267110707E+03  0.46999998093E+01 0.  1.
</event>
<event>
 5   0  0.7946038E-04  0.1102621E+04  0.7818609E-02  0.9202641E-01
        1   -1    0    0  501    0  0.00000000000E+00  0.00000000000E+00  0.11094352902E+04  0.11094352902E+04  0.50400001928E-02 0.  1.
       -1   -1    0    0    0  501  0.00000000000E+00  0.00000000000E+00 -0.27396207646E+03  0.27396207651E+03  0.50400001928E-02 0. -1.
    10030    2    1    2    0    0  0.00000000000E+00  0.00000000000E+00  0.83547321369E+03  0.13833973667E+04  0.11026208702E+04 0.  0.
        4    1    3    3  502    0  0.37604043241E+03 -0.38547088926E+03  0.26956435127E+03  0.60221322274E+03  0.12699999809E+01 0.  1.
       -4    1    3    3    0  502 -0.37604043241E+03  0.38547088926E+03  0.56590886242E+03  0.78118414393E+03  0.12699999809E+01 0. -1.
</event>
<event>
 5   0  0.1429680E-03  0.1104399E+04  0.7818609E-02  0.9200915E-01
       -2   -1    0    0    0  501  0.00000000000E+00  0.00000000000E+00  0.31283676015E+03  0.31283676016E+03  0.25500000920E-02 0. -1.
        2   -1    0    0  501    0  0.00000000000E+00  0.00000000000E+00 -0.97470695714E+03  0.97470695715E+03  0.25500000920E-02 0.  1.
    10030    2    1    2    0    0  0.00000000000E+00  0.00000000000E+00 -0.66187019699E+03  0.12875437173E+04  0.11043987805E+04 0.  0.
        3    1    3    3  502    0  0.17717144938E+03 -0.49552639725E+03 -0.52597442149E+03  0.74403308738E+03  0.10100000352E+00 0.  1.
       -3    1    3    3    0  502 -0.17717144938E+03  0.49552639725E+03 -0.13589577550E+03  0.54351062993E+03  0.10100000352E+00 0. -1.
</event>
<event>
 5   0  0.8341767E-04  0.1095841E+04  0.7818609E-02  0.9209255E-01
       -1   -1    0    0    0  501  0.00000000000E+00  0.00000000000E+00  0.32459231354E+03  0.32459231358E+03  0.50400001928E-02 0. -1.
        1   -1    0    0  501    0  0.00000000000E+00  0.00000000000E+00 -0.92490418680E+03  0.92490418682E+03  0.50400001928E-02 0.  1.
    10030    2    1    2    0    0  0.00000000000E+00  0.00000000000E+00 -0.60031187326E+03  0.12494965004E+04  0.10958408458E+04 0.  0.
        2    1    3    3  502    0 -0.52548457193E+03  0.15366336206E+03 -0.32488381713E+03  0.63662858781E+03  0.25500000920E-02 0.  1.
       -2    1    3    3    0  502  0.52548457193E+03 -0.15366336206E+03 -0.27542805613E+03  0.61286791259E+03  0.25500000920E-02 0. -1.
</event>
<event>
 5   0  0.1372794E-03  0.1098846E+04  0.7818609E-02  0.9206317E-01
       -2   -1    0    0    0  501  0.00000000000E+00  0.00000000000E+00  0.51416122385E+03  0.51416122386E+03  0.25500000920E-02 0. -1.
        2   -1    0    0  501    0  0.00000000000E+00  0.00000000000E+00 -0.58710354171E+03  0.58710354172E+03  0.25500000920E-02 0.  1.
    10030    2    1    2    0    0  0.00000000000E+00  0.00000000000E+00 -0.72942317856E+02  0.11012647656E+04  0.10988464416E+04 0.  0.
        4    1    3    3  502    0  0.37710903291E+03 -0.36501848477E+03 -0.19935436584E+03  0.56142095882E+03  0.12699999809E+01 0.  1.
       -4    1    3    3    0  502 -0.37710903291E+03  0.36501848477E+03  0.12641204798E+03  0.53984380676E+03  0.12699999809E+01 0. -1.
</event>
<event>
 5   0  0.7946038E-04  0.1122718E+04  0.7818609E-02  0.9183328E-01
       -1   -1    0    0    0  501  0.00000000000E+00  0.00000000000E+00  0.58300249861E+03  0.58300249863E+03  0.50400001928E-02 0. -1.
        1   -1    0    0  501    0  0.00000000000E+00  0.00000000000E+00 -0.54051895872E+03  0.54051895874E+03  0.50400001928E-02 0.  1.
    10030    2    1    2    0    0  0.00000000000E+00  0.00000000000E+00  0.42483539890E+02  0.11235214574E+04  0.11227179584E+04 0.  0.
        4    1    3    3  502    0  0.13928435837E+03 -0.16418061752E+03 -0.49755657147E+03  0.54214348873E+03  0.12699999809E+01 0.  1.
       -4    1    3    3    0  502 -0.13928435837E+03  0.16418061752E+03  0.54004011136E+03  0.58137796865E+03  0.12699999809E+01 0. -1.
</event>
<event>
 5   0  0.8009636E-04  0.1095919E+04  0.7818609E-02  0.9209178E-01
        1   -1    0    0  501    0  0.00000000000E+00  0.00000000000E+00  0.26724654511E+03  0.26724654516E+03  0.50400001928E-02 0. -1.
       -1   -1    0    0    0  501  0.00000000000E+00  0.00000000000E+00 -0.11235310812E+04  0.11235310812E+04  0.50400001928E-02 0.  1.
    10030    2    1    2    0    0  0.00000000000E+00  0.00000000000E+00 -0.85628453611E+03  0.13907776264E+04  0.10959193398E+04 0.  0.
        1    1    3    3  502    0  0.16386393362E+03 -0.52182192693E+03 -0.38585624372E+03  0.66935383244E+03  0.50400001928E-02 0. -1.
       -1    1    3    3    0  502 -0.16386393362E+03  0.52182192693E+03 -0.47042829240E+03  0.72142379395E+03  0.50400001928E-02 0.  1.
</event>
<event>
 5   0  0.8305271E-04  0.1101152E+04  0.7818609E-02  0.9204069E-01
       -1   -1    0    0    0  501  0.00000000000E+00  0.00000000000E+00  0.17401944363E+04  0.17401944363E+04  0.50400001928E-02 0.  1.
        1   -1    0    0  501    0  0.00000000000E+00  0.00000000000E+00 -0.17419554885E+03  0.17419554893E+03  0.50400001928E-02 0. -1.
    10030    2    1    2    0    0  0.00000000000E+00  0.00000000000E+00  0.15659988874E+04  0.19143899852E+04  0.11011523510E+04 0.  0.
        5    1    3    3  502    0  0.12844775546E+03 -0.46405452448E+03  0.31888397233E+03  0.57754177804E+03  0.46999998093E+01 0. -1.
       -5    1    3    3    0  502 -0.12844775546E+03  0.46405452448E+03  0.12471149151E+04  0.13368482072E+04  0.46999998093E+01 0.  1.
</event>
<event>
 5   0  0.8150924E-04  0.1086355E+04  0.7818609E-02  0.9218594E-01
       -1   -1    0    0    0  501  0.00000000000E+00  0.00000000000E+00  0.38752829743E+03  0.38752829746E+03  0.50400001928E-02 0. -1.
        1   -1    0    0  501    0  0.00000000000E+00  0.00000000000E+00 -0.76134229199E+03  0.76134229200E+03  0.50400001928E-02 0.  1.
    10030    2    1    2    0    0  0.00000000000E+00  0.00000000000E+00 -0.37381399455E+03  0.11488705895E+04  0.10863547896E+04 0.  0.
        3    1    3    3  502    0 -0.35231388107E+03  0.20106148897E+03  0.19511599897E+03  0.45013448701E+03  0.10100000352E+00 0. -1.
       -3    1    3    3    0  502  0.35231388107E+03 -0.20106148897E+03 -0.56892999352E+03  0.69873610245E+03  0.10100000352E+00 0.  1.
</event>
<event>
 5   0  0.1396936E-03  0.1098601E+04  0.7818609E-02  0.9206556E-01
        2   -1    0    0  501    0  0.00000000000E+00  0.00000000000E+00  0.36086839740E+03  0.36086839741E+03  0.25500000920E-02 0. -1.
       -2   -1    0    0    0  501  0.00000000000E+00  0.00000000000E+00 -0.83612525662E+03  0.83612525662E+03  0.25500000920E-02 0.  1.
    10030    2    1    2    0    0  0.00000000000E+00  0.00000000000E+00 -0.47525685922E+03  0.11969936540E+04  0.10986012587E+04 0.  0.
        2    1    3    3  502    0 -0.67345986557E+02  0.26435362964E+03 -0.75710235921E+03  0.80474984047E+03  0.25500000920E-02 0.  1.
       -2    1    3    3    0  502  0.67345986557E+02 -0.26435362964E+03  0.28184549999E+03  0.39224381356E+03  0.25500000920E-02 0. -1.
</event>
<event>
 5   0  0.7946038E-04  0.1097440E+04  0.7818609E-02  0.9207690E-01
       -1   -1    0    0    0  501  0.00000000000E+00  0.00000000000E+00  0.49059321897E+03  0.49059321900E+03  0.50400001928E-02 0.  1.
        1   -1    0    0  501    0  0.00000000000E+00  0.00000000000E+00 -0.61373398828E+03  0.61373398830E+03  0.50400001928E-02 0. -1.
    10030    2    1    2    0    0  0.00000000000E+00  0.00000000000E+00 -0.12314076931E+03  0.11043272073E+04  0.10974401723E+04 0.  0.
        4    1    3    3  502    0  0.49399103908E+03 -0.16654144990E+03 -0.23390199446E+03  0.57137987114E+03  0.12699999809E+01 0. -1.
       -4    1    3    3    0  502 -0.49399103908E+03  0.16654144990E+03  0.11076122516E+03  0.53294733617E+03  0.12699999809E+01 0.  1.
</event>
<event>
 5   0  0.1402775E-03  0.1082166E+04  0.7818609E-02  0.9222750E-01
        2   -1    0    0  501    0  0.00000000000E+00  0.00000000000E+00  0.13497053958E+04  0.13497053958E+04  0.25500000920E-02 0. -1.
       -2   -1    0    0    0  501  0.00000000000E+00  0.00000000000E+00 -0.21691479416E+03  0.21691479418E+03  0.25500000920E-02 0.  1.
    10030    2    1    2    0    0  0.00000000000E+00  0.00000000000E+00  0.11327906016E+04  0.15666201899E+04  0.10821664717E+04 0.  0.
        5    1    3    3  502    0 -0.33785638266E+03 -0.30995170194E+02 -0.43761797455E+02  0.34211813866E+03  0.46999998093E+01 0.  1.
       -5    1    3    3    0  502  0.33785638266E+03  0.30995170194E+02  0.11765523991E+04  0.12245020513E+04  0.46999998093E+01 0. -1.
</event>
<event>
 5   0  0.5409500E-04  0.1101169E+04  0.7818609E-02  0.9204054E-01
       -3   -1    0    0    0  501  0.00000000000E+00  0.00000000000E+00  0.10046222313E+04  0.10046222364E+04  0.10100000352E+00 0.  1.
        3   -1    0    0  501    0  0.00000000000E+00  0.00000000000E+00 -0.30174825799E+03  0.30174827489E+03  0.10100000352E+00 0. -1.
    10030    2    1    2    0    0  0.00000000000E+00  0.00000000000E+00  0.70287397334E+03  0.13063705113E+04  0.11011685114E+04 0.  0.
        3    1    3    3  502    0  0.12018456348E+03  0.39570524047E+03  0.78264851981E+03  0.88519245501E+03  0.10100000352E+00 0.  1.
       -3    1    3    3    0  502 -0.12018456348E+03 -0.39570524047E+03 -0.79774546476E+02  0.42117805629E+03  0.10100000352E+00 0. -1.
</event>
<event>
 5   0  0.1372794E-03  0.1110721E+04  0.7818609E-02  0.9194805E-01
        2   -1    0    0  501    0  0.00000000000E+00  0.00000000000E+00  0.96234673234E+03  0.96234673234E+03  0.25500000920E-02 0. -1.
       -2   -1    0    0    0  501  0.00000000000E+00  0.00000000000E+00 -0.32049264346E+03  0.32049264347E+03  0.25500000920E-02 0.  1.
    10030    2    1    2    0    0  0.00000000000E+00  0.00000000000E+00  0.64185408888E+03  0.12828393758E+04  0.11107205736E+04 0.  0.
        4    1    3    3  502    0 -0.29368867321E+03  0.31207902366E+03  0.72890329020E+03  0.84554596158E+03  0.12699999809E+01 0. -1.
       -4    1    3    3    0  502  0.29368867321E+03 -0.31207902366E+03 -0.87049201313E+02  0.43729341423E+03  0.12699999809E+01 0.  1.
</event>
<event>
 5   0  0.8009636E-04  0.1103506E+04  0.7818609E-02  0.9201782E-01
       -1   -1    0    0    0  501  0.00000000000E+00  0.00000000000E+00  0.13898419096E+04  0.13898419097E+04  0.50400001928E-02 0. -1.
        1   -1    0    0  501    0  0.00000000000E+00  0.00000000000E+00 -0.21904020676E+03  0.21904020682E+03  0.50400001928E-02 0.  1.
    10030    2    1    2    0    0  0.00000000000E+00  0.00000000000E+00  0.11708017029E+04  0.16088821165E+04  0.11035057939E+04 0.  0.
        1    1    3    3  502    0 -0.35734443949E+03  0.93601082834E+02 -0.12146043057E+02  0.36959942847E+03  0.50400001928E-02 0.  1.
       -1    1    3    3    0  502  0.35734443949E+03 -0.93601082834E+02  0.11829477459E+04  0.12392826880E+04  0.50400001928E-02 0. -1.
</event>
<event>
 5   0  0.1402775E-03  0.1102399E+04  0.7818609E-02  0.9202857E-01
        2   -1    0    0  501    0  0.00000000000E+00  0.00000000000E+00  0.20369307576E+04  0.20369307577E+04  0.25500000920E-02 0. -1.
       -2   -1    0    0    0  501  0.00000000000E+00  0.00000000000E+00 -0.14915620194E+03  0.14915620196E+03  0.25500000920E-02 0.  1.
    10030    2    1    2    0    0  0.00000000000E+00  0.00000000000E+00  0.18877745557E+04  0.21860869596E+04  0.11023989395E+04 0.  0.
        5    1    3    3  502    0  0.19755327631E+03 -0.15626300210E+03  0.19160830543E+04  0.19325738753E+04  0.46999998093E+01 0. -1.
       -5    1    3    3    0  502 -0.19755327631E+03  0.15626300210E+03 -0.28308498561E+02  0.25351308427E+03  0.46999998093E+01 0.  1.
</event>
<event>
 5   0  0.5409500E-04  0.1100294E+04  0.7818609E-02  0.9204905E-01
       -3   -1    0    0    0  501  0.00000000000E+00  0.00000000000E+00  0.14916342391E+04  0.14916342425E+04  0.10100000352E+00 0. -1.
        3   -1    0    0  501    0  0.00000000000E+00  0.00000000000E+00 -0.20290625104E+03  0.20290627618E+03  0.10100000352E+00 0.  1.
    10030    2    1    2    0    0  0.00000000000E+00  0.00000000000E+00  0.12887279881E+04  0.16945405187E+04  0.11002943889E+04 0.  0.
        1    1    3    3  502    0  0.29340126554E+03 -0.38835441295E+03  0.24943506081E+03  0.54691983166E+03  0.50400001928E-02 0.  1.
       -1    1    3    3    0  502 -0.29340126554E+03  0.38835441295E+03  0.10392929272E+04  0.11476206870E+04  0.50400001928E-02 0. -1.
</event>
<event>
 5   0  0.1425432E-03  0.1096789E+04  0.7818609E-02  0.9208327E-01
        2   -1    0    0  501    0  0.00000000000E+00  0.00000000000E+00  0.14625525770E+04  0.14625525770E+04  0.25500000920E-02 0.  1.
       -2   -1    0    0    0  501  0.00000000000E+00  0.00000000000E+00 -0.20562432093E+03  0.20562432094E+03  0.25500000920E-02 0. -1.
    10030    2    1    2    0    0  0.00000000000E+00  0.00000000000E+00  0.12569282561E+04  0.16681768979E+04  0.10967887317E+04 0.  0.
        1    1    3    3  502    0  0.44866902582E+03  0.19949208647E+03  0.25703909898E+03  0.55422927180E+03  0.50400001928E-02 0. -1.
       -1    1    3    3    0  502 -0.44866902582E+03 -0.19949208647E+03  0.99988915708E+03  0.11139476261E+04  0.50400001928E-02 0.  1.
</event>
<event>
 5   0  0.1429680E-03  0.1095923E+04  0.7818609E-02  0.9209175E-01
       -2   -1    0    0    0  501  0.00000000000E+00  0.00000000000E+00  0.50329532170E+03  0.50329532171E+03  0.25500000920E-02 0.  1.
        2   -1    0    0  501    0  0.00000000000E+00  0.00000000000E+00 -0.59659191038E+03  0.59659191039E+03  0.25500000920E-02 0. -1.
    10030    2    1    2    0    0  0.00000000000E+00  0.00000000000E+00 -0.93296588686E+02  0.10998872321E+04  0.10959232044E+04 0.  0.
        3    1    3    3  502    0  0.21876451298E+03  0.49750870102E+03 -0.11682321732E+03  0.55589611803E+03  0.10100000352E+00 0. -1.
       -3    1    3    3    0  502 -0.21876451298E+03 -0.49750870102E+03  0.23526628638E+02  0.54399111407E+03  0.10100000352E+00 0.  1.
</event>
<event>
 5   0  0.8009636E-04  0.1097460E+04  0.7818609E-02  0.9207671E-01
       -1   -1    0    0    0  501  0.00000000000E+00  0.00000000000E+00  0.44498112007E+03  0.44498112010E+03  0.50400001928E-02 0.  1.
        1   -1    0    0  501    0  0.00000000000E+00  0.00000000000E+00 -0.67666804079E+03  0.67666804081E+03  0.50400001928E-02 0. -1.
    10030    2    1    2    0    0  0.00000000000E+00  0.00000000000E+00 -0.23168692072E+03  0.11216491609E+04  0.10974597992E+04 0.  0.
        1    1    3    3  502    0 -0.74960189382E+02 -0.22763700111E+03 -0.62034983263E+03  0.66503499843E+03  0.50400001928E-02 0. -1.
       -1    1    3    3    0  502  0.74960189382E+02  0.22763700111E+03  0.38866291190E+03  0.45661416248E+03  0.50400001928E-02 0.  1.
</event>
<event>
 5   0  0.5409500E-04  0.1099599E+04  0.7818609E-02  0.9205583E-01
        4   -1    0    0  501    0  0.00000000000E+00  0.00000000000E+00  0.43106238661E+03  0.43106425745E+03  0.12699999809E+01 0. -1.
       -4   -1    0    0    0  501  0.00000000000E+00  0.00000000000E+00 -0.70123922504E+03  0.70124037507E+03  0.12699999809E+01 0.  1.
    10030    2    1    2    0    0  0.00000000000E+00  0.00000000000E+00 -0.27017683842E+03  0.11323046325E+04  0.10995991346E+04 0.  0.
        5    1    3    3  502    0  0.35806733358E+03  0.31405513739E+03 -0.41787363185E+03  0.63362710397E+03  0.46999998093E+01 0. -1.
       -5    1    3    3    0  502 -0.35806733358E+03 -0.31405513739E+03  0.14769679343E+03  0.49867752855E+03  0.46999998093E+01 0.  1.
</event>
<event>
 5   0  0.1425432E-03  0.1101541E+04  0.7818609E-02  0.9203691E-01
        2   -1    0    0  501    0  0.00000000000E+00  0.00000000000E+00  0.53532929841E+03  0.53532929842E+03  0.25500000920E-02 0. -1.
       -2   -1    0    0    0  501  0.00000000000E+00  0.00000000000E+00 -0.56665690888E+03  0.56665690889E+03  0.25500000920E-02 0.  1.
    10030    2    1    2    0    0  0.00000000000E+00  0.00000000000E+00 -0.31327610469E+02  0.11019862073E+04  0.11015408217E+04 0.  0.
        1    1    3    3  502    0  0.33892167270E+03 -0.25445835529E+03  0.33623272383E+03  0.54098927845E+03  0.50400001928E-02 0. -1.
       -1    1    3    3    0  502 -0.33892167270E+03  0.25445835529E+03 -0.36756033430E+03  0.56099692885E+03  0.50400001928E-02 0.  1.
</event>
<event>
 5   0  0.1429680E-03  0.1104424E+04  0.7818609E-02  0.9200890E-01
       -2   -1    0    0    0  501  0.00000000000E+00  0.00000000000E+00  0.21474316733E+03  0.21474316734E+03  0.25500000920E-02 0.  1.
        2   -1    0    0  501    0  0.00000000000E+00  0.00000000000E+00 -0.14200141217E+04  0.14200141217E+04  0.25500000920E-02 0. -1.
    10030    2    1    2    0    0  0.00000000000E+00  0.00000000000E+00 -0.12052709544E+04  0.16347572891E+04  0.11044244296E+04 0.  0.
        3    1    3    3  502    0  0.17060664950E+02 -0.21289240073E+03  0.15113426551E+03  0.26164062565E+03  0.10100000352E+00 0.  1.
       -3    1    3    3    0  502 -0.17060664950E+02  0.21289240073E+03 -0.13564052199E+04  0.13731166634E+04  0.10100000352E+00 0. -1.
</event>
<event>
 5   0  0.8305271E-04  0.1099574E+04  0.7818609E-02  0.9205607E-01
       -1   -1    0    0    0  501  0.00000000000E+00  0.00000000000E+00  0.28109887475E+03  0.28109887480E+03  0.50400001928E-02 0.  1.
        1   -1    0    0  501    0  0.00000000000E+00  0.00000000000E+00 -0.10753003575E+04  0.10753003575E+04  0.50400001928E-02 0. -1.
    10030    2    1    2    0    0  0.00000000000E+00  0.00000000000E+00 -0.79420148275E+03  0.13563992323E+04  0.10995739549E+04 0.  0.
        5    1    3    3  502    0 -0.90803374106E+02  0.41616310648E+03 -0.82585505809E+03  0.92924466688E+03  0.46999998093E+01 0. -1.
       -5    1    3    3    0  502  0.90803374106E+02 -0.41616310648E+03  0.31653575346E+02  0.42715456544E+03  0.46999998093E+01 0.  1.
</event>
<event>
 5   0  0.1429680E-03  0.1098475E+04  0.7818609E-02  0.9206679E-01
       -2   -1    0    0    0  501  0.00000000000E+00  0.00000000000E+00  0.12704071898E+03  0.12704071900E+03  0.25500000920E-02 0. -1.
        2   -1    0    0  501    0  0.00000000000E+00  0.00000000000E+00 -0.23745291938E+04  0.23745291938E+04  0.25500000920E-02 0.  1.
    10030    2    1    2    0    0  0.00000000000E+00  0.00000000000E+00 -0.22474884748E+04  0.25015699128E+04  0.10984751177E+04 0.  0.
        3    1    3    3  502    0  0.10844861033E+03 -0.26209971882E+03 -0.52670374284E+02  0.28849877333E+03  0.10100000352E+00 0. -1.
       -3    1    3    3    0  502 -0.10844861033E+03  0.26209971882E+03 -0.21948181006E+04  0.22130711395E+04  0.10100000352E+00 0.  1.
</event>
<event>
 5   0  0.8341767E-04  0.1099506E+04  0.7818609E-02  0.9205673E-01
        1   -1    0    0  501    0  0.00000000000E+00  0.00000000000E+00  0.53532314734E+03  0.53532314737E+03  0.50400001928E-02 0.  1.
       -1   -1    0    0    0  501  0.00000000000E+00  0.00000000000E+00 -0.56457230583E+03  0.56457230585E+03  0.50400001928E-02 0. -1.
    10030    2    1    2    0    0  0.00000000000E+00  0.00000000000E+00 -0.29249158487E+02  0.10998954532E+04  0.10995064778E+04 0.  0.
        2    1    3    3  502    0  0.37037975300E+03  0.24635327440E+03 -0.33778301901E+03  0.55854137285E+03  0.25500000920E-02 0. -1.
       -2    1    3    3    0  502 -0.37037975300E+03 -0.24635327440E+03  0.30853386052E+03  0.54135408038E+03  0.25500000920E-02 0.  1.
</event>
<event>
 5   0  0.7946038E-04  0.1112599E+04  0.7818609E-02  0.9192999E-01
       -1   -1    0    0    0  501  0.00000000000E+00  0.00000000000E+00  0.56557117102E+03  0.56557117104E+03  0.50400001928E-02 0. -1.
        1   -1    0    0  501    0  0.00000000000E+00  0.00000000000E+00 -0.54717954934E+03  0.54717954936E+03  0.50400001928E-02 0.  1.
    10030    2    1    2    0    0  0.00000000000E+00  0.00000000000E+00  0.18391621680E+02  0.11127507204E+04  0.11125987210E+04 0.  0.
        4    1    3    3  502    0  0.34021542554E+03  0.17888119156E+03 -0.39300630259E+03  0.54972773556E+03  0.12699999809E+01 0.  1.
       -4    1    3    3    0  502 -0.34021542554E+03 -0.17888119156E+03  0.41139792427E+03  0.56302298484E+03  0.12699999809E+01 0. -1.
</event>
<event>
 5   0  0.1429680E-03  0.1100997E+04  0.7818609E-02  0.9204221E-01
        2   -1    0    0  501    0  0.00000000000E+00  0.00000000000E+00  0.64270200816E+03  0.64270200817E+03  0.25500000920E-02 0.  1.
       -2   -1    0    0    0  501  0.00000000000E+00  0.00000000000E+00 -0.47152239117E+03  0.47152239118E+03  0.25500000920E-02 0. -1.
    10030    2    1    2    0    0  0.00000000000E+00  0.00000000000E+00  0.17117961699E+03  0.11142243993E+04  0.11009966171E+04 0.  0.
        3    1    3    3  502    0 -0.43964309078E+03 -0.19527984089E+03 -0.18525994077E+03  0.51550123121E+03  0.10100000352E+00 0. -1.
       -3    1    3    3    0  502  0.43964309078E+03  0.19527984089E+03  0.35643955776E+03  0.59872316813E+03  0.10100000352E+00 0.  1.
</event>
<event>
 5   0  0.8150924E-04  0.1098274E+04  0.7818609E-02  0.9206876E-01
       -1   -1    0    0    0  501  0.00000000000E+00  0.00000000000E+00  0.57521265459E+03  0.57521265461E+03  0.50400001928E-02 0.  1.
        1   -1    0    0  501    0  0.00000000000E+00  0.00000000000E+00 -0.52424311748E+03  0.52424311751E+03  0.50400001928E-02 0. -1.
    10030    2    1    2    0    0  0.00000000000E+00  0.00000000000E+00  0.50969537109E+02  0.10994557721E+04  0.10982736914E+04 0.  0.
        3    1    3    3  502    0  0.26839717304E+02  0.41363736903E+03  0.38605992241E+03  0.56644374599E+03  0.10100000352E+00 0.  1.
       -3    1    3    3    0  502 -0.26839717304E+02 -0.41363736903E+03 -0.33509038530E+03  0.53301202613E+03  0.10100000352E+00 0. -1.
</event>
<event>
 5   0  0.8009636E-04  0.1091241E+04  0.7818609E-02  0.9213771E-01
       -1   -1    0    0    0  501  0.00000000000E+00  0.00000000000E+00  0.13434299464E+03  0.13434299474E+03  0.50400001928E-02 0. -1.
        1   -1    0    0  501    0  0.00000000000E+00  0.00000000000E+00 -0.22159840638E+04  0.22159840638E+04  0.50400001928E-02 0.  1.
    10030    2    1    2    0    0  0.00000000000E+00  0.00000000000E+00 -0.20816410692E+04  0.23503270586E+04  0.10912413763E+04 0.  0.
        1    1    3    3  502    0  0.10005033457E+03  0.61874120618E+02 -0.21883457071E+04  0.21915052841E+04  0.50400001928E-02 0.  1.
       -1    1    3    3    0  502 -0.10005033457E+03 -0.61874120618E+02  0.10670463797E+03  0.15882177446E+03  0.50400001928E-02 0. -1.
</event>
<event>
 5   0  0.7946038E-04  0.1119508E+04  0.7818609E-02  0.9186384E-01
        1   -1    0    0  501    0  0.00000000000E+00  0.00000000000E+00  0.82585351125E+03  0.82585351127E+03  0.50400001928E-02 0. -1.
       -1   -1    0    0    0  501  0.00000000000E+00  0.00000000000E+00 -0.37939501447E+03  0.37939501450E+03  0.50400001928E-02 0.  1.
    10030    2    1    2    0    0  0.00000000000E+00  0.00000000000E+00  0.44645849679E+03  0.12052485258E+04  0.11195082936E+04 0.  0.
        4    1    3    3  502    0 -0.11501251001E+03  0.22541357434E+03 -0.31429299344E+03  0.40351066353E+03  0.12699999809E+01 0.  1.
       -4    1    3    3    0  502  0.11501251001E+03 -0.22541357434E+03  0.76075149023E+03  0.80173786224E+03  0.12699999809E+01 0. -1.
</event>
<event>
 5   0  0.1396936E-03  0.1099732E+04  0.7818609E-02  0.9205453E-01
       -2   -1    0    0    0  501  0.00000000000E+00  0.00000000000E+00  0.74655157756E+03  0.74655157756E+03  0.25500000920E-02 0. -1.
        2   -1    0    0  501    0  0.00000000000E+00  0.00000000000E+00 -0.40499915898E+03  0.40499915899E+03  0.25500000920E-02 0.  1.
    10030    2    1    2    0    0  0.00000000000E+00  0.00000000000E+00  0.34155241858E+03  0.11515507366E+04  0.10997322602E+04 0.  0.
        2    1    3    3  502    0 -0.30889732366E+03 -0.15901295228E+03  0.61706287971E+03  0.70814495202E+03  0.25500000920E-02 0. -1.
       -2    1    3    3    0  502  0.30889732366E+03  0.15901295228E+03 -0.27551046113E+03  0.44340578453E+03  0.25500000920E-02 0.  1.
</event>
<event>
 5   0  0.1396936E-03  0.1108046E+04  0.7818609E-02  0.9197385E-01
       -2   -1    0    0    0  501  0.00000000000E+00  0.00000000000E+00  0.34052828830E+03  0.34052828831E+03  0.25500000920E-02 0. -1.
        2   -1    0    0  501    0  0.00000000000E+00  0.00000000000E+00 -0.90136873963E+03  0.90136873963E+03  0.25500000920E-02 0.  1.
    10030    2    1    2    0    0  0.00000000000E+00  0.00000000000E+00 -0.56084045133E+03  0.12418970279E+04  0.11080461255E+04 0.  0.
        2    1    3    3  502    0 -0.19800244518E+03 -0.37409244065E+03  0.12024219999E+03  0.44000944207E+03  0.25500000920E-02 0. -1.
       -2    1    3    3    0  502  0.19800244518E+03  0.37409244065E+03 -0.68108265132E+03  0.80188758587E+03  0.25500000920E-02 0.  1.
</event>
<event>
 5   0  0.1396936E-03  0.1094039E+04  0.7818609E-02  0.9211021E-01
        2   -1    0    0  501    0  0.00000000000E+00  0.00000000000E+00  0.11223375790E+04  0.11223375790E+04  0.25500000920E-02 0.  1.
       -2   -1    0    0    0  501  0.00000000000E+00  0.00000000000E+00 -0.26661364108E+03  0.26661364109E+03  0.25500000920E-02 0. -1.
    10030    2    1    2    0    0  0.00000000000E+00  0.00000000000E+00  0.85572393788E+03  0.13889512201E+04  0.10940393201E+04 0.  0.
        2    1    3    3  502    0  0.74364169586E+02  0.18504560536E+03 -0.21881605129E+03  0.29606142959E+03  0.25500000920E-02 0. -1.
       -2    1    3    3    0  502 -0.74364169586E+02 -0.18504560536E+03  0.10745399892E+04  0.10928897905E+04  0.25500000920E-02 0.  1.
</event>
<event>
 5   0  0.8341767E-04  0.1100865E+04  0.7818609E-02  0.9204350E-01
       -1   -1    0    0    0  501  0.00000000000E+00  0.00000000000E+00  0.15892884524E+03  0.15892884532E+03  0.50400001928E-02 0. -1.
        1   -1    0    0  501    0  0.00000000000E+00  0.00000000000E+00 -0.19063608407E+04  0.19063608407E+04  0.50400001928E-02 0.  1.
    10030    2    1    2    0    0  0.00000000000E+00  0.00000000000E+00 -0.17474319955E+04  0.20652896860E+04  0.11008646186E+04 0.  0.
        2    1    3    3  502    0  0.23069035290E+03  0.39570797171E+03 -0.14463693982E+04  0.15171642211E+04  0.25500000920E-02 0.  1.
       -2    1    3    3    0  502 -0.23069035290E+03 -0.39570797171E+03 -0.30106259725E+03  0.54812546489E+03  0.25500000920E-02 0. -1.
</event>
<event>
 5   0  0.7946038E-04  0.1101443E+04  0.7818609E-02  0.9203787E-01
       -1   -1    0    0    0  501  0.00000000000E+00  0.00000000000E+00  0.29032372601E+03  0.29032372606E+03  0.50400001928E-02 0.  1.
        1   -1    0    0  501    0  0.00000000000E+00  0.00000000000E+00 -0.10446754458E+04  0.10446754458E+04  0.50400001928E-02 0. -1.
    10030    2    1    2    0    0  0.00000000000E+00  0.00000000000E+00 -0.75435171978E+03  0.13349991719E+04  0.11014428136E+04 0.  0.
        4    1    3    3  502    0  0.45015990385E+03 -0.27963052227E+03 -0.19554972220E+03  0.56487031678E+03  0.12699999809E+01 0.  1.
       -4    1    3    3    0  502 -0.45015990385E+03  0.27963052227E+03 -0.55880199758E+03  0.77012885508E+03  0.12699999809E+01 0. -1.
</event>
<event>
 5   0  0.8150924E-04  0.1099725E+04  0.7818609E-02  0.9205460E-01
       -1   -1    0    0    0  501  0.00000000000E+00  0.00000000000E+00  0.23921659678E+03  0.23921659683E+03  0.50400001928E-02 0. -1.
        1   -1    0    0  501    0  0.00000000000E+00  0.00000000000E+00 -0.12639123760E+04  0.12639123760E+04  0.50400001928E-02 0.  1.
    10030    2    1    2    0    0  0.00000000000E+00  0.00000000000E+00 -0.10246957792E+04  0.15031289728E+04  0.10997250879E+04 0.  0.
        3    1    3    3  502    0  0.28945374506E+02 -0.47634188678E+03 -0.88569158901E+03  0.10060760552E+04  0.10100000352E+00 0.  1.
       -3    1    3    3    0  502 -0.28945374506E+02  0.47634188678E+03 -0.13900419017E+03  0.49705291760E+03  0.10100000352E+00 0. -1.
</event>
<event>
 5   0  0.1402775E-03  0.1096831E+04  0.7818609E-02  0.9208286E-01
        2   -1    0    0  501    0  0.00000000000E+00  0.00000000000E+00  0.34382300092E+03  0.34382300093E+03  0.25500000920E-02 0. -1.
       -2   -1    0    0    0  501  0.00000000000E+00  0.00000000000E+00 -0.87475162574E+03  0.87475162575E+03  0.25500000920E-02 0.  1.
    10030    2    1    2    0    0  0.00000000000E+00  0.00000000000E+00 -0.53092862482E+03  0.12185746267E+04  0.10968313071E+04 0.  0.
        5    1    3    3  502    0 -0.43883345893E+03 -0.10036552384E+03  0.82491235736E+02  0.45768432028E+03  0.46999998093E+01 0. -1.
       -5    1    3    3    0  502  0.43883345893E+03  0.10036552384E+03 -0.61341986056E+03  0.76089030640E+03  0.46999998093E+01 0.  1.
</event>
<event>
 5   0  0.7946038E-04  0.1099739E+04  0.7818609E-02  0.9205446E-01
        1   -1    0    0  501    0  0.00000000000E+00  0.00000000000E+00  0.63982690694E+03  0.63982690696E+03  0.50400001928E-02 0. -1.
       -1   -1    0    0    0  501  0.00000000000E+00  0.00000000000E+00 -0.47256008313E+03  0.47256008316E+03  0.50400001928E-02 0.  1.
    10030    2    1    2    0    0  0.00000000000E+00  0.00000000000E+00  0.16726682381E+03  0.11123869901E+04  0.10997393443E+04 0.  0.
        4    1    3    3  502    0  0.44089558152E+02 -0.36860800887E+03 -0.32666605048E+03  0.49449780058E+03  0.12699999809E+01 0.  1.
       -4    1    3    3    0  502 -0.44089558152E+02  0.36860800887E+03  0.49393287430E+03  0.61788918954E+03  0.12699999809E+01 0. -1.
</event>
<event>
 5   0  0.1402775E-03  0.1099875E+04  0.7818609E-02  0.9205314E-01
        2   -1    0    0  501    0  0.00000000000E+00  0.00000000000E+00  0.28237835513E+03  0.28237835514E+03  0.25500000920E-02 0. -1.
       -2   -1    0    0    0  501  0.00000000000E+00  0.00000000000E+00 -0.10710139537E+04  0.10710139537E+04  0.25500000920E-02 0.  1.
    10030    2    1    2    0    0  0.00000000000E+00  0.00000000000E+00 -0.78863559853E+03  0.13533923088E+04  0.10998748266E+04 0.  0.
        5    1    3    3  502    0  0.51019134610E+02  0.38190806309E+03  0.88489247367E+02  0.39535952960E+03  0.46999998093E+01 0. -1.
       -5    1    3    3    0  502 -0.51019134610E+02 -0.38190806309E+03 -0.87712484589E+03  0.95803277921E+03  0.46999998093E+01 0.  1.
</event>
<event>
 5   0  0.7946038E-04  0.1111551E+04  0.7818609E-02  0.9194006E-01
        1   -1    0    0  501    0  0.00000000000E+00  0.00000000000E+00  0.10773743106E+04  0.10773743106E+04  0.50400001928E-02 0. -1.
       -1   -1    0    0    0  501  0.00000000000E+00  0.00000000000E+00 -0.28670275238E+03  0.28670275242E+03  0.50400001928E-02 0.  1.
    10030    2    1    2    0    0  0.00000000000E+00  0.00000000000E+00  0.79067155819E+03  0.13640770630E+04  0.11115505930E+04 0.  0.
        4    1    3    3  502    0  0.47272528917E+03 -0.11656212806E+03  0.66439856723E+02  0.49139779831E+03  0.12699999809E+01 0.  1.
       -4    1    3    3    0  502 -0.47272528917E+03  0.11656212806E+03  0.72423170147E+03  0.87267926470E+03  0.12699999809E+01 0. -1.
</event>
<event>
 5   0  0.8305271E-04  0.1050879E+04  0.7818609E-02  0.9254437E-01
       -1   -1    0    0    0  501  0.00000000000E+00  0.00000000000E+00  0.15199527341E+03  0.15199527349E+03  0.50400001928E-02 0. -1.
        1   -1    0    0  501    0  0.00000000000E+00  0.00000000000E+00 -0.18164167368E+04  0.18164167368E+04  0.50400001928E-02 0.  1.
    10030    2    1    2    0    0  0.00000000000E+00  0.00000000000E+00 -0.16644214634E+04  0.19684120103E+04  0.10508791722E+04 0.  0.
        5    1    3    3  502    0  0.32092508349E+03  0.21219927079E+03 -0.15024679969E+04  0.15509524853E+04  0.46999998093E+01 0.  1.
       -5    1    3    3    0  502 -0.32092508349E+03 -0.21219927079E+03 -0.16195346645E+03  0.41745952502E+03  0.46999998093E+01 0. -1.
</event>
<event>
 5   0  0.8150924E-04  0.1100835E+04  0.7818609E-02  0.9204378E-01
        1   -1    0    0  501    0  0.00000000000E+00  0.00000000000E+00  0.56799723905E+03  0.56799723908E+03  0.50400001928E-02 0.  1.
       -1   -1    0    0    0  501  0.00000000000E+00  0.00000000000E+00 -0.53338192450E+03  0.53338192452E+03  0.50400001928E-02 0. -1.
    10030    2    1    2    0    0  0.00000000000E+00  0.00000000000E+00  0.34615314559E+02  0.11013791636E+04  0.11008350658E+04 0.  0.
        3    1    3    3  502    0 -0.11649154917E+03  0.60452206047E+02 -0.51749812416E+03  0.53388113747E+03  0.10100000352E+00 0. -1.
       -3    1    3    3    0  502  0.11649154917E+03 -0.60452206047E+02  0.55211343871E+03  0.56749802612E+03  0.10100000352E+00 0.  1.
</event>
<event>
 5   0  0.8009636E-04  0.1107361E+04  0.7818609E-02  0.9198047E-01
       -1   -1    0    0    0  501  0.00000000000E+00  0.00000000000E+00  0.11857821175E+04  0.11857821175E+04  0.50400001928E-02 0.  1.
        1   -1    0    0  501    0  0.00000000000E+00  0.00000000000E+00 -0.25853172890E+03  0.25853172895E+03  0.50400001928E-02 0. -1.
    10030    2    1    2    0    0  0.00000000000E+00  0.00000000000E+00  0.92725038863E+03  0.14443138465E+04  0.11073613701E+04 0.  0.
        1    1    3    3  502    0 -0.20197630113E+01  0.51938580208E+03  0.71381874534E+03  0.88278133877E+03  0.50400001928E-02 0.  1.
       -1    1    3    3    0  502  0.20197630113E+01 -0.51938580208E+03  0.21343164328E+03  0.56153250772E+03  0.50400001928E-02 0. -1.
</event>
<event>
 5   0  0.1372794E-03  0.1101334E+04  0.7818609E-02  0.9203893E-01
       -2   -1    0    0    0  501  0.00000000000E+00  0.00000000000E+00  0.22205862080E+03  0.22205862081E+03  0.25500000920E-02 0. -1.
        2   -1    0    0  501    0  0.00000000000E+00  0.00000000000E+00 -0.13655590387E+04  0.13655590387E+04  0.25500000920E-02 0.  1.
    10030    2    1    2    0    0  0.00000000000E+00  0.00000000000E+00 -0.11435004179E+04  0.15876176595E+04  0.11013340216E+04 0.  0.
        4    1    3    3  502    0 -0.10497732432E+03  0.25148734400E+03  0.11803323072E+03  0.29698413976E+03  0.12699999809E+01 0. -1.
       -4    1    3    3    0  502  0.10497732432E+03 -0.25148734400E+03 -0.12615336486E+04  0.12906335198E+04  0.12699999809E+01 0.  1.
</event>
<event>
 5   0  0.1396936E-03  0.1145971E+04  0.7818609E-02  0.9161509E-01
        2   -1    0    0  501    0  0.00000000000E+00  0.00000000000E+00  0.73463804562E+03  0.73463804562E+03  0.25500000920E-02 0.  1.
       -2   -1    0    0    0  501  0.00000000000E+00  0.00000000000E+00 -0.44690344468E+03  0.44690344468E+03  0.25500000920E-02 0. -1.
    10030    2    1    2    0    0  0.00000000000E+00  0.00000000000E+00  0.28773460094E+03  0.11815414903E+04  0.11459708080E+04 0.  0.
        2    1    3    3  502    0  0.14083265796E+03  0.57313455380E+02 -0.42572372179E+03  0.45206123149E+03  0.25500000920E-02 0. -1.
       -2    1    3    3    0  502 -0.14083265796E+03 -0.57313455380E+02  0.71345832273E+03  0.72948025881E+03  0.25500000920E-02 0.  1.
</event>
<event>
 5   0  0.8150924E-04  0.1098278E+04  0.7818609E-02  0.9206872E-01
       -1   -1    0    0    0  501  0.00000000000E+00  0.00000000000E+00  0.10525267476E+04  0.10525267476E+04  0.50400001928E-02 0.  1.
        1   -1    0    0  501    0  0.00000000000E+00  0.00000000000E+00 -0.28650462292E+03  0.28650462296E+03  0.50400001928E-02 0. -1.
    10030    2    1    2    0    0  0.00000000000E+00  0.00000000000E+00  0.76602212470E+03  0.13390313706E+04  0.10982782507E+04 0.  0.
        3    1    3    3  502    0 -0.46086193445E+03  0.28784526986E+03  0.28619978095E+03  0.61413267852E+03  0.10100000352E+00 0. -1.
       -3    1    3    3    0  502  0.46086193445E+03 -0.28784526986E+03  0.47982234375E+03  0.72489869208E+03  0.10100000352E+00 0.  1.
</event>
<event>
 5   0  0.1429680E-03  0.1116300E+04  0.7818609E-02  0.9189449E-01
       -2   -1    0    0    0  501  0.00000000000E+00  0.00000000000E+00  0.20623755113E+03  0.20623755114E+03  0.25500000920E-02 0.  1.
        2   -1    0    0  501    0  0.00000000000E+00  0.00000000000E+00 -0.15105468624E+04  0.15105468624E+04  0.25500000920E-02 0. -1.
    10030    2    1    2    0    0  0.00000000000E+00  0.00000000000E+00 -0.13043093113E+04  0.17167844136E+04  0.11163001134E+04 0.  0.
        3    1    3    3  502    0 -0.17596487711E+03 -0.26455614662E+03  0.53579554910E+02  0.32221789459E+03  0.10100000352E+00 0.  1.
       -3    1    3    3    0  502  0.17596487711E+03  0.26455614662E+03 -0.13578888662E+04  0.13945665190E+04  0.10100000352E+00 0. -1.
</event>
<event>
 5   0  0.8009636E-04  0.1081692E+04  0.7818609E-02  0.9223222E-01
        1   -1    0    0  501    0  0.00000000000E+00  0.00000000000E+00  0.96854591227E+03  0.96854591228E+03  0.50400001928E-02 0. -1.
       -1   -1    0    0    0  501  0.00000000000E+00  0.00000000000E+00 -0.30201375928E+03  0.30201375932E+03  0.50400001928E-02 0.  1.
    10030    2    1    2    0    0  0.00000000000E+00  0.00000000000E+00  0.66653215299E+03  0.12705596716E+04  0.10816916234E+04 0.  0.
        1    1    3    3  502    0  0.44711965884E+03 -0.22209511089E+03  0.57760626549E+03  0.76346003534E+03  0.50400001928E-02 0. -1.
       -1    1    3    3    0  502 -0.44711965884E+03  0.22209511089E+03  0.88925887501E+02  0.50709963626E+03  0.50400001928E-02 0.  1.
</event>
<event>
 5   0  0.7946038E-04  0.1102545E+04  0.7818609E-02  0.9202715E-01
        1   -1    0    0  501    0  0.00000000000E+00  0.00000000000E+00  0.16772870894E+04  0.16772870894E+04  0.50400001928E-02 0. -1.
       -1   -1    0    0    0  501  0.00000000000E+00  0.00000000000E+00 -0.18118622019E+03  0.18118622026E+03  0.50400001928E-02 0.  1.
    10030    2    1    2    0    0  0.00000000000E+00  0.00000000000E+00  0.14961008692E+04  0.18584733096E+04  0.11025448888E+04 0.  0.
        4    1    3    3  502    0 -0.52022972292E+03  0.13309049110E+03  0.53786992115E+03  0.76003796511E+03  0.12699999809E+01 0.  1.
       -4    1    3    3    0  502  0.52022972292E+03 -0.13309049110E+03  0.95823094804E+03  0.10984353445E+04  0.12699999809E+01 0. -1.
</event>
<event>
 5   0  0.8305271E-04  0.1101094E+04  0.7818609E-02  0.9204127E-01
        1   -1    0    0  501    0  0.00000000000E+00  0.00000000000E+00  0.69389227830E+03  0.69389227832E+03  0.50400001928E-02 0. -1.
       -1   -1    0    0    0  501  0.00000000000E+00  0.00000000000E+00 -0.43681395282E+03  0.43681395285E+03  0.50400001928E-02 0.  1.
    10030    2    1    2    0    0  0.00000000000E+00  0.00000000000E+00  0.25707832548E+03  0.11307062312E+04  0.11010936907E+04 0.  0.
        5    1    3    3  502    0 -0.43657556400E+03 -0.68440924005E+02 -0.20861580677E+03  0.48869727643E+03  0.46999998093E+01 0.  1.
       -5    1    3    3    0  502  0.43657556400E+03  0.68440924005E+02  0.46569413224E+03  0.64200895474E+03  0.46999998093E+01 0. -1.
</event>
<event>
 5   0  0.1429680E-03  0.1100907E+04  0.7818609E-02  0.9204308E-01
       -2   -1    0    0    0  501  0.00000000000E+00  0.00000000000E+00  0.69975368559E+03  0.69975368560E+03  0.25500000920E-02 0. -1.
        2   -1    0    0  501    0  0.00000000000E+00  0.00000000000E+00 -0.43300804308E+03  0.43300804309E+03  0.25500000920E-02 0.  1.
    10030    2    1    2    0    0  0.00000000000E+00  0.00000000000E+00  0.26674564251E+03  0.11327617287E+04  0.11009068517E+04 0.  0.
        3    1    3    3  502    0 -0.34116532565E+03  0.28290696266E+03 -0.20252184048E+03  0.48728352632E+03  0.10100000352E+00 0.  1.
       -3    1    3    3    0  502  0.34116532565E+03 -0.28290696266E+03  0.46926748299E+03  0.64547820237E+03  0.10100000352E+00 0. -1.
</event>
<event>
 5   0  0.8009636E-04  0.1100592E+04  0.7818609E-02  0.9204615E-01
        1   -1    0    0  501    0  0.00000000000E+00  0.00000000000E+00  0.50802133331E+03  0.50802133333E+03  0.50400001928E-02 0. -1.
       -1   -1    0    0    0  501  0.00000000000E+00  0.00000000000E+00 -0.59608831042E+03  0.59608831044E+03  0.50400001928E-02 0.  1.
    10030    2    1    2    0    0  0.00000000000E+00  0.00000000000E+00 -0.88066977116E+02  0.11041096438E+04  0.11005918013E+04 0.  0.
        1    1    3    3  502    0 -0.64496121592E+02 -0.30771783143E+03 -0.49711360356E+03  0.58819380169E+03  0.50400001928E-02 0.  1.
       -1    1    3    3    0  502  0.64496121592E+02  0.30771783143E+03  0.40904662644E+03  0.51591584208E+03  0.50400001928E-02 0. -1.
</event>
<event>
 5   0  0.1425432E-03  0.1169652E+04  0.7818609E-02  0.9139843E-01
       -2   -1    0    0    0  501  0.00000000000E+00  0.00000000000E+00  0.18295978582E+03  0.18295978584E+03  0.25500000920E-02 0.  1.
        2   -1    0    0  501    0  0.00000000000E+00  0.00000000000E+00 -0.18693812193E+04  0.18693812193E+04  0.25500000920E-02 0. -1.
    10030    2    1    2    0    0  0.00000000000E+00  0.00000000000E+00 -0.16864214334E+04  0.20523410051E+04  0.11696522347E+04 0.  0.
        1    1    3    3  502    0  0.41887502286E+02  0.37903345142E+03 -0.65200569655E+02  0.38687470123E+03  0.50400001928E-02 0.  1.
       -1    1    3    3    0  502 -0.41887502286E+02 -0.37903345142E+03 -0.16212208638E+04  0.16654663039E+04  0.50400001928E-02 0. -1.
</event>
<event>
 5   0  0.7946038E-04  0.1106170E+04  0.7818609E-02  0.9199199E-01
        1   -1    0    0  501    0  0.00000000000E+00  0.00000000000E+00  0.99232897762E+03  0.99232897764E+03  0.50400001928E-02 0.  1.
       -1   -1    0    0    0  501  0.00000000000E+00  0.00000000000E+00 -0.30826778512E+03  0.30826778516E+03  0.50400001928E-02 0. -1.
    10030    2    1    2    0    0  0.00000000000E+00  0.00000000000E+00  0.68406119250E+03  0.13005967628E+04  0.11061700702E+04 0.  0.
        4    1    3    3  502    0  0.19369518771E+03 -0.32023180551E+03  0.82083610158E+03  0.90213067433E+03  0.12699999809E+01 0.  1.
       -4    1    3    3    0  502 -0.19369518771E+03  0.32023180551E+03 -0.13677490908E+03  0.39846608847E+03  0.12699999809E+01 0. -1.
</event>
<event>
 5   0  0.8305271E-04  0.1098916E+04  0.7818609E-02  0.9206249E-01
       -1   -1    0    0    0  501  0.00000000000E+00  0.00000000000E+00  0.25902281139E+03  0.25902281144E+03  0.50400001928E-02 0.  1.
        1   -1    0    0  501    0  0.00000000000E+00  0.00000000000E+00 -0.11655495966E+04  0.11655495966E+04  0.50400001928E-02 0. -1.
    10030    2    1    2    0    0  0.00000000000E+00  0.00000000000E+00 -0.90652678517E+03  0.14245724080E+04  0.10989157081E+04 0.  0.
        5    1    3    3  502    0 -0.33636687678E+03 -0.59309743117E+02 -0.10111756093E+04  0.10673136953E+04  0.46999998093E+01 0. -1.
       -5    1    3    3    0  502  0.33636687678E+03  0.59309743117E+02  0.10464882409E+03  0.35725871271E+03  0.46999998093E+01 0.  1.
</event>
<event>
 5   0  0.8341767E-04  0.1102126E+04  0.7818609E-02  0.9203122E-01
       -1   -1    0    0    0  501  0.00000000000E+00  0.00000000000E+00  0.34341124943E+03  0.34341124947E+03  0.50400001928E-02 0.  1.
        1   -1    0    0  501    0  0.00000000000E+00  0.00000000000E+00 -0.88427693833E+03  0.88427693834E+03  0.50400001928E-02 0. -1.
    10030    2    1    2    0    0  0.00000000000E+00  0.00000000000E+00 -0.54086568889E+03  0.12276881878E+04  0.11021263961E+04 0.  0.
        2    1    3    3  502    0  0.65670083403E+02 -0.48690969661E+03 -0.54841738211E+03  0.73631191591E+03  0.25500000920E-02 0. -1.
       -2    1    3    3    0  502 -0.65670083403E+02  0.48690969661E+03  0.75516932163E+01  0.49137627190E+03  0.25500000920E-02 0.  1.
</event>
<event>
 5   0  0.8341767E-04  0.1103069E+04  0.7818609E-02  0.9202206E-01
        1   -1    0    0  501    0  0.00000000000E+00  0.00000000000E+00  0.47059346801E+03  0.47059346804E+03  0.50400001928E-02 0.  1.
       -1   -1    0    0    0  501  0.00000000000E+00  0.00000000000E+00 -0.64639684480E+03  0.64639684481E+03  0.50400001928E-02 0. -1.
    10030    2    1    2    0    0  0.00000000000E+00  0.00000000000E+00 -0.17580337678E+03  0.11169903129E+04  0.11030686886E+04 0.  0.
        2    1    3    3  502    0  0.39969127535E+03 -0.18485302147E+03  0.24835304295E+03  0.50557194255E+03  0.25500000920E-02 0.  1.
       -2    1    3    3    0  502 -0.39969127535E+03  0.18485302147E+03 -0.42415641973E+03  0.61141837031E+03  0.25500000920E-02 0. -1.
</event>
<event>
 5   0  0.8305271E-04  0.1103129E+04  0.7818609E-02  0.9202148E-01
        1   -1    0    0  501    0  0.00000000000E+00  0.00000000000E+00  0.23915109600E+03  0.23915109605E+03  0.50400001928E-02 0.  1.
       -1   -1    0    0    0  501  0.00000000000E+00  0.00000000000E+00 -0.12720964158E+04  0.12720964158E+04  0.50400001928E-02 0. -1.
    10030    2    1    2    0    0  0.00000000000E+00  0.00000000000E+00 -0.10329453198E+04  0.15112475119E+04  0.11031287361E+04 0.  0.
        5    1    3    3  502    0 -0.19438322773E+02  0.90021350429E+02  0.22851548293E+03  0.24642059139E+03  0.46999998093E+01 0.  1.
       -5    1    3    3    0  502  0.19438322773E+02 -0.90021350429E+02 -0.12614608027E+04  0.12648269205E+04  0.46999998093E+01 0. -1.
</event>
<event>
 5   0  0.1396936E-03  0.1098233E+04  0.7818609E-02  0.9206915E-01
        2   -1    0    0  501    0  0.00000000000E+00  0.00000000000E+00  0.16479632342E+04  0.16479632342E+04  0.25500000920E-02 0.  1.
       -2   -1    0    0    0  501  0.00000000000E+00  0.00000000000E+00 -0.18297078645E+03  0.18297078647E+03  0.25500000920E-02 0. -1.
    10030    2    1    2    0    0  0.00000000000E+00  0.00000000000E+00  0.14649924478E+04  0.18309340207E+04  0.10982333614E+04 0.  0.
        2    1    3    3  502    0 -0.15612605069E+02  0.47213725204E+03  0.11992178742E+04  0.12889068422E+04  0.25500000920E-02 0. -1.
       -2    1    3    3    0  502  0.15612605069E+02 -0.47213725204E+03  0.26577457357E+03  0.54202717844E+03  0.25500000920E-02 0.  1.
</event>
<event>
 5   0  0.7946038E-04  0.1047338E+04  0.7818609E-02  0.9258097E-01
        1   -1    0    0  501    0  0.00000000000E+00  0.00000000000E+00  0.58265402796E+03  0.58265402798E+03  0.50400001928E-02 0. -1.
       -1   -1    0    0    0  501  0.00000000000E+00  0.00000000000E+00 -0.47065535151E+03  0.47065535154E+03  0.50400001928E-02 0.  1.
    10030    2    1    2    0    0  0.00000000000E+00  0.00000000000E+00  0.11199867645E+03  0.10533093795E+04  0.10473380283E+04 0.  0.
        4    1    3    3  502    0  0.48608353036E+03 -0.15620737212E+03  0.17306610611E+03  0.53910243143E+03  0.12699999809E+01 0.  1.
       -4    1    3    3    0  502 -0.48608353036E+03  0.15620737212E+03 -0.61067429661E+02  0.51420694808E+03  0.12699999809E+01 0. -1.
</event>
<event>
 5   0  0.8009636E-04  0.1090103E+04  0.7818609E-02  0.9214893E-01
        1   -1    0    0  501    0  0.00000000000E+00  0.00000000000E+00  0.47430783023E+03  0.47430783025E+03  0.50400001928E-02 0.  1.
       -1   -1    0    0    0  501  0.00000000000E+00  0.00000000000E+00 -0.62634626285E+03  0.62634626287E+03  0.50400001928E-02 0. -1.
    10030    2    1    2    0    0  0.00000000000E+00  0.00000000000E+00 -0.15203843263E+03  0.11006540931E+04  0.10901026317E+04 0.  0.
        1    1    3    3  502    0  0.31471205346E+02  0.18199199767E+03 -0.59378826231E+03  0.62184887591E+03  0.50400001928E-02 0. -1.
       -1    1    3    3    0  502 -0.31471205346E+02 -0.18199199767E+03  0.44174982969E+03  0.47880521722E+03  0.50400001928E-02 0.  1.
</event>
<event>
 5   0  0.8009636E-04  0.1090302E+04  0.7818609E-02  0.9214696E-01
       -1   -1    0    0    0  501  0.00000000000E+00  0.00000000000E+00  0.81934588860E+03  0.81934588861E+03  0.50400001928E-02 0.  1.
        1   -1    0    0  501    0  0.00000000000E+00  0.00000000000E+00 -0.36271595948E+03  0.36271595952E+03  0.50400001928E-02 0. -1.
    10030    2    1    2    0    0  0.00000000000E+00  0.00000000000E+00  0.45662992912E+03  0.11820618481E+04  0.10903023987E+04 0.  0.
        1    1    3    3  502    0 -0.34900689592E+03  0.32733853508E+03  0.51151418779E+03  0.70043064916E+03  0.50400001928E-02 0.  1.
       -1    1    3    3    0  502  0.34900689592E+03 -0.32733853508E+03 -0.54884258677E+02  0.48163119897E+03  0.50400001928E-02 0. -1.
</event>
<event>
 5   0  0.5409500E-04  0.1091800E+04  0.7818609E-02  0.9213221E-01
       -3   -1    0    0    0  501  0.00000000000E+00  0.00000000000E+00  0.15272166982E+04  0.15272167016E+04  0.10100000352E+00 0. -1.
        3   -1    0    0  501    0  0.00000000000E+00  0.00000000000E+00 -0.19513070653E+03  0.19513073267E+03  0.10100000352E+00 0.  1.
    10030    2    1    2    0    0  0.00000000000E+00  0.00000000000E+00  0.13320859917E+04  0.17223474342E+04  0.10918001625E+04 0.  0.
        5    1    3    3  502    0 -0.21359367546E+03  0.20565525428E+03 -0.56989873247E+02  0.30197065662E+03  0.46999998093E+01 0.  1.
       -5    1    3    3    0  502  0.21359367546E+03 -0.20565525428E+03  0.13890758650E+04  0.14203767776E+04  0.46999998093E+01 0. -1.
</event>
<event>
 5   0  0.1372794E-03  0.1094487E+04  0.7818609E-02  0.9210582E-01
       -2   -1    0    0    0  501  0.00000000000E+00  0.00000000000E+00  0.15212949807E+03  0.15212949809E+03  0.25500000920E-02 0. -1.
        2   -1    0    0  501    0  0.00000000000E+00  0.00000000000E+00 -0.19685559846E+04  0.19685559846E+04  0.25500000920E-02 0.  1.
    10030    2    1    2    0    0  0.00000000000E+00  0.00000000000E+00 -0.18164264865E+04  0.21206854827E+04  0.10944869737E+04 0.  0.
        4    1    3    3  502    0 -0.26153037484E+03  0.43180391501E+03 -0.49891901309E+03  0.70977077462E+03  0.12699999809E+01 0. -1.
       -4    1    3    3    0  502  0.26153037484E+03 -0.43180391501E+03 -0.13175074734E+04  0.14109147081E+04  0.12699999809E+01 0.  1.
</event>
<event>
 5   0  0.8150924E-04  0.1099796E+04  0.7818609E-02  0.9205391E-01
       -1   -1    0    0    0  501  0.00000000000E+00  0.00000000000E+00  0.43677179275E+03  0.43677179278E+03  0.50400001928E-02 0.  1.
        1   -1    0    0  501    0  0.00000000000E+00  0.00000000000E+00 -0.69232455194E+03  0.69232455196E+03  0.50400001928E-02 0. -1.
    10030    2    1    2    0    0  0.00000000000E+00  0.00000000000E+00 -0.25555275919E+03  0.11290963447E+04  0.10997960461E+04 0.  0.
        3    1    3    3  502    0 -0.32558545417E+03 -0.12156540833E+03 -0.56527964645E+03  0.66356998527E+03  0.10100000352E+00 0. -1.
       -3    1    3    3    0  502  0.32558545417E+03  0.12156540833E+03  0.30972688725E+03  0.46552635947E+03  0.10100000352E+00 0.  1.
</event>
<event>
 5   0  0.1372794E-03  0.1100579E+04  0.7818609E-02  0.9204628E-01
       -2   -1    0    0    0  501  0.00000000000E+00  0.00000000000E+00  0.31189757053E+03  0.31189757054E+03  0.25500000920E-02 0. -1.
        2   -1    0    0  501    0  0.00000000000E+00  0.00000000000E+00 -0.97089122679E+03  0.97089122679E+03  0.25500000920E-02 0.  1.
    10030    2    1    2    0    0  0.00000000000E+00  0.00000000000E+00 -0.65899365626E+03  0.12827887973E+04  0.11005791473E+04 0.  0.
        4    1    3    3  502    0 -0.29250831706E+03  0.27569735521E+03 -0.76754641141E+03  0.86642902409E+03  0.12699999809E+01 0.  1.
       -4    1    3    3    0  502  0.29250831706E+03 -0.27569735521E+03  0.10855275515E+03  0.41635977324E+03  0.12699999809E+01 0. -1.
</event>
<event>
 5   0  0.1429680E-03  0.1074558E+04  0.7818609E-02  0.9230350E-01
        2   -1    0    0  501    0  0.00000000000E+00  0.00000000000E+00  0.14623219602E+04  0.14623219602E+04  0.25500000920E-02 0. -1.
       -2   -1    0    0    0  501  0.00000000000E+00  0.00000000000E+00 -0.19740433598E+03  0.19740433600E+03  0.25500000920E-02 0.  1.
    10030    2    1    2    0    0  0.00000000000E+00  0.00000000000E+00  0.12649176242E+04  0.16597262962E+04  0.10745579473E+04 0.  0.
        3    1    3    3  502    0 -0.47919120592E+03 -0.14306994461E+03  0.32909608744E+03  0.59866306538E+03  0.10100000352E+00 0.  1.
       -3    1    3    3    0  502  0.47919120592E+03  0.14306994461E+03  0.93582153673E+03  0.10610632308E+04  0.10100000352E+00 0. -1.
</event>
<event>
 5   0  0.1425432E-03  0.1095309E+04  0.7818609E-02  0.9209776E-01
        2   -1    0    0  501    0  0.00000000000E+00  0.00000000000E+00  0.11760584499E+04  0.11760584499E+04  0.25500000920E-02 0.  1.
       -2   -1    0    0    0  501  0.00000000000E+00  0.00000000000E+00 -0.25502597326E+03  0.25502597328E+03  0.25500000920E-02 0. -1.
    10030    2    1    2    0    0  0.00000000000E+00  0.00000000000E+00  0.92103247662E+03  0.14310844232E+04  0.10953089990E+04 0.  0.
        1    1    3    3  502    0 -0.10091608865E+03  0.38547364970E+03 -0.30359180605E+02  0.39961940823E+03  0.50400001928E-02 0. -1.
       -1    1    3    3    0  502  0.10091608865E+03 -0.38547364970E+03  0.95139165723E+03  0.10314650149E+04  0.50400001928E-02 0.  1.
</event>
<event>
 5   0  0.1372794E-03  0.1105289E+04  0.7818609E-02  0.9200052E-01
       -2   -1    0    0    0  501  0.00000000000E+00  0.00000000000E+00  0.77375621726E+03  0.77375621726E+03  0.25500000920E-02 0. -1.
        2   -1    0    0  501    0  0.00000000000E+00  0.00000000000E+00 -0.39471882277E+03  0.39471882278E+03  0.25500000920E-02 0.  1.
    10030    2    1    2    0    0  0.00000000000E+00  0.00000000000E+00  0.37903739449E+03  0.11684750400E+04  0.11052893616E+04 0.  0.
        4    1    3    3  502    0 -0.80635124066E+02  0.33152141521E+02  0.76643870181E+03  0.77138251488E+03  0.12699999809E+01 0. -1.
       -4    1    3    3    0  502  0.80635124066E+02 -0.33152141521E+02 -0.38740130733E+03  0.39709252516E+03  0.12699999809E+01 0.  1.
</event>
<event>
 5   0  0.8150924E-04  0.1100082E+04  0.7818609E-02  0.9205112E-01
       -1   -1    0    0    0  501  0.00000000000E+00  0.00000000000E+00  0.26376596444E+03  0.26376596449E+03  0.50400001928E-02 0.  1.
        1   -1    0    0  501    0  0.00000000000E+00  0.00000000000E+00 -0.11470215531E+04  0.11470215531E+04  0.50400001928E-02 0. -1.
    10030    2    1    2    0    0  0.00000000000E+00  0.00000000000E+00 -0.88325558868E+03  0.14107875176E+04  0.11000822628E+04 0.  0.
        3    1    3    3  502    0 -0.33533598266E+03 -0.22805284347E+03  0.34926854185E+02  0.40703589034E+03  0.10100000352E+00 0.  1.
       -3    1    3    3    0  502  0.33533598266E+03  0.22805284347E+03 -0.91818244287E+03  0.10037516273E+04  0.10100000352E+00 0. -1.
</event>
<event>
 5   0  0.1429680E-03  0.1133410E+04  0.7818609E-02  0.9173226E-01
       -2   -1    0    0    0  501  0.00000000000E+00  0.00000000000E+00  0.12879489858E+04  0.12879489858E+04  0.25500000920E-02 0. -1.
        2   -1    0    0  501    0  0.00000000000E+00  0.00000000000E+00 -0.24935360549E+03  0.24935360550E+03  0.25500000920E-02 0.  1.
    10030    2    1    2    0    0  0.00000000000E+00  0.00000000000E+00  0.10385953803E+04  0.15373025913E+04  0.11334102934E+04 0.  0.
        3    1    3    3  502    0 -0.37347735272E+03  0.35002675457E+03  0.84917464119E+03  0.99151482256E+03  0.10100000352E+00 0. -1.
       -3    1    3    3    0  502  0.37347735272E+03 -0.35002675457E+03  0.18942073912E+03  0.54578776875E+03  0.10100000352E+00 0.  1.
</event>
<event>
 5   0  0.8009636E-04  0.1089983E+04  0.7818609E-02  0.9215011E-01
       -1   -1    0    0    0  501  0.00000000000E+00  0.00000000000E+00  0.91562580218E+02  0.91562580357E+02  0.50400001928E-02 0.  1.
        1   -1    0    0  501    0  0.00000000000E+00  0.00000000000E+00 -0.32438526761E+04  0.32438526761E+04  0.50400001928E-02 0. -1.
    10030    2    1    2    0    0  0.00000000000E+00  0.00000000000E+00 -0.31522900959E+04  0.33354152565E+04  0.10899826074E+04 0.  0.
        1    1    3    3  502    0  0.85026700682E+02 -0.35212569634E+03 -0.33015647223E+03  0.49012788335E+03  0.50400001928E-02 0.  1.
       -1    1    3    3    0  502 -0.85026700682E+02  0.35212569634E+03 -0.28221336236E+04  0.28452873731E+04  0.50400001928E-02 0. -1.
</event>
<event>
 5   0  0.1372794E-03  0.1103990E+04  0.7818609E-02  0.9201312E-01
        2   -1    0    0  501    0  0.00000000000E+00  0.00000000000E+00  0.15136186929E+04  0.15136186929E+04  0.25500000920E-02 0. -1.
       -2   -1    0    0    0  501  0.00000000000E+00  0.00000000000E+00 -0.20130454809E+03  0.20130454811E+03  0.25500000920E-02 0.  1.
    10030    2    1    2    0    0  0.00000000000E+00  0.00000000000E+00  0.13123141448E+04  0.17149232410E+04  0.11039897227E+04 0.  0.
        4    1    3    3  502    0  0.23530743304E+03 -0.21492571485E+03  0.13562747336E+04  0.13932140599E+04  0.12699999809E+01 0. -1.
       -4    1    3    3    0  502 -0.23530743304E+03  0.21492571485E+03 -0.43960588743E+02  0.32170918111E+03  0.12699999809E+01 0.  1.
</event>
<event>
 5   0  0.1396936E-03  0.1096192E+04  0.7818609E-02  0.9208912E-01
        2   -1    0    0  501    0  0.00000000000E+00  0.00000000000E+00  0.16808168252E+04  0.16808168252E+04  0.25500000920E-02 0. -1.
       -2   -1    0    0    0  501  0.00000000000E+00  0.00000000000E+00 -0.17872804034E+03  0.17872804036E+03  0.25500000920E-02 0.  1.
    10030    2    1    2    0    0  0.00000000000E+00  0.00000000000E+00  0.15020887849E+04  0.18595448656E+04  0.10961917667E+04 0.  0.
        2    1    3    3  502    0  0.30919112440E+03  0.22352047879E+03  0.83509940525E+02  0.39055661052E+03  0.25500000920E-02 0. -1.
       -2    1    3    3    0  502 -0.30919112440E+03 -0.22352047879E+03  0.14185788443E+04  0.14689882550E+04  0.25500000920E-02 0.  1.
</event>
<event>
 5   0  0.1425432E-03  0.1103893E+04  0.7818609E-02  0.9201406E-01
       -2   -1    0    0    0  501  0.00000000000E+00  0.00000000000E+00  0.31786783973E+03  0.31786783974E+03  0.25500000920E-02 0.  1.
        2   -1    0    0  501    0  0.00000000000E+00  0.00000000000E+00 -0.95840081718E+03  0.95840081719E+03  0.25500000920E-02 0. -1.
    10030    2    1    2    0    0  0.00000000000E+00  0.00000000000E+00 -0.64053297745E+03  0.12762686569E+04  0.11038927436E+04 0.  0.
        1    1    3    3  502    0 -0.39928901583E+03  0.14801480198E+03 -0.72624686003E+03  0.84188752307E+03  0.50400001928E-02 0. -1.
       -1    1    3    3    0  502  0.39928901583E+03 -0.14801480198E+03  0.85713882579E+02  0.43438113387E+03  0.50400001928E-02 0.  1.
</event>
<event>
 5   0  0.1429680E-03  0.1099963E+04  0.7818609E-02  0.9205227E-01
       -2   -1    0    0    0  501  0.00000000000E+00  0.00000000000E+00  0.31532736171E+03  0.31532736172E+03  0.25500000920E-02 0.  1.
        2   -1    0    0  501    0  0.00000000000E+00  0.00000000000E+00 -0.95925673455E+03  0.95925673455E+03  0.25500000920E-02 0. -1.
    10030    2    1    2    0    0  0.00000000000E+00  0.00000000000E+00 -0.64392937284E+03  0.12745840963E+04  0.10999634454E+04 0.  0.
        3    1    3    3  502    0 -0.46653932520E+03  0.19971880473E+03 -0.76338534695E+02  0.51319988796E+03  0.10100000352E+00 0.  1.
       -3    1    3    3    0  502  0.46653932520E+03 -0.19971880473E+03 -0.56759083814E+03  0.76138420831E+03  0.10100000352E+00 0. -1.
</event>
<event>
 5   0  0.5409500E-04  0.1108811E+04  0.7818609E-02  0.9196647E-01
       -3   -1    0    0    0  501  0.00000000000E+00  0.00000000000E+00  0.32920569503E+03  0.32920571053E+03  0.10100000352E+00 0.  1.
        3   -1    0    0  501    0  0.00000000000E+00  0.00000000000E+00 -0.93365727467E+03  0.93365728013E+03  0.10100000352E+00 0. -1.
    10030    2    1    2    0    0  0.00000000000E+00  0.00000000000E+00 -0.60445157964E+03  0.12628629907E+04  0.11088107237E+04 0.  0.
        5    1    3    3  502    0 -0.17380207572E+03  0.37181426535E+03  0.12223211820E+03  0.42827069730E+03  0.46999998093E+01 0.  1.
       -5    1    3    3    0  502  0.17380207572E+03 -0.37181426535E+03 -0.72668369784E+03  0.83459229337E+03  0.46999998093E+01 0. -1.
</event>
<event>
 5   0  0.1396936E-03  0.1102416E+04  0.7818609E-02  0.9202840E-01
        2   -1    0    0  501    0  0.00000000000E+00  0.00000000000E+00  0.24981061922E+04  0.24981061922E+04  0.25500000920E-02 0. -1.
       -2   -1    0    0    0  501  0.00000000000E+00  0.00000000000E+00 -0.12162425269E+03  0.12162425271E+03  0.25500000920E-02 0.  1.
    10030    2    1    2    0    0  0.00000000000E+00  0.00000000000E+00  0.23764819396E+04  0.26197304450E+04  0.11024160717E+04 0.  0.
        2    1    3    3  502    0  0.25025836134E+03 -0.48431226412E+03  0.13819200923E+04  0.14855607555E+04  0.25500000920E-02 0.  1.
       -2    1    3    3    0  502 -0.25025836134E+03  0.48431226412E+03  0.99456184722E+03  0.11341696895E+04  0.25500000920E-02 0. -1.
</event>
<event>
 5   0  0.8341767E-04  0.1089805E+04  0.7818609E-02  0.9215185E-01
        1   -1    0    0  501    0  0.00000000000E+00  0.00000000000E+00  0.17015660040E+04  0.17015660040E+04  0.50400001928E-02 0.  1.
       -1   -1    0    0    0  501  0.00000000000E+00  0.00000000000E+00 -0.17449749194E+03  0.17449749201E+03  0.50400001928E-02 0. -1.
    10030    2    1    2    0    0  0.00000000000E+00  0.00000000000E+00  0.15270685120E+04  0.18760634960E+04  0.10898054875E+04 0.  0.
        2    1    3    3  502    0  0.38561821938E+03  0.22022824375E+03  0.21992932982E+03  0.49555100704E+03  0.25500000920E-02 0.  1.
       -2    1    3    3    0  502 -0.38561821938E+03 -0.22022824375E+03  0.13071391822E+04  0.13805124889E+04  0.25500000920E-02 0. -1.
</event>
<event>
 5   0  0.8341767E-04  0.1096140E+04  0.7818609E-02  0.9208962E-01
        1   -1    0    0  501    0  0.00000000000E+00  0.00000000000E+00  0.57469197661E+03  0.57469197663E+03  0.50400001928E-02 0.  1.
       -1   -1    0    0    0  501  0.00000000000E+00  0.00000000000E+00 -0.52268159468E+03  0.52268159470E+03  0.50400001928E-02 0. -1.
    10030    2    1    2    0    0  0.00000000000E+00  0.00000000000E+00  0.52010381936E+02  0.10973735713E+04  0.10961403538E+04 0.  0.
        2    1    3    3  502    0  0.13607544795E+02 -0.34953076553E+03  0.44840878490E+03  0.56870674316E+03  0.25500000920E-02 0.  1.
       -2    1    3    3    0  502 -0.13607544795E+02  0.34953076553E+03 -0.39639840297E+03  0.52866682817E+03  0.25500000920E-02 0. -1.
</event>
<event>
 5   0  0.7946038E-04  0.1098880E+04  0.7818609E-02  0.9206284E-01
       -1   -1    0    0    0  501  0.00000000000E+00  0.00000000000E+00  0.13373292507E+03  0.13373292517E+03  0.50400001928E-02 0. -1.
        1   -1    0    0  501    0  0.00000000000E+00  0.00000000000E+00 -0.22573668442E+04  0.22573668442E+04  0.50400001928E-02 0.  1.
    10030    2    1    2    0    0  0.00000000000E+00  0.00000000000E+00 -0.21236339191E+04  0.23910997694E+04  0.10988799228E+04 0.  0.
        4    1    3    3  502    0 -0.25166470022E+03 -0.37060830584E+03 -0.36961739451E+03  0.58077901901E+03  0.12699999809E+01 0. -1.
       -4    1    3    3    0  502  0.25166470022E+03  0.37060830584E+03 -0.17540165246E+04  0.18103207503E+04  0.12699999809E+01 0.  1.
</event>
<event>
 5   0  0.8305271E-04  0.1075269E+04  0.7818609E-02  0.9229637E-01
        1   -1    0    0  501    0  0.00000000000E+00  0.00000000000E+00  0.50045464808E+03  0.50045464811E+03  0.50400001928E-02 0. -1.
       -1   -1    0    0    0  501  0.00000000000E+00  0.00000000000E+00 -0.57757663800E+03  0.57757663803E+03  0.50400001928E-02 0.  1.
    10030    2    1    2    0    0  0.00000000000E+00  0.00000000000E+00 -0.77121989923E+02  0.10780312861E+04  0.10752691070E+04 0.  0.
        5    1    3    3  502    0 -0.21319170990E+03 -0.10232723553E+03  0.44549108589E+03  0.50438672257E+03  0.46999998093E+01 0. -1.
       -5    1    3    3    0  502  0.21319170990E+03  0.10232723553E+03 -0.52261307581E+03  0.57364456356E+03  0.46999998093E+01 0.  1.
</event>
<event>
 5   0  0.8305271E-04  0.1104379E+04  0.7818609E-02  0.9200935E-01
       -1   -1    0    0    0  501  0.00000000000E+00  0.00000000000E+00  0.23587668563E+03  0.23587668569E+03  0.50400001928E-02 0.  1.
        1   -1    0    0  501    0  0.00000000000E+00  0.00000000000E+00 -0.12926798349E+04  0.12926798349E+04  0.50400001928E-02 0. -1.
    10030    2    1    2    0    0  0.00000000000E+00  0.00000000000E+00 -0.10568031493E+04  0.15285565206E+04  0.11043786218E+04 0.  0.
        5    1    3    3  502    0  0.20953576085E+03 -0.36006980563E+03 -0.26805087840E+02  0.41748784741E+03  0.46999998093E+01 0.  1.
       -5    1    3    3    0  502 -0.20953576085E+03  0.36006980563E+03 -0.10299980615E+04  0.11110686732E+04  0.46999998093E+01 0. -1.
</event>
<event>
 5   0  0.1429680E-03  0.1096528E+04  0.7818609E-02  0.9208583E-01
        2   -1    0    0  501    0  0.00000000000E+00  0.00000000000E+00  0.10105780284E+04  0.10105780285E+04  0.25500000920E-02 0. -1.
       -2   -1    0    0    0  501  0.00000000000E+00  0.00000000000E+00 -0.29744698759E+03  0.29744698760E+03  0.25500000920E-02 0.  1.
    10030    2    1    2    0    0  0.00000000000E+00  0.00000000000E+00  0.71313104086E+03  0.13080250161E+04  0.10965279573E+04 0.  0.
        3    1    3    3  502    0 -0.40623388082E+02 -0.42133292412E+03  0.77223149256E+03  0.88063226202E+03  0.10100000352E+00 0. -1.
       -3    1    3    3    0  502  0.40623388082E+02  0.42133292412E+03 -0.59100451704E+02  0.42739275403E+03  0.10100000352E+00 0.  1.
</event>
<event>
 5   0  0.1429680E-03  0.1077644E+04  0.7818609E-02  0.9227260E-01
        2   -1    0    0  501    0  0.00000000000E+00  0.00000000000E+00  0.69361276926E+03  0.69361276927E+03  0.25500000920E-02 0. -1.
       -2   -1    0    0    0  501  0.00000000000E+00  0.00000000000E+00 -0.41857526758E+03  0.41857526758E+03  0.25500000920E-02 0.  1.
    10030    2    1    2    0    0  0.00000000000E+00  0.00000000000E+00  0.27503750169E+03  0.11121880369E+04  0.10776440052E+04 0.  0.
        3    1    3    3  502    0 -0.13525702858E+03 -0.83341067544E+02 -0.39385330131E+03  0.42468886314E+03  0.10100000352E+00 0.  1.
       -3    1    3    3    0  502  0.13525702858E+03  0.83341067544E+02  0.66889080300E+03  0.68749917371E+03  0.10100000352E+00 0. -1.
</event>
<event>
 5   0  0.8305271E-04  0.1092030E+04  0.7818609E-02  0.9212995E-01
        1   -1    0    0  501    0  0.00000000000E+00  0.00000000000E+00  0.12918905731E+04  0.12918905731E+04  0.50400001928E-02 0. -1.
       -1   -1    0    0    0  501  0.00000000000E+00  0.00000000000E+00 -0.23077226381E+03  0.23077226386E+03  0.50400001928E-02 0.  1.
    10030    2    1    2    0    0  0.00000000000E+00  0.00000000000E+00  0.10611183093E+04  0.15226628369E+04  0.10920302417E+04 0.  0.
        5    1    3    3  502    0  0.89928613883E+02  0.35099743442E+03 -0.38947018373E+02  0.36445207477E+03  0.46999998093E+01 0.  1.
       -5    1    3    3    0  502 -0.89928613883E+02 -0.35099743442E+03  0.11000653276E+04  0.11582107622E+04  0.46999998093E+01 0. -1.
</event>
<event>
 5   0  0.1425432E-03  0.1102672E+04  0.7818609E-02  0.9202591E-01
       -2   -1    0    0    0  501  0.00000000000E+00  0.00000000000E+00  0.17724787636E+03  0.17724787638E+03  0.25500000920E-02 0.  1.
        2   -1    0    0  501    0  0.00000000000E+00  0.00000000000E+00 -0.17149521094E+04  0.17149521094E+04  0.25500000920E-02 0. -1.
    10030    2    1    2    0    0  0.00000000000E+00  0.00000000000E+00 -0.15377042330E+04  0.18921999858E+04  0.11026724254E+04 0.  0.
        1    1    3    3  502    0  0.12590803097E+03 -0.53377164337E+03 -0.86602481489E+03  0.10250677927E+04  0.50400001928E-02 0. -1.
       -1    1    3    3    0  502 -0.12590803097E+03  0.53377164337E+03 -0.67167941813E+03  0.86713219309E+03  0.50400001928E-02 0.  1.
</event>
<event>
 5   0  0.8341767E-04  0.1093410E+04  0.7818609E-02  0.9211639E-01
        1   -1    0    0  501    0  0.00000000000E+00  0.00000000000E+00  0.53633812575E+03  0.53633812578E+03  0.50400001928E-02 0.  1.
       -1   -1    0    0    0  501  0.00000000000E+00  0.00000000000E+00 -0.55727217675E+03  0.55727217677E+03  0.50400001928E-02 0. -1.
    10030    2    1    2    0    0  0.00000000000E+00  0.00000000000E+00 -0.20934050996E+02  0.10936103025E+04  0.10934099228E+04 0.  0.
        2    1    3    3  502    0 -0.47094432447E+02  0.40485127523E+03  0.35396752230E+03  0.53982909098E+03  0.25500000920E-02 0.  1.
       -2    1    3    3    0  502  0.47094432447E+02 -0.40485127523E+03 -0.37490157329E+03  0.55378121157E+03  0.25500000920E-02 0. -1.
</event>
<event>
 5   0  0.1429680E-03  0.1099873E+04  0.7818609E-02  0.9205316E-01
       -2   -1    0    0    0  501  0.00000000000E+00  0.00000000000E+00  0.29352832528E+03  0.29352832529E+03  0.25500000920E-02 0.  1.
        2   -1    0    0  501    0  0.00000000000E+00  0.00000000000E+00 -0.10303265736E+04  0.10303265736E+04  0.25500000920E-02 0. -1.
    10030    2    1    2    0    0  0.00000000000E+00  0.00000000000E+00 -0.73679824835E+03  0.13238548989E+04  0.10998727811E+04 0.  0.
        3    1    3    3  502    0 -0.18554823542E+03  0.26616628273E+03  0.16604764711E+03  0.36447835195E+03  0.10100000352E+00 0.  1.
       -3    1    3    3    0  502  0.18554823542E+03 -0.26616628273E+03 -0.90284589545E+03  0.95937654696E+03  0.10100000352E+00 0. -1.
</event>
<event>
 5   0  0.1372794E-03  0.1103203E+04  0.7818609E-02  0.9202076E-01
        2   -1    0    0  501    0  0.00000000000E+00  0.00000000000E+00  0.15286109187E+04  0.15286109187E+04  0.25500000920E-02 0. -1.
       -2   -1    0    0    0  501  0.00000000000E+00  0.00000000000E+00 -0.19904609541E+03  0.19904609543E+03  0.25500000920E-02 0.  1.
    10030    2    1    2    0    0  0.00000000000E+00  0.00000000000E+00  0.13295648232E+04  0.17276570141E+04  0.11032026736E+04 0.  0.
        4    1    3    3  502    0 -0.20599517926E+03  0.31423734492E+03  0.12972044071E+04  0.13505258270E+04  0.12699999809E+01 0. -1.
       -4    1    3    3    0  502  0.20599517926E+03 -0.31423734492E+03  0.32360416180E+02  0.37713118707E+03  0.12699999809E+01 0.  1.
</event>
<event>
 5   0  0.1402775E-03  0.1099079E+04  0.7818609E-02  0.9206090E-01
       -2   -1    0    0    0  501  0.00000000000E+00  0.00000000000E+00  0.91001031661E+03  0.91001031662E+03  0.25500000920E-02 0.  1.
        2   -1    0    0  501    0  0.00000000000E+00  0.00000000000E+00 -0.33185719079E+03  0.33185719080E+03  0.25500000920E-02 0. -1.
    10030    2    1    2    0    0  0.00000000000E+00  0.00000000000E+00  0.57815312582E+03  0.12418675074E+04  0.10990786455E+04 0.  0.
        5    1    3    3  502    0 -0.51733805598E+02 -0.49734490880E+03  0.31557048968E+02  0.50104518987E+03  0.46999998093E+01 0.  1.
       -5    1    3    3    0  502  0.51733805598E+02  0.49734490880E+03  0.54659607685E+03  0.74082231755E+03  0.46999998093E+01 0. -1.
</event>
<event>
 5   0  0.8009636E-04  0.1102992E+04  0.7818609E-02  0.9202280E-01
        1   -1    0    0  501    0  0.00000000000E+00  0.00000000000E+00  0.19152907221E+04  0.19152907222E+04  0.50400001928E-02 0. -1.
       -1   -1    0    0    0  501  0.00000000000E+00  0.00000000000E+00 -0.15879989677E+03  0.15879989685E+03  0.50400001928E-02 0.  1.
    10030    2    1    2    0    0  0.00000000000E+00  0.00000000000E+00  0.17564908254E+04  0.20740906190E+04  0.11029922376E+04 0.  0.
        1    1    3    3  502    0  0.25996149430E+03 -0.47827738002E+03  0.71197169432E+03  0.89623262844E+03  0.50400001928E-02 0.  1.
       -1    1    3    3    0  502 -0.25996149430E+03  0.47827738002E+03  0.10445191311E+04  0.11778579906E+04  0.50400001928E-02 0. -1.
</event>
<event>
 5   0  0.8150924E-04  0.1101271E+04  0.7818609E-02  0.9203954E-01
       -1   -1    0    0    0  501  0.00000000000E+00  0.00000000000E+00  0.54107531763E+03  0.54107531765E+03  0.50400001928E-02 0.  1.
        1   -1    0    0  501    0  0.00000000000E+00  0.00000000000E+00 -0.56036440813E+03  0.56036440815E+03  0.50400001928E-02 0. -1.
    10030    2    1    2    0    0  0.00000000000E+00  0.00000000000E+00 -0.19289090501E+02  0.11014397258E+04  0.11012708116E+04 0.  0.
        3    1    3    3  502    0 -0.52580955346E+03  0.15791243141E+03  0.32638616437E+02  0.54997937414E+03  0.10100000352E+00 0. -1.
       -3    1    3    3    0  502  0.52580955346E+03 -0.15791243141E+03 -0.51927706938E+02  0.55146035166E+03  0.10100000352E+00 0.  1.
</event>
<event>
 5   0  0.7946038E-04  0.1098192E+04  0.7818609E-02  0.9206956E-01
       -1   -1    0    0    0  501  0.00000000000E+00  0.00000000000E+00  0.38465550884E+03  0.38465550887E+03  0.50400001928E-02 0.  1.
        1   -1    0    0  501    0  0.00000000000E+00  0.00000000000E+00 -0.78383430209E+03  0.78383430210E+03  0.50400001928E-02 0. -1.
    10030    2    1    2    0    0  0.00000000000E+00  0.00000000000E+00 -0.39917879325E+03  0.11684898110E+04  0.10981915723E+04 0.  0.
        4    1    3    3  502    0 -0.50494583158E+02  0.39466091756E+03 -0.60222737174E+03  0.72179385073E+03  0.12699999809E+01 0. -1.
       -4    1    3    3    0  502  0.50494583158E+02 -0.39466091756E+03  0.20304857849E+03  0.44669596025E+03  0.12699999809E+01 0.  1.
</event>
<event>
 5   0  0.8305271E-04  0.1055828E+04  0.7818609E-02  0.9249348E-01
       -1   -1    0    0    0  501  0.00000000000E+00  0.00000000000E+00  0.47297944475E+03  0.47297944478E+03  0.50400001928E-02 0.  1.
        1   -1    0    0  501    0  0.00000000000E+00  0.00000000000E+00 -0.58922853406E+03  0.58922853408E+03  0.50400001928E-02 0. -1.
    10030    2    1    2    0    0  0.00000000000E+00  0.00000000000E+00 -0.11624908930E+03  0.10622079789E+04  0.10558276088E+04 0.  0.
        5    1    3    3  502    0 -0.26062845670E+03  0.40823259655E+03 -0.26936926028E+03  0.55422281955E+03  0.46999998093E+01 0. -1.
       -5    1    3    3    0  502  0.26062845670E+03 -0.40823259655E+03  0.15312017097E+03  0.50798515931E+03  0.46999998093E+01 0.  1.
</event>
<event>
 5   0  0.1429680E-03  0.1100434E+04  0.7818609E-02  0.9204768E-01
        2   -1    0    0  501    0  0.00000000000E+00  0.00000000000E+00  0.83388898521E+03  0.83388898521E+03  0.25500000920E-02 0.  1.
       -2   -1    0    0    0  501  0.00000000000E+00  0.00000000000E+00 -0.36304473856E+03  0.36304473857E+03  0.25500000920E-02 0. -1.
    10030    2    1    2    0    0  0.00000000000E+00  0.00000000000E+00  0.47084424665E+03  0.11969337238E+04  0.11004344753E+04 0.  0.
        3    1    3    3  502    0 -0.24614729918E+03 -0.69148255956E+02 -0.29450718321E+03  0.39000572477E+03  0.10100000352E+00 0. -1.
       -3    1    3    3    0  502  0.24614729918E+03  0.69148255956E+02  0.76535142986E+03  0.80692799900E+03  0.10100000352E+00 0.  1.
</event>
<event>
 5   0  0.8341767E-04  0.1101138E+04  0.7818609E-02  0.9204083E-01
        1   -1    0    0  501    0  0.00000000000E+00  0.00000000000E+00  0.14753124000E+04  0.14753124000E+04  0.50400001928E-02 0.  1.
       -1   -1    0    0    0  501  0.00000000000E+00  0.00000000000E+00 -0.20546578261E+03  0.20546578268E+03  0.50400001928E-02 0. -1.
    10030    2    1    2    0    0  0.00000000000E+00  0.00000000000E+00  0.12698466174E+04  0.16807781827E+04  0.11011379876E+04 0.  0.
        2    1    3    3  502    0 -0.32814778974E+03 -0.41868540471E+03  0.85158504705E+03  0.10040794453E+04  0.25500000920E-02 0.  1.
       -2    1    3    3    0  502  0.32814778974E+03  0.41868540471E+03  0.41826157037E+03  0.67669873746E+03  0.25500000920E-02 0. -1.
</event>
<event>
 5   0  0.7946038E-04  0.1100000E+04  0.7818609E-02  0.9205191E-01
       -1   -1    0    0    0  501  0.00000000000E+00  0.00000000000E+00  0.13386833474E+03  0.13386833484E+03  0.50400001928E-02 0. -1.
        1   -1    0    0  501    0  0.00000000000E+00  0.00000000000E+00 -0.22596847453E+04  0.22596847453E+04  0.50400001928E-02 0.  1.
    10030    2    1    2    0    0  0.00000000000E+00  0.00000000000E+00 -0.21258164105E+04  0.23935530801E+04  0.11000004255E+04 0.  0.
        4    1    3    3  502    0  0.47898301580E+03 -0.25592390564E+02 -0.16484747220E+04  0.17168430977E+04  0.12699999809E+01 0.  1.
       -4    1    3    3    0  502 -0.47898301580E+03  0.25592390564E+02 -0.47734168848E+03  0.67670998245E+03  0.12699999809E+01 0. -1.
</event>
<event>
 5   0  0.8150924E-04  0.1097491E+04  0.7818609E-02  0.9207640E-01
       -1   -1    0    0    0  501  0.00000000000E+00  0.00000000000E+00  0.24619649834E+03  0.24619649840E+03  0.50400001928E-02 0.  1.
        1   -1    0    0  501    0  0.00000000000E+00  0.00000000000E+00 -0.12230953880E+04  0.12230953880E+04  0.50400001928E-02 0. -1.
    10030    2    1    2    0    0  0.00000000000E+00  0.00000000000E+00 -0.97689888964E+03  0.14692918864E+04  0.10974913243E+04 0.  0.
        3    1    3    3  502    0 -0.20140786866E+03  0.27972811133E+03  0.83175082424E+02  0.35458574472E+03  0.10100000352E+00 0.  1.
       -3    1    3    3    0  502  0.20140786866E+03 -0.27972811133E+03 -0.10600739721E+04  0.11147061417E+04  0.10100000352E+00 0. -1.
</event>
<event>
 5   0  0.7946038E-04  0.1098593E+04  0.7818609E-02  0.9206564E-01
       -1   -1    0    0    0  501  0.00000000000E+00  0.00000000000E+00  0.91861191855E+03  0.91861191857E+03  0.50400001928E-02 0.  1.
        1   -1    0    0  501    0  0.00000000000E+00  0.00000000000E+00 -0.32845955728E+03  0.32845955731E+03  0.50400001928E-02 0. -1.
    10030    2    1    2    0    0  0.00000000000E+00  0.00000000000E+00  0.59015236128E+03  0.12470714759E+04  0.10985933990E+04 0.  0.
        4    1    3    3  502    0  0.20692906396E+03 -0.48688842784E+03  0.46285343930E+03  0.70293306783E+03  0.12699999809E+01 0.  1.
       -4    1    3    3    0  502 -0.20692906396E+03  0.48688842784E+03  0.12729892198E+03  0.54413840805E+03  0.12699999809E+01 0. -1.
</event>
<event>
 5   0  0.1396936E-03  0.1110994E+04  0.7818609E-02  0.9194542E-01
        2   -1    0    0  501    0  0.00000000000E+00  0.00000000000E+00  0.11639059382E+04  0.11639059382E+04  0.25500000920E-02 0. -1.
       -2   -1    0    0    0  501  0.00000000000E+00  0.00000000000E+00 -0.26512170396E+03  0.26512170397E+03  0.25500000920E-02 0.  1.
    10030    2    1    2    0    0  0.00000000000E+00  0.00000000000E+00  0.89878423427E+03  0.14290276422E+04  0.11109936554E+04 0.  0.
        2    1    3    3  502    0 -0.11402428725E+03 -0.36442174855E+03  0.96833417484E+03  0.10409014473E+04  0.25500000920E-02 0. -1.
       -2    1    3    3    0  502  0.11402428725E+03  0.36442174855E+03 -0.69549940568E+02  0.38812619486E+03  0.25500000920E-02 0.  1.
</event>
<event>
 5   0  0.1402775E-03  0.1099615E+04  0.7818609E-02  0.9205567E-01
        2   -1    0    0  501    0  0.00000000000E+00  0.00000000000E+00  0.11115422413E+04  0.11115422413E+04  0.25500000920E-02 0.  1.
       -2   -1    0    0    0  501  0.00000000000E+00  0.00000000000E+00 -0.27195381006E+03  0.27195381007E+03  0.25500000920E-02 0. -1.
    10030    2    1    2    0    0  0.00000000000E+00  0.00000000000E+00  0.83958843128E+03  0.13834960514E+04  0.10996147463E+04 0.  0.
        5    1    3    3  502    0  0.99690760799E+01 -0.79011975728E+02 -0.26463305216E+03  0.27639648529E+03  0.46999998093E+01 0. -1.
       -5    1    3    3    0  502 -0.99690760799E+01  0.79011975728E+02  0.11042214834E+04  0.11070995661E+04  0.46999998093E+01 0.  1.
</event>
<event>
 5   0  0.1429680E-03  0.1100984E+04  0.7818609E-02  0.9204233E-01
       -2   -1    0    0    0  501  0.00000000000E+00  0.00000000000E+00  0.73913799289E+03  0.73913799290E+03  0.25500000920E-02 0. -1.
        2   -1    0    0  501    0  0.00000000000E+00  0.00000000000E+00 -0.40999329885E+03  0.40999329886E+03  0.25500000920E-02 0.  1.
    10030    2    1    2    0    0  0.00000000000E+00  0.00000000000E+00  0.32914469404E+03  0.11491312918E+04  0.11009843305E+04 0.  0.
        3    1    3    3  502    0  0.17997726630E+03 -0.36589150938E+03  0.55057387001E+03  0.68512773230E+03  0.10100000352E+00 0. -1.
       -3    1    3    3    0  502 -0.17997726630E+03  0.36589150938E+03 -0.22142917597E+03  0.46400355946E+03  0.10100000352E+00 0.  1.
</event>
<event>
 5   0  0.1402775E-03  0.1098933E+04  0.7818609E-02  0.9206233E-01
       -2   -1    0    0    0  501  0.00000000000E+00  0.00000000000E+00  0.23113139894E+03  0.23113139895E+03  0.25500000920E-02 0. -1.
        2   -1    0    0  501    0  0.00000000000E+00  0.00000000000E+00 -0.13062403762E+04  0.13062403762E+04  0.25500000920E-02 0.  1.
    10030    2    1    2    0    0  0.00000000000E+00  0.00000000000E+00 -0.10751089772E+04  0.15373717751E+04  0.10989325102E+04 0.  0.
        5    1    3    3  502    0  0.75653046774E+02 -0.42842922973E+03 -0.68084214512E+02  0.44037772268E+03  0.46999998093E+01 0. -1.
       -5    1    3    3    0  502 -0.75653046774E+02  0.42842922973E+03 -0.10070247627E+04  0.10969940525E+04  0.46999998093E+01 0.  1.
</event>
<event>
 5   0  0.7946038E-04  0.1095009E+04  0.7818609E-02  0.9210070E-01
        1   -1    0    0  501    0  0.00000000000E+00  0.00000000000E+00  0.34884190997E+03  0.34884191001E+03  0.50400001928E-02 0.  1.
       -1   -1    0    0    0  501  0.00000000000E+00  0.00000000000E+00 -0.85930418908E+03  0.85930418910E+03  0.50400001928E-02 0. -1.
    10030    2    1    2    0    0  0.00000000000E+00  0.00000000000E+00 -0.51046227911E+03  0.12081460991E+04  0.10950092504E+04 0.  0.
        4    1    3    3  502    0 -0.14878516144E+03 -0.12256838586E+03  0.31015968270E+03  0.36518580907E+03  0.12699999809E+01 0.  1.
       -4    1    3    3    0  502  0.14878516144E+03  0.12256838586E+03 -0.82062196181E+03  0.84296029004E+03  0.12699999809E+01 0. -1.
</event>
<event>
 5   0  0.8150924E-04  0.1097645E+04  0.7818609E-02  0.9207490E-01
       -1   -1    0    0    0  501  0.00000000000E+00  0.00000000000E+00  0.11048342478E+04  0.11048342478E+04  0.50400001928E-02 0. -1.
        1   -1    0    0  501    0  0.00000000000E+00  0.00000000000E+00 -0.27262556935E+03  0.27262556940E+03  0.50400001928E-02 0.  1.
    10030    2    1    2    0    0  0.00000000000E+00  0.00000000000E+00  0.83220867845E+03  0.13774598172E+04  0.10976448713E+04 0.  0.
        3    1    3    3  502    0 -0.44308918700E+03  0.30750112057E+03  0.28861324590E+03  0.61170465316E+03  0.10100000352E+00 0. -1.
       -3    1    3    3    0  502  0.44308918700E+03 -0.30750112057E+03  0.54359543256E+03  0.76575516406E+03  0.10100000352E+00 0.  1.
</event>
<event>
 5   0  0.8150924E-04  0.1102129E+04  0.7818609E-02  0.9203120E-01
       -1   -1    0    0    0  501  0.00000000000E+00  0.00000000000E+00  0.21889969327E+03  0.21889969333E+03  0.50400001928E-02 0.  1.
        1   -1    0    0  501    0  0.00000000000E+00  0.00000000000E+00 -0.13872649851E+04  0.13872649851E+04  0.50400001928E-02 0. -1.
    10030    2    1    2    0    0  0.00000000000E+00  0.00000000000E+00 -0.11683652918E+04  0.16061646784E+04  0.11021286309E+04 0.  0.
        3    1    3    3  502    0 -0.28673823891E+03  0.45996680314E+03 -0.43930039335E+03  0.69769128090E+03  0.10100000352E+00 0. -1.
       -3    1    3    3    0  502  0.28673823891E+03 -0.45996680314E+03 -0.72906489848E+03  0.90847339754E+03  0.10100000352E+00 0.  1.
</event>
<event>
 5   0  0.8305271E-04  0.1088954E+04  0.7818609E-02  0.9216026E-01
       -1   -1    0    0    0  501  0.00000000000E+00  0.00000000000E+00  0.25712291272E+03  0.25712291277E+03  0.50400001928E-02 0.  1.
        1   -1    0    0  501    0  0.00000000000E+00  0.00000000000E+00 -0.11529704407E+04  0.11529704407E+04  0.50400001928E-02 0. -1.
    10030    2    1    2    0    0  0.00000000000E+00  0.00000000000E+00 -0.89584752797E+03  0.14100933535E+04  0.10889538430E+04 0.  0.
        5    1    3    3  502    0  0.12281465818E+03 -0.67460997806E+02 -0.11291954494E+04  0.11378659321E+04  0.46999998093E+01 0. -1.
       -5    1    3    3    0  502 -0.12281465818E+03  0.67460997806E+02  0.23334792146E+03  0.27222742135E+03  0.46999998093E+01 0.  1.
</event>
<event>
 5   0  0.1396936E-03  0.1099281E+04  0.7818609E-02  0.9205893E-01
       -2   -1    0    0    0  501  0.00000000000E+00  0.00000000000E+00  0.18335388958E+03  0.18335388960E+03  0.25500000920E-02 0.  1.
        2   -1    0    0  501    0  0.00000000000E+00  0.00000000000E+00 -0.16476593402E+04  0.16476593402E+04  0.25500000920E-02 0. -1.
    10030    2    1    2    0    0  0.00000000000E+00  0.00000000000E+00 -0.14643054506E+04  0.18310132298E+04  0.10992811264E+04 0.  0.
        2    1    3    3  502    0  0.40230442791E+03 -0.27202931167E+03 -0.30341159153E+03  0.57263198740E+03  0.25500000920E-02 0.  1.
       -2    1    3    3    0  502 -0.40230442791E+03  0.27202931167E+03 -0.11608938591E+04  0.12583812424E+04  0.25500000920E-02 0. -1.
</event>
<event>
 5   0  0.1429680E-03  0.1100819E+04  0.7818609E-02  0.9204394E-01
        2   -1    0    0  501    0  0.00000000000E+00  0.00000000000E+00  0.79643172275E+03  0.79643172276E+03  0.25500000920E-02 0. -1.
       -2   -1    0    0    0  501  0.00000000000E+00  0.00000000000E+00 -0.38038520318E+03  0.38038520319E+03  0.25500000920E-02 0.  1.
    10030    2    1    2    0    0  0.00000000000E+00  0.00000000000E+00  0.41604651958E+03  0.11768169259E+04  0.11008194088E+04 0.  0.
        3    1    3    3  502    0 -0.94134292163E+02  0.47024100906E+03  0.49678792727E+03  0.69049701407E+03  0.10100000352E+00 0. -1.
       -3    1    3    3    0  502  0.94134292163E+02 -0.47024100906E+03 -0.80741407693E+02  0.48631991187E+03  0.10100000352E+00 0.  1.
</event>
<event>
 5   0  0.1429680E-03  0.1100313E+04  0.7818609E-02  0.9204886E-01
       -2   -1    0    0    0  501  0.00000000000E+00  0.00000000000E+00  0.13407325755E+03  0.13407325757E+03  0.25500000920E-02 0. -1.
        2   -1    0    0  501    0  0.00000000000E+00  0.00000000000E+00 -0.22575150024E+04  0.22575150024E+04  0.25500000920E-02 0.  1.
    10030    2    1    2    0    0  0.00000000000E+00  0.00000000000E+00 -0.21234417449E+04  0.23915882600E+04  0.11003133924E+04 0.  0.
        3    1    3    3  502    0  0.20792871906E+03  0.32273128059E+03 -0.20521303974E+03  0.43531854263E+03  0.10100000352E+00 0. -1.
       -3    1    3    3    0  502 -0.20792871906E+03 -0.32273128059E+03 -0.19182287052E+04  0.19562697174E+04  0.10100000352E+00 0.  1.
</event>
<event>
 5   0  0.8341767E-04  0.1101785E+04  0.7818609E-02  0.9203454E-01
        1   -1    0    0  501    0  0.00000000000E+00  0.00000000000E+00  0.69694485573E+03  0.69694485574E+03  0.50400001928E-02 0.  1.
       -1   -1    0    0    0  501  0.00000000000E+00  0.00000000000E+00 -0.43544669528E+03  0.43544669531E+03  0.50400001928E-02 0. -1.
    10030    2    1    2    0    0  0.00000000000E+00  0.00000000000E+00  0.26149816045E+03  0.11323915511E+04  0.11017846146E+04 0.  0.
        2    1    3    3  502    0 -0.14462761451E+01  0.32366643229E+03  0.58891313689E+03  0.67199756987E+03  0.25500000920E-02 0.  1.
       -2    1    3    3    0  502  0.14462761451E+01 -0.32366643229E+03 -0.32741497644E+03  0.46039398118E+03  0.25500000920E-02 0. -1.
</event>
<event>
 5   0  0.1372794E-03  0.1096619E+04  0.7818609E-02  0.9208494E-01
        2   -1    0    0  501    0  0.00000000000E+00  0.00000000000E+00  0.91151767577E+03  0.91151767577E+03  0.25500000920E-02 0. -1.
       -2   -1    0    0    0  501  0.00000000000E+00  0.00000000000E+00 -0.32982688775E+03  0.32982688776E+03  0.25500000920E-02 0.  1.
    10030    2    1    2    0    0  0.00000000000E+00  0.00000000000E+00  0.58169078802E+03  0.12413445635E+04  0.10966185082E+04 0.  0.
        4    1    3    3  502    0 -0.89273996418E+02  0.94138530453E+02 -0.31220034281E+03  0.33808664023E+03  0.12699999809E+01 0.  1.
       -4    1    3    3    0  502  0.89273996418E+02 -0.94138530453E+02  0.89389113082E+03  0.90325792331E+03  0.12699999809E+01 0. -1.
</event>
<event>
 5   0  0.1429680E-03  0.1119032E+04  0.7818609E-02  0.9186838E-01
       -2   -1    0    0    0  501  0.00000000000E+00  0.00000000000E+00  0.18987410137E+03  0.18987410138E+03  0.25500000920E-02 0.  1.
        2   -1    0    0  501    0  0.00000000000E+00  0.00000000000E+00 -0.16487661193E+04  0.16487661193E+04  0.25500000920E-02 0. -1.
    10030    2    1    2    0    0  0.00000000000E+00  0.00000000000E+00 -0.14588920180E+04  0.18386402207E+04  0.11190316980E+04 0.  0.
        3    1    3    3  502    0  0.17064959615E+03  0.41032668252E+03 -0.17088001859E+03  0.47611895784E+03  0.10100000352E+00 0.  1.
       -3    1    3    3    0  502 -0.17064959615E+03 -0.41032668252E+03 -0.12880119994E+04  0.13625212629E+04  0.10100000352E+00 0. -1.
</event>
<event>
 5   0  0.1429680E-03  0.1104553E+04  0.7818609E-02  0.9200765E-01
       -2   -1    0    0    0  501  0.00000000000E+00  0.00000000000E+00  0.18803441469E+03  0.18803441471E+03  0.25500000920E-02 0. -1.
        2   -1    0    0  501    0  0.00000000000E+00  0.00000000000E+00 -0.16220936508E+04  0.16220936508E+04  0.25500000920E-02 0.  1.
    10030    2    1    2    0    0  0.00000000000E+00  0.00000000000E+00 -0.14340592361E+04  0.18101280655E+04  0.11045531770E+04 0.  0.
        3    1    3    3  502    0 -0.40109729804E+03  0.33363808347E+03 -0.42016014656E+03  0.66987160873E+03  0.10100000352E+00 0. -1.
       -3    1    3    3    0  502  0.40109729804E+03 -0.33363808347E+03 -0.10138990895E+04  0.11402564568E+04  0.10100000352E+00 0.  1.
</event>
<event>
 5   0  0.1429680E-03  0.1100512E+04  0.7818609E-02  0.9204693E-01
       -2   -1    0    0    0  501  0.00000000000E+00  0.00000000000E+00  0.35460528529E+03  0.35460528530E+03  0.25500000920E-02 0. -1.
        2   -1    0    0  501    0  0.00000000000E+00  0.00000000000E+00 -0.85385583057E+03  0.85385583057E+03  0.25500000920E-02 0.  1.
    10030    2    1    2    0    0  0.00000000000E+00  0.00000000000E+00 -0.49925054528E+03  0.12084611159E+04  0.11005122269E+04 0.  0.
        3    1    3    3  502    0  0.31023271807E+03  0.27318223664E+03 -0.64844338057E+03  0.76899395432E+03  0.10100000352E+00 0.  1.
       -3    1    3    3    0  502 -0.31023271807E+03 -0.27318223664E+03  0.14919283530E+03  0.43946716155E+03  0.10100000352E+00 0. -1.
</event>
<event>
 5   0  0.1402775E-03  0.1099863E+04  0.7818609E-02  0.9205325E-01
       -2   -1    0    0    0  501  0.00000000000E+00  0.00000000000E+00  0.38844819859E+03  0.38844819860E+03  0.25500000920E-02 0.  1.
        2   -1    0    0  501    0  0.00000000000E+00  0.00000000000E+00 -0.77854616420E+03  0.77854616421E+03  0.25500000920E-02 0. -1.
    10030    2    1    2    0    0  0.00000000000E+00  0.00000000000E+00 -0.39009796561E+03  0.11669943628E+04  0.10998633643E+04 0.  0.
        5    1    3    3  502    0 -0.48569423276E+03 -0.51124916769E+02  0.73143668977E+02  0.49384687015E+03  0.46999998093E+01 0.  1.
       -5    1    3    3    0  502  0.48569423276E+03  0.51124916769E+02 -0.46324163459E+03  0.67314749265E+03  0.46999998093E+01 0. -1.
</event>
<event>
 5   0  0.8150924E-04  0.1127955E+04  0.7818609E-02  0.9178366E-01
        1   -1    0    0  501    0  0.00000000000E+00  0.00000000000E+00  0.65282876540E+03  0.65282876542E+03  0.50400001928E-02 0.  1.
       -1   -1    0    0    0  501  0.00000000000E+00  0.00000000000E+00 -0.48721878373E+03  0.48721878376E+03  0.50400001928E-02 0. -1.
    10030    2    1    2    0    0  0.00000000000E+00  0.00000000000E+00  0.16560998167E+03  0.11400475492E+04  0.11279546748E+04 0.  0.
        3    1    3    3  502    0  0.21508193139E+03 -0.43615597544E+02  0.60790145056E+03  0.64630236063E+03  0.10100000352E+00 0.  1.
       -3    1    3    3    0  502 -0.21508193139E+03  0.43615597544E+02 -0.44229146889E+03  0.49374518855E+03  0.10100000352E+00 0. -1.
</event>
<event>
 5   0  0.5409500E-04  0.1093302E+04  0.7818609E-02  0.9211745E-01
       -3   -1    0    0    0  501  0.00000000000E+00  0.00000000000E+00  0.22450706566E+03  0.22450708838E+03  0.10100000352E+00 0. -1.
        3   -1    0    0  501    0  0.00000000000E+00  0.00000000000E+00 -0.13310365173E+04  0.13310365212E+04  0.10100000352E+00 0.  1.
    10030    2    1    2    0    0  0.00000000000E+00  0.00000000000E+00 -0.11065294517E+04  0.15555436095E+04  0.10933016481E+04 0.  0.
        5    1    3    3  502    0 -0.53570536672E+03 -0.58367765753E+02 -0.42272383186E+03  0.68491208489E+03  0.46999998093E+01 0. -1.
       -5    1    3    3    0  502  0.53570536672E+03  0.58367765753E+02 -0.68380561981E+03  0.87063152464E+03  0.46999998093E+01 0.  1.
</event>
<event>
 5   0  0.8341767E-04  0.1097062E+04  0.7818609E-02  0.9208060E-01
        1   -1    0    0  501    0  0.00000000000E+00  0.00000000000E+00  0.12307965218E+04  0.12307965218E+04  0.50400001928E-02 0. -1.
       -1   -1    0    0    0  501  0.00000000000E+00  0.00000000000E+00 -0.24446483864E+03  0.24446483870E+03  0.50400001928E-02 0.  1.
    10030    2    1    2    0    0  0.00000000000E+00  0.00000000000E+00  0.98633168318E+03  0.14752613605E+04  0.10970623923E+04 0.  0.
        2    1    3    3  502    0 -0.10236152141E+03  0.15446841159E+03 -0.20109942308E+03  0.27345813064E+03  0.25500000920E-02 0.  1.
       -2    1    3    3    0  502  0.10236152141E+03 -0.15446841159E+03  0.11874311063E+04  0.12018032299E+04  0.25500000920E-02 0. -1.
</event>
<event>
 5   0  0.7946038E-04  0.1111146E+04  0.7818609E-02  0.9194396E-01
        1   -1    0    0  501    0  0.00000000000E+00  0.00000000000E+00  0.82642407923E+03  0.82642407924E+03  0.50400001928E-02 0. -1.
       -1   -1    0    0    0  501  0.00000000000E+00  0.00000000000E+00 -0.37349019693E+03  0.37349019697E+03  0.50400001928E-02 0.  1.
    10030    2    1    2    0    0  0.00000000000E+00  0.00000000000E+00  0.45293388230E+03  0.11999142762E+04  0.11111458808E+04 0.  0.
        4    1    3    3  502    0  0.29569119204E+03  0.35486319091E+03  0.55983363195E+03  0.72579368534E+03  0.12699999809E+01 0. -1.
       -4    1    3    3    0  502 -0.29569119204E+03 -0.35486319091E+03 -0.10689974965E+03  0.47412059087E+03  0.12699999809E+01 0.  1.
</event>
<event>
 5   0  0.1429680E-03  0.1088147E+04  0.7818609E-02  0.9216822E-01
       -2   -1    0    0    0  501  0.00000000000E+00  0.00000000000E+00  0.38851744785E+03  0.38851744785E+03  0.25500000920E-02 0.  1.
        2   -1    0    0  501    0  0.00000000000E+00  0.00000000000E+00 -0.76191161368E+03  0.76191161369E+03  0.25500000920E-02 0. -1.
    10030    2    1    2    0    0  0.00000000000E+00  0.00000000000E+00 -0.37339416584E+03  0.11504290615E+04  0.10881469674E+04 0.  0.
        3    1    3    3  502    0  0.37435619954E+03  0.10463423026E+03  0.21578266401E+03  0.44458188736E+03  0.10100000352E+00 0.  1.
       -3    1    3    3    0  502 -0.37435619954E+03 -0.10463423026E+03 -0.58917682985E+03  0.70584717419E+03  0.10100000352E+00 0. -1.
</event>
<event>
 5   0  0.1429680E-03  0.1102281E+04  0.7818609E-02  0.9202971E-01
        2   -1    0    0  501    0  0.00000000000E+00  0.00000000000E+00  0.88480453692E+03  0.88480453692E+03  0.25500000920E-02 0.  1.
       -2   -1    0    0    0  501  0.00000000000E+00  0.00000000000E+00 -0.34330305079E+03  0.34330305080E+03  0.25500000920E-02 0. -1.
    10030    2    1    2    0    0  0.00000000000E+00  0.00000000000E+00  0.54150148612E+03  0.12281075877E+04  0.11022814466E+04 0.  0.
        3    1    3    3  502    0 -0.39519778542E+03 -0.30814767414E+02 -0.15587621618E+03  0.42594394521E+03  0.10100000352E+00 0. -1.
       -3    1    3    3    0  502  0.39519778542E+03  0.30814767414E+02  0.69737770230E+03  0.80216364251E+03  0.10100000352E+00 0.  1.
</event>
<event>
 5   0  0.1425432E-03  0.1108453E+04  0.7818609E-02  0.9196992E-01
       -2   -1    0    0    0  501  0.00000000000E+00  0.00000000000E+00  0.33808268196E+03  0.33808268197E+03  0.25500000920E-02 0.  1.
        2   -1    0    0  501    0  0.00000000000E+00  0.00000000000E+00 -0.90855568409E+03  0.90855568410E+03  0.25500000920E-02 0. -1.
    10030    2    1    2    0    0  0.00000000000E+00  0.00000000000E+00 -0.57047300213E+03  0.12466383661E+04  0.11084528721E+04 0.  0.
        1    1    3    3  502    0 -0.94688815262E+02 -0.54607397290E+03 -0.28753774250E+03  0.62437225195E+03  0.50400001928E-02 0.  1.
       -1    1    3    3    0  502  0.94688815262E+02  0.54607397290E+03 -0.28293525963E+03  0.62226611412E+03  0.50400001928E-02 0. -1.
</event>
<event>
 5   0  0.8009636E-04  0.1056386E+04  0.7818609E-02  0.9248775E-01
        1   -1    0    0  501    0  0.00000000000E+00  0.00000000000E+00  0.68590280980E+03  0.68590280982E+03  0.50400001928E-02 0.  1.
       -1   -1    0    0    0  501  0.00000000000E+00  0.00000000000E+00 -0.40674568475E+03  0.40674568479E+03  0.50400001928E-02 0. -1.
    10030    2    1    2    0    0  0.00000000000E+00  0.00000000000E+00  0.27915712505E+03  0.10926484946E+04  0.10563863083E+04 0.  0.
        1    1    3    3  502    0 -0.45500581713E+03 -0.23644778755E+03  0.85405291307E+01  0.51284577655E+03  0.50400001928E-02 0. -1.
       -1    1    3    3    0  502  0.45500581713E+03  0.23644778755E+03  0.27061659592E+03  0.57980271806E+03  0.50400001928E-02 0.  1.
</event>
<event>
 5   0  0.1396936E-03  0.1102236E+04  0.7818609E-02  0.9203015E-01
        2   -1    0    0  501    0  0.00000000000E+00  0.00000000000E+00  0.87652794560E+03  0.87652794560E+03  0.25500000920E-02 0. -1.
       -2   -1    0    0    0  501  0.00000000000E+00  0.00000000000E+00 -0.34651602238E+03  0.34651602239E+03  0.25500000920E-02 0.  1.
    10030    2    1    2    0    0  0.00000000000E+00  0.00000000000E+00  0.53001192321E+03  0.12230439680E+04  0.11022358681E+04 0.  0.
        2    1    3    3  502    0 -0.49093437894E+03  0.11085784508E+03  0.15839105209E+02  0.50354434115E+03  0.25500000920E-02 0.  1.
       -2    1    3    3    0  502  0.49093437894E+03 -0.11085784508E+03  0.51417281801E+03  0.71949962684E+03  0.25500000920E-02 0. -1.
</event>
<event>
 5   0  0.1429680E-03  0.1105224E+04  0.7818609E-02  0.9200115E-01
       -2   -1    0    0    0  501  0.00000000000E+00  0.00000000000E+00  0.17600062659E+03  0.17600062660E+03  0.25500000920E-02 0. -1.
        2   -1    0    0  501    0  0.00000000000E+00  0.00000000000E+00 -0.17351069382E+04  0.17351069382E+04  0.25500000920E-02 0.  1.
    10030    2    1    2    0    0  0.00000000000E+00  0.00000000000E+00 -0.15591063116E+04  0.19111075648E+04  0.11052237933E+04 0.  0.
        3    1    3    3  502    0 -0.54200369518E+02  0.43596260007E+03 -0.13592182614E+04  0.14284520857E+04  0.10100000352E+00 0.  1.
       -3    1    3    3    0  502  0.54200369518E+02 -0.43596260007E+03 -0.19988805019E+03  0.48265547912E+03  0.10100000352E+00 0. -1.
</event>
<event>
 5   0  0.8009636E-04  0.1103697E+04  0.7818609E-02  0.9201596E-01
       -1   -1    0    0    0  501  0.00000000000E+00  0.00000000000E+00  0.73815694724E+03  0.73815694726E+03  0.50400001928E-02 0.  1.
        1   -1    0    0  501    0  0.00000000000E+00  0.00000000000E+00 -0.41256400729E+03  0.41256400732E+03  0.50400001928E-02 0. -1.
    10030    2    1    2    0    0  0.00000000000E+00  0.00000000000E+00  0.32559293995E+03  0.11507209546E+04  0.11036974009E+04 0.  0.
        1    1    3    3  502    0  0.31849042355E+03 -0.22626752719E+03  0.56915032521E+03  0.69033704555E+03  0.50400001928E-02 0.  1.
       -1    1    3    3    0  502 -0.31849042355E+03  0.22626752719E+03 -0.24355738526E+03  0.46038390902E+03  0.50400001928E-02 0. -1.
</event>
<event>
 5   0  0.1372794E-03  0.1109953E+04  0.7818609E-02  0.9195545E-01
        2   -1    0    0  501    0  0.00000000000E+00  0.00000000000E+00  0.13770980260E+04  0.13770980260E+04  0.25500000920E-02 0. -1.
       -2   -1    0    0    0  501  0.00000000000E+00  0.00000000000E+00 -0.22365799104E+03  0.22365799105E+03  0.25500000920E-02 0.  1.
    10030    2    1    2    0    0  0.00000000000E+00  0.00000000000E+00  0.11534400350E+04  0.16007560171E+04  0.11099531125E+04 0.  0.
        4    1    3    3  502    0  0.14558378727E+03 -0.53551845594E+03  0.58359263939E+03  0.80533014188E+03  0.12699999809E+01 0. -1.
       -4    1    3    3    0  502 -0.14558378727E+03  0.53551845594E+03  0.56984739559E+03  0.79542587520E+03  0.12699999809E+01 0.  1.
</event>
<event>
 5   0  0.8305271E-04  0.1089864E+04  0.7818609E-02  0.9215128E-01
        1   -1    0    0  501    0  0.00000000000E+00  0.00000000000E+00  0.26321898320E+04  0.26321898320E+04  0.50400001928E-02 0.  1.
       -1   -1    0    0    0  501  0.00000000000E+00  0.00000000000E+00 -0.11281504973E+03  0.11281504984E+03  0.50400001928E-02 0. -1.
    10030    2    1    2    0    0  0.00000000000E+00  0.00000000000E+00  0.25193747823E+04  0.27450048819E+04  0.10898635272E+04 0.  0.
        5    1    3    3  502    0  0.21869101754E+03  0.18365222763E+03  0.90811827185E+02  0.29970448749E+03  0.46999998093E+01 0. -1.
       -5    1    3    3    0  502 -0.21869101754E+03 -0.18365222763E+03  0.24285629551E+04  0.24453003944E+04  0.46999998093E+01 0.  1.
</event>
<event>
 5   0  0.1402775E-03  0.1103562E+04  0.7818609E-02  0.9201727E-01
        2   -1    0    0  501    0  0.00000000000E+00  0.00000000000E+00  0.41885431903E+03  0.41885431904E+03  0.25500000920E-02 0. -1.
       -2   -1    0    0    0  501  0.00000000000E+00  0.00000000000E+00 -0.72689296808E+03  0.72689296808E+03  0.25500000920E-02 0.  1.
    10030    2    1    2    0    0  0.00000000000E+00  0.00000000000E+00 -0.30803864904E+03  0.11457472871E+04  0.11035619768E+04 0.  0.
        5    1    3    3  502    0 -0.23694497527E+03  0.41825484505E+03  0.12718510832E+03  0.49727072957E+03  0.46999998093E+01 0. -1.
       -5    1    3    3    0  502  0.23694497527E+03 -0.41825484505E+03 -0.43522375736E+03  0.64847655755E+03  0.46999998093E+01 0.  1.
</event>
<event>
 5   0  0.1372794E-03  0.1103354E+04  0.7818609E-02  0.9201929E-01
       -2   -1    0    0    0  501  0.00000000000E+00  0.00000000000E+00  0.31150446546E+03  0.31150446547E+03  0.25500000920E-02 0.  1.
        2   -1    0    0  501    0  0.00000000000E+00  0.00000000000E+00 -0.97702430523E+03  0.97702430523E+03  0.25500000920E-02 0. -1.
    10030    2    1    2    0    0  0.00000000000E+00  0.00000000000E+00 -0.66551983977E+03  0.12885287707E+04  0.11033538579E+04 0.  0.
        4    1    3    3  502    0  0.34953410174E+02  0.52528444332E+02  0.30727526763E+03  0.31368882885E+03  0.12699999809E+01 0.  1.
       -4    1    3    3    0  502 -0.34953410174E+02 -0.52528444332E+02 -0.97279510740E+03  0.97483994185E+03  0.12699999809E+01 0. -1.
</event>
<event>
 5   0  0.1429680E-03  0.1052287E+04  0.7818609E-02  0.9252986E-01
        2   -1    0    0  501    0  0.00000000000E+00  0.00000000000E+00  0.63206319860E+03  0.63206319860E+03  0.25500000920E-02 0.  1.
       -2   -1    0    0    0  501  0.00000000000E+00  0.00000000000E+00 -0.43797330461E+03  0.43797330461E+03  0.25500000920E-02 0. -1.
    10030    2    1    2    0    0  0.00000000000E+00  0.00000000000E+00  0.19408989399E+03  0.10700365032E+04  0.10522866678E+04 0.  0.
        3    1    3    3  502    0  0.24657428529E+03 -0.28783145803E+03 -0.27405048996E+03  0.46770664700E+03  0.10100000352E+00 0. -1.
       -3    1    3    3    0  502 -0.24657428529E+03  0.28783145803E+03  0.46814038396E+03  0.60232985622E+03  0.10100000352E+00 0.  1.
</event>
<event>
 5   0  0.1429680E-03  0.1088979E+04  0.7818609E-02  0.9216001E-01
       -2   -1    0    0    0  501  0.00000000000E+00  0.00000000000E+00  0.26828132879E+03  0.26828132880E+03  0.25500000920E-02 0. -1.
        2   -1    0    0  501    0  0.00000000000E+00  0.00000000000E+00 -0.11050668391E+04  0.11050668391E+04  0.25500000920E-02 0.  1.
    10030    2    1    2    0    0  0.00000000000E+00  0.00000000000E+00 -0.83678551027E+03  0.13733481679E+04  0.10889789713E+04 0.  0.
        3    1    3    3  502    0  0.48359751597E+03 -0.24871333687E+02 -0.10441438601E+03  0.49536604132E+03  0.10100000352E+00 0. -1.
       -3    1    3    3    0  502 -0.48359751597E+03  0.24871333687E+02 -0.73237112426E+03  0.87798212655E+03  0.10100000352E+00 0.  1.
</event>
<event>
 5   0  0.1372794E-03  0.1096813E+04  0.7818609E-02  0.9208304E-01
        2   -1    0    0  501    0  0.00000000000E+00  0.00000000000E+00  0.13798216133E+04  0.13798216133E+04  0.25500000920E-02 0.  1.
       -2   -1    0    0    0  501  0.00000000000E+00  0.00000000000E+00 -0.21796281155E+03  0.21796281156E+03  0.25500000920E-02 0. -1.
    10030    2    1    2    0    0  0.00000000000E+00  0.00000000000E+00  0.11618588017E+04  0.15977844248E+04  0.10968131988E+04 0.  0.
        4    1    3    3  502    0  0.13855834910E+03 -0.13078824290E+03 -0.16819258336E+03  0.25415416303E+03  0.12699999809E+01 0. -1.
       -4    1    3    3    0  502 -0.13855834910E+03  0.13078824290E+03  0.13300513851E+04  0.13436302618E+04  0.12699999809E+01 0.  1.
</event>
<event>
 5   0  0.1429680E-03  0.1095715E+04  0.7818609E-02  0.9209378E-01
        2   -1    0    0  501    0  0.00000000000E+00  0.00000000000E+00  0.90234982280E+03  0.90234982281E+03  0.25500000920E-02 0. -1.
       -2   -1    0    0    0  501  0.00000000000E+00  0.00000000000E+00 -0.33262922671E+03  0.33262922672E+03  0.25500000920E-02 0.  1.
    10030    2    1    2    0    0  0.00000000000E+00  0.00000000000E+00  0.56972059610E+03  0.12349790495E+04  0.10957151524E+04 0.  0.
        3    1    3    3  502    0  0.28605461602E+03  0.18933980845E+03  0.76631892876E+03  0.83959604405E+03  0.10100000352E+00 0. -1.
       -3    1    3    3    0  502 -0.28605461602E+03 -0.18933980845E+03 -0.19659833266E+03  0.39538300548E+03  0.10100000352E+00 0.  1.
</event>
<event>
 5   0  0.5409500E-04  0.1092701E+04  0.7818609E-02  0.9212335E-01
        3   -1    0    0  501    0  0.00000000000E+00  0.00000000000E+00  0.12583571753E+04  0.12583571794E+04  0.10100000352E+00 0. -1.
       -3   -1    0    0    0  501  0.00000000000E+00  0.00000000000E+00 -0.23721325467E+03  0.23721327617E+03  0.10100000352E+00 0.  1.
    10030    2    1    2    0    0  0.00000000000E+00  0.00000000000E+00  0.10211439207E+04  0.14955704556E+04  0.10927012770E+04 0.  0.
        5    1    3    3  502    0 -0.37842210872E+03  0.34029277871E+03  0.78250597832E+03  0.93345603203E+03  0.46999998093E+01 0. -1.
       -5    1    3    3    0  502  0.37842210872E+03 -0.34029277871E+03  0.23863794233E+03  0.56211442352E+03  0.46999998093E+01 0.  1.
</event>
<event>
 5   0  0.8305271E-04  0.1095838E+04  0.7818609E-02  0.9209258E-01
       -1   -1    0    0    0  501  0.00000000000E+00  0.00000000000E+00  0.54081369777E+03  0.54081369779E+03  0.50400001928E-02 0. -1.
        1   -1    0    0  501    0  0.00000000000E+00  0.00000000000E+00 -0.55511714924E+03  0.55511714926E+03  0.50400001928E-02 0.  1.
    10030    2    1    2    0    0  0.00000000000E+00  0.00000000000E+00 -0.14303451471E+02  0.10959308470E+04  0.10958375029E+04 0.  0.
        5    1    3    3  502    0  0.18615612027E+03  0.69872687002E+02 -0.51774058418E+03  0.55462933209E+03  0.46999998093E+01 0.  1.
       -5    1    3    3    0  502 -0.18615612027E+03 -0.69872687002E+02  0.50343713271E+03  0.54130151496E+03  0.46999998093E+01 0. -1.
</event>
<event>
 5   0  0.1425432E-03  0.1099135E+04  0.7818609E-02  0.9206035E-01
        2   -1    0    0  501    0  0.00000000000E+00  0.00000000000E+00  0.13557136872E+04  0.13557136872E+04  0.25500000920E-02 0.  1.
       -2   -1    0    0    0  501  0.00000000000E+00  0.00000000000E+00 -0.22277901033E+03  0.22277901035E+03  0.25500000920E-02 0. -1.
    10030    2    1    2    0    0  0.00000000000E+00  0.00000000000E+00  0.11329346768E+04  0.15784926975E+04  0.10991352119E+04 0.  0.
        1    1    3    3  502    0  0.92520536791E+02 -0.52032123166E+03  0.34994922833E+03  0.63384437860E+03  0.50400001928E-02 0. -1.
       -1    1    3    3    0  502 -0.92520536791E+02  0.52032123166E+03  0.78298544851E+03  0.94464831892E+03  0.50400001928E-02 0.  1.
</event>
<event>
 5   0  0.8009636E-04  0.1103889E+04  0.7818609E-02  0.9201409E-01
        1   -1    0    0  501    0  0.00000000000E+00  0.00000000000E+00  0.13907548264E+04  0.13907548264E+04  0.50400001928E-02 0.  1.
       -1   -1    0    0    0  501  0.00000000000E+00  0.00000000000E+00 -0.21904861257E+03  0.21904861263E+03  0.50400001928E-02 0. -1.
    10030    2    1    2    0    0  0.00000000000E+00  0.00000000000E+00  0.11717062138E+04  0.16098034390E+04  0.11038893336E+04 0.  0.
        1    1    3    3  502    0  0.24498900844E+03 -0.47447788458E+03  0.38224352244E+03  0.65670311990E+03  0.50400001928E-02 0. -1.
       -1    1    3    3    0  502 -0.24498900844E+03  0.47447788458E+03  0.78946269141E+03  0.95310031915E+03  0.50400001928E-02 0.  1.
</event>
<event>
 5   0  0.1372794E-03  0.1128926E+04  0.7818609E-02  0.9177449E-01
       -2   -1    0    0    0  501  0.00000000000E+00  0.00000000000E+00  0.27185363064E+03  0.27185363066E+03  0.25500000920E-02 0. -1.
        2   -1    0    0  501    0  0.00000000000E+00  0.00000000000E+00 -0.11720218949E+04  0.11720218949E+04  0.25500000920E-02 0.  1.
    10030    2    1    2    0    0  0.00000000000E+00  0.00000000000E+00 -0.90016826430E+03  0.14438755256E+04  0.11289258742E+04 0.  0.
        4    1    3    3  502    0  0.89738280774E+02  0.50161295781E+03 -0.13955676430E+03  0.52834290176E+03  0.12699999809E+01 0. -1.
       -4    1    3    3    0  502 -0.89738280774E+02 -0.50161295781E+03 -0.76061150000E+03  0.91553262384E+03  0.12699999809E+01 0.  1.
</event>
<event>
 5   0  0.1372794E-03  0.1094905E+04  0.7818609E-02  0.9210172E-01
        2   -1    0    0  501    0  0.00000000000E+00  0.00000000000E+00  0.55500853936E+03  0.55500853936E+03  0.25500000920E-02 0.  1.
       -2   -1    0    0    0  501  0.00000000000E+00  0.00000000000E+00 -0.53999894713E+03  0.53999894713E+03  0.25500000920E-02 0. -1.
    10030    2    1    2    0    0  0.00000000000E+00  0.00000000000E+00  0.15009592228E+02  0.10950074865E+04  0.10949046112E+04 0.  0.
        4    1    3    3  502    0  0.26520938403E+03  0.46340766419E+03  0.12842824636E+03  0.54916127683E+03  0.12699999809E+01 0.  1.
       -4    1    3    3    0  502 -0.26520938403E+03 -0.46340766419E+03 -0.11341865413E+03  0.54584620967E+03  0.12699999809E+01 0. -1.
</event>
<event>
 5   0  0.5409500E-04  0.1100203E+04  0.7818609E-02  0.9204994E-01
        3   -1    0    0  501    0  0.00000000000E+00  0.00000000000E+00  0.83258727544E+03  0.83258728156E+03  0.10100000352E+00 0. -1.
       -3   -1    0    0    0  501  0.00000000000E+00  0.00000000000E+00 -0.36345909768E+03  0.36345911171E+03  0.10100000352E+00 0.  1.
    10030    2    1    2    0    0  0.00000000000E+00  0.00000000000E+00  0.46912817776E+03  0.11960463933E+04  0.11002025848E+04 0.  0.
        4    1    3    3  502    0  0.40354037749E+03 -0.25629186281E+03  0.53044999565E+03  0.71407924350E+03  0.12699999809E+01 0.  1.
       -4    1    3    3    0  502 -0.40354037749E+03  0.25629186281E+03 -0.61321817898E+02  0.48196714977E+03  0.12699999809E+01 0. -1.
</event>
<event>
 5   0  0.1372794E-03  0.1100028E+04  0.7818609E-02  0.9205164E-01
       -2   -1    0    0    0  501  0.00000000000E+00  0.00000000000E+00  0.40604882930E+03  0.40604882931E+03  0.25500000920E-02 0.  1.
        2   -1    0    0  501    0  0.00000000000E+00  0.00000000000E+00 -0.74502288124E+03  0.74502288124E+03  0.25500000920E-02 0. -1.
    10030    2    1    2    0    0  0.00000000000E+00  0.00000000000E+00 -0.33897405194E+03  0.11510717105E+04  0.11000284882E+04 0.  0.
        4    1    3    3  502    0 -0.21581597185E+02  0.19558532902E+03  0.36795479233E+03  0.41726697493E+03  0.12699999809E+01 0.  1.
       -4    1    3    3    0  502  0.21581597185E+02 -0.19558532902E+03 -0.70692884427E+03  0.73380473562E+03  0.12699999809E+01 0. -1.
</event>
<event>
 5   0  0.1425432E-03  0.1099258E+04  0.7818609E-02  0.9205915E-01
       -2   -1    0    0    0  501  0.00000000000E+00  0.00000000000E+00  0.17203944641E+03  0.17203944643E+03  0.25500000920E-02 0. -1.
        2   -1    0    0  501    0  0.00000000000E+00  0.00000000000E+00 -0.17559463242E+04  0.17559463242E+04  0.25500000920E-02 0.  1.
    10030    2    1    2    0    0  0.00000000000E+00  0.00000000000E+00 -0.15839068778E+04  0.19279857706E+04  0.10992579926E+04 0.  0.
        1    1    3    3  502    0  0.33631934535E+03  0.12000491121E+03 -0.15247807172E+04  0.15660357966E+04  0.50400001928E-02 0.  1.
       -1    1    3    3    0  502 -0.33631934535E+03 -0.12000491121E+03 -0.59126160572E+02  0.36194997397E+03  0.50400001928E-02 0. -1.
</event>
<event>
 5   0  0.7946038E-04  0.1100696E+04  0.7818609E-02  0.9204514E-01
       -1   -1    0    0    0  501  0.00000000000E+00  0.00000000000E+00  0.56905035925E+03  0.56905035928E+03  0.50400001928E-02 0.  1.
        1   -1    0    0  501    0  0.00000000000E+00  0.00000000000E+00 -0.53226010804E+03  0.53226010806E+03  0.50400001928E-02 0. -1.
    10030    2    1    2    0    0  0.00000000000E+00  0.00000000000E+00  0.36790251218E+02  0.11013104673E+04  0.11006957903E+04 0.  0.
        4    1    3    3  502    0 -0.42713523246E+03  0.32741949273E+03 -0.96704595855E+02  0.54681022557E+03  0.12699999809E+01 0. -1.
       -4    1    3    3    0  502  0.42713523246E+03 -0.32741949273E+03  0.13349484707E+03  0.55450024177E+03  0.12699999809E+01 0.  1.
</event>
<event>
 5   0  0.5409500E-04  0.1103754E+04  0.7818609E-02  0.9201541E-01
        3   -1    0    0  501    0  0.00000000000E+00  0.00000000000E+00  0.89441246048E+03  0.89441246618E+03  0.10100000352E+00 0.  1.
       -3   -1    0    0    0  501  0.00000000000E+00  0.00000000000E+00 -0.34052332044E+03  0.34052333542E+03  0.10100000352E+00 0. -1.
    10030    2    1    2    0    0  0.00000000000E+00  0.00000000000E+00  0.55388914003E+03  0.12349358016E+04  0.11037541640E+04 0.  0.
        1    1    3    3  502    0  0.52222289887E+03 -0.53489246112E+02  0.86442558789E+02  0.53202459675E+03  0.50400001928E-02 0. -1.
       -1    1    3    3    0  502 -0.52222289887E+03  0.53489246112E+02  0.46744658124E+03  0.70291120485E+03  0.50400001928E-02 0.  1.
</event>
<event>
 5   0  0.8305271E-04  0.1104491E+04  0.7818609E-02  0.9200825E-01
        1   -1    0    0  501    0  0.00000000000E+00  0.00000000000E+00  0.69626492439E+03  0.69626492441E+03  0.50400001928E-02 0. -1.
       -1   -1    0    0    0  501  0.00000000000E+00  0.00000000000E+00 -0.43801603750E+03  0.43801603753E+03  0.50400001928E-02 0.  1.
    10030    2    1    2    0    0  0.00000000000E+00  0.00000000000E+00  0.25824888690E+03  0.11342809619E+04  0.11044912010E+04 0.  0.
        5    1    3    3  502    0 -0.39051185569E+03 -0.37978197742E+03  0.36019108066E+02  0.54594260317E+03  0.46999998093E+01 0.  1.
       -5    1    3    3    0  502  0.39051185569E+03  0.37978197742E+03  0.22222977883E+03  0.58833835877E+03  0.46999998093E+01 0. -1.
</event>
<event>
 5   0  0.1372794E-03  0.1092729E+04  0.7818609E-02  0.9212308E-01
       -2   -1    0    0    0  501  0.00000000000E+00  0.00000000000E+00  0.24690196634E+03  0.24690196635E+03  0.25500000920E-02 0. -1.
        2   -1    0    0  501    0  0.00000000000E+00  0.00000000000E+00 -0.12090387170E+04  0.12090387170E+04  0.25500000920E-02 0.  1.
    10030    2    1    2    0    0  0.00000000000E+00  0.00000000000E+00 -0.96213675062E+03  0.14559406833E+04  0.10927287616E+04 0.  0.
        4    1    3    3  502    0 -0.14754551757E+03  0.52170991832E+03 -0.39108021181E+03  0.66850300194E+03  0.12699999809E+01 0. -1.
       -4    1    3    3    0  502  0.14754551757E+03 -0.52170991832E+03 -0.57105653880E+03  0.78743768137E+03  0.12699999809E+01 0.  1.
</event>
<event>
 5   0  0.1425432E-03  0.1101498E+04  0.7818609E-02  0.9203733E-01
       -2   -1    0    0    0  501  0.00000000000E+00  0.00000000000E+00  0.16961344090E+03  0.16961344092E+03  0.25500000920E-02 0.  1.
        2   -1    0    0  501    0  0.00000000000E+00  0.00000000000E+00 -0.17883279922E+04  0.17883279922E+04  0.25500000920E-02 0. -1.
    10030    2    1    2    0    0  0.00000000000E+00  0.00000000000E+00 -0.16187145513E+04  0.19579414331E+04  0.11014980059E+04 0.  0.
        1    1    3    3  502    0 -0.48862055007E+03 -0.24946301670E+03 -0.89539074183E+03  0.10500982903E+04  0.50400001928E-02 0. -1.
       -1    1    3    3    0  502  0.48862055007E+03  0.24946301670E+03 -0.72332380949E+03  0.90784314287E+03  0.50400001928E-02 0.  1.
</event>
<event>
 5   0  0.1396936E-03  0.1099887E+04  0.7818609E-02  0.9205302E-01
       -2   -1    0    0    0  501  0.00000000000E+00  0.00000000000E+00  0.29509526103E+03  0.29509526104E+03  0.25500000920E-02 0.  1.
        2   -1    0    0  501    0  0.00000000000E+00  0.00000000000E+00 -0.10248825381E+04  0.10248825381E+04  0.25500000920E-02 0. -1.
    10030    2    1    2    0    0  0.00000000000E+00  0.00000000000E+00 -0.72978727711E+03  0.13199777992E+04  0.10998872308E+04 0.  0.
        2    1    3    3  502    0 -0.28329758771E+03  0.39780493015E+03 -0.66833625496E+03  0.82775578244E+03  0.25500000920E-02 0. -1.
       -2    1    3    3    0  502  0.28329758771E+03 -0.39780493015E+03 -0.61451022148E+02  0.49222201676E+03  0.25500000920E-02 0.  1.
</event>
<event>
 5   0  0.1402775E-03  0.1111500E+04  0.7818609E-02  0.9194055E-01
       -2   -1    0    0    0  501  0.00000000000E+00  0.00000000000E+00  0.39472816463E+03  0.39472816464E+03  0.25500000920E-02 0. -1.
        2   -1    0    0  501    0  0.00000000000E+00  0.00000000000E+00 -0.78245773343E+03  0.78245773343E+03  0.25500000920E-02 0.  1.
    10030    2    1    2    0    0  0.00000000000E+00  0.00000000000E+00 -0.38772956880E+03  0.11771858981E+04  0.11115000765E+04 0.  0.
        5    1    3    3  502    0 -0.13739702927E+03 -0.84247070843E+02 -0.75714138221E+03  0.77411929007E+03  0.46999998093E+01 0.  1.
       -5    1    3    3    0  502  0.13739702927E+03  0.84247070843E+02  0.36941181341E+03  0.40306660800E+03  0.46999998093E+01 0. -1.
</event>
<event>
 5   0  0.1396936E-03  0.1099935E+04  0.7818609E-02  0.9205255E-01
        2   -1    0    0  501    0  0.00000000000E+00  0.00000000000E+00  0.15231749471E+04  0.15231749471E+04  0.25500000920E-02 0. -1.
       -2   -1    0    0    0  501  0.00000000000E+00  0.00000000000E+00 -0.19857497120E+03  0.19857497121E+03  0.25500000920E-02 0.  1.
    10030    2    1    2    0    0  0.00000000000E+00  0.00000000000E+00  0.13245999759E+04  0.17217499183E+04  0.10999353095E+04 0.  0.
        2    1    3    3  502    0 -0.29043894710E+01  0.52411831828E+03  0.92308412166E+03  0.10615049424E+04  0.25500000920E-02 0.  1.
       -2    1    3    3    0  502  0.29043894710E+01 -0.52411831828E+03  0.40151585426E+03  0.66024497595E+03  0.25500000920E-02 0. -1.
</event>
<event>
 5   0  0.8150924E-04  0.1097395E+04  0.7818609E-02  0.9207735E-01
       -1   -1    0    0    0  501  0.00000000000E+00  0.00000000000E+00  0.22273427618E+03  0.22273427624E+03  0.50400001928E-02 0.  1.
        1   -1    0    0  501    0  0.00000000000E+00  0.00000000000E+00 -0.13516946930E+04  0.13516946930E+04  0.50400001928E-02 0. -1.
    10030    2    1    2    0    0  0.00000000000E+00  0.00000000000E+00 -0.11289604168E+04  0.15744289693E+04  0.10973946220E+04 0.  0.
        3    1    3    3  502    0  0.25251230984E+03  0.22063590224E+02  0.13370225798E+03  0.28657559671E+03  0.10100000352E+00 0.  1.
       -3    1    3    3    0  502 -0.25251230984E+03 -0.22063590224E+02 -0.12626626748E+04  0.12878533726E+04  0.10100000352E+00 0. -1.
</event>
<event>
 5   0  0.1425432E-03  0.1098480E+04  0.7818609E-02  0.9206675E-01
        2   -1    0    0  501    0  0.00000000000E+00  0.00000000000E+00  0.75421720954E+03  0.75421720954E+03  0.25500000920E-02 0.  1.
       -2   -1    0    0    0  501  0.00000000000E+00  0.00000000000E+00 -0.39997030502E+03  0.39997030502E+03  0.25500000920E-02 0. -1.
    10030    2    1    2    0    0  0.00000000000E+00  0.00000000000E+00  0.35424690452E+03  0.11541875146E+04  0.10984798357E+04 0.  0.
        1    1    3    3  502    0  0.33998688662E+03  0.11325380373E+02  0.63020533734E+03  0.71615509113E+03  0.50400001928E-02 0.  1.
       -1    1    3    3    0  502 -0.33998688662E+03 -0.11325380373E+02 -0.27595843281E+03  0.43803242344E+03  0.50400001928E-02 0. -1.
</event>
<event>
 5   0  0.8341767E-04  0.1100789E+04  0.7818609E-02  0.9204423E-01
       -1   -1    0    0    0  501  0.00000000000E+00  0.00000000000E+00  0.28392128503E+03  0.28392128508E+03  0.50400001928E-02 0. -1.
        1   -1    0    0  501    0  0.00000000000E+00  0.00000000000E+00 -0.10669654880E+04  0.10669654880E+04  0.50400001928E-02 0.  1.
    10030    2    1    2    0    0  0.00000000000E+00  0.00000000000E+00 -0.78304420294E+03  0.13508867731E+04  0.11007891941E+04 0.  0.
        2    1    3    3  502    0  0.33683559731E+03  0.43457485388E+03 -0.36094812720E+03  0.65772112158E+03  0.25500000920E-02 0.  1.
       -2    1    3    3    0  502 -0.33683559731E+03 -0.43457485388E+03 -0.42209607574E+03  0.69316565149E+03  0.25500000920E-02 0. -1.
</event>
<event>
 5   0  0.7946038E-04  0.1095846E+04  0.7818609E-02  0.9209250E-01
       -1   -1    0    0    0  501  0.00000000000E+00  0.00000000000E+00  0.50246530491E+03  0.50246530494E+03  0.50400001928E-02 0. -1.
        1   -1    0    0  501    0  0.00000000000E+00  0.00000000000E+00 -0.59749301704E+03  0.59749301706E+03  0.50400001928E-02 0.  1.
    10030    2    1    2    0    0  0.00000000000E+00  0.00000000000E+00 -0.95027712125E+02  0.10999583220E+04  0.10958458122E+04 0.  0.
        4    1    3    3  502    0 -0.35056949236E+03  0.35029862214E+03  0.18705053783E+03  0.52971464983E+03  0.12699999809E+01 0. -1.
       -4    1    3    3    0  502  0.35056949236E+03 -0.35029862214E+03 -0.28207824995E+03  0.57024367216E+03  0.12699999809E+01 0.  1.
</event>
<event>
 5   0  0.1429680E-03  0.1101289E+04  0.7818609E-02  0.9203937E-01
        2   -1    0    0  501    0  0.00000000000E+00  0.00000000000E+00  0.28971006710E+03  0.28971006711E+03  0.25500000920E-02 0. -1.
       -2   -1    0    0    0  501  0.00000000000E+00  0.00000000000E+00 -0.10465956439E+04  0.10465956439E+04  0.25500000920E-02 0.  1.
    10030    2    1    2    0    0  0.00000000000E+00  0.00000000000E+00 -0.75688557677E+03  0.13363057110E+04  0.11012888708E+04 0.  0.
        3    1    3    3  502    0  0.12030478427E+02  0.10708673184E+03 -0.10336762795E+04  0.10392780963E+04  0.10100000352E+00 0.  1.
       -3    1    3    3    0  502 -0.12030478427E+02 -0.10708673184E+03  0.27679070272E+03  0.29702761464E+03  0.10100000352E+00 0. -1.
</event>
<event>
 5   0  0.1402775E-03  0.1092953E+04  0.7818609E-02  0.9212088E-01
        2   -1    0    0  501    0  0.00000000000E+00  0.00000000000E+00  0.79327179963E+03  0.79327179963E+03  0.25500000920E-02 0.  1.
       -2   -1    0    0    0  501  0.00000000000E+00  0.00000000000E+00 -0.37646195748E+03  0.37646195749E+03  0.25500000920E-02 0. -1.
    10030    2    1    2    0    0  0.00000000000E+00  0.00000000000E+00  0.41680984215E+03  0.11697337571E+04  0.10929531637E+04 0.  0.
        5    1    3    3  502    0  0.41598236723E+02  0.31747444929E+03  0.68233880885E+03  0.75374317862E+03  0.46999998093E+01 0.  1.
       -5    1    3    3    0  502 -0.41598236723E+02 -0.31747444929E+03 -0.26552896671E+03  0.41599057851E+03  0.46999998093E+01 0. -1.
</event>
<event>
 5   0  0.5409500E-04  0.1098754E+04  0.7818609E-02  0.9206407E-01
       -3   -1    0    0    0  501  0.00000000000E+00  0.00000000000E+00  0.11035781973E+04  0.11035782019E+04  0.10100000352E+00 0. -1.
        3   -1    0    0  501    0  0.00000000000E+00  0.00000000000E+00 -0.27348772768E+03  0.27348774633E+03  0.10100000352E+00 0.  1.
    10030    2    1    2    0    0  0.00000000000E+00  0.00000000000E+00  0.83009046962E+03  0.13770659483E+04  0.10987540389E+04 0.  0.
        5    1    3    3  502    0  0.39280651752E+03 -0.63783969971E+02  0.88969221058E+03  0.97464848771E+03  0.46999998093E+01 0. -1.
       -5    1    3    3    0  502 -0.39280651752E+03  0.63783969971E+02 -0.59601740959E+02  0.40241746055E+03  0.46999998093E+01 0.  1.
</event>
<event>
 5   0  0.5409500E-04  0.1098622E+04  0.7818609E-02  0.9206536E-01
       -3   -1    0    0    0  501  0.00000000000E+00  0.00000000000E+00  0.37303078102E+03  0.37303079469E+03  0.10100000352E+00 0.  1.
        3   -1    0    0  501    0  0.00000000000E+00  0.00000000000E+00 -0.80889436997E+03  0.80889437628E+03  0.10100000352E+00 0. -1.
    10030    2    1    2    0    0  0.00000000000E+00  0.00000000000E+00 -0.43586358895E+03  0.11819251710E+04  0.10986218829E+04 0.  0.
        4    1    3    3  502    0  0.27468518234E+03 -0.24850743173E+03  0.21845163457E+03  0.43003560617E+03  0.12699999809E+01 0.  1.
       -4    1    3    3    0  502 -0.27468518234E+03  0.24850743173E+03 -0.65431522352E+03  0.75188956480E+03  0.12699999809E+01 0. -1.
</event>
<event>
 5   0  0.1402775E-03  0.1101390E+04  0.7818609E-02  0.9203838E-01
       -2   -1    0    0    0  501  0.00000000000E+00  0.00000000000E+00  0.37457582924E+03  0.37457582925E+03  0.25500000920E-02 0. -1.
        2   -1    0    0  501    0  0.00000000000E+00  0.00000000000E+00 -0.80962236493E+03  0.80962236493E+03  0.25500000920E-02 0.  1.
    10030    2    1    2    0    0  0.00000000000E+00  0.00000000000E+00 -0.43504653569E+03  0.11841981942E+04  0.11013899740E+04 0.  0.
        5    1    3    3  502    0 -0.18236154409E+03  0.40502822825E+03  0.13243139524E+03  0.46353399323E+03  0.46999998093E+01 0. -1.
       -5    1    3    3    0  502  0.18236154409E+03 -0.40502822825E+03 -0.56747793093E+03  0.72066420095E+03  0.46999998093E+01 0.  1.
</event>
<event>
 5   0  0.1425432E-03  0.1098215E+04  0.7818609E-02  0.9206933E-01
       -2   -1    0    0    0  501  0.00000000000E+00  0.00000000000E+00  0.14746894427E+03  0.14746894429E+03  0.25500000920E-02 0.  1.
        2   -1    0    0  501    0  0.00000000000E+00  0.00000000000E+00 -0.20446272682E+04  0.20446272682E+04  0.25500000920E-02 0. -1.
    10030    2    1    2    0    0  0.00000000000E+00  0.00000000000E+00 -0.18971583239E+04  0.21920962125E+04  0.10982149602E+04 0.  0.
        1    1    3    3  502    0 -0.39760401801E+03  0.16215077716E+03 -0.26542350924E+03  0.50480834873E+03  0.50400001928E-02 0.  1.
       -1    1    3    3    0  502  0.39760401801E+03 -0.16215077716E+03 -0.16317348147E+04  0.16872878637E+04  0.50400001928E-02 0. -1.
</event>
<event>
 5   0  0.7946038E-04  0.1097215E+04  0.7818609E-02  0.9207911E-01
       -1   -1    0    0    0  501  0.00000000000E+00  0.00000000000E+00  0.16883582093E+03  0.16883582101E+03  0.50400001928E-02 0. -1.
        1   -1    0    0  501    0  0.00000000000E+00  0.00000000000E+00 -0.17826206034E+04  0.17826206035E+04  0.50400001928E-02 0.  1.
    10030    2    1    2    0    0  0.00000000000E+00  0.00000000000E+00 -0.16137847825E+04  0.19514564245E+04  0.10972150438E+04 0.  0.
        4    1    3    3  502    0 -0.28516235529E+03 -0.32508603731E+03 -0.20646213518E+03  0.47919382998E+03  0.12699999809E+01 0. -1.
       -4    1    3    3    0  502  0.28516235529E+03  0.32508603731E+03 -0.14073226473E+04  0.14722625945E+04  0.12699999809E+01 0.  1.
</event>
<event>
 5   0  0.8305271E-04  0.1099151E+04  0.7818609E-02  0.9206020E-01
       -1   -1    0    0    0  501  0.00000000000E+00  0.00000000000E+00  0.11733334246E+04  0.11733334246E+04  0.50400001928E-02 0. -1.
        1   -1    0    0  501    0  0.00000000000E+00  0.00000000000E+00 -0.25741447847E+03  0.25741447852E+03  0.50400001928E-02 0.  1.
    10030    2    1    2    0    0  0.00000000000E+00  0.00000000000E+00  0.91591894611E+03  0.14307479031E+04  0.10991506022E+04 0.  0.
        5    1    3    3  502    0  0.26645292875E+03 -0.39946121756E+03  0.11003073785E+03  0.49264112784E+03  0.46999998093E+01 0.  1.
       -5    1    3    3    0  502 -0.26645292875E+03  0.39946121756E+03  0.80588820826E+03  0.93810677526E+03  0.46999998093E+01 0. -1.
</event>
<event>
 5   0  0.1402775E-03  0.1101460E+04  0.7818609E-02  0.9203770E-01
        2   -1    0    0  501    0  0.00000000000E+00  0.00000000000E+00  0.13264731150E+04  0.13264731150E+04  0.25500000920E-02 0.  1.
       -2   -1    0    0    0  501  0.00000000000E+00  0.00000000000E+00 -0.22865423563E+03  0.22865423564E+03  0.25500000920E-02 0. -1.
    10030    2    1    2    0    0  0.00000000000E+00  0.00000000000E+00  0.10978188794E+04  0.15551273507E+04  0.11014602965E+04 0.  0.
        5    1    3    3  502    0  0.29453039500E+03  0.46369951148E+03  0.60388600526E+03  0.81637355902E+03  0.46999998093E+01 0.  1.
       -5    1    3    3    0  502 -0.29453039500E+03 -0.46369951148E+03  0.49393287415E+03  0.73875379166E+03  0.46999998093E+01 0. -1.
</event>
<event>
 5   0  0.1396936E-03  0.1102432E+04  0.7818609E-02  0.9202824E-01
       -2   -1    0    0    0  501  0.00000000000E+00  0.00000000000E+00  0.10283973649E+04  0.10283973649E+04  0.25500000920E-02 0.  1.
        2   -1    0    0  501    0  0.00000000000E+00  0.00000000000E+00 -0.29544933903E+03  0.29544933904E+03  0.25500000920E-02 0. -1.
    10030    2    1    2    0    0  0.00000000000E+00  0.00000000000E+00  0.73294802588E+03  0.13238467039E+04  0.11024324410E+04 0.  0.
        2    1    3    3  502    0  0.25909581241E+03 -0.48121728464E+03  0.45255523071E+03  0.70958223759E+03  0.25500000920E-02 0.  1.
       -2    1    3    3    0  502 -0.25909581241E+03  0.48121728464E+03  0.28039279516E+03  0.61426446636E+03  0.25500000920E-02 0. -1.
</event>
<event>
 5   0  0.1429680E-03  0.1098218E+04  0.7818609E-02  0.9206930E-01
       -2   -1    0    0    0  501  0.00000000000E+00  0.00000000000E+00  0.40105845617E+03  0.40105845618E+03  0.25500000920E-02 0. -1.
        2   -1    0    0  501    0  0.00000000000E+00  0.00000000000E+00 -0.75181248623E+03  0.75181248623E+03  0.25500000920E-02 0.  1.
    10030    2    1    2    0    0  0.00000000000E+00  0.00000000000E+00 -0.35075403006E+03  0.11528709424E+04  0.10982181114E+04 0.  0.
        3    1    3    3  502    0  0.36981148296E+03 -0.38680853075E+03 -0.46211664020E+02  0.53713769229E+03  0.10100000352E+00 0. -1.
       -3    1    3    3    0  502 -0.36981148296E+03  0.38680853075E+03 -0.30454236604E+03  0.61573325012E+03  0.10100000352E+00 0.  1.
</event>
<event>
 5   0  0.8009636E-04  0.1098582E+04  0.7818609E-02  0.9206575E-01
       -1   -1    0    0    0  501  0.00000000000E+00  0.00000000000E+00  0.81270946980E+03  0.81270946981E+03  0.50400001928E-02 0. -1.
        1   -1    0    0  501    0  0.00000000000E+00  0.00000000000E+00 -0.37125257486E+03  0.37125257490E+03  0.50400001928E-02 0.  1.
    10030    2    1    2    0    0  0.00000000000E+00  0.00000000000E+00  0.44145689493E+03  0.11839620447E+04  0.10985817827E+04 0.  0.
        1    1    3    3  502    0  0.26313897093E+03 -0.28740753520E+03 -0.19649660893E+03  0.43641279387E+03  0.50400001928E-02 0.  1.
       -1    1    3    3    0  502 -0.26313897093E+03  0.28740753520E+03  0.63795350386E+03  0.74754925084E+03  0.50400001928E-02 0. -1.
</event>
<event>
 5   0  0.1429680E-03  0.1100318E+04  0.7818609E-02  0.9204882E-01
        2   -1    0    0  501    0  0.00000000000E+00  0.00000000000E+00  0.21651347476E+04  0.21651347476E+04  0.25500000920E-02 0. -1.
       -2   -1    0    0    0  501  0.00000000000E+00  0.00000000000E+00 -0.13979497812E+03  0.13979497815E+03  0.25500000920E-02 0.  1.
    10030    2    1    2    0    0  0.00000000000E+00  0.00000000000E+00  0.20253397695E+04  0.23049297258E+04  0.11003180717E+04 0.  0.
        3    1    3    3  502    0 -0.19093901004E+03 -0.51507199292E+03  0.10761419053E+04  0.12082376728E+04  0.10100000352E+00 0.  1.
       -3    1    3    3    0  502  0.19093901004E+03  0.51507199292E+03  0.94919786419E+03  0.10966920530E+04  0.10100000352E+00 0. -1.
</event>
<event>
 5   0  0.1402775E-03  0.1101941E+04  0.7818609E-02  0.9203302E-01
       -2   -1    0    0    0  501  0.00000000000E+00  0.00000000000E+00  0.27038984386E+03  0.27038984387E+03  0.25500000920E-02 0. -1.
        2   -1    0    0  501    0  0.00000000000E+00  0.00000000000E+00 -0.11227076173E+04  0.11227076173E+04  0.25500000920E-02 0.  1.
    10030    2    1    2    0    0  0.00000000000E+00  0.00000000000E+00 -0.85231777340E+03  0.13930974611E+04  0.11019414455E+04 0.  0.
        5    1    3    3  502    0  0.47089702583E+03  0.22450990083E+03 -0.20214570203E+03  0.55949412807E+03  0.46999998093E+01 0. -1.
       -5    1    3    3    0  502 -0.47089702583E+03 -0.22450990083E+03 -0.65017207136E+03  0.83360333305E+03  0.46999998093E+01 0.  1.
</event>
<event>
 5   0  0.8009636E-04  0.1103998E+04  0.7818609E-02  0.9201304E-01
       -1   -1    0    0    0  501  0.00000000000E+00  0.00000000000E+00  0.33058372079E+03  0.33058372083E+03  0.50400001928E-02 0. -1.
        1   -1    0    0  501    0  0.00000000000E+00  0.00000000000E+00 -0.92171093004E+03  0.92171093005E+03  0.50400001928E-02 0.  1.
    10030    2    1    2    0    0  0.00000000000E+00  0.00000000000E+00 -0.59112720925E+03  0.12522946509E+04  0.11039975159E+04 0.  0.
        1    1    3    3  502    0  0.15354972915E+03 -0.29325378610E+03  0.20550532790E+03  0.38962513035E+03  0.50400001928E-02 0. -1.
       -1    1    3    3    0  502 -0.15354972915E+03  0.29325378610E+03 -0.79663253714E+03  0.86266952053E+03  0.50400001928E-02 0.  1.
</event>
<event>
 5   0  0.8341767E-04  0.1093650E+04  0.7818609E-02  0.9211403E-01
       -1   -1    0    0    0  501  0.00000000000E+00  0.00000000000E+00  0.59982242924E+03  0.59982242926E+03  0.50400001928E-02 0. -1.
        1   -1    0    0  501    0  0.00000000000E+00  0.00000000000E+00 -0.49850988172E+03  0.49850988174E+03  0.50400001928E-02 0.  1.
    10030    2    1    2    0    0  0.00000000000E+00  0.00000000000E+00  0.10131254752E+03  0.10983323110E+04  0.10936496848E+04 0.  0.
        2    1    3    3  502    0 -0.31811243846E+02  0.29521200278E+03 -0.41049967575E+03  0.50662813346E+03  0.25500000920E-02 0.  1.
       -2    1    3    3    0  502  0.31811243846E+02 -0.29521200278E+03  0.51181222327E+03  0.59170417754E+03  0.25500000920E-02 0. -1.
</event>
<event>
 5   0  0.1372794E-03  0.1097646E+04  0.7818609E-02  0.9207489E-01
       -2   -1    0    0    0  501  0.00000000000E+00  0.00000000000E+00  0.14495607670E+03  0.14495607673E+03  0.25500000920E-02 0.  1.
        2   -1    0    0  501    0  0.00000000000E+00  0.00000000000E+00 -0.20779166441E+04  0.20779166441E+04  0.25500000920E-02 0. -1.
    10030    2    1    2    0    0  0.00000000000E+00  0.00000000000E+00 -0.19329605674E+04  0.22228727209E+04  0.10976459256E+04 0.  0.
        4    1    3    3  502    0  0.74098922902E+01  0.52684499035E+03 -0.65547663061E+03  0.84099451636E+03  0.12699999809E+01 0. -1.
       -4    1    3    3    0  502 -0.74098922902E+01 -0.52684499035E+03 -0.12774839368E+04  0.13818782045E+04  0.12699999809E+01 0.  1.
</event>
<event>
 5   0  0.1372794E-03  0.1098873E+04  0.7818609E-02  0.9206291E-01
       -2   -1    0    0    0  501  0.00000000000E+00  0.00000000000E+00  0.13944152188E+03  0.13944152191E+03  0.25500000920E-02 0. -1.
        2   -1    0    0  501    0  0.00000000000E+00  0.00000000000E+00 -0.21649258894E+04  0.21649258894E+04  0.25500000920E-02 0.  1.
    10030    2    1    2    0    0  0.00000000000E+00  0.00000000000E+00 -0.20254843675E+04  0.23043674113E+04  0.10988731698E+04 0.  0.
        4    1    3    3  502    0 -0.19655620757E+03  0.15296480621E+03 -0.20397428679E+04  0.20548929789E+04  0.12699999809E+01 0.  1.
       -4    1    3    3    0  502  0.19655620757E+03 -0.15296480621E+03  0.14258500421E+02  0.24947443237E+03  0.12699999809E+01 0. -1.
</event>
<event>
 5   0  0.1396936E-03  0.1099860E+04  0.7818609E-02  0.9205328E-01
       -2   -1    0    0    0  501  0.00000000000E+00  0.00000000000E+00  0.40785184340E+03  0.40785184341E+03  0.25500000920E-02 0.  1.
        2   -1    0    0  501    0  0.00000000000E+00  0.00000000000E+00 -0.74150216601E+03  0.74150216601E+03  0.25500000920E-02 0. -1.
    10030    2    1    2    0    0  0.00000000000E+00  0.00000000000E+00 -0.33365032260E+03  0.11493540094E+04  0.10998600371E+04 0.  0.
        2    1    3    3  502    0 -0.53313995341E+03 -0.86204802399E+02 -0.27519096841E+03  0.60613492473E+03  0.25500000920E-02 0. -1.
       -2    1    3    3    0  502  0.53313995341E+03  0.86204802399E+02 -0.58459354197E+02  0.54321908469E+03  0.25500000920E-02 0.  1.
</event>
<event>
 5   0  0.1425432E-03  0.1101982E+04  0.7818609E-02  0.9203262E-01
       -2   -1    0    0    0  501  0.00000000000E+00  0.00000000000E+00  0.38354775777E+03  0.38354775777E+03  0.25500000920E-02 0. -1.
        2   -1    0    0  501    0  0.00000000000E+00  0.00000000000E+00 -0.79153430548E+03  0.79153430549E+03  0.25500000920E-02 0.  1.
    10030    2    1    2    0    0  0.00000000000E+00  0.00000000000E+00 -0.40798654772E+03  0.11750820633E+04  0.11019822287E+04 0.  0.
        1    1    3    3  502    0  0.35953443089E+03 -0.27795531006E+03 -0.53621613518E+03  0.70288825928E+03  0.50400001928E-02 0.  1.
       -1    1    3    3    0  502 -0.35953443089E+03  0.27795531006E+03  0.12822958746E+03  0.47219380398E+03  0.50400001928E-02 0. -1.
</event>
<event>
 5   0  0.1372794E-03  0.1094156E+04  0.7818609E-02  0.9210907E-01
        2   -1    0    0  501    0  0.00000000000E+00  0.00000000000E+00  0.89378659488E+03  0.89378659488E+03  0.25500000920E-02 0.  1.
       -2   -1    0    0    0  501  0.00000000000E+00  0.00000000000E+00 -0.33486093096E+03  0.33486093097E+03  0.25500000920E-02 0. -1.
    10030    2    1    2    0    0  0.00000000000E+00  0.00000000000E+00  0.55892566392E+03  0.12286475258E+04  0.10941557682E+04 0.  0.
        4    1    3    3  502    0 -0.57754574164E+02  0.35705162084E+03 -0.18144164147E+03  0.40465310198E+03  0.12699999809E+01 0. -1.
       -4    1    3    3    0  502  0.57754574164E+02 -0.35705162084E+03  0.74036730540E+03  0.82399442387E+03  0.12699999809E+01 0.  1.
</event>
<event>
 5   0  0.1429680E-03  0.1103452E+04  0.7818609E-02  0.9201834E-01
        2   -1    0    0  501    0  0.00000000000E+00  0.00000000000E+00  0.80471537445E+03  0.80471537446E+03  0.25500000920E-02 0. -1.
       -2   -1    0    0    0  501  0.00000000000E+00  0.00000000000E+00 -0.37827206472E+03  0.37827206473E+03  0.25500000920E-02 0.  1.
    10030    2    1    2    0    0  0.00000000000E+00  0.00000000000E+00  0.42644330973E+03  0.11829874392E+04  0.11034515779E+04 0.  0.
        3    1    3    3  502    0  0.44115810886E+03 -0.48480686567E+02 -0.13816933023E+03  0.46482429799E+03  0.10100000352E+00 0.  1.
       -3    1    3    3    0  502 -0.44115810886E+03  0.48480686567E+02  0.56461263996E+03  0.71816314120E+03  0.10100000352E+00 0. -1.
</event>
<event>
 5   0  0.8009636E-04  0.1101255E+04  0.7818609E-02  0.9203969E-01
       -1   -1    0    0    0  501  0.00000000000E+00  0.00000000000E+00  0.24455331321E+03  0.24455331327E+03  0.50400001928E-02 0. -1.
        1   -1    0    0  501    0  0.00000000000E+00  0.00000000000E+00 -0.12397738706E+04  0.12397738706E+04  0.50400001928E-02 0.  1.
    10030    2    1    2    0    0  0.00000000000E+00  0.00000000000E+00 -0.99522055738E+03  0.14843271839E+04  0.11012552978E+04 0.  0.
        1    1    3    3  502    0 -0.37521296920E+03 -0.23607823045E+03 -0.93782959792E+03  0.10373244709E+04  0.50400001928E-02 0.  1.
       -1    1    3    3    0  502  0.37521296920E+03  0.23607823045E+03 -0.57390959455E+02  0.44700271297E+03  0.50400001928E-02 0. -1.
</event>
<event>
 5   0  0.8150924E-04  0.1106293E+04  0.7818609E-02  0.9199080E-01
        1   -1    0    0  501    0  0.00000000000E+00  0.00000000000E+00  0.29476662189E+03  0.29476662193E+03  0.50400001928E-02 0.  1.
       -1   -1    0    0    0  501  0.00000000000E+00  0.00000000000E+00 -0.10380116184E+04  0.10380116184E+04  0.50400001928E-02 0. -1.
    10030    2    1    2    0    0  0.00000000000E+00  0.00000000000E+00 -0.74324499653E+03  0.13327782404E+04  0.11062932311E+04 0.  0.
        3    1    3    3  502    0  0.60951935056E+01  0.46060179903E+03 -0.74055146144E+03  0.87212822790E+03  0.10100000352E+00 0.  1.
       -3    1    3    3    0  502 -0.60951935056E+01 -0.46060179903E+03 -0.26935350901E+01  0.46065001247E+03  0.10100000352E+00 0. -1.
</event>
<event>
 5   0  0.7946038E-04  0.1093928E+04  0.7818609E-02  0.9211131E-01
       -1   -1    0    0    0  501  0.00000000000E+00  0.00000000000E+00  0.21598277030E+03  0.21598277036E+03  0.50400001928E-02 0. -1.
        1   -1    0    0  501    0  0.00000000000E+00  0.00000000000E+00 -0.13851540298E+04  0.13851540298E+04  0.50400001928E-02 0.  1.
    10030    2    1    2    0    0  0.00000000000E+00  0.00000000000E+00 -0.11691712595E+04  0.16011368002E+04  0.10939276113E+04 0.  0.
        4    1    3    3  502    0 -0.37032189474E+03  0.53131379733E+02 -0.57559346015E+00  0.37411655062E+03  0.12699999809E+01 0. -1.
       -4    1    3    3    0  502  0.37032189474E+03 -0.53131379733E+02 -0.11685956660E+04  0.12270202495E+04  0.12699999809E+01 0.  1.
</event>
<event>
 5   0  0.8009636E-04  0.1098359E+04  0.7818609E-02  0.9206793E-01
        1   -1    0    0  501    0  0.00000000000E+00  0.00000000000E+00  0.65808151696E+03  0.65808151698E+03  0.50400001928E-02 0.  1.
       -1   -1    0    0    0  501  0.00000000000E+00  0.00000000000E+00 -0.45829861626E+03  0.45829861629E+03  0.50400001928E-02 0. -1.
    10030    2    1    2    0    0  0.00000000000E+00  0.00000000000E+00  0.19978290070E+03  0.11163801333E+04  0.10983585000E+04 0.  0.
        1    1    3    3  502    0  0.42690830773E+03  0.22777451026E+03 -0.16411236341E+03  0.51094500544E+03  0.50400001928E-02 0. -1.
       -1    1    3    3    0  502 -0.42690830773E+03 -0.22777451026E+03  0.36389526411E+03  0.60543512782E+03  0.50400001928E-02 0.  1.
</event>
<event>
 5   0  0.1425432E-03  0.1093735E+04  0.7818609E-02  0.9211320E-01
       -2   -1    0    0    0  501  0.00000000000E+00  0.00000000000E+00  0.70412237323E+03  0.70412237323E+03  0.25500000920E-02 0.  1.
        2   -1    0    0  501    0  0.00000000000E+00  0.00000000000E+00 -0.42473285963E+03  0.42473285964E+03  0.25500000920E-02 0. -1.
    10030    2    1    2    0    0  0.00000000000E+00  0.00000000000E+00  0.27938951360E+03  0.11288552329E+04  0.10937347194E+04 0.  0.
        1    1    3    3  502    0  0.23929807206E+03 -0.22814945369E+02 -0.36728048630E+03  0.43895221228E+03  0.50400001928E-02 0. -1.
       -1    1    3    3    0  502 -0.23929807206E+03  0.22814945369E+02  0.64666999990E+03  0.68990302059E+03  0.50400001928E-02 0.  1.
</event>
<event>
 5   0  0.1372794E-03  0.1098707E+04  0.7818609E-02  0.9206453E-01
       -2   -1    0    0    0  501  0.00000000000E+00  0.00000000000E+00  0.40184463461E+03  0.40184463461E+03  0.25500000920E-02 0. -1.
        2   -1    0    0  501    0  0.00000000000E+00  0.00000000000E+00 -0.75101041704E+03  0.75101041705E+03  0.25500000920E-02 0.  1.
    10030    2    1    2    0    0  0.00000000000E+00  0.00000000000E+00 -0.34916578244E+03  0.11528550517E+04  0.10987074345E+04 0.  0.
        4    1    3    3  502    0 -0.89435703337E+02  0.50454779601E+03  0.33219312660E+02  0.51349036907E+03  0.12699999809E+01 0. -1.
       -4    1    3    3    0  502  0.89435703337E+02 -0.50454779601E+03 -0.38238509510E+03  0.63936468259E+03  0.12699999809E+01 0.  1.
</event>
<event>
 5   0  0.1396936E-03  0.1090649E+04  0.7818609E-02  0.9214355E-01
       -2   -1    0    0    0  501  0.00000000000E+00  0.00000000000E+00  0.18988100609E+03  0.18988100611E+03  0.25500000920E-02 0.  1.
        2   -1    0    0  501    0  0.00000000000E+00  0.00000000000E+00 -0.15661312090E+04  0.15661312090E+04  0.25500000920E-02 0. -1.
    10030    2    1    2    0    0  0.00000000000E+00  0.00000000000E+00 -0.13762502029E+04  0.17560122151E+04  0.10906485587E+04 0.  0.
        2    1    3    3  502    0 -0.69416233836E+02 -0.50916974807E+03 -0.39428927371E+03  0.64771635554E+03  0.25500000920E-02 0.  1.
       -2    1    3    3    0  502  0.69416233836E+02  0.50916974807E+03 -0.98196092920E+03  0.11082958596E+04  0.25500000920E-02 0. -1.
</event>
<event>
 5   0  0.8305271E-04  0.1100229E+04  0.7818609E-02  0.9204969E-01
       -1   -1    0    0    0  501  0.00000000000E+00  0.00000000000E+00  0.50338262269E+03  0.50338262272E+03  0.50400001928E-02 0.  1.
        1   -1    0    0  501    0  0.00000000000E+00  0.00000000000E+00 -0.60118428042E+03  0.60118428044E+03  0.50400001928E-02 0. -1.
    10030    2    1    2    0    0  0.00000000000E+00  0.00000000000E+00 -0.97801657729E+02  0.11045669032E+04  0.11002285578E+04 0.  0.
        5    1    3    3  502    0 -0.20995858079E+03  0.49158076426E+03 -0.17929513475E+03  0.56382895347E+03  0.46999998093E+01 0.  1.
       -5    1    3    3    0  502  0.20995858079E+03 -0.49158076426E+03  0.81493477020E+02  0.54073794968E+03  0.46999998093E+01 0. -1.
</event>
<event>
 5   0  0.8150924E-04  0.1099741E+04  0.7818609E-02  0.9205445E-01
        1   -1    0    0  501    0  0.00000000000E+00  0.00000000000E+00  0.10234528434E+04  0.10234528434E+04  0.50400001928E-02 0. -1.
       -1   -1    0    0    0  501  0.00000000000E+00  0.00000000000E+00 -0.29542874348E+03  0.29542874353E+03  0.50400001928E-02 0.  1.
    10030    2    1    2    0    0  0.00000000000E+00  0.00000000000E+00  0.72802409994E+03  0.13188815870E+04  0.10997406741E+04 0.  0.
        3    1    3    3  502    0 -0.42519954886E+03  0.23326630787E+03  0.67478060798E+03  0.83098538245E+03  0.10100000352E+00 0.  1.
       -3    1    3    3    0  502  0.42519954886E+03 -0.23326630787E+03  0.53243491965E+02  0.48789620451E+03  0.10100000352E+00 0. -1.
</event>
<event>
 5   0  0.1425432E-03  0.1098068E+04  0.7818609E-02  0.9207077E-01
       -2   -1    0    0    0  501  0.00000000000E+00  0.00000000000E+00  0.13944777287E+03  0.13944777290E+03  0.25500000920E-02 0. -1.
        2   -1    0    0  501    0  0.00000000000E+00  0.00000000000E+00 -0.21616583849E+04  0.21616583849E+04  0.25500000920E-02 0.  1.
    10030    2    1    2    0    0  0.00000000000E+00  0.00000000000E+00 -0.20222106121E+04  0.23011061578E+04  0.10980682083E+04 0.  0.
        1    1    3    3  502    0  0.25272116857E+03 -0.33197858062E+03 -0.26323718339E+03  0.49332705357E+03  0.50400001928E-02 0. -1.
       -1    1    3    3    0  502 -0.25272116857E+03  0.33197858062E+03 -0.17589734287E+04  0.18077791043E+04  0.50400001928E-02 0.  1.
</event>
<event>
 5   0  0.7946038E-04  0.1095894E+04  0.7818609E-02  0.9209203E-01
       -1   -1    0    0    0  501  0.00000000000E+00  0.00000000000E+00  0.28598007494E+03  0.28598007498E+03  0.50400001928E-02 0. -1.
        1   -1    0    0  501    0  0.00000000000E+00  0.00000000000E+00 -0.10498848386E+04  0.10498848386E+04  0.50400001928E-02 0.  1.
    10030    2    1    2    0    0  0.00000000000E+00  0.00000000000E+00 -0.76390476362E+03  0.13358649136E+04  0.10958944198E+04 0.  0.
        4    1    3    3  502    0 -0.43729357201E+03 -0.17099949309E+03 -0.37653588014E+02  0.47104766250E+03  0.12699999809E+01 0. -1.
       -4    1    3    3    0  502  0.43729357201E+03  0.17099949309E+03 -0.72625117561E+03  0.86481725106E+03  0.12699999809E+01 0.  1.
</event>
<event>
 5   0  0.8150924E-04  0.1095248E+04  0.7818609E-02  0.9209836E-01
        1   -1    0    0  501    0  0.00000000000E+00  0.00000000000E+00  0.10383839622E+04  0.10383839623E+04  0.50400001928E-02 0. -1.
       -1   -1    0    0    0  501  0.00000000000E+00  0.00000000000E+00 -0.28880657926E+03  0.28880657930E+03  0.50400001928E-02 0.  1.
    10030    2    1    2    0    0  0.00000000000E+00  0.00000000000E+00  0.74957738298E+03  0.13271905416E+04  0.10952481365E+04 0.  0.
        3    1    3    3  502    0  0.21096210658E+03 -0.50323022852E+03  0.31864773729E+03  0.63188769887E+03  0.10100000352E+00 0. -1.
       -3    1    3    3    0  502 -0.21096210658E+03  0.50323022852E+03  0.43092964569E+03  0.69530284268E+03  0.10100000352E+00 0.  1.
</event>
<event>
 5   0  0.8009636E-04  0.1106303E+04  0.7818609E-02  0.9199070E-01
        1   -1    0    0  501    0  0.00000000000E+00  0.00000000000E+00  0.21159867723E+03  0.21159867729E+03  0.50400001928E-02 0. -1.
       -1   -1    0    0    0  501  0.00000000000E+00  0.00000000000E+00 -0.14460225174E+04  0.14460225174E+04  0.50400001928E-02 0.  1.
    10030    2    1    2    0    0  0.00000000000E+00  0.00000000000E+00 -0.12344238401E+04  0.16576211947E+04  0.11063027650E+04 0.  0.
        1    1    3    3  502    0  0.41109170678E+03  0.31857258346E+03 -0.89948788236E+03  0.10390203717E+04  0.50400001928E-02 0.  1.
       -1    1    3    3    0  502 -0.41109170678E+03 -0.31857258346E+03 -0.33493595777E+03  0.61860082294E+03  0.50400001928E-02 0. -1.
</event>
<event>
 5   0  0.5409500E-04  0.1098254E+04  0.7818609E-02  0.9206895E-01
        3   -1    0    0  501    0  0.00000000000E+00  0.00000000000E+00  0.15198703939E+04  0.15198703973E+04  0.10100000352E+00 0. -1.
       -3   -1    0    0    0  501  0.00000000000E+00  0.00000000000E+00 -0.19839881249E+03  0.19839883819E+03  0.10100000352E+00 0.  1.
    10030    2    1    2    0    0  0.00000000000E+00  0.00000000000E+00  0.13214715814E+04  0.17182692355E+04  0.10982540804E+04 0.  0.
        5    1    3    3  502    0 -0.16171122850E+02  0.23708706184E+03 -0.11374876454E+03  0.26350076193E+03  0.46999998093E+01 0.  1.
       -5    1    3    3    0  502  0.16171122850E+02 -0.23708706184E+03  0.14352203460E+04  0.14547684735E+04  0.46999998093E+01 0. -1.
</event>
<event>
 5   0  0.8305271E-04  0.1095957E+04  0.7818609E-02  0.9209141E-01
        1   -1    0    0  501    0  0.00000000000E+00  0.00000000000E+00  0.12003018794E+04  0.12003018794E+04  0.50400001928E-02 0.  1.
       -1   -1    0    0    0  501  0.00000000000E+00  0.00000000000E+00 -0.25017076694E+03  0.25017076699E+03  0.50400001928E-02 0. -1.
    10030    2    1    2    0    0  0.00000000000E+00  0.00000000000E+00  0.95013111245E+03  0.14504726464E+04  0.10959570097E+04 0.  0.
        5    1    3    3  502    0 -0.30707303691E+03  0.45062738375E+03  0.54633031082E+03  0.77191825183E+03  0.46999998093E+01 0.  1.
       -5    1    3    3    0  502  0.30707303691E+03 -0.45062738375E+03  0.40380080163E+03  0.67855439456E+03  0.46999998093E+01 0. -1.
</event>
<event>
 5   0  0.8150924E-04  0.1091427E+04  0.7818609E-02  0.9213588E-01
       -1   -1    0    0    0  501  0.00000000000E+00  0.00000000000E+00  0.50335386853E+03  0.50335386856E+03  0.50400001928E-02 0.  1.
        1   -1    0    0  501    0  0.00000000000E+00  0.00000000000E+00 -0.59163830087E+03  0.59163830089E+03  0.50400001928E-02 0. -1.
    10030    2    1    2    0    0  0.00000000000E+00  0.00000000000E+00 -0.88284432337E+02  0.10949921694E+04  0.10914273728E+04 0.  0.
        3    1    3    3  502    0 -0.38200102554E+03 -0.87665161820E+02  0.33682617437E+03  0.51678026863E+03  0.10100000352E+00 0.  1.
       -3    1    3    3    0  502  0.38200102554E+03  0.87665161820E+02 -0.42511060670E+03  0.57821190081E+03  0.10100000352E+00 0. -1.
</event>
<event>
 5   0  0.1372794E-03  0.1099997E+04  0.7818609E-02  0.9205195E-01
       -2   -1    0    0    0  501  0.00000000000E+00  0.00000000000E+00  0.59726338051E+03  0.59726338052E+03  0.25500000920E-02 0.  1.
        2   -1    0    0  501    0  0.00000000000E+00  0.00000000000E+00 -0.50647393122E+03  0.50647393122E+03  0.25500000920E-02 0. -1.
    10030    2    1    2    0    0  0.00000000000E+00  0.00000000000E+00  0.90789449294E+02  0.11037373117E+04  0.10999969678E+04 0.  0.
        4    1    3    3  502    0  0.32939434582E+02 -0.20518522616E+03 -0.46556243034E+03  0.50983916369E+03  0.12699999809E+01 0. -1.
       -4    1    3    3    0  502 -0.32939434582E+02  0.20518522616E+03  0.55635187963E+03  0.59389814805E+03  0.12699999809E+01 0.  1.
</event>
<event>
 5   0  0.1425432E-03  0.1120366E+04  0.7818609E-02  0.9185566E-01
        2   -1    0    0  501    0  0.00000000000E+00  0.00000000000E+00  0.10119179620E+04  0.10119179620E+04  0.25500000920E-02 0. -1.
       -2   -1    0    0    0  501  0.00000000000E+00  0.00000000000E+00 -0.31010920163E+03  0.31010920164E+03  0.25500000920E-02 0.  1.
    10030    2    1    2    0    0  0.00000000000E+00  0.00000000000E+00  0.70180876040E+03  0.13220271637E+04  0.11203661389E+04 0.  0.
        1    1    3    3  502    0  0.49155589835E+03 -0.26761099335E+03  0.32292513497E+03  0.64616057431E+03  0.50400001928E-02 0. -1.
       -1    1    3    3    0  502 -0.49155589835E+03  0.26761099335E+03  0.37888362542E+03  0.67586658936E+03  0.50400001928E-02 0.  1.
</event>
<event>
 5   0  0.7946038E-04  0.1109782E+04  0.7818609E-02  0.9195710E-01
       -1   -1    0    0    0  501  0.00000000000E+00  0.00000000000E+00  0.23496848402E+03  0.23496848408E+03  0.50400001928E-02 0.  1.
        1   -1    0    0  501    0  0.00000000000E+00  0.00000000000E+00 -0.13104046955E+04  0.13104046955E+04  0.50400001928E-02 0. -1.
    10030    2    1    2    0    0  0.00000000000E+00  0.00000000000E+00 -0.10754362115E+04  0.15453731796E+04  0.11097816088E+04 0.  0.
        4    1    3    3  502    0  0.68181556603E+02 -0.24947824146E+03 -0.12213417096E+04  0.12484251288E+04  0.12699999809E+01 0. -1.
       -4    1    3    3    0  502 -0.68181556603E+02  0.24947824146E+03  0.14590549810E+03  0.29694805084E+03  0.12699999809E+01 0.  1.
</event>
<event>
 5   0  0.1402775E-03  0.1122346E+04  0.7818609E-02  0.9183682E-01
        2   -1    0    0  501    0  0.00000000000E+00  0.00000000000E+00  0.15108087430E+04  0.15108087430E+04  0.25500000920E-02 0.  1.
       -2   -1    0    0    0  501  0.00000000000E+00  0.00000000000E+00 -0.20844144661E+03  0.20844144663E+03  0.25500000920E-02 0. -1.
    10030    2    1    2    0    0  0.00000000000E+00  0.00000000000E+00  0.13023672964E+04  0.17192501896E+04  0.11223460428E+04 0.  0.
        5    1    3    3  502    0 -0.44811848051E+03 -0.33442814983E+03  0.57867244258E+03  0.80469636868E+03  0.46999998093E+01 0. -1.
       -5    1    3    3    0  502  0.44811848051E+03  0.33442814983E+03  0.72369485381E+03  0.91455382094E+03  0.46999998093E+01 0.  1.
</event>
<event>
 5   0  0.7946038E-04  0.1102099E+04  0.7818609E-02  0.9203149E-01
        1   -1    0    0  501    0  0.00000000000E+00  0.00000000000E+00  0.11315281007E+04  0.11315281008E+04  0.50400001928E-02 0.  1.
       -1   -1    0    0    0  501  0.00000000000E+00  0.00000000000E+00 -0.26835865779E+03  0.26835865783E+03  0.50400001928E-02 0. -1.
    10030    2    1    2    0    0  0.00000000000E+00  0.00000000000E+00  0.86316944296E+03  0.13998867586E+04  0.11020986569E+04 0.  0.
        4    1    3    3  502    0  0.40444467996E+03  0.33741740588E+03  0.22587590518E+03  0.57310343078E+03  0.12699999809E+01 0. -1.
       -4    1    3    3    0  502 -0.40444467996E+03 -0.33741740588E+03  0.63729353779E+03  0.82678332781E+03  0.12699999809E+01 0.  1.
</event>
<event>
 5   0  0.8009636E-04  0.1098558E+04  0.7818609E-02  0.9206598E-01
        1   -1    0    0  501    0  0.00000000000E+00  0.00000000000E+00  0.78662785755E+03  0.78662785757E+03  0.50400001928E-02 0.  1.
       -1   -1    0    0    0  501  0.00000000000E+00  0.00000000000E+00 -0.38354539719E+03  0.38354539722E+03  0.50400001928E-02 0. -1.
    10030    2    1    2    0    0  0.00000000000E+00  0.00000000000E+00  0.40308246037E+03  0.11701732548E+04  0.10985581352E+04 0.  0.
        1    1    3    3  502    0  0.23278515100E+03  0.41650366375E+03  0.49138896161E+03  0.68492871167E+03  0.50400001928E-02 0. -1.
       -1    1    3    3    0  502 -0.23278515100E+03 -0.41650366375E+03 -0.88306501243E+02  0.48524454312E+03  0.50400001928E-02 0.  1.
</event>
<event>
 5   0  0.8009636E-04  0.1099728E+04  0.7818609E-02  0.9205457E-01
       -1   -1    0    0    0  501  0.00000000000E+00  0.00000000000E+00  0.36505033722E+03  0.36505033725E+03  0.50400001928E-02 0. -1.
        1   -1    0    0  501    0  0.00000000000E+00  0.00000000000E+00 -0.82824251481E+03  0.82824251482E+03  0.50400001928E-02 0.  1.
    10030    2    1    2    0    0  0.00000000000E+00  0.00000000000E+00 -0.46319217759E+03  0.11932928521E+04  0.10997276197E+04 0.  0.
        1    1    3    3  502    0 -0.32213950931E+03  0.28842080435E+03  0.13699564362E+03  0.45357273974E+03  0.50400001928E-02 0. -1.
       -1    1    3    3    0  502  0.32213950931E+03 -0.28842080435E+03 -0.60018782121E+03  0.73972011233E+03  0.50400001928E-02 0.  1.
</event>
<event>
 5   0  0.8150924E-04  0.1098957E+04  0.7818609E-02  0.9206209E-01
        1   -1    0    0  501    0  0.00000000000E+00  0.00000000000E+00  0.11723798748E+04  0.11723798748E+04  0.50400001928E-02 0. -1.
       -1   -1    0    0    0  501  0.00000000000E+00  0.00000000000E+00 -0.25753306355E+03  0.25753306360E+03  0.50400001928E-02 0.  1.
    10030    2    1    2    0    0  0.00000000000E+00  0.00000000000E+00  0.91484681121E+03  0.14299129384E+04  0.10989569251E+04 0.  0.
        3    1    3    3  502    0  0.29133354610E+03 -0.24039258558E+03  0.97668477914E+03  0.10471757246E+04  0.10100000352E+00 0. -1.
       -3    1    3    3    0  502 -0.29133354610E+03  0.24039258558E+03 -0.61837967931E+02  0.38273721372E+03  0.10100000352E+00 0.  1.
</event>
<event>
 5   0  0.1402775E-03  0.1103590E+04  0.7818609E-02  0.9201699E-01
       -2   -1    0    0    0  501  0.00000000000E+00  0.00000000000E+00  0.34631095832E+03  0.34631095833E+03  0.25500000920E-02 0.  1.
        2   -1    0    0  501    0  0.00000000000E+00  0.00000000000E+00 -0.87920398339E+03  0.87920398339E+03  0.25500000920E-02 0. -1.
    10030    2    1    2    0    0  0.00000000000E+00  0.00000000000E+00 -0.53289302507E+03  0.12255149417E+04  0.11035904568E+04 0.  0.
        5    1    3    3  502    0 -0.54307931007E+03  0.56713237009E+02 -0.17827444361E+03  0.57441744013E+03  0.46999998093E+01 0.  1.
       -5    1    3    3    0  502  0.54307931007E+03 -0.56713237009E+02 -0.35461858145E+03  0.65109750160E+03  0.46999998093E+01 0. -1.
</event>
<event>
 5   0  0.1425432E-03  0.1099412E+04  0.7818609E-02  0.9205766E-01
        2   -1    0    0  501    0  0.00000000000E+00  0.00000000000E+00  0.39392327575E+03  0.39392327576E+03  0.25500000920E-02 0.  1.
       -2   -1    0    0    0  501  0.00000000000E+00  0.00000000000E+00 -0.76709463474E+03  0.76709463475E+03  0.25500000920E-02 0. -1.
    10030    2    1    2    0    0  0.00000000000E+00  0.00000000000E+00 -0.37317135899E+03  0.11610179105E+04  0.10994115359E+04 0.  0.
        1    1    3    3  502    0  0.39587605791E+03  0.80123046476E+02  0.20718806292E+03  0.45394322249E+03  0.50400001928E-02 0.  1.
       -1    1    3    3    0  502 -0.39587605791E+03 -0.80123046476E+02 -0.58035942191E+03  0.70707468802E+03  0.50400001928E-02 0. -1.
</event>
<event>
 5   0  0.7946038E-04  0.1099323E+04  0.7818609E-02  0.9205852E-01
        1   -1    0    0  501    0  0.00000000000E+00  0.00000000000E+00  0.11000739550E+04  0.11000739550E+04  0.50400001928E-02 0. -1.
       -1   -1    0    0    0  501  0.00000000000E+00  0.00000000000E+00 -0.27464317399E+03  0.27464317404E+03  0.50400001928E-02 0.  1.
    10030    2    1    2    0    0  0.00000000000E+00  0.00000000000E+00  0.82543078102E+03  0.13747171291E+04  0.10993230693E+04 0.  0.
        4    1    3    3  502    0  0.40556386457E+03 -0.36360730685E+03  0.50489662960E+03  0.74270757457E+03  0.12699999809E+01 0. -1.
       -4    1    3    3    0  502 -0.40556386457E+03  0.36360730685E+03  0.32053415142E+03  0.63200955449E+03  0.12699999809E+01 0.  1.
</event>
<event>
 5   0  0.8150924E-04  0.1097136E+04  0.7818609E-02  0.9207988E-01
        1   -1    0    0  501    0  0.00000000000E+00  0.00000000000E+00  0.10899643499E+04  0.10899643499E+04  0.50400001928E-02 0. -1.
       -1   -1    0    0    0  501  0.00000000000E+00  0.00000000000E+00 -0.27608851801E+03  0.27608851806E+03  0.50400001928E-02 0.  1.
    10030    2    1    2    0    0  0.00000000000E+00  0.00000000000E+00  0.81387583184E+03  0.13660528679E+04  0.10971356198E+04 0.  0.
        3    1    3    3  502    0 -0.21246980252E+03  0.15782089723E+03  0.10052067498E+04  0.10394669176E+04  0.10100000352E+00 0. -1.
       -3    1    3    3    0  502  0.21246980252E+03 -0.15782089723E+03 -0.19133091800E+03  0.32658595036E+03  0.10100000352E+00 0.  1.
</event>
<event>
 5   0  0.1402775E-03  0.1095281E+04  0.7818609E-02  0.9209803E-01
       -2   -1    0    0    0  501  0.00000000000E+00  0.00000000000E+00  0.20479131117E+03  0.20479131119E+03  0.25500000920E-02 0. -1.
        2   -1    0    0  501    0  0.00000000000E+00  0.00000000000E+00 -0.14644677890E+04  0.14644677890E+04  0.25500000920E-02 0.  1.
    10030    2    1    2    0    0  0.00000000000E+00  0.00000000000E+00 -0.12596764778E+04  0.16692591002E+04  0.10952812948E+04 0.  0.
        5    1    3    3  502    0  0.24481263635E+03  0.39550286225E+03 -0.18935875474E+03  0.50222959786E+03  0.46999998093E+01 0. -1.
       -5    1    3    3    0  502 -0.24481263635E+03 -0.39550286225E+03 -0.10703177231E+04  0.11670295024E+04  0.46999998093E+01 0.  1.
</event>
<event>
 5   0  0.8150924E-04  0.1061164E+04  0.7818609E-02  0.9243893E-01
       -1   -1    0    0    0  501  0.00000000000E+00  0.00000000000E+00  0.20776076715E+03  0.20776076721E+03  0.50400001928E-02 0.  1.
        1   -1    0    0  501    0  0.00000000000E+00  0.00000000000E+00 -0.13550068385E+04  0.13550068385E+04  0.50400001928E-02 0. -1.
    10030    2    1    2    0    0  0.00000000000E+00  0.00000000000E+00 -0.11472460714E+04  0.15627676057E+04  0.10611640030E+04 0.  0.
        3    1    3    3  502    0 -0.48907623043E+03 -0.17792154320E+03 -0.72571450337E+03  0.89303593730E+03  0.10100000352E+00 0. -1.
       -3    1    3    3    0  502  0.48907623043E+03  0.17792154320E+03 -0.42153156800E+03  0.66973166845E+03  0.10100000352E+00 0.  1.
</event>
<event>
 5   0  0.8009636E-04  0.1100429E+04  0.7818609E-02  0.9204774E-01
       -1   -1    0    0    0  501  0.00000000000E+00  0.00000000000E+00  0.13045126516E+03  0.13045126526E+03  0.50400001928E-02 0.  1.
        1   -1    0    0  501    0  0.00000000000E+00  0.00000000000E+00 -0.23206828212E+04  0.23206828212E+04  0.50400001928E-02 0. -1.
    10030    2    1    2    0    0  0.00000000000E+00  0.00000000000E+00 -0.21902315560E+04  0.24511340865E+04  0.11004290258E+04 0.  0.
        1    1    3    3  502    0  0.10162305118E+03 -0.50241175577E+03 -0.15405537270E+04  0.16235918831E+04  0.50400001928E-02 0. -1.
       -1    1    3    3    0  502 -0.10162305118E+03  0.50241175577E+03 -0.64967782903E+03  0.82754220341E+03  0.50400001928E-02 0.  1.
</event>
<event>
 5   0  0.1372794E-03  0.1072744E+04  0.7818609E-02  0.9232172E-01
       -2   -1    0    0    0  501  0.00000000000E+00  0.00000000000E+00  0.29435712615E+03  0.29435712616E+03  0.25500000920E-02 0. -1.
        2   -1    0    0  501    0  0.00000000000E+00  0.00000000000E+00 -0.97736739740E+03  0.97736739740E+03  0.25500000920E-02 0.  1.
    10030    2    1    2    0    0  0.00000000000E+00  0.00000000000E+00 -0.68301027124E+03  0.12717245236E+04  0.10727442534E+04 0.  0.
        4    1    3    3  502    0  0.29956114295E+03  0.34921828019E+03 -0.66832818186E+03  0.81139044680E+03  0.12699999809E+01 0.  1.
       -4    1    3    3    0  502 -0.29956114295E+03 -0.34921828019E+03 -0.14682089383E+02  0.46033407677E+03  0.12699999809E+01 0. -1.
</event>
<event>
 5   0  0.1396936E-03  0.1102161E+04  0.7818609E-02  0.9203088E-01
        2   -1    0    0  501    0  0.00000000000E+00  0.00000000000E+00  0.88902717742E+03  0.88902717742E+03  0.25500000920E-02 0.  1.
       -2   -1    0    0    0  501  0.00000000000E+00  0.00000000000E+00 -0.34159769584E+03  0.34159769585E+03  0.25500000920E-02 0. -1.
    10030    2    1    2    0    0  0.00000000000E+00  0.00000000000E+00  0.54742948158E+03  0.12306248733E+04  0.11021608510E+04 0.  0.
        2    1    3    3  502    0  0.32505041967E+03  0.70780299367E+02  0.76426569414E+03  0.83352845023E+03  0.25500000920E-02 0.  1.
       -2    1    3    3    0  502 -0.32505041967E+03 -0.70780299367E+02 -0.21683621256E+03  0.39709642304E+03  0.25500000920E-02 0. -1.
</event>
<event>
 5   0  0.8341767E-04  0.1101607E+04  0.7818609E-02  0.9203627E-01
       -1   -1    0    0    0  501  0.00000000000E+00  0.00000000000E+00  0.27262688737E+03  0.27262688741E+03  0.50400001928E-02 0. -1.
        1   -1    0    0  501    0  0.00000000000E+00  0.00000000000E+00 -0.11128184548E+04  0.11128184548E+04  0.50400001928E-02 0.  1.
    10030    2    1    2    0    0  0.00000000000E+00  0.00000000000E+00 -0.84019156739E+03  0.13854453422E+04  0.11016065206E+04 0.  0.
        2    1    3    3  502    0 -0.19273427272E+03 -0.61528568385E+02  0.22420374693E+03  0.30199268990E+03  0.25500000920E-02 0. -1.
       -2    1    3    3    0  502  0.19273427272E+03  0.61528568385E+02 -0.10643953143E+04  0.10834526523E+04  0.25500000920E-02 0.  1.
</event>
<event>
 5   0  0.1396936E-03  0.1102764E+04  0.7818609E-02  0.9202502E-01
       -2   -1    0    0    0  501  0.00000000000E+00  0.00000000000E+00  0.12814092358E+04  0.12814092358E+04  0.25500000920E-02 0.  1.
        2   -1    0    0  501    0  0.00000000000E+00  0.00000000000E+00 -0.23725610631E+03  0.23725610632E+03  0.25500000920E-02 0. -1.
    10030    2    1    2    0    0  0.00000000000E+00  0.00000000000E+00  0.10441531295E+04  0.15186653421E+04  0.11027641015E+04 0.  0.
        2    1    3    3  502    0 -0.29488555370E+03  0.22502693115E+03  0.10838899475E+04  0.11456055289E+04  0.25500000920E-02 0.  1.
       -2    1    3    3    0  502  0.29488555370E+03 -0.22502693115E+03 -0.39736818035E+02  0.37305981322E+03  0.25500000920E-02 0. -1.
</event>
<event>
 5   0  0.8341767E-04  0.1091063E+04  0.7818609E-02  0.9213946E-01
        1   -1    0    0  501    0  0.00000000000E+00  0.00000000000E+00  0.84380075918E+03  0.84380075920E+03  0.50400001928E-02 0.  1.
       -1   -1    0    0    0  501  0.00000000000E+00  0.00000000000E+00 -0.35269539456E+03  0.35269539460E+03  0.50400001928E-02 0. -1.
    10030    2    1    2    0    0  0.00000000000E+00  0.00000000000E+00  0.49110536462E+03  0.11964961538E+04  0.10910630444E+04 0.  0.
        2    1    3    3  502    0 -0.43990328520E+03  0.28672946744E+03  0.40775048277E+03  0.66482264104E+03  0.25500000920E-02 0.  1.
       -2    1    3    3    0  502  0.43990328520E+03 -0.28672946744E+03  0.83354881846E+02  0.53167351275E+03  0.25500000920E-02 0. -1.
</event>
<event>
 5   0  0.5409500E-04  0.1098544E+04  0.7818609E-02  0.9206612E-01
       -3   -1    0    0    0  501  0.00000000000E+00  0.00000000000E+00  0.46846728793E+03  0.46846729882E+03  0.10100000352E+00 0.  1.
        3   -1    0    0  501    0  0.00000000000E+00  0.00000000000E+00 -0.64401432552E+03  0.64401433344E+03  0.10100000352E+00 0. -1.
    10030    2    1    2    0    0  0.00000000000E+00  0.00000000000E+00 -0.17554703759E+03  0.11124816323E+04  0.10985438634E+04 0.  0.
        4    1    3    3  502    0 -0.48615159746E+03  0.25032616080E+03 -0.35235827051E+02  0.54795048946E+03  0.12699999809E+01 0.  1.
       -4    1    3    3    0  502  0.48615159746E+03 -0.25032616080E+03 -0.14031121054E+03  0.56453114280E+03  0.12699999809E+01 0. -1.
</event>
<event>
 5   0  0.8009636E-04  0.1098753E+04  0.7818609E-02  0.9206408E-01
       -1   -1    0    0    0  501  0.00000000000E+00  0.00000000000E+00  0.49253860683E+03  0.49253860685E+03  0.50400001928E-02 0.  1.
        1   -1    0    0  501    0  0.00000000000E+00  0.00000000000E+00 -0.61277378262E+03  0.61277378264E+03  0.50400001928E-02 0. -1.
    10030    2    1    2    0    0  0.00000000000E+00  0.00000000000E+00 -0.12023517579E+03  0.11053123895E+04  0.10987533758E+04 0.  0.
        1    1    3    3  502    0  0.31350270311E+03  0.33419828214E+03  0.24474645980E+03  0.51949327835E+03  0.50400001928E-02 0.  1.
       -1    1    3    3    0  502 -0.31350270311E+03 -0.33419828214E+03 -0.36498163558E+03  0.58581911114E+03  0.50400001928E-02 0. -1.
</event>
<event>
 5   0  0.1396936E-03  0.1098120E+04  0.7818609E-02  0.9207027E-01
        2   -1    0    0  501    0  0.00000000000E+00  0.00000000000E+00  0.20431136329E+04  0.20431136329E+04  0.25500000920E-02 0.  1.
       -2   -1    0    0    0  501  0.00000000000E+00  0.00000000000E+00 -0.14755256779E+03  0.14755256781E+03  0.25500000920E-02 0. -1.
    10030    2    1    2    0    0  0.00000000000E+00  0.00000000000E+00  0.18955610651E+04  0.21906662007E+04  0.10981195979E+04 0.  0.
        2    1    3    3  502    0  0.51113317219E+03 -0.20030065193E+03  0.96662090243E+03  0.11116354798E+04  0.25500000920E-02 0.  1.
       -2    1    3    3    0  502 -0.51113317219E+03  0.20030065193E+03  0.92894016266E+03  0.10790307209E+04  0.25500000920E-02 0. -1.
</event>
<event>
 5   0  0.1372794E-03  0.1112790E+04  0.7818609E-02  0.9192814E-01
       -2   -1    0    0    0  501  0.00000000000E+00  0.00000000000E+00  0.18179910674E+03  0.18179910675E+03  0.25500000920E-02 0. -1.
        2   -1    0    0  501    0  0.00000000000E+00  0.00000000000E+00 -0.17028445225E+04  0.17028445225E+04  0.25500000920E-02 0.  1.
    10030    2    1    2    0    0  0.00000000000E+00  0.00000000000E+00 -0.15210454158E+04  0.18846436293E+04  0.11127903902E+04 0.  0.
        4    1    3    3  502    0  0.14699354010E+03 -0.53486275202E+03 -0.83412672039E+03  0.10017256425E+04  0.12699999809E+01 0.  1.
       -4    1    3    3    0  502 -0.14699354010E+03  0.53486275202E+03 -0.68691869539E+03  0.88291798674E+03  0.12699999809E+01 0. -1.
</event>
<event>
 5   0  0.1425432E-03  0.1100016E+04  0.7818609E-02  0.9205177E-01
       -2   -1    0    0    0  501  0.00000000000E+00  0.00000000000E+00  0.43396176135E+03  0.43396176136E+03  0.25500000920E-02 0.  1.
        2   -1    0    0  501    0  0.00000000000E+00  0.00000000000E+00 -0.69708581600E+03  0.69708581601E+03  0.25500000920E-02 0. -1.
    10030    2    1    2    0    0  0.00000000000E+00  0.00000000000E+00 -0.26312405465E+03  0.11310475774E+04  0.11000156154E+04 0.  0.
        1    1    3    3  502    0 -0.39057683124E+03 -0.30526731586E+03 -0.37654855935E+03  0.62251683737E+03  0.50400001928E-02 0. -1.
       -1    1    3    3    0  502  0.39057683124E+03  0.30526731586E+03  0.11342450470E+03  0.50853074000E+03  0.50400001928E-02 0.  1.
</event>
<event>
 5   0  0.1425432E-03  0.1098316E+04  0.7818609E-02  0.9206834E-01
        2   -1    0    0  501    0  0.00000000000E+00  0.00000000000E+00  0.12906659091E+04  0.12906659091E+04  0.25500000920E-02 0. -1.
       -2   -1    0    0    0  501  0.00000000000E+00  0.00000000000E+00 -0.23365822871E+03  0.23365822872E+03  0.25500000920E-02 0.  1.
    10030    2    1    2    0    0  0.00000000000E+00  0.00000000000E+00  0.10570076804E+04  0.15243241378E+04  0.10983163664E+04 0.  0.
        1    1    3    3  502    0 -0.34472056343E+03 -0.18912174779E+03  0.10605780497E+04  0.11311167499E+04  0.50400001928E-02 0. -1.
       -1    1    3    3    0  502  0.34472056343E+03  0.18912174779E+03 -0.35703693576E+01  0.39320738790E+03  0.50400001928E-02 0.  1.
</event>
<event>
 5   0  0.8341767E-04  0.1100022E+04  0.7818609E-02  0.9205170E-01
       -1   -1    0    0    0  501  0.00000000000E+00  0.00000000000E+00  0.67686800345E+03  0.67686800347E+03  0.50400001928E-02 0. -1.
        1   -1    0    0  501    0  0.00000000000E+00  0.00000000000E+00 -0.44692931098E+03  0.44692931101E+03  0.50400001928E-02 0.  1.
    10030    2    1    2    0    0  0.00000000000E+00  0.00000000000E+00  0.22993869246E+03  0.11237973145E+04  0.11000220915E+04 0.  0.
        2    1    3    3  502    0  0.27053533765E+03 -0.34771223657E+03  0.45135637862E+03  0.63072636611E+03  0.25500000920E-02 0. -1.
       -2    1    3    3    0  502 -0.27053533765E+03  0.34771223657E+03 -0.22141768616E+03  0.49307094837E+03  0.25500000920E-02 0.  1.
</event>
<event>
 5   0  0.5409500E-04  0.1101699E+04  0.7818609E-02  0.9203537E-01
        4   -1    0    0  501    0  0.00000000000E+00  0.00000000000E+00  0.73502387999E+03  0.73502497717E+03  0.12699999809E+01 0. -1.
       -4   -1    0    0    0  501  0.00000000000E+00  0.00000000000E+00 -0.41282136740E+03  0.41282332090E+03  0.12699999809E+01 0.  1.
    10030    2    1    2    0    0  0.00000000000E+00  0.00000000000E+00  0.32220251260E+03  0.11478482981E+04  0.11016992585E+04 0.  0.
        4    1    3    3  502    0  0.40223185393E+03 -0.34273947646E+03  0.32309032497E+03  0.61939469164E+03  0.12699999809E+01 0.  1.
       -4    1    3    3    0  502 -0.40223185393E+03  0.34273947646E+03 -0.88781237052E+00  0.52845360643E+03  0.12699999809E+01 0. -1.
</event>
<event>
 5   0  0.1425432E-03  0.1099430E+04  0.7818609E-02  0.9205748E-01
        2   -1    0    0  501    0  0.00000000000E+00  0.00000000000E+00  0.20232001659E+03  0.20232001661E+03  0.25500000920E-02 0. -1.
       -2   -1    0    0    0  501  0.00000000000E+00  0.00000000000E+00 -0.14936067919E+04  0.14936067919E+04  0.25500000920E-02 0.  1.
    10030    2    1    2    0    0  0.00000000000E+00  0.00000000000E+00 -0.12912867753E+04  0.16959268085E+04  0.10994299449E+04 0.  0.
        1    1    3    3  502    0  0.32673462208E+03  0.15480652370E+03 -0.68969013762E+01  0.36161877761E+03  0.50400001928E-02 0. -1.
       -1    1    3    3    0  502 -0.32673462208E+03 -0.15480652370E+03 -0.12843898739E+04  0.13343080309E+04  0.50400001928E-02 0.  1.
</event>
<event>
 5   0  0.1402775E-03  0.1100774E+04  0.7818609E-02  0.9204438E-01
       -2   -1    0    0    0  501  0.00000000000E+00  0.00000000000E+00  0.24659941670E+03  0.24659941671E+03  0.25500000920E-02 0.  1.
        2   -1    0    0  501    0  0.00000000000E+00  0.00000000000E+00 -0.12284131996E+04  0.12284131996E+04  0.25500000920E-02 0. -1.
    10030    2    1    2    0    0  0.00000000000E+00  0.00000000000E+00 -0.98181378287E+03  0.14750126163E+04  0.11007742339E+04 0.  0.
        5    1    3    3  502    0 -0.21733927543E+03  0.50308143066E+03 -0.42288931605E+03  0.69223171709E+03  0.46999998093E+01 0.  1.
       -5    1    3    3    0  502  0.21733927543E+03 -0.50308143066E+03 -0.55892446682E+03  0.78278089919E+03  0.46999998093E+01 0. -1.
</event>
<event>
 5   0  0.1372794E-03  0.1089429E+04  0.7818609E-02  0.9215557E-01
       -2   -1    0    0    0  501  0.00000000000E+00  0.00000000000E+00  0.19002553672E+03  0.19002553674E+03  0.25500000920E-02 0. -1.
        2   -1    0    0  501    0  0.00000000000E+00  0.00000000000E+00 -0.15614418726E+04  0.15614418726E+04  0.25500000920E-02 0.  1.
    10030    2    1    2    0    0  0.00000000000E+00  0.00000000000E+00 -0.13714163359E+04  0.17514674093E+04  0.10894288961E+04 0.  0.
        4    1    3    3  502    0  0.55719602525E+02  0.40943806259E+03 -0.12563102007E+04  0.13225207501E+04  0.12699999809E+01 0.  1.
       -4    1    3    3    0  502 -0.55719602525E+02 -0.40943806259E+03 -0.11510613519E+03  0.42894665923E+03  0.12699999809E+01 0. -1.
</event>
<event>
 5   0  0.8009636E-04  0.1100069E+04  0.7818609E-02  0.9205124E-01
        1   -1    0    0  501    0  0.00000000000E+00  0.00000000000E+00  0.77244287471E+03  0.77244287472E+03  0.50400001928E-02 0.  1.
       -1   -1    0    0    0  501  0.00000000000E+00  0.00000000000E+00 -0.39166396749E+03  0.39166396752E+03  0.50400001928E-02 0. -1.
    10030    2    1    2    0    0  0.00000000000E+00  0.00000000000E+00  0.38077890722E+03  0.11641068422E+04  0.11000691633E+04 0.  0.
        1    1    3    3  502    0 -0.47866094250E+03 -0.73776657404E+02 -0.85515457888E+02  0.49180502906E+03  0.50400001928E-02 0.  1.
       -1    1    3    3    0  502  0.47866094250E+03  0.73776657404E+02  0.46629436511E+03  0.67230181318E+03  0.50400001928E-02 0. -1.
</event>
<event>
 5   0  0.1429680E-03  0.1103016E+04  0.7818609E-02  0.9202257E-01
       -2   -1    0    0    0  501  0.00000000000E+00  0.00000000000E+00  0.77179783721E+03  0.77179783721E+03  0.25500000920E-02 0.  1.
        2   -1    0    0  501    0  0.00000000000E+00  0.00000000000E+00 -0.39409450273E+03  0.39409450274E+03  0.25500000920E-02 0. -1.
    10030    2    1    2    0    0  0.00000000000E+00  0.00000000000E+00  0.37770333448E+03  0.11658923399E+04  0.11030163822E+04 0.  0.
        3    1    3    3  502    0 -0.70044533275E+02 -0.38905856893E+02  0.76561292349E+03  0.76979416804E+03  0.10100000352E+00 0.  1.
       -3    1    3    3    0  502  0.70044533275E+02  0.38905856893E+02 -0.38790958901E+03  0.39609817191E+03  0.10100000352E+00 0. -1.
</event>
<event>
 5   0  0.1425432E-03  0.1099953E+04  0.7818609E-02  0.9205238E-01
       -2   -1    0    0    0  501  0.00000000000E+00  0.00000000000E+00  0.22500418264E+03  0.22500418265E+03  0.25500000920E-02 0. -1.
        2   -1    0    0  501    0  0.00000000000E+00  0.00000000000E+00 -0.13443041675E+04  0.13443041675E+04  0.25500000920E-02 0.  1.
    10030    2    1    2    0    0  0.00000000000E+00  0.00000000000E+00 -0.11192999848E+04  0.15693083501E+04  0.10999528361E+04 0.  0.
        1    1    3    3  502    0  0.19430844828E+03 -0.47597548920E+03 -0.83837143972E+03  0.98345061409E+03  0.50400001928E-02 0.  1.
       -1    1    3    3    0  502 -0.19430844828E+03  0.47597548920E+03 -0.28092854512E+03  0.58585773604E+03  0.50400001928E-02 0. -1.
</event>
<event>
 5   0  0.7946038E-04  0.1102839E+04  0.7818609E-02  0.9202429E-01
        1   -1    0    0  501    0  0.00000000000E+00  0.00000000000E+00  0.98741440471E+03  0.98741440472E+03  0.50400001928E-02 0.  1.
       -1   -1    0    0    0  501  0.00000000000E+00  0.00000000000E+00 -0.30793891869E+03  0.30793891873E+03  0.50400001928E-02 0. -1.
    10030    2    1    2    0    0  0.00000000000E+00  0.00000000000E+00  0.67947548602E+03  0.12953533234E+04  0.11028387445E+04 0.  0.
        4    1    3    3  502    0 -0.21217362531E+03  0.49253504962E+03  0.49039934791E+03  0.72670596235E+03  0.12699999809E+01 0.  1.
       -4    1    3    3    0  502  0.21217362531E+03 -0.49253504962E+03  0.18907613811E+03  0.56864736110E+03  0.12699999809E+01 0. -1.
</event>
<event>
 5   0  0.1429680E-03  0.1102289E+04  0.7818609E-02  0.9202963E-01
       -2   -1    0    0    0  501  0.00000000000E+00  0.00000000000E+00  0.20601471487E+03  0.20601471489E+03  0.25500000920E-02 0.  1.
        2   -1    0    0  501    0  0.00000000000E+00  0.00000000000E+00 -0.14744602260E+04  0.14744602260E+04  0.25500000920E-02 0. -1.
    10030    2    1    2    0    0  0.00000000000E+00  0.00000000000E+00 -0.12684455112E+04  0.16804749409E+04  0.11022894412E+04 0.  0.
        3    1    3    3  502    0  0.51771488331E+03 -0.13467199593E+03 -0.83644739263E+03  0.99287939737E+03  0.10100000352E+00 0. -1.
       -3    1    3    3    0  502 -0.51771488331E+03  0.13467199593E+03 -0.43199811853E+03  0.68759554355E+03  0.10100000352E+00 0.  1.
</event>
<event>
 5   0  0.1425432E-03  0.1100623E+04  0.7818609E-02  0.9204585E-01
        2   -1    0    0  501    0  0.00000000000E+00  0.00000000000E+00  0.20134732615E+04  0.20134732615E+04  0.25500000920E-02 0. -1.
       -2   -1    0    0    0  501  0.00000000000E+00  0.00000000000E+00 -0.15040807658E+03  0.15040807660E+03  0.25500000920E-02 0.  1.
    10030    2    1    2    0    0  0.00000000000E+00  0.00000000000E+00  0.18630651849E+04  0.21638813381E+04  0.11006228065E+04 0.  0.
        1    1    3    3  502    0  0.30458902842E+03 -0.34744867549E+03  0.15192064016E+04  0.15879178660E+04  0.50400001928E-02 0. -1.
       -1    1    3    3    0  502 -0.30458902842E+03  0.34744867549E+03  0.34385878327E+03  0.57596347210E+03  0.50400001928E-02 0.  1.
</event>
<event>
 5   0  0.8341767E-04  0.1101179E+04  0.7818609E-02  0.9204043E-01
       -1   -1    0    0    0  501  0.00000000000E+00  0.00000000000E+00  0.39805524961E+03  0.39805524964E+03  0.50400001928E-02 0.  1.
        1   -1    0    0  501    0  0.00000000000E+00  0.00000000000E+00 -0.76157524782E+03  0.76157524784E+03  0.50400001928E-02 0. -1.
    10030    2    1    2    0    0  0.00000000000E+00  0.00000000000E+00 -0.36351999821E+03  0.11596304975E+04  0.11011794139E+04 0.  0.
        2    1    3    3  502    0 -0.12929252159E+02  0.47969852430E+03  0.10251552076E+03  0.49070079659E+03  0.25500000920E-02 0.  1.
       -2    1    3    3    0  502  0.12929252159E+02 -0.47969852430E+03 -0.46603551897E+03  0.66892970088E+03  0.25500000920E-02 0. -1.
</event>
<event>
 5   0  0.1402775E-03  0.1093008E+04  0.7818609E-02  0.9212034E-01
        2   -1    0    0  501    0  0.00000000000E+00  0.00000000000E+00  0.54109335585E+03  0.54109335585E+03  0.25500000920E-02 0. -1.
       -2   -1    0    0    0  501  0.00000000000E+00  0.00000000000E+00 -0.55196878852E+03  0.55196878852E+03  0.25500000920E-02 0.  1.
    10030    2    1    2    0    0  0.00000000000E+00  0.00000000000E+00 -0.10875432668E+02  0.10930621444E+04  0.10930080404E+04 0.  0.
        5    1    3    3  502    0  0.16275064490E+02 -0.28292537711E+03  0.46184648293E+03  0.54188182340E+03  0.46999998093E+01 0. -1.
       -5    1    3    3    0  502 -0.16275064490E+02  0.28292537711E+03 -0.47272191560E+03  0.55118032097E+03  0.46999998093E+01 0.  1.
</event>
<event>
 5   0  0.8009636E-04  0.1097652E+04  0.7818609E-02  0.9207484E-01
        1   -1    0    0  501    0  0.00000000000E+00  0.00000000000E+00  0.15712409081E+04  0.15712409081E+04  0.50400001928E-02 0.  1.
       -1   -1    0    0    0  501  0.00000000000E+00  0.00000000000E+00 -0.19170187771E+03  0.19170187778E+03  0.50400001928E-02 0. -1.
    10030    2    1    2    0    0  0.00000000000E+00  0.00000000000E+00  0.13795390304E+04  0.17629427859E+04  0.10976517344E+04 0.  0.
        1    1    3    3  502    0 -0.29050552221E+03 -0.29530469874E+03  0.11154642093E+03  0.42899991560E+03  0.50400001928E-02 0. -1.
       -1    1    3    3    0  502  0.29050552221E+03  0.29530469874E+03  0.12679926095E+04  0.13339428703E+04  0.50400001928E-02 0.  1.
</event>
<event>
 5   0  0.1425432E-03  0.1100875E+04  0.7818609E-02  0.9204340E-01
        2   -1    0    0  501    0  0.00000000000E+00  0.00000000000E+00  0.13593068956E+04  0.13593068956E+04  0.25500000920E-02 0.  1.
       -2   -1    0    0    0  501  0.00000000000E+00  0.00000000000E+00 -0.22289402629E+03  0.22289402630E+03  0.25500000920E-02 0. -1.
    10030    2    1    2    0    0  0.00000000000E+00  0.00000000000E+00  0.11364128693E+04  0.15822009219E+04  0.11008749010E+04 0.  0.
        1    1    3    3  502    0 -0.21553286643E+03 -0.49384056476E+03  0.40656875450E+03  0.67500449782E+03  0.50400001928E-02 0. -1.
       -1    1    3    3    0  502  0.21553286643E+03  0.49384056476E+03  0.72984411480E+03  0.90719642407E+03  0.50400001928E-02 0.  1.
</event>
<event>
 5   0  0.1396936E-03  0.1124663E+04  0.7818609E-02  0.9181482E-01
       -2   -1    0    0    0  501  0.00000000000E+00  0.00000000000E+00  0.14589603322E+03  0.14589603324E+03  0.25500000920E-02 0. -1.
        2   -1    0    0  501    0  0.00000000000E+00  0.00000000000E+00 -0.21674106213E+04  0.21674106213E+04  0.25500000920E-02 0.  1.
    10030    2    1    2    0    0  0.00000000000E+00  0.00000000000E+00 -0.20215145881E+04  0.23133066546E+04  0.11246628153E+04 0.  0.
        2    1    3    3  502    0 -0.35282232524E+03  0.42925800419E+03 -0.83297513868E+03  0.10012959647E+04  0.25500000920E-02 0. -1.
       -2    1    3    3    0  502  0.35282232524E+03 -0.42925800419E+03 -0.11885394494E+04  0.13120106898E+04  0.25500000920E-02 0.  1.
</event>
<event>
 5   0  0.8305271E-04  0.1100829E+04  0.7818609E-02  0.9204384E-01
       -1   -1    0    0    0  501  0.00000000000E+00  0.00000000000E+00  0.28725479506E+03  0.28725479510E+03  0.50400001928E-02 0. -1.
        1   -1    0    0  501    0  0.00000000000E+00  0.00000000000E+00 -0.10546599342E+04  0.10546599342E+04  0.50400001928E-02 0.  1.
    10030    2    1    2    0    0  0.00000000000E+00  0.00000000000E+00 -0.76740513911E+03  0.13419147293E+04  0.11008290027E+04 0.  0.
        5    1    3    3  502    0 -0.11843431862E+03  0.42675470341E+03  0.14648339547E+02  0.44315113512E+03  0.46999998093E+01 0. -1.
       -5    1    3    3    0  502  0.11843431862E+03 -0.42675470341E+03 -0.78205347866E+03  0.89876359416E+03  0.46999998093E+01 0.  1.
</event>
<event>
 5   0  0.8150924E-04  0.1101125E+04  0.7818609E-02  0.9204096E-01
        1   -1    0    0  501    0  0.00000000000E+00  0.00000000000E+00  0.84287029653E+03  0.84287029654E+03  0.50400001928E-02 0.  1.
       -1   -1    0    0    0  501  0.00000000000E+00  0.00000000000E+00 -0.35962714236E+03  0.35962714239E+03  0.50400001928E-02 0. -1.
    10030    2    1    2    0    0  0.00000000000E+00  0.00000000000E+00  0.48324315417E+03  0.12024974389E+04  0.11011249450E+04 0.  0.
        3    1    3    3  502    0 -0.34170928604E+03  0.31630609182E+03 -0.79200052354E+02  0.47232132959E+03  0.10100000352E+00 0. -1.
       -3    1    3    3    0  502  0.34170928604E+03 -0.31630609182E+03  0.56244320652E+03  0.73017610934E+03  0.10100000352E+00 0.  1.
</event>
<event>
 5   0  0.1429680E-03  0.1103911E+04  0.7818609E-02  0.9201388E-01
       -2   -1    0    0    0  501  0.00000000000E+00  0.00000000000E+00  0.23070804092E+03  0.23070804094E+03  0.25500000920E-02 0.  1.
        2   -1    0    0  501    0  0.00000000000E+00  0.00000000000E+00 -0.13205221585E+04  0.13205221585E+04  0.25500000920E-02 0. -1.
    10030    2    1    2    0    0  0.00000000000E+00  0.00000000000E+00 -0.10898141176E+04  0.15512301995E+04  0.11039113736E+04 0.  0.
        3    1    3    3  502    0  0.18538698742E+03 -0.31573753245E+03 -0.11253067323E+04  0.11833738954E+04  0.10100000352E+00 0. -1.
       -3    1    3    3    0  502 -0.18538698742E+03  0.31573753245E+03  0.35492614686E+02  0.36785630401E+03  0.10100000352E+00 0.  1.
</event>
<event>
 5   0  0.1402775E-03  0.1099984E+04  0.7818609E-02  0.9205207E-01
       -2   -1    0    0    0  501  0.00000000000E+00  0.00000000000E+00  0.48177017572E+03  0.48177017573E+03  0.25500000920E-02 0. -1.
        2   -1    0    0  501    0  0.00000000000E+00  0.00000000000E+00 -0.62787492769E+03  0.62787492769E+03  0.25500000920E-02 0.  1.
    10030    2    1    2    0    0  0.00000000000E+00  0.00000000000E+00 -0.14610475196E+03  0.11096451034E+04  0.10999843894E+04 0.  0.
        5    1    3    3  502    0 -0.36932628608E+03  0.37242256157E+03 -0.23994067493E+03  0.57679640033E+03  0.46999998093E+01 0.  1.
       -5    1    3    3    0  502  0.36932628608E+03 -0.37242256157E+03  0.93835922968E+02  0.53284870309E+03  0.46999998093E+01 0. -1.
</event>
<event>
 5   0  0.8305271E-04  0.1108313E+04  0.7818609E-02  0.9197127E-01
        1   -1    0    0  501    0  0.00000000000E+00  0.00000000000E+00  0.10436875763E+04  0.10436875763E+04  0.50400001928E-02 0. -1.
       -1   -1    0    0    0  501  0.00000000000E+00  0.00000000000E+00 -0.29423481183E+03  0.29423481187E+03  0.50400001928E-02 0.  1.
    10030    2    1    2    0    0  0.00000000000E+00  0.00000000000E+00  0.74945276450E+03  0.13379223882E+04  0.11083126232E+04 0.  0.
        5    1    3    3  502    0  0.21075644915E+03  0.50802471050E+03  0.29321116373E+03  0.62329949773E+03  0.46999998093E+01 0.  1.
       -5    1    3    3    0  502 -0.21075644915E+03 -0.50802471050E+03  0.45624160077E+03  0.71462289048E+03  0.46999998093E+01 0. -1.
</event>
<event>
 5   0  0.1425432E-03  0.1104822E+04  0.7818609E-02  0.9200505E-01
        2   -1    0    0  501    0  0.00000000000E+00  0.00000000000E+00  0.72655634383E+03  0.72655634384E+03  0.25500000920E-02 0. -1.
       -2   -1    0    0    0  501  0.00000000000E+00  0.00000000000E+00 -0.42000599252E+03  0.42000599253E+03  0.25500000920E-02 0.  1.
    10030    2    1    2    0    0  0.00000000000E+00  0.00000000000E+00  0.30655035131E+03  0.11465623364E+04  0.11048221908E+04 0.  0.
        1    1    3    3  502    0 -0.50918963179E+03  0.13340294790E+03 -0.20650030381E+02  0.52677969912E+03  0.50400001928E-02 0.  1.
       -1    1    3    3    0  502  0.50918963179E+03 -0.13340294790E+03  0.32720038169E+03  0.61978263725E+03  0.50400001928E-02 0. -1.
</event>
<event>
 5   0  0.8009636E-04  0.1101248E+04  0.7818609E-02  0.9203976E-01
       -1   -1    0    0    0  501  0.00000000000E+00  0.00000000000E+00  0.58451311081E+03  0.58451311083E+03  0.50400001928E-02 0.  1.
        1   -1    0    0  501    0  0.00000000000E+00  0.00000000000E+00 -0.51869966952E+03  0.51869966954E+03  0.50400001928E-02 0. -1.
    10030    2    1    2    0    0  0.00000000000E+00  0.00000000000E+00  0.65813441291E+02  0.11032127804E+04  0.11012479420E+04 0.  0.
        1    1    3    3  502    0  0.28397171338E+03 -0.33691873570E+03 -0.29788325244E+03  0.53187272968E+03  0.50400001928E-02 0. -1.
       -1    1    3    3    0  502 -0.28397171338E+03  0.33691873570E+03  0.36369669373E+03  0.57134005069E+03  0.50400001928E-02 0.  1.
</event>
<event>
 5   0  0.1429680E-03  0.1100707E+04  0.7818609E-02  0.9204503E-01
       -2   -1    0    0    0  501  0.00000000000E+00  0.00000000000E+00  0.25405844949E+03  0.25405844950E+03  0.25500000920E-02 0. -1.
        2   -1    0    0  501    0  0.00000000000E+00  0.00000000000E+00 -0.11922011618E+04  0.11922011618E+04  0.25500000920E-02 0.  1.
    10030    2    1    2    0    0  0.00000000000E+00  0.00000000000E+00 -0.93814271227E+03  0.14462596113E+04  0.11007066433E+04 0.  0.
        3    1    3    3  502    0  0.15103843363E+03  0.17508784549E+03 -0.11252780582E+04  0.11487902683E+04  0.10100000352E+00 0.  1.
       -3    1    3    3    0  502 -0.15103843363E+03 -0.17508784549E+03  0.18713534596E+03  0.29746934293E+03  0.10100000352E+00 0. -1.
</event>
<event>
 5   0  0.1372794E-03  0.1107176E+04  0.7818609E-02  0.9198226E-01
        2   -1    0    0  501    0  0.00000000000E+00  0.00000000000E+00  0.10440684960E+04  0.10440684960E+04  0.25500000920E-02 0.  1.
       -2   -1    0    0    0  501  0.00000000000E+00  0.00000000000E+00 -0.29352428030E+03  0.29352428031E+03  0.25500000920E-02 0. -1.
    10030    2    1    2    0    0  0.00000000000E+00  0.00000000000E+00  0.75054421574E+03  0.13375927764E+04  0.11071756029E+04 0.  0.
        4    1    3    3  502    0 -0.57896067204E+02  0.29241704057E+03 -0.18828121841E+03  0.35257780747E+03  0.12699999809E+01 0.  1.
       -4    1    3    3    0  502  0.57896067204E+02 -0.29241704057E+03  0.93882543416E+03  0.98501496889E+03  0.12699999809E+01 0. -1.
</event>
<event>
 5   0  0.1396936E-03  0.1092261E+04  0.7818609E-02  0.9212768E-01
        2   -1    0    0  501    0  0.00000000000E+00  0.00000000000E+00  0.71367477789E+03  0.71367477789E+03  0.25500000920E-02 0. -1.
       -2   -1    0    0    0  501  0.00000000000E+00  0.00000000000E+00 -0.41791901123E+03  0.41791901124E+03  0.25500000920E-02 0.  1.
    10030    2    1    2    0    0  0.00000000000E+00  0.00000000000E+00  0.29575576666E+03  0.11315937891E+04  0.10922605138E+04 0.  0.
        2    1    3    3  502    0 -0.51759837841E+03 -0.43020670181E+02  0.32277480493E+03  0.61150832709E+03  0.25500000920E-02 0. -1.
       -2    1    3    3    0  502  0.51759837841E+03  0.43020670181E+02 -0.27019038279E+02  0.52008546204E+03  0.25500000920E-02 0.  1.
</event>
<event>
 5   0  0.1396936E-03  0.1096879E+04  0.7818609E-02  0.9208240E-01
        2   -1    0    0  501    0  0.00000000000E+00  0.00000000000E+00  0.14758325710E+04  0.14758325710E+04  0.25500000920E-02 0.  1.
       -2   -1    0    0    0  501  0.00000000000E+00  0.00000000000E+00 -0.20380742712E+03  0.20380742713E+03  0.25500000920E-02 0. -1.
    10030    2    1    2    0    0  0.00000000000E+00  0.00000000000E+00  0.12720251439E+04  0.16796399981E+04  0.10968785515E+04 0.  0.
        2    1    3    3  502    0 -0.16128162465E+03  0.41690592032E+03  0.11225760392E+04  0.12083042964E+04  0.25500000920E-02 0.  1.
       -2    1    3    3    0  502  0.16128162465E+03 -0.41690592032E+03  0.14944910466E+03  0.47133570174E+03  0.25500000920E-02 0. -1.
</event>
<event>
 5   0  0.1425432E-03  0.1100486E+04  0.7818609E-02  0.9204718E-01
       -2   -1    0    0    0  501  0.00000000000E+00  0.00000000000E+00  0.21092338183E+03  0.21092338184E+03  0.25500000920E-02 0.  1.
        2   -1    0    0  501    0  0.00000000000E+00  0.00000000000E+00 -0.14354382144E+04  0.14354382144E+04  0.25500000920E-02 0. -1.
    10030    2    1    2    0    0  0.00000000000E+00  0.00000000000E+00 -0.12245148326E+04  0.16463615962E+04  0.11004862245E+04 0.  0.
        1    1    3    3  502    0 -0.41039954875E+03  0.80635191485E+02 -0.11471542421E+04  0.12210211623E+04  0.50400001928E-02 0. -1.
       -1    1    3    3    0  502  0.41039954875E+03 -0.80635191485E+02 -0.77360590479E+02  0.42534043389E+03  0.50400001928E-02 0.  1.
</event>
<event>
 5   0  0.8305271E-04  0.1101070E+04  0.7818609E-02  0.9204149E-01
        1   -1    0    0  501    0  0.00000000000E+00  0.00000000000E+00  0.39813184152E+03  0.39813184155E+03  0.50400001928E-02 0. -1.
       -1   -1    0    0    0  501  0.00000000000E+00  0.00000000000E+00 -0.76127798103E+03  0.76127798104E+03  0.50400001928E-02 0.  1.
    10030    2    1    2    0    0  0.00000000000E+00  0.00000000000E+00 -0.36314613951E+03  0.11594098226E+04  0.11010703965E+04 0.  0.
        5    1    3    3  502    0  0.16672039107E+03 -0.23475873444E+03 -0.67564555144E+03  0.73445650203E+03  0.46999998093E+01 0.  1.
       -5    1    3    3    0  502 -0.16672039107E+03  0.23475873444E+03  0.31249941193E+03  0.42495332056E+03  0.46999998093E+01 0. -1.
</event>
<event>
 5   0  0.8009636E-04  0.1096456E+04  0.7818609E-02  0.9208653E-01
        1   -1    0    0  501    0  0.00000000000E+00  0.00000000000E+00  0.15371136777E+04  0.15371136777E+04  0.50400001928E-02 0. -1.
       -1   -1    0    0    0  501  0.00000000000E+00  0.00000000000E+00 -0.19553152721E+03  0.19553152728E+03  0.50400001928E-02 0.  1.
    10030    2    1    2    0    0  0.00000000000E+00  0.00000000000E+00  0.13415821505E+04  0.17326452050E+04  0.10964564469E+04 0.  0.
        1    1    3    3  502    0 -0.97629047509E+02 -0.27886489584E+03  0.14005342294E+04  0.14313606075E+04  0.50400001928E-02 0. -1.
       -1    1    3    3    0  502  0.97629047509E+02  0.27886489584E+03 -0.58952078881E+02  0.30128459748E+03  0.50400001928E-02 0.  1.
</event>
<event>
 5   0  0.1425432E-03  0.1096501E+04  0.7818609E-02  0.9208609E-01
       -2   -1    0    0    0  501  0.00000000000E+00  0.00000000000E+00  0.28311717168E+03  0.28311717170E+03  0.25500000920E-02 0. -1.
        2   -1    0    0  501    0  0.00000000000E+00  0.00000000000E+00 -0.10616760390E+04  0.10616760390E+04  0.25500000920E-02 0.  1.
    10030    2    1    2    0    0  0.00000000000E+00  0.00000000000E+00 -0.77855886731E+03  0.13447932107E+04  0.10965011946E+04 0.  0.
        1    1    3    3  502    0 -0.32211606521E+03  0.74222098992E+02 -0.92571357743E+03  0.98296149819E+03  0.50400001928E-02 0.  1.
       -1    1    3    3    0  502  0.32211606521E+03 -0.74222098992E+02  0.14715471012E+03  0.36183171251E+03  0.50400001928E-02 0. -1.
</event>
<event>
 5   0  0.8341767E-04  0.1097787E+04  0.7818609E-02  0.9207351E-01
        1   -1    0    0  501    0  0.00000000000E+00  0.00000000000E+00  0.24313375673E+03  0.24313375678E+03  0.50400001928E-02 0.  1.
       -1   -1    0    0    0  501  0.00000000000E+00  0.00000000000E+00 -0.12391708706E+04  0.12391708706E+04  0.50400001928E-02 0. -1.
    10030    2    1    2    0    0  0.00000000000E+00  0.00000000000E+00 -0.99603711384E+03  0.14823046274E+04  0.10977873547E+04 0.  0.
        2    1    3    3  502    0  0.31067558907E+03 -0.59953389676E+01  0.11293602549E+03  0.33062034358E+03  0.25500000920E-02 0.  1.
       -2    1    3    3    0  502 -0.31067558907E+03  0.59953389676E+01 -0.11089731393E+04  0.11516842838E+04  0.25500000920E-02 0. -1.
</event>
<event>
 5   0  0.8150924E-04  0.1096160E+04  0.7818609E-02  0.9208942E-01
       -1   -1    0    0    0  501  0.00000000000E+00  0.00000000000E+00  0.55615731584E+03  0.55615731587E+03  0.50400001928E-02 0. -1.
        1   -1    0    0  501    0  0.00000000000E+00  0.00000000000E+00 -0.54012030546E+03  0.54012030548E+03  0.50400001928E-02 0.  1.
    10030    2    1    2    0    0  0.00000000000E+00  0.00000000000E+00  0.16037010387E+02  0.10962776213E+04  0.10961603155E+04 0.  0.
        3    1    3    3  502    0 -0.39570814492E+03 -0.36588117596E+03 -0.91681070439E+02  0.54668034513E+03  0.10100000352E+00 0. -1.
       -3    1    3    3    0  502  0.39570814492E+03  0.36588117596E+03  0.10771808083E+03  0.54959727621E+03  0.10100000352E+00 0.  1.
</event>
<event>
 5   0  0.7946038E-04  0.1100250E+04  0.7818609E-02  0.9204949E-01
       -1   -1    0    0    0  501  0.00000000000E+00  0.00000000000E+00  0.14357132401E+03  0.14357132409E+03  0.50400001928E-02 0. -1.
        1   -1    0    0  501    0  0.00000000000E+00  0.00000000000E+00 -0.21079232437E+04  0.21079232437E+04  0.50400001928E-02 0.  1.
    10030    2    1    2    0    0  0.00000000000E+00  0.00000000000E+00 -0.19643519197E+04  0.22514945678E+04  0.11002496646E+04 0.  0.
        4    1    3    3  502    0 -0.23134170261E+03  0.35231347169E+03 -0.25870569707E+03  0.49454425110E+03  0.12699999809E+01 0. -1.
       -4    1    3    3    0  502  0.23134170261E+03 -0.35231347169E+03 -0.17056462227E+04  0.17569503167E+04  0.12699999809E+01 0.  1.
</event>
<event>
 5   0  0.1425432E-03  0.1097578E+04  0.7818609E-02  0.9207556E-01
       -2   -1    0    0    0  501  0.00000000000E+00  0.00000000000E+00  0.35061170388E+03  0.35061170389E+03  0.25500000920E-02 0.  1.
        2   -1    0    0  501    0  0.00000000000E+00  0.00000000000E+00 -0.85898230287E+03  0.85898230287E+03  0.25500000920E-02 0. -1.
    10030    2    1    2    0    0  0.00000000000E+00  0.00000000000E+00 -0.50837059898E+03  0.12095940068E+04  0.10975777855E+04 0.  0.
        1    1    3    3  502    0 -0.41420829006E+03  0.96661863820E+02 -0.63635821672E+03  0.76541740474E+03  0.50400001928E-02 0. -1.
       -1    1    3    3    0  502  0.41420829006E+03 -0.96661863820E+02  0.12798761774E+03  0.44417660203E+03  0.50400001928E-02 0.  1.
</event>
<event>
 5   0  0.8341767E-04  0.1095182E+04  0.7818609E-02  0.9209900E-01
       -1   -1    0    0    0  501  0.00000000000E+00  0.00000000000E+00  0.50923219162E+03  0.50923219165E+03  0.50400001928E-02 0.  1.
        1   -1    0    0  501    0  0.00000000000E+00  0.00000000000E+00 -0.58883951145E+03  0.58883951147E+03  0.50400001928E-02 0. -1.
    10030    2    1    2    0    0  0.00000000000E+00  0.00000000000E+00 -0.79607319829E+02  0.10980717031E+04  0.10951822405E+04 0.  0.
        2    1    3    3  502    0 -0.39204118797E+03 -0.77514977514E+02  0.33555174298E+03  0.52182356886E+03  0.25500000920E-02 0.  1.
       -2    1    3    3    0  502  0.39204118797E+03  0.77514977514E+02 -0.41515906281E+03  0.57624813426E+03  0.25500000920E-02 0. -1.
</event>
<event>
 5   0  0.8150924E-04  0.1098527E+04  0.7818609E-02  0.9206629E-01
        1   -1    0    0  501    0  0.00000000000E+00  0.00000000000E+00  0.81252171781E+03  0.81252171783E+03  0.50400001928E-02 0. -1.
       -1   -1    0    0    0  501  0.00000000000E+00  0.00000000000E+00 -0.37130116559E+03  0.37130116563E+03  0.50400001928E-02 0.  1.
    10030    2    1    2    0    0  0.00000000000E+00  0.00000000000E+00  0.44122055222E+03  0.11838228835E+04  0.10985267606E+04 0.  0.
        3    1    3    3  502    0 -0.35164532178E+02 -0.24111832086E+03 -0.30986705784E+03  0.39419816426E+03  0.10100000352E+00 0.  1.
       -3    1    3    3    0  502  0.35164532178E+02  0.24111832086E+03  0.75108761006E+03  0.78962471919E+03  0.10100000352E+00 0. -1.
</event>
<event>
 5   0  0.8305271E-04  0.1098440E+04  0.7818609E-02  0.9206713E-01
       -1   -1    0    0    0  501  0.00000000000E+00  0.00000000000E+00  0.10049452731E+04  0.10049452731E+04  0.50400001928E-02 0.  1.
        1   -1    0    0  501    0  0.00000000000E+00  0.00000000000E+00 -0.30015836061E+03  0.30015836065E+03  0.50400001928E-02 0. -1.
    10030    2    1    2    0    0  0.00000000000E+00  0.00000000000E+00  0.70478691251E+03  0.13051036338E+04  0.10984402136E+04 0.  0.
        5    1    3    3  502    0 -0.48560902011E+03  0.26959765702E+02  0.49294369988E+02  0.48887112237E+03  0.46999998093E+01 0. -1.
       -5    1    3    3    0  502  0.48560902011E+03 -0.26959765702E+02  0.65549254253E+03  0.81623251141E+03  0.46999998093E+01 0.  1.
</event>
<event>
 5   0  0.1425432E-03  0.1099381E+04  0.7818609E-02  0.9205796E-01
        2   -1    0    0  501    0  0.00000000000E+00  0.00000000000E+00  0.10211983799E+04  0.10211983799E+04  0.25500000920E-02 0. -1.
       -2   -1    0    0    0  501  0.00000000000E+00  0.00000000000E+00 -0.29588713031E+03  0.29588713032E+03  0.25500000920E-02 0.  1.
    10030    2    1    2    0    0  0.00000000000E+00  0.00000000000E+00  0.72531124955E+03  0.13170855102E+04  0.10993806586E+04 0.  0.
        1    1    3    3  502    0 -0.48781061866E+03 -0.23702569672E+03  0.46993792703E+03  0.71762248841E+03  0.50400001928E-02 0.  1.
       -1    1    3    3    0  502  0.48781061866E+03  0.23702569672E+03  0.25537332252E+03  0.59946302177E+03  0.50400001928E-02 0. -1.
</event>
<event>
 5   0  0.5409500E-04  0.1099686E+04  0.7818609E-02  0.9205498E-01
        3   -1    0    0  501    0  0.00000000000E+00  0.00000000000E+00  0.11281798439E+04  0.11281798484E+04  0.10100000352E+00 0. -1.
       -3   -1    0    0    0  501  0.00000000000E+00  0.00000000000E+00 -0.26797807691E+03  0.26797809594E+03  0.10100000352E+00 0.  1.
    10030    2    1    2    0    0  0.00000000000E+00  0.00000000000E+00  0.86020176702E+03  0.13961579444E+04  0.10996862851E+04 0.  0.
        3    1    3    3  502    0  0.43723630002E+03  0.13987751820E+03  0.45880244576E+02  0.46135269501E+03  0.10100000352E+00 0.  1.
       -3    1    3    3    0  502 -0.43723630002E+03 -0.13987751820E+03  0.81432152244E+03  0.93480524938E+03  0.10100000352E+00 0. -1.
</event>
<event>
 5   0  0.8305271E-04  0.1100397E+04  0.7818609E-02  0.9204805E-01
       -1   -1    0    0    0  501  0.00000000000E+00  0.00000000000E+00  0.41224053501E+03  0.41224053504E+03  0.50400001928E-02 0.  1.
        1   -1    0    0  501    0  0.00000000000E+00  0.00000000000E+00 -0.73432412933E+03  0.73432412935E+03  0.50400001928E-02 0. -1.
    10030    2    1    2    0    0  0.00000000000E+00  0.00000000000E+00 -0.32208359432E+03  0.11465646644E+04  0.11003966048E+04 0.  0.
        5    1    3    3  502    0  0.13721575165E+03  0.20511291191E+03  0.35131726018E+03  0.42935460453E+03  0.46999998093E+01 0.  1.
       -5    1    3    3    0  502 -0.13721575165E+03 -0.20511291191E+03 -0.67340085450E+03  0.71721005986E+03  0.46999998093E+01 0. -1.
</event>
<event>
 5   0  0.1396936E-03  0.1103414E+04  0.7818609E-02  0.9201871E-01
        2   -1    0    0  501    0  0.00000000000E+00  0.00000000000E+00  0.17797250539E+04  0.17797250539E+04  0.25500000920E-02 0.  1.
       -2   -1    0    0    0  501  0.00000000000E+00  0.00000000000E+00 -0.17102667666E+03  0.17102667668E+03  0.25500000920E-02 0. -1.
    10030    2    1    2    0    0  0.00000000000E+00  0.00000000000E+00  0.16086983772E+04  0.19507517306E+04  0.11034137236E+04 0.  0.
        2    1    3    3  502    0 -0.21606269017E+03 -0.48320108981E+03  0.10794536445E+04  0.12022423008E+04  0.25500000920E-02 0.  1.
       -2    1    3    3    0  502  0.21606269017E+03  0.48320108981E+03  0.52924473277E+03  0.74850942977E+03  0.25500000920E-02 0. -1.
</event>
<event>
 5   0  0.8341767E-04  0.1094856E+04  0.7818609E-02  0.9210220E-01
       -1   -1    0    0    0  501  0.00000000000E+00  0.00000000000E+00  0.31726024152E+03  0.31726024156E+03  0.50400001928E-02 0.  1.
        1   -1    0    0  501    0  0.00000000000E+00  0.00000000000E+00 -0.94457945772E+03  0.94457945773E+03  0.50400001928E-02 0. -1.
    10030    2    1    2    0    0  0.00000000000E+00  0.00000000000E+00 -0.62731921619E+03  0.12618396993E+04  0.10948561676E+04 0.  0.
        2    1    3    3  502    0  0.36025510184E+03  0.38333370600E+03 -0.48825362765E+03  0.71771865900E+03  0.25500000920E-02 0. -1.
       -2    1    3    3    0  502 -0.36025510184E+03 -0.38333370600E+03 -0.13906558854E+03  0.54412104029E+03  0.25500000920E-02 0.  1.
</event>
<event>
 5   0  0.1402775E-03  0.1107005E+04  0.7818609E-02  0.9198391E-01
       -2   -1    0    0    0  501  0.00000000000E+00  0.00000000000E+00  0.97246335924E+03  0.97246335925E+03  0.25500000920E-02 0.  1.
        2   -1    0    0  501    0  0.00000000000E+00  0.00000000000E+00 -0.31504002016E+03  0.31504002017E+03  0.25500000920E-02 0. -1.
    10030    2    1    2    0    0  0.00000000000E+00  0.00000000000E+00  0.65742333908E+03  0.12875033794E+04  0.11070047449E+04 0.  0.
        5    1    3    3  502    0 -0.44694286063E+02  0.11841857267E+03 -0.29795854721E+03  0.32376214017E+03  0.46999998093E+01 0. -1.
       -5    1    3    3    0  502  0.44694286063E+02 -0.11841857267E+03  0.95538188629E+03  0.96374123924E+03  0.46999998093E+01 0.  1.
</event>
<event>
 5   0  0.1372794E-03  0.1109411E+04  0.7818609E-02  0.9196067E-01
        2   -1    0    0  501    0  0.00000000000E+00  0.00000000000E+00  0.54446487100E+03  0.54446487100E+03  0.25500000920E-02 0. -1.
       -2   -1    0    0    0  501  0.00000000000E+00  0.00000000000E+00 -0.56513914103E+03  0.56513914103E+03  0.25500000920E-02 0.  1.
    10030    2    1    2    0    0  0.00000000000E+00  0.00000000000E+00 -0.20674270031E+02  0.11096040120E+04  0.11094113926E+04 0.  0.
        4    1    3    3  502    0 -0.38473828656E+03  0.36424968056E+03 -0.17466848490E+03  0.55786384670E+03  0.12699999809E+01 0.  1.
       -4    1    3    3    0  502  0.38473828656E+03 -0.36424968056E+03  0.15399421487E+03  0.55174016534E+03  0.12699999809E+01 0. -1.
</event>
<event>
 5   0  0.1372794E-03  0.1100336E+04  0.7818609E-02  0.9204865E-01
        2   -1    0    0  501    0  0.00000000000E+00  0.00000000000E+00  0.83399304960E+03  0.83399304960E+03  0.25500000920E-02 0. -1.
       -2   -1    0    0    0  501  0.00000000000E+00  0.00000000000E+00 -0.36293422544E+03  0.36293422545E+03  0.25500000920E-02 0.  1.
    10030    2    1    2    0    0  0.00000000000E+00  0.00000000000E+00  0.47105882416E+03  0.11969272751E+04  0.11003356242E+04 0.  0.
        4    1    3    3  502    0  0.31058385383E+03  0.41543588242E+02  0.72743723969E+03  0.79205728995E+03  0.12699999809E+01 0. -1.
       -4    1    3    3    0  502 -0.31058385383E+03 -0.41543588242E+02 -0.25637841553E+03  0.40486998510E+03  0.12699999809E+01 0.  1.
</event>
<event>
 5   0  0.8305271E-04  0.1099276E+04  0.7818609E-02  0.9205898E-01
       -1   -1    0    0    0  501  0.00000000000E+00  0.00000000000E+00  0.93843810535E+03  0.93843810536E+03  0.50400001928E-02 0. -1.
        1   -1    0    0  501    0  0.00000000000E+00  0.00000000000E+00 -0.32191965791E+03  0.32191965795E+03  0.50400001928E-02 0.  1.
    10030    2    1    2    0    0  0.00000000000E+00  0.00000000000E+00  0.61651844744E+03  0.12603577633E+04  0.10992755321E+04 0.  0.
        5    1    3    3  502    0  0.38206968151E+03  0.18490466474E+03  0.70858318835E+03  0.82600193788E+03  0.46999998093E+01 0. -1.
       -5    1    3    3    0  502 -0.38206968151E+03 -0.18490466474E+03 -0.92064740918E+02  0.43435582543E+03  0.46999998093E+01 0.  1.
</event>
<event>
 5   0  0.8305271E-04  0.1104240E+04  0.7818609E-02  0.9201069E-01
        1   -1    0    0  501    0  0.00000000000E+00  0.00000000000E+00  0.46114903809E+03  0.46114903812E+03  0.50400001928E-02 0. -1.
       -1   -1    0    0    0  501  0.00000000000E+00  0.00000000000E+00 -0.66103703009E+03  0.66103703011E+03  0.50400001928E-02 0.  1.
    10030    2    1    2    0    0  0.00000000000E+00  0.00000000000E+00 -0.19988799200E+03  0.11221860682E+04  0.11042401742E+04 0.  0.
        5    1    3    3  502    0 -0.11390254863E+03 -0.44103710551E+03  0.21709884903E+03  0.50462017327E+03  0.46999998093E+01 0. -1.
       -5    1    3    3    0  502  0.11390254863E+03  0.44103710551E+03 -0.41698684103E+03  0.61756589496E+03  0.46999998093E+01 0.  1.
</event>
<event>
 5   0  0.8305271E-04  0.1055942E+04  0.7818609E-02  0.9249231E-01
        1   -1    0    0  501    0  0.00000000000E+00  0.00000000000E+00  0.58979641347E+03  0.58979641349E+03  0.50400001928E-02 0.  1.
       -1   -1    0    0    0  501  0.00000000000E+00  0.00000000000E+00 -0.47262638107E+03  0.47262638109E+03  0.50400001928E-02 0. -1.
    10030    2    1    2    0    0  0.00000000000E+00  0.00000000000E+00  0.11717003241E+03  0.10624227946E+04  0.10559419387E+04 0.  0.
        5    1    3    3  502    0  0.10152465368E+03  0.83938429702E+00 -0.46269063834E+03  0.47372215135E+03  0.46999998093E+01 0. -1.
       -5    1    3    3    0  502 -0.10152465368E+03 -0.83938429702E+00  0.57986067075E+03  0.58870064324E+03  0.46999998093E+01 0.  1.
</event>
<event>
 5   0  0.1372794E-03  0.1093113E+04  0.7818609E-02  0.9211931E-01
        2   -1    0    0  501    0  0.00000000000E+00  0.00000000000E+00  0.12872981038E+04  0.12872981038E+04  0.25500000920E-02 0.  1.
       -2   -1    0    0    0  501  0.00000000000E+00  0.00000000000E+00 -0.23205498006E+03  0.23205498008E+03  0.25500000920E-02 0. -1.
    10030    2    1    2    0    0  0.00000000000E+00  0.00000000000E+00  0.10552431237E+04  0.15193530839E+04  0.10931128685E+04 0.  0.
        4    1    3    3  502    0 -0.40148167169E+03  0.32214277803E+03  0.27224129368E+03  0.58230613686E+03  0.12699999809E+01 0. -1.
       -4    1    3    3    0  502  0.40148167169E+03 -0.32214277803E+03  0.78300183005E+03  0.93704694701E+03  0.12699999809E+01 0.  1.
</event>
<event>
 5   0  0.1402775E-03  0.1096833E+04  0.7818609E-02  0.9208284E-01
        2   -1    0    0  501    0  0.00000000000E+00  0.00000000000E+00  0.56311185648E+03  0.56311185648E+03  0.25500000920E-02 0.  1.
       -2   -1    0    0    0  501  0.00000000000E+00  0.00000000000E+00 -0.53410435105E+03  0.53410435105E+03  0.25500000920E-02 0. -1.
    10030    2    1    2    0    0  0.00000000000E+00  0.00000000000E+00  0.29007505429E+02  0.10972162075E+04  0.10968326995E+04 0.  0.
        5    1    3    3  502    0 -0.27848576093E+03  0.43044957311E+03 -0.18023647132E+03  0.54345968537E+03  0.46999998093E+01 0. -1.
       -5    1    3    3    0  502  0.27848576093E+03 -0.43044957311E+03  0.20924397675E+03  0.55375652216E+03  0.46999998093E+01 0.  1.
</event>
<event>
 5   0  0.8150924E-04  0.1100202E+04  0.7818609E-02  0.9204995E-01
       -1   -1    0    0    0  501  0.00000000000E+00  0.00000000000E+00  0.10841056258E+03  0.10841056269E+03  0.50400001928E-02 0. -1.
        1   -1    0    0  501    0  0.00000000000E+00  0.00000000000E+00 -0.27913432714E+04  0.27913432714E+04  0.50400001928E-02 0.  1.
    10030    2    1    2    0    0  0.00000000000E+00  0.00000000000E+00 -0.26829327089E+04  0.28997538341E+04  0.11002019716E+04 0.  0.
        3    1    3    3  502    0  0.26502004212E+03  0.79250200339E+02 -0.88226884596E+02  0.29034498505E+03  0.10100000352E+00 0. -1.
       -3    1    3    3    0  502 -0.26502004212E+03 -0.79250200339E+02 -0.25947058243E+04  0.26094088491E+04  0.10100000352E+00 0.  1.
</event>
<event>
 5   0  0.1372794E-03  0.1096208E+04  0.7818609E-02  0.9208896E-01
       -2   -1    0    0    0  501  0.00000000000E+00  0.00000000000E+00  0.19958462270E+03  0.19958462272E+03  0.25500000920E-02 0.  1.
        2   -1    0    0  501    0  0.00000000000E+00  0.00000000000E+00 -0.15052165619E+04  0.15052165619E+04  0.25500000920E-02 0. -1.
    10030    2    1    2    0    0  0.00000000000E+00  0.00000000000E+00 -0.13056319392E+04  0.17048011846E+04  0.10962081547E+04 0.  0.
        4    1    3    3  502    0 -0.10932383303E+03  0.28089139820E+03 -0.13647501872E+04  0.13976395689E+04  0.12699999809E+01 0. -1.
       -4    1    3    3    0  502  0.10932383303E+03 -0.28089139820E+03  0.59118248012E+02  0.30716161576E+03  0.12699999809E+01 0.  1.
</event>
<event>
 5   0  0.1425432E-03  0.1135291E+04  0.7818609E-02  0.9171462E-01
        2   -1    0    0  501    0  0.00000000000E+00  0.00000000000E+00  0.24666678244E+04  0.24666678244E+04  0.25500000920E-02 0.  1.
       -2   -1    0    0    0  501  0.00000000000E+00  0.00000000000E+00 -0.13063020569E+03  0.13063020571E+03  0.25500000920E-02 0. -1.
    10030    2    1    2    0    0  0.00000000000E+00  0.00000000000E+00  0.23360376187E+04  0.25972980301E+04  0.11352908443E+04 0.  0.
        1    1    3    3  502    0 -0.26669023251E+03 -0.26925134527E+03  0.21348641960E+04  0.21682400934E+04  0.50400001928E-02 0.  1.
       -1    1    3    3    0  502  0.26669023251E+03  0.26925134527E+03  0.20117342268E+03  0.42905793673E+03  0.50400001928E-02 0. -1.
</event>
<event>
 5   0  0.8009636E-04  0.1095819E+04  0.7818609E-02  0.9209277E-01
        1   -1    0    0  501    0  0.00000000000E+00  0.00000000000E+00  0.43065129039E+03  0.43065129042E+03  0.50400001928E-02 0. -1.
       -1   -1    0    0    0  501  0.00000000000E+00  0.00000000000E+00 -0.69709492342E+03  0.69709492344E+03  0.50400001928E-02 0.  1.
    10030    2    1    2    0    0  0.00000000000E+00  0.00000000000E+00 -0.26644363303E+03  0.11277462139E+04  0.10958190148E+04 0.  0.
        1    1    3    3  502    0 -0.50370442790E+03  0.39685131251E+02 -0.35132028773E+03  0.61540149897E+03  0.50400001928E-02 0.  1.
       -1    1    3    3    0  502  0.50370442790E+03 -0.39685131251E+02  0.84876654699E+02  0.51234471489E+03  0.50400001928E-02 0. -1.
</event>
<event>
 5   0  0.1429680E-03  0.1096741E+04  0.7818609E-02  0.9208374E-01
       -2   -1    0    0    0  501  0.00000000000E+00  0.00000000000E+00  0.20602020702E+03  0.20602020703E+03  0.25500000920E-02 0. -1.
        2   -1    0    0  501    0  0.00000000000E+00  0.00000000000E+00 -0.14596148589E+04  0.14596148589E+04  0.25500000920E-02 0.  1.
    10030    2    1    2    0    0  0.00000000000E+00  0.00000000000E+00 -0.12535946519E+04  0.16656350659E+04  0.10967409091E+04 0.  0.
        3    1    3    3  502    0 -0.36188124947E+03 -0.41031754276E+03 -0.57014258805E+03  0.79017789486E+03  0.10100000352E+00 0.  1.
       -3    1    3    3    0  502  0.36188124947E+03  0.41031754276E+03 -0.68345206382E+03  0.87545717106E+03  0.10100000352E+00 0. -1.
</event>
<event>
 5   0  0.8150924E-04  0.1103986E+04  0.7818609E-02  0.9201315E-01
        1   -1    0    0  501    0  0.00000000000E+00  0.00000000000E+00  0.24732412227E+03  0.24732412232E+03  0.50400001928E-02 0.  1.
       -1   -1    0    0    0  501  0.00000000000E+00  0.00000000000E+00 -0.12319722267E+04  0.12319722267E+04  0.50400001928E-02 0. -1.
    10030    2    1    2    0    0  0.00000000000E+00  0.00000000000E+00 -0.98464810446E+03  0.14792963491E+04  0.11039863218E+04 0.  0.
        3    1    3    3  502    0 -0.50350764355E+03  0.49686276476E+01 -0.79537941595E+03  0.94136765394E+03  0.10100000352E+00 0. -1.
       -3    1    3    3    0  502  0.50350764355E+03 -0.49686276476E+01 -0.18926868851E+03  0.53792869512E+03  0.10100000352E+00 0.  1.
</event>
<event>
 5   0  0.8305271E-04  0.1103045E+04  0.7818609E-02  0.9202229E-01
        1   -1    0    0  501    0  0.00000000000E+00  0.00000000000E+00  0.13116224726E+04  0.13116224726E+04  0.50400001928E-02 0. -1.
       -1   -1    0    0    0  501  0.00000000000E+00  0.00000000000E+00 -0.23190894682E+03  0.23190894688E+03  0.50400001928E-02 0.  1.
    10030    2    1    2    0    0  0.00000000000E+00  0.00000000000E+00  0.10797135257E+04  0.15435314194E+04  0.11030448518E+04 0.  0.
        5    1    3    3  502    0  0.30009957477E+01  0.22642427334E+02  0.13109323234E+04  0.13111397073E+04  0.46999998093E+01 0. -1.
       -5    1    3    3    0  502 -0.30009957477E+01 -0.22642427334E+02 -0.23121879766E+03  0.23239171216E+03  0.46999998093E+01 0.  1.
</event>
<event>
 5   0  0.8009636E-04  0.1100139E+04  0.7818609E-02  0.9205056E-01
        1   -1    0    0  501    0  0.00000000000E+00  0.00000000000E+00  0.12589656750E+04  0.12589656750E+04  0.50400001928E-02 0.  1.
       -1   -1    0    0    0  501  0.00000000000E+00  0.00000000000E+00 -0.24033732868E+03  0.24033732873E+03  0.50400001928E-02 0. -1.
    10030    2    1    2    0    0  0.00000000000E+00  0.00000000000E+00  0.10186283463E+04  0.14993030038E+04  0.11001389863E+04 0.  0.
        1    1    3    3  502    0  0.48973968878E+03  0.58250006023E+02  0.17733575625E+03  0.52410494792E+03  0.50400001928E-02 0.  1.
       -1    1    3    3    0  502 -0.48973968878E+03 -0.58250006023E+02  0.84129259008E+03  0.97519805584E+03  0.50400001928E-02 0. -1.
</event>
<event>
 5   0  0.8009636E-04  0.1099436E+04  0.7818609E-02  0.9205741E-01
       -1   -1    0    0    0  501  0.00000000000E+00  0.00000000000E+00  0.44875454495E+03  0.44875454498E+03  0.50400001928E-02 0. -1.
        1   -1    0    0  501    0  0.00000000000E+00  0.00000000000E+00 -0.67339721831E+03  0.67339721833E+03  0.50400001928E-02 0.  1.
    10030    2    1    2    0    0  0.00000000000E+00  0.00000000000E+00 -0.22464267336E+03  0.11221517633E+04  0.10994363325E+04 0.  0.
        1    1    3    3  502    0 -0.17753895504E+03  0.66701532613E+02  0.41430500033E+03  0.45565097205E+03  0.50400001928E-02 0. -1.
       -1    1    3    3    0  502  0.17753895504E+03 -0.66701532613E+02 -0.63894767369E+03  0.66650079126E+03  0.50400001928E-02 0.  1.
</event>
<event>
 5   0  0.1429680E-03  0.1066798E+04  0.7818609E-02  0.9238171E-01
        2   -1    0    0  501    0  0.00000000000E+00  0.00000000000E+00  0.12835139094E+04  0.12835139094E+04  0.25500000920E-02 0. -1.
       -2   -1    0    0    0  501  0.00000000000E+00  0.00000000000E+00 -0.22166846014E+03  0.22166846015E+03  0.25500000920E-02 0.  1.
    10030    2    1    2    0    0  0.00000000000E+00  0.00000000000E+00  0.10618454493E+04  0.15051823696E+04  0.10667981100E+04 0.  0.
        3    1    3    3  502    0  0.46288227466E+03  0.26494613025E+03  0.54167637449E+03  0.76017745100E+03  0.10100000352E+00 0.  1.
       -3    1    3    3    0  502 -0.46288227466E+03 -0.26494613025E+03  0.52016907478E+03  0.74500491856E+03  0.10100000352E+00 0. -1.
</event>
<event>
 5   0  0.8009636E-04  0.1102043E+04  0.7818609E-02  0.9203203E-01
       -1   -1    0    0    0  501  0.00000000000E+00  0.00000000000E+00  0.69684091593E+03  0.69684091595E+03  0.50400001928E-02 0.  1.
        1   -1    0    0  501    0  0.00000000000E+00  0.00000000000E+00 -0.43571587661E+03  0.43571587664E+03  0.50400001928E-02 0. -1.
    10030    2    1    2    0    0  0.00000000000E+00  0.00000000000E+00  0.26112503933E+03  0.11325567926E+04  0.11020429222E+04 0.  0.
        1    1    3    3  502    0  0.43621696319E+03  0.32661648803E+03  0.46687265884E+02  0.54693991448E+03  0.50400001928E-02 0.  1.
       -1    1    3    3    0  502 -0.43621696319E+03 -0.32661648803E+03  0.21443777344E+03  0.58561687811E+03  0.50400001928E-02 0. -1.
</event>
<event>
 5   0  0.8341767E-04  0.1159723E+04  0.7818609E-02  0.9148861E-01
       -1   -1    0    0    0  501  0.00000000000E+00  0.00000000000E+00  0.47267263715E+03  0.47267263717E+03  0.50400001928E-02 0.  1.
        1   -1    0    0  501    0  0.00000000000E+00  0.00000000000E+00 -0.71135741581E+03  0.71135741583E+03  0.50400001928E-02 0. -1.
    10030    2    1    2    0    0  0.00000000000E+00  0.00000000000E+00 -0.23868477867E+03  0.11840300530E+04  0.11597227008E+04 0.  0.
        2    1    3    3  502    0  0.52728652521E+03  0.23152158733E+03 -0.50053441889E+02  0.57804729229E+03  0.25500000920E-02 0. -1.
       -2    1    3    3    0  502 -0.52728652521E+03 -0.23152158733E+03 -0.18863133678E+03  0.60598276072E+03  0.25500000920E-02 0.  1.
</event>
<event>
 5   0  0.8305271E-04  0.1143020E+04  0.7818609E-02  0.9164247E-01
       -1   -1    0    0    0  501  0.00000000000E+00  0.00000000000E+00  0.25232072342E+03  0.25232072347E+03  0.50400001928E-02 0.  1.
        1   -1    0    0  501    0  0.00000000000E+00  0.00000000000E+00 -0.12944775241E+04  0.12944775241E+04  0.50400001928E-02 0. -1.
    10030    2    1    2    0    0  0.00000000000E+00  0.00000000000E+00 -0.10421568007E+04  0.15467982476E+04  0.11430196943E+04 0.  0.
        5    1    3    3  502    0 -0.53244708780E+03 -0.14458900716E+03 -0.72268871534E+03  0.90923426661E+03  0.46999998093E+01 0. -1.
       -5    1    3    3    0  502  0.53244708780E+03  0.14458900716E+03 -0.31946808536E+03  0.63756398099E+03  0.46999998093E+01 0.  1.
</event>
<event>
 5   0  0.1372794E-03  0.1097657E+04  0.7818609E-02  0.9207479E-01
       -2   -1    0    0    0  501  0.00000000000E+00  0.00000000000E+00  0.41618837246E+03  0.41618837247E+03  0.25500000920E-02 0. -1.
        2   -1    0    0  501    0  0.00000000000E+00  0.00000000000E+00 -0.72374106212E+03  0.72374106213E+03  0.25500000920E-02 0.  1.
    10030    2    1    2    0    0  0.00000000000E+00  0.00000000000E+00 -0.30755268966E+03  0.11399294346E+04  0.10976568038E+04 0.  0.
        4    1    3    3  502    0 -0.43620079820E+03 -0.21700383594E+03  0.10863893932E+03  0.49916513620E+03  0.12699999809E+01 0. -1.
       -4    1    3    3    0  502  0.43620079820E+03  0.21700383594E+03 -0.41619162898E+03  0.64076429839E+03  0.12699999809E+01 0.  1.
</event>
<event>
 5   0  0.1429680E-03  0.1108891E+04  0.7818609E-02  0.9196569E-01
        2   -1    0    0  501    0  0.00000000000E+00  0.00000000000E+00  0.15447677695E+04  0.15447677695E+04  0.25500000920E-02 0. -1.
       -2   -1    0    0    0  501  0.00000000000E+00  0.00000000000E+00 -0.19900077796E+03  0.19900077798E+03  0.25500000920E-02 0.  1.
    10030    2    1    2    0    0  0.00000000000E+00  0.00000000000E+00  0.13457669916E+04  0.17437685475E+04  0.11088913164E+04 0.  0.
        3    1    3    3  502    0 -0.51248065774E+03 -0.19091250654E+02  0.34149629366E+03  0.61613361310E+03  0.10100000352E+00 0.  1.
       -3    1    3    3    0  502  0.51248065774E+03  0.19091250654E+02  0.10042706979E+04  0.11276349344E+04  0.10100000352E+00 0. -1.
</event>
<event>
 5   0  0.7946038E-04  0.1092917E+04  0.7818609E-02  0.9212123E-01
        1   -1    0    0  501    0  0.00000000000E+00  0.00000000000E+00  0.30043669860E+03  0.30043669864E+03  0.50400001928E-02 0. -1.
       -1   -1    0    0    0  501  0.00000000000E+00  0.00000000000E+00 -0.99394355022E+03  0.99394355023E+03  0.50400001928E-02 0.  1.
    10030    2    1    2    0    0  0.00000000000E+00  0.00000000000E+00 -0.69350685162E+03  0.12943802489E+04  0.10929174147E+04 0.  0.
        4    1    3    3  502    0 -0.45548222137E+03  0.11366689519E+03 -0.15496647294E+02  0.46970839467E+03  0.12699999809E+01 0. -1.
       -4    1    3    3    0  502  0.45548222137E+03 -0.11366689519E+03 -0.67801020432E+03  0.82467185420E+03  0.12699999809E+01 0.  1.
</event>
<event>
 5   0  0.8341767E-04  0.1099852E+04  0.7818609E-02  0.9205337E-01
       -1   -1    0    0    0  501  0.00000000000E+00  0.00000000000E+00  0.83417558467E+03  0.83417558469E+03  0.50400001928E-02 0. -1.
        1   -1    0    0  501    0  0.00000000000E+00  0.00000000000E+00 -0.36253559850E+03  0.36253559854E+03  0.50400001928E-02 0.  1.
    10030    2    1    2    0    0  0.00000000000E+00  0.00000000000E+00  0.47163998617E+03  0.11967111832E+04  0.10998515261E+04 0.  0.
        2    1    3    3  502    0 -0.48495004712E+03 -0.21224884128E+03  0.39790980615E+03  0.66223736882E+03  0.25500000920E-02 0. -1.
       -2    1    3    3    0  502  0.48495004712E+03  0.21224884128E+03  0.73730180018E+02  0.53447381440E+03  0.25500000920E-02 0.  1.
</event>
<event>
 5   0  0.7946038E-04  0.1093215E+04  0.7818609E-02  0.9211830E-01
       -1   -1    0    0    0  501  0.00000000000E+00  0.00000000000E+00  0.14568120343E+04  0.14568120343E+04  0.50400001928E-02 0.  1.
        1   -1    0    0  501    0  0.00000000000E+00  0.00000000000E+00 -0.20509149988E+03  0.20509149994E+03  0.50400001928E-02 0. -1.
    10030    2    1    2    0    0  0.00000000000E+00  0.00000000000E+00  0.12517205344E+04  0.16619035342E+04  0.10932150113E+04 0.  0.
        4    1    3    3  502    0 -0.46628283186E+03  0.19491187409E+03  0.94244071765E+03  0.10693953605E+04  0.12699999809E+01 0.  1.
       -4    1    3    3    0  502  0.46628283186E+03 -0.19491187409E+03  0.30927981675E+03  0.59250817370E+03  0.12699999809E+01 0. -1.
</event>
<event>
 5   0  0.8009636E-04  0.1159197E+04  0.7818609E-02  0.9149341E-01
        1   -1    0    0  501    0  0.00000000000E+00  0.00000000000E+00  0.26325516016E+03  0.26325516021E+03  0.50400001928E-02 0.  1.
       -1   -1    0    0    0  501  0.00000000000E+00  0.00000000000E+00 -0.12760792901E+04  0.12760792901E+04  0.50400001928E-02 0. -1.
    10030    2    1    2    0    0  0.00000000000E+00  0.00000000000E+00 -0.10128241299E+04  0.15393344503E+04  0.11591970634E+04 0.  0.
        1    1    3    3  502    0 -0.23552192551E+03  0.21470210663E+03  0.13645894447E+03  0.34668229770E+03  0.50400001928E-02 0.  1.
       -1    1    3    3    0  502  0.23552192551E+03 -0.21470210663E+03 -0.11492830744E+04  0.11926521526E+04  0.50400001928E-02 0. -1.
</event>
<event>
 5   0  0.5409500E-04  0.1111242E+04  0.7818609E-02  0.9194303E-01
       -3   -1    0    0    0  501  0.00000000000E+00  0.00000000000E+00  0.16747736036E+04  0.16747736067E+04  0.10100000352E+00 0.  1.
        3   -1    0    0  501    0  0.00000000000E+00  0.00000000000E+00 -0.18433218254E+03  0.18433221021E+03  0.10100000352E+00 0. -1.
    10030    2    1    2    0    0  0.00000000000E+00  0.00000000000E+00  0.14904414211E+04  0.18591058169E+04  0.11112420118E+04 0.  0.
        4    1    3    3  502    0  0.36238783043E+03 -0.80300544762E+02  0.14369199085E+04  0.14840867742E+04  0.12699999809E+01 0.  1.
       -4    1    3    3    0  502 -0.36238783043E+03  0.80300544762E+02  0.53521512589E+02  0.37501904264E+03  0.12699999809E+01 0. -1.
</event>
<event>
 5   0  0.7946038E-04  0.1100128E+04  0.7818609E-02  0.9205067E-01
        1   -1    0    0  501    0  0.00000000000E+00  0.00000000000E+00  0.83844147823E+03  0.83844147825E+03  0.50400001928E-02 0. -1.
       -1   -1    0    0    0  501  0.00000000000E+00  0.00000000000E+00 -0.36087218717E+03  0.36087218720E+03  0.50400001928E-02 0.  1.
    10030    2    1    2    0    0  0.00000000000E+00  0.00000000000E+00  0.47756929107E+03  0.11993136654E+04  0.11001276473E+04 0.  0.
        4    1    3    3  502    0  0.22405302093E+03 -0.25362493048E+02 -0.30817260343E+03  0.38185727523E+03  0.12699999809E+01 0.  1.
       -4    1    3    3    0  502 -0.22405302093E+03  0.25362493048E+02  0.78574189449E+03  0.81745639022E+03  0.12699999809E+01 0. -1.
</event>
<event>
 5   0  0.1372794E-03  0.1100780E+04  0.7818609E-02  0.9204432E-01
       -2   -1    0    0    0  501  0.00000000000E+00  0.00000000000E+00  0.32864168002E+03  0.32864168003E+03  0.25500000920E-02 0. -1.
        2   -1    0    0  501    0  0.00000000000E+00  0.00000000000E+00 -0.92176148097E+03  0.92176148097E+03  0.25500000920E-02 0.  1.
    10030    2    1    2    0    0  0.00000000000E+00  0.00000000000E+00 -0.59311980095E+03  0.12504031610E+04  0.11007801628E+04 0.  0.
        4    1    3    3  502    0  0.31279133547E+03 -0.44459105313E+03 -0.39446054570E+03  0.67164005173E+03  0.12699999809E+01 0.  1.
       -4    1    3    3    0  502 -0.31279133547E+03  0.44459105313E+03 -0.19865925525E+03  0.57876310928E+03  0.12699999809E+01 0. -1.
</event>
<event>
 5   0  0.5409500E-04  0.1102974E+04  0.7818609E-02  0.9202298E-01
       -3   -1    0    0    0  501  0.00000000000E+00  0.00000000000E+00  0.34391053754E+03  0.34391055238E+03  0.10100000352E+00 0. -1.
        3   -1    0    0  501    0  0.00000000000E+00  0.00000000000E+00 -0.88435202156E+03  0.88435202732E+03  0.10100000352E+00 0.  1.
    10030    2    1    2    0    0  0.00000000000E+00  0.00000000000E+00 -0.54044148401E+03  0.12282625797E+04  0.11029741461E+04 0.  0.
        5    1    3    3  502    0 -0.16767934568E+03 -0.33719722889E+03  0.17840262829E+03  0.41673483406E+03  0.46999998093E+01 0. -1.
       -5    1    3    3    0  502  0.16767934568E+03  0.33719722889E+03 -0.71884411231E+03  0.81152774564E+03  0.46999998093E+01 0.  1.
</event>
<event>
 5   0  0.1372794E-03  0.1061545E+04  0.7818609E-02  0.9243505E-01
       -2   -1    0    0    0  501  0.00000000000E+00  0.00000000000E+00  0.19933843657E+03  0.19933843658E+03  0.25500000920E-02 0.  1.
        2   -1    0    0  501    0  0.00000000000E+00  0.00000000000E+00 -0.14132710244E+04  0.14132710244E+04  0.25500000920E-02 0. -1.
    10030    2    1    2    0    0  0.00000000000E+00  0.00000000000E+00 -0.12139325878E+04  0.16126094610E+04  0.10615446038E+04 0.  0.
        4    1    3    3  502    0  0.25493334409E+02  0.19538894867E+03 -0.13556468489E+04  0.13698929678E+04  0.12699999809E+01 0. -1.
       -4    1    3    3    0  502 -0.25493334409E+02 -0.19538894867E+03  0.14171426109E+03  0.24271649317E+03  0.12699999809E+01 0.  1.
</event>
<event>
 5   0  0.8009636E-04  0.1095707E+04  0.7818609E-02  0.9209386E-01
       -1   -1    0    0    0  501  0.00000000000E+00  0.00000000000E+00  0.52358729435E+03  0.52358729437E+03  0.50400001928E-02 0.  1.
        1   -1    0    0  501    0  0.00000000000E+00  0.00000000000E+00 -0.57324445885E+03  0.57324445887E+03  0.50400001928E-02 0. -1.
    10030    2    1    2    0    0  0.00000000000E+00  0.00000000000E+00 -0.49657164501E+02  0.10968317532E+04  0.10957071055E+04 0.  0.
        1    1    3    3  502    0 -0.11971971297E+03 -0.17395047831E+03  0.48121174165E+03  0.52550577438E+03  0.50400001928E-02 0.  1.
       -1    1    3    3    0  502  0.11971971297E+03  0.17395047831E+03 -0.53086890615E+03  0.57132597886E+03  0.50400001928E-02 0. -1.
</event>
<event>
 5   0  0.7946038E-04  0.1121946E+04  0.7818609E-02  0.9184062E-01
        1   -1    0    0  501    0  0.00000000000E+00  0.00000000000E+00  0.55398871749E+03  0.55398871751E+03  0.50400001928E-02 0. -1.
       -1   -1    0    0    0  501  0.00000000000E+00  0.00000000000E+00 -0.56804529322E+03  0.56804529324E+03  0.50400001928E-02 0.  1.
    10030    2    1    2    0    0  0.00000000000E+00  0.00000000000E+00 -0.14056575729E+02  0.11220340107E+04  0.11219459586E+04 0.  0.
        4    1    3    3  502    0 -0.31409944257E+03 -0.37027681746E+03 -0.28798749868E+03  0.56453679567E+03  0.12699999809E+01 0.  1.
       -4    1    3    3    0  502  0.31409944257E+03  0.37027681746E+03  0.27393092295E+03  0.55749721508E+03  0.12699999809E+01 0. -1.
</event>
<event>
 5   0  0.1372794E-03  0.1133250E+04  0.7818609E-02  0.9173377E-01
       -2   -1    0    0    0  501  0.00000000000E+00  0.00000000000E+00  0.59503064514E+03  0.59503064515E+03  0.25500000920E-02 0. -1.
        2   -1    0    0  501    0  0.00000000000E+00  0.00000000000E+00 -0.53957543489E+03  0.53957543489E+03  0.25500000920E-02 0.  1.
    10030    2    1    2    0    0  0.00000000000E+00  0.00000000000E+00  0.55455210256E+02  0.11346060800E+04  0.11332500503E+04 0.  0.
        4    1    3    3  502    0  0.43039905953E+03  0.84424828997E+02 -0.33143749429E+03  0.54974842220E+03  0.12699999809E+01 0.  1.
       -4    1    3    3    0  502 -0.43039905953E+03 -0.84424828997E+02  0.38689270455E+03  0.58485765783E+03  0.12699999809E+01 0. -1.
</event>
<event>
 5   0  0.1372794E-03  0.1100097E+04  0.7818609E-02  0.9205097E-01
        2   -1    0    0  501    0  0.00000000000E+00  0.00000000000E+00  0.11403837026E+04  0.11403837026E+04  0.25500000920E-02 0. -1.
       -2   -1    0    0    0  501  0.00000000000E+00  0.00000000000E+00 -0.26530841203E+03  0.26530841204E+03  0.25500000920E-02 0.  1.
    10030    2    1    2    0    0  0.00000000000E+00  0.00000000000E+00  0.87507529060E+03  0.14056921147E+04  0.11000970671E+04 0.  0.
        4    1    3    3  502    0  0.53927011829E+03 -0.10648210399E+03  0.46312782310E+03  0.71877652464E+03  0.12699999809E+01 0. -1.
       -4    1    3    3    0  502 -0.53927011829E+03  0.10648210399E+03  0.41194746750E+03  0.68691559003E+03  0.12699999809E+01 0.  1.
</event>
<event>
 5   0  0.1402775E-03  0.1036907E+04  0.7818609E-02  0.9268968E-01
        2   -1    0    0  501    0  0.00000000000E+00  0.00000000000E+00  0.54171253830E+03  0.54171253831E+03  0.25500000920E-02 0.  1.
       -2   -1    0    0    0  501  0.00000000000E+00  0.00000000000E+00 -0.49619270052E+03  0.49619270053E+03  0.25500000920E-02 0. -1.
    10030    2    1    2    0    0  0.00000000000E+00  0.00000000000E+00  0.45519837778E+02  0.10379052388E+04  0.10369065672E+04 0.  0.
        5    1    3    3  502    0 -0.82141338665E+01 -0.49565196921E+02 -0.49372884512E+03  0.49630075885E+03  0.46999998093E+01 0. -1.
       -5    1    3    3    0  502  0.82141338665E+01  0.49565196921E+02  0.53924868289E+03  0.54160447999E+03  0.46999998093E+01 0.  1.
</event>
<event>
 5   0  0.1425432E-03  0.1098886E+04  0.7818609E-02  0.9206278E-01
       -2   -1    0    0    0  501  0.00000000000E+00  0.00000000000E+00  0.47648070766E+03  0.47648070767E+03  0.25500000920E-02 0.  1.
        2   -1    0    0  501    0  0.00000000000E+00  0.00000000000E+00 -0.63357820905E+03  0.63357820906E+03  0.25500000920E-02 0. -1.
    10030    2    1    2    0    0  0.00000000000E+00  0.00000000000E+00 -0.15709750139E+03  0.11100589167E+04  0.10988863334E+04 0.  0.
        1    1    3    3  502    0  0.89706858247E+02  0.31009234592E+03  0.37058754191E+03  0.49146689579E+03  0.50400001928E-02 0.  1.
       -1    1    3    3    0  502 -0.89706858247E+02 -0.31009234592E+03 -0.52768504330E+03  0.61859202093E+03  0.50400001928E-02 0. -1.
</event>
<event>
 5   0  0.8305271E-04  0.1100178E+04  0.7818609E-02  0.9205019E-01
       -1   -1    0    0    0  501  0.00000000000E+00  0.00000000000E+00  0.27681127494E+03  0.27681127498E+03  0.50400001928E-02 0.  1.
        1   -1    0    0  501    0  0.00000000000E+00  0.00000000000E+00 -0.10931554506E+04  0.10931554506E+04  0.50400001928E-02 0. -1.
    10030    2    1    2    0    0  0.00000000000E+00  0.00000000000E+00 -0.81634417565E+03  0.13699667256E+04  0.11001777202E+04 0.  0.
        5    1    3    3  502    0 -0.41745732160E+03 -0.39637049568E+02 -0.85146793594E+03  0.94913721189E+03  0.46999998093E+01 0. -1.
       -5    1    3    3    0  502  0.41745732160E+03  0.39637049568E+02  0.35123760295E+02  0.42082951369E+03  0.46999998093E+01 0.  1.
</event>
<event>
 5   0  0.1402775E-03  0.1100622E+04  0.7818609E-02  0.9204585E-01
        2   -1    0    0  501    0  0.00000000000E+00  0.00000000000E+00  0.81994334861E+03  0.81994334861E+03  0.25500000920E-02 0. -1.
       -2   -1    0    0    0  501  0.00000000000E+00  0.00000000000E+00 -0.36934552090E+03  0.36934552090E+03  0.25500000920E-02 0.  1.
    10030    2    1    2    0    0  0.00000000000E+00  0.00000000000E+00  0.45059782771E+03  0.11892888695E+04  0.11006223752E+04 0.  0.
        5    1    3    3  502    0  0.49897278241E+03  0.93122584794E+02  0.45496478465E+03  0.68166025163E+03  0.46999998093E+01 0. -1.
       -5    1    3    3    0  502 -0.49897278241E+03 -0.93122584794E+02 -0.43669569318E+01  0.50762861789E+03  0.46999998093E+01 0.  1.
</event>
<event>
 5   0  0.5409500E-04  0.1098235E+04  0.7818609E-02  0.9206914E-01
       -4   -1    0    0    0  501  0.00000000000E+00  0.00000000000E+00  0.11237845673E+04  0.11237852849E+04  0.12699999809E+01 0.  1.
        4   -1    0    0  501    0  0.00000000000E+00  0.00000000000E+00 -0.26831413288E+03  0.26831713848E+03  0.12699999809E+01 0. -1.
    10030    2    1    2    0    0  0.00000000000E+00  0.00000000000E+00  0.85547043444E+03  0.13921024234E+04  0.10982347168E+04 0.  0.
        5    1    3    3  502    0  0.39500274780E+02  0.40753597855E+03 -0.36036836378E+02  0.41105545745E+03  0.46999998093E+01 0. -1.
       -5    1    3    3    0  502 -0.39500274780E+02 -0.40753597855E+03  0.89150727082E+03  0.98104696597E+03  0.46999998093E+01 0.  1.
</event>
<event>
 5   0  0.1402775E-03  0.1107184E+04  0.7818609E-02  0.9198218E-01
        2   -1    0    0  501    0  0.00000000000E+00  0.00000000000E+00  0.16644097914E+04  0.16644097915E+04  0.25500000920E-02 0. -1.
       -2   -1    0    0    0  501  0.00000000000E+00  0.00000000000E+00 -0.18412792279E+03  0.18412792281E+03  0.25500000920E-02 0.  1.
    10030    2    1    2    0    0  0.00000000000E+00  0.00000000000E+00  0.14802818687E+04  0.18485377143E+04  0.11071843886E+04 0.  0.
        5    1    3    3  502    0 -0.24050487466E+02 -0.44315439268E+03  0.18771792231E+03  0.48189661760E+03  0.46999998093E+01 0.  1.
       -5    1    3    3    0  502  0.24050487466E+02  0.44315439268E+03  0.12925639463E+04  0.13666410967E+04  0.46999998093E+01 0. -1.
</event>
<event>
 5   0  0.8150924E-04  0.1100968E+04  0.7818609E-02  0.9204249E-01
       -1   -1    0    0    0  501  0.00000000000E+00  0.00000000000E+00  0.25998285299E+03  0.25998285304E+03  0.50400001928E-02 0. -1.
        1   -1    0    0  501    0  0.00000000000E+00  0.00000000000E+00 -0.11655874664E+04  0.11655874664E+04  0.50400001928E-02 0.  1.
    10030    2    1    2    0    0  0.00000000000E+00  0.00000000000E+00 -0.90560461345E+03  0.14255703195E+04  0.11009682193E+04 0.  0.
        3    1    3    3  502    0 -0.41368811874E+00  0.17030587679E+03 -0.11306181478E+04  0.11433729353E+04  0.10100000352E+00 0.  1.
       -3    1    3    3    0  502  0.41368811874E+00 -0.17030587679E+03  0.22501353435E+03  0.28219738420E+03  0.10100000352E+00 0. -1.
</event>
<event>
 5   0  0.7946038E-04  0.1096756E+04  0.7818609E-02  0.9208360E-01
        1   -1    0    0  501    0  0.00000000000E+00  0.00000000000E+00  0.12159582715E+04  0.12159582715E+04  0.50400001928E-02 0.  1.
       -1   -1    0    0    0  501  0.00000000000E+00  0.00000000000E+00 -0.24730973006E+03  0.24730973011E+03  0.50400001928E-02 0. -1.
    10030    2    1    2    0    0  0.00000000000E+00  0.00000000000E+00  0.96864854143E+03  0.14632680016E+04  0.10967557831E+04 0.  0.
        4    1    3    3  502    0  0.53033882687E+03 -0.13910239099E+03  0.47046212554E+03  0.72245759109E+03  0.12699999809E+01 0. -1.
       -4    1    3    3    0  502 -0.53033882687E+03  0.13910239099E+03  0.49818641590E+03  0.74081041053E+03  0.12699999809E+01 0.  1.
</event>
<event>
 5   0  0.8150924E-04  0.1102491E+04  0.7818609E-02  0.9202767E-01
        1   -1    0    0  501    0  0.00000000000E+00  0.00000000000E+00  0.10940062986E+04  0.10940062986E+04  0.50400001928E-02 0.  1.
       -1   -1    0    0    0  501  0.00000000000E+00  0.00000000000E+00 -0.27776038506E+03  0.27776038511E+03  0.50400001928E-02 0. -1.
    10030    2    1    2    0    0  0.00000000000E+00  0.00000000000E+00  0.81624591350E+03  0.13717666837E+04  0.11024910173E+04 0.  0.
        3    1    3    3  502    0  0.20576348529E+03  0.45184972671E+03  0.70613099803E+03  0.86320784519E+03  0.10100000352E+00 0. -1.
       -3    1    3    3    0  502 -0.20576348529E+03 -0.45184972671E+03  0.11011491547E+03  0.50855883850E+03  0.10100000352E+00 0.  1.
</event>
<event>
 5   0  0.8150924E-04  0.1100005E+04  0.7818609E-02  0.9205187E-01
       -1   -1    0    0    0  501  0.00000000000E+00  0.00000000000E+00  0.13785376247E+03  0.13785376256E+03  0.50400001928E-02 0. -1.
        1   -1    0    0  501    0  0.00000000000E+00  0.00000000000E+00 -0.21943739868E+04  0.21943739868E+04  0.50400001928E-02 0.  1.
    10030    2    1    2    0    0  0.00000000000E+00  0.00000000000E+00 -0.20565202243E+04  0.23322277494E+04  0.11000049281E+04 0.  0.
        3    1    3    3  502    0 -0.54100958564E+02  0.48006101663E+03 -0.47085696411E+03  0.67460490975E+03  0.10100000352E+00 0. -1.
       -3    1    3    3    0  502  0.54100958564E+02 -0.48006101663E+03 -0.15856632602E+04  0.16576228396E+04  0.10100000352E+00 0.  1.
</event>
<event>
 5   0  0.1396936E-03  0.1094344E+04  0.7818609E-02  0.9210722E-01
        2   -1    0    0  501    0  0.00000000000E+00  0.00000000000E+00  0.17201971438E+04  0.17201971438E+04  0.25500000920E-02 0.  1.
       -2   -1    0    0    0  501  0.00000000000E+00  0.00000000000E+00 -0.17404829040E+03  0.17404829042E+03  0.25500000920E-02 0. -1.
    10030    2    1    2    0    0  0.00000000000E+00  0.00000000000E+00  0.15461488534E+04  0.18942454342E+04  0.10943443188E+04 0.  0.
        2    1    3    3  502    0 -0.11021772787E+03  0.43198099646E+02  0.16977653109E+04  0.17018875034E+04  0.25500000920E-02 0.  1.
       -2    1    3    3    0  502  0.11021772787E+03 -0.43198099646E+02 -0.15161645751E+03  0.19235793080E+03  0.25500000920E-02 0. -1.
</event>
<event>
 5   0  0.8305271E-04  0.1101367E+04  0.7818609E-02  0.9203861E-01
       -1   -1    0    0    0  501  0.00000000000E+00  0.00000000000E+00  0.15591962582E+03  0.15591962590E+03  0.50400001928E-02 0. -1.
        1   -1    0    0  501    0  0.00000000000E+00  0.00000000000E+00 -0.19449271188E+04  0.19449271188E+04  0.50400001928E-02 0.  1.
    10030    2    1    2    0    0  0.00000000000E+00  0.00000000000E+00 -0.17890074930E+04  0.21008467447E+04  0.11013669846E+04 0.  0.
        5    1    3    3  502    0  0.62376186974E+00  0.52333990439E+03 -0.12212650830E+04  0.13286818797E+04  0.46999998093E+01 0.  1.
       -5    1    3    3    0  502 -0.62376186974E+00 -0.52333990439E+03 -0.56774241001E+03  0.77216486499E+03  0.46999998093E+01 0. -1.
</event>
<event>
 5   0  0.8341767E-04  0.1102481E+04  0.7818609E-02  0.9202777E-01
        1   -1    0    0  501    0  0.00000000000E+00  0.00000000000E+00  0.81124104470E+03  0.81124104471E+03  0.50400001928E-02 0.  1.
       -1   -1    0    0    0  501  0.00000000000E+00  0.00000000000E+00 -0.37456973476E+03  0.37456973480E+03  0.50400001928E-02 0. -1.
    10030    2    1    2    0    0  0.00000000000E+00  0.00000000000E+00  0.43667130993E+03  0.11858107795E+04  0.11024814610E+04 0.  0.
        2    1    3    3  502    0 -0.96967227740E+02 -0.18548270118E+03  0.76684087745E+03  0.79489081453E+03  0.25500000920E-02 0.  1.
       -2    1    3    3    0  502  0.96967227740E+02  0.18548270118E+03 -0.33016956752E+03  0.39091996497E+03  0.25500000920E-02 0. -1.
</event>
<event>
 5   0  0.8150924E-04  0.1096023E+04  0.7818609E-02  0.9209077E-01
        1   -1    0    0  501    0  0.00000000000E+00  0.00000000000E+00  0.42934027040E+03  0.42934027043E+03  0.50400001928E-02 0. -1.
       -1   -1    0    0    0  501  0.00000000000E+00  0.00000000000E+00 -0.69948392922E+03  0.69948392924E+03  0.50400001928E-02 0.  1.
    10030    2    1    2    0    0  0.00000000000E+00  0.00000000000E+00 -0.27014365882E+03  0.11288241997E+04  0.10960230278E+04 0.  0.
        3    1    3    3  502    0 -0.39944831691E+03  0.34242200177E+03 -0.29297292150E+03  0.60220007316E+03  0.10100000352E+00 0.  1.
       -3    1    3    3    0  502  0.39944831691E+03 -0.34242200177E+03  0.22829262681E+02  0.52662412651E+03  0.10100000352E+00 0. -1.
</event>
<event>
 5   0  0.1425432E-03  0.1062552E+04  0.7818609E-02  0.9242480E-01
       -2   -1    0    0    0  501  0.00000000000E+00  0.00000000000E+00  0.29689793261E+03  0.29689793262E+03  0.25500000920E-02 0.  1.
        2   -1    0    0  501    0  0.00000000000E+00  0.00000000000E+00 -0.95067759190E+03  0.95067759191E+03  0.25500000920E-02 0. -1.
    10030    2    1    2    0    0  0.00000000000E+00  0.00000000000E+00 -0.65377965930E+03  0.12475755245E+04  0.10625520441E+04 0.  0.
        1    1    3    3  502    0 -0.22699204590E+03  0.42934055004E+03 -0.73986449558E+02  0.49125623818E+03  0.50400001928E-02 0.  1.
       -1    1    3    3    0  502  0.22699204590E+03 -0.42934055004E+03 -0.57979320974E+03  0.75631928634E+03  0.50400001928E-02 0. -1.
</event>
<event>
 5   0  0.1396936E-03  0.1099753E+04  0.7818609E-02  0.9205432E-01
       -2   -1    0    0    0  501  0.00000000000E+00  0.00000000000E+00  0.25019247821E+03  0.25019247822E+03  0.25500000920E-02 0.  1.
        2   -1    0    0  501    0  0.00000000000E+00  0.00000000000E+00 -0.12085271711E+04  0.12085271711E+04  0.25500000920E-02 0. -1.
    10030    2    1    2    0    0  0.00000000000E+00  0.00000000000E+00 -0.95833469286E+03  0.14587196493E+04  0.10997534413E+04 0.  0.
        2    1    3    3  502    0 -0.19562577264E+02  0.53538908658E+03 -0.64345032669E+03  0.83728877419E+03  0.25500000920E-02 0. -1.
       -2    1    3    3    0  502  0.19562577264E+02 -0.53538908658E+03 -0.31488436617E+03  0.62143087510E+03  0.25500000920E-02 0.  1.
</event>
<event>
 5   0  0.8150924E-04  0.1103500E+04  0.7818609E-02  0.9201787E-01
       -1   -1    0    0    0  501  0.00000000000E+00  0.00000000000E+00  0.54202829098E+03  0.54202829100E+03  0.50400001928E-02 0. -1.
        1   -1    0    0  501    0  0.00000000000E+00  0.00000000000E+00 -0.56164639494E+03  0.56164639496E+03  0.50400001928E-02 0.  1.
    10030    2    1    2    0    0  0.00000000000E+00  0.00000000000E+00 -0.19618103955E+02  0.11036746860E+04  0.11035003137E+04 0.  0.
        3    1    3    3  502    0  0.55723371124E+02  0.50634681113E+03  0.20220566601E+03  0.54806872635E+03  0.10100000352E+00 0. -1.
       -3    1    3    3    0  502 -0.55723371124E+02 -0.50634681113E+03 -0.22182376996E+03  0.55560595961E+03  0.10100000352E+00 0.  1.
</event>
<event>
 5   0  0.1425432E-03  0.1090805E+04  0.7818609E-02  0.9214201E-01
       -2   -1    0    0    0  501  0.00000000000E+00  0.00000000000E+00  0.32409982917E+03  0.32409982918E+03  0.25500000920E-02 0.  1.
        2   -1    0    0  501    0  0.00000000000E+00  0.00000000000E+00 -0.91781490335E+03  0.91781490336E+03  0.25500000920E-02 0. -1.
    10030    2    1    2    0    0  0.00000000000E+00  0.00000000000E+00 -0.59371507418E+03  0.12419147325E+04  0.10908045717E+04 0.  0.
        1    1    3    3  502    0 -0.45753703781E+03 -0.22788616590E+03 -0.80262965456E+02  0.51741123802E+03  0.50400001928E-02 0. -1.
       -1    1    3    3    0  502  0.45753703781E+03  0.22788616590E+03 -0.51345210873E+03  0.72450349452E+03  0.50400001928E-02 0.  1.
</event>
<event>
 5   0  0.8009636E-04  0.1104270E+04  0.7818609E-02  0.9201040E-01
       -1   -1    0    0    0  501  0.00000000000E+00  0.00000000000E+00  0.26119043339E+03  0.26119043343E+03  0.50400001928E-02 0. -1.
        1   -1    0    0  501    0  0.00000000000E+00  0.00000000000E+00 -0.11671668437E+04  0.11671668438E+04  0.50400001928E-02 0.  1.
    10030    2    1    2    0    0  0.00000000000E+00  0.00000000000E+00 -0.90597641035E+03  0.14283572772E+04  0.11042695573E+04 0.  0.
        1    1    3    3  502    0 -0.45305490235E+03  0.26581092657E+03 -0.23294869743E+03  0.57461229441E+03  0.50400001928E-02 0. -1.
       -1    1    3    3    0  502  0.45305490235E+03 -0.26581092657E+03 -0.67302771292E+03  0.85374498277E+03  0.50400001928E-02 0.  1.
</event>
<event>
 5   0  0.8150924E-04  0.1097894E+04  0.7818609E-02  0.9207247E-01
       -1   -1    0    0    0  501  0.00000000000E+00  0.00000000000E+00  0.58692004501E+03  0.58692004503E+03  0.50400001928E-02 0.  1.
        1   -1    0    0  501    0  0.00000000000E+00  0.00000000000E+00 -0.51343089049E+03  0.51343089051E+03  0.50400001928E-02 0. -1.
    10030    2    1    2    0    0  0.00000000000E+00  0.00000000000E+00  0.73489154522E+02  0.11003509355E+04  0.10978941322E+04 0.  0.
        3    1    3    3  502    0 -0.38147871695E+03  0.16049112998E+03  0.39818916094E+03  0.57431527263E+03  0.10100000352E+00 0.  1.
       -3    1    3    3    0  502  0.38147871695E+03 -0.16049112998E+03 -0.32470000642E+03  0.52603566291E+03  0.10100000352E+00 0. -1.
</event>
<event>
 5   0  0.1372794E-03  0.1100192E+04  0.7818609E-02  0.9205005E-01
        2   -1    0    0  501    0  0.00000000000E+00  0.00000000000E+00  0.10294767164E+04  0.10294767164E+04  0.25500000920E-02 0.  1.
       -2   -1    0    0    0  501  0.00000000000E+00  0.00000000000E+00 -0.29394124855E+03  0.29394124856E+03  0.25500000920E-02 0. -1.
    10030    2    1    2    0    0  0.00000000000E+00  0.00000000000E+00  0.73553546784E+03  0.13234179650E+04  0.11001921130E+04 0.  0.
        4    1    3    3  502    0  0.14883457014E+03  0.52471189501E+03  0.45392201671E+03  0.70959221542E+03  0.12699999809E+01 0.  1.
       -4    1    3    3    0  502 -0.14883457014E+03 -0.52471189501E+03  0.28161345112E+03  0.61382574953E+03  0.12699999809E+01 0. -1.
</event>
<event>
 5   0  0.5409500E-04  0.1095521E+04  0.7818609E-02  0.9209569E-01
       -4   -1    0    0    0  501  0.00000000000E+00  0.00000000000E+00  0.17249760067E+04  0.17249764742E+04  0.12699999809E+01 0. -1.
        4   -1    0    0  501    0  0.00000000000E+00  0.00000000000E+00 -0.17393659786E+03  0.17394123425E+03  0.12699999809E+01 0.  1.
    10030    2    1    2    0    0  0.00000000000E+00  0.00000000000E+00  0.15510394088E+04  0.18989177084E+04  0.10955205227E+04 0.  0.
        2    1    3    3  502    0 -0.42055745159E+03 -0.16980059983E+03  0.24312381836E+03  0.51459693435E+03  0.25500000920E-02 0.  1.
       -2    1    3    3    0  502  0.42055745159E+03  0.16980059983E+03  0.13079155904E+04  0.13843207741E+04  0.25500000920E-02 0. -1.
</event>
<event>
 5   0  0.5409500E-04  0.1092994E+04  0.7818609E-02  0.9212047E-01
       -3   -1    0    0    0  501  0.00000000000E+00  0.00000000000E+00  0.95577289585E+03  0.95577290119E+03  0.10100000352E+00 0.  1.
        3   -1    0    0  501    0  0.00000000000E+00  0.00000000000E+00 -0.31247905060E+03  0.31247906692E+03  0.10100000352E+00 0. -1.
    10030    2    1    2    0    0  0.00000000000E+00  0.00000000000E+00  0.64329384525E+03  0.12682519681E+04  0.10929940911E+04 0.  0.
        1    1    3    3  502    0  0.48306195614E+02  0.37899243094E+03  0.77505934205E+03  0.86410979335E+03  0.50400001928E-02 0.  1.
       -1    1    3    3    0  502 -0.48306195614E+02 -0.37899243094E+03 -0.13176549680E+03  0.40414217475E+03  0.50400001928E-02 0. -1.
</event>
<event>
 5   0  0.1425432E-03  0.1097270E+04  0.7818609E-02  0.9207857E-01
       -2   -1    0    0    0  501  0.00000000000E+00  0.00000000000E+00  0.12059448052E+03  0.12059448054E+03  0.25500000920E-02 0.  1.
        2   -1    0    0  501    0  0.00000000000E+00  0.00000000000E+00 -0.24959711818E+04  0.24959711818E+04  0.25500000920E-02 0. -1.
    10030    2    1    2    0    0  0.00000000000E+00  0.00000000000E+00 -0.23753767013E+04  0.26165656623E+04  0.10972699724E+04 0.  0.
        1    1    3    3  502    0 -0.31226121372E+03 -0.44397623574E+03 -0.13781350689E+04  0.14811746121E+04  0.50400001928E-02 0. -1.
       -1    1    3    3    0  502  0.31226121372E+03  0.44397623574E+03 -0.99724163238E+03  0.11353910502E+04  0.50400001928E-02 0.  1.
</event>
<event>
 5   0  0.1402775E-03  0.1101841E+04  0.7818609E-02  0.9203399E-01
        2   -1    0    0  501    0  0.00000000000E+00  0.00000000000E+00  0.23186984469E+04  0.23186984469E+04  0.25500000920E-02 0.  1.
       -2   -1    0    0    0  501  0.00000000000E+00  0.00000000000E+00 -0.13089821814E+03  0.13089821817E+03  0.25500000920E-02 0. -1.
    10030    2    1    2    0    0  0.00000000000E+00  0.00000000000E+00  0.21878002288E+04  0.24495966651E+04  0.11018411776E+04 0.  0.
        5    1    3    3  502    0 -0.28561555711E+03 -0.19490773452E+03  0.14045147281E+03  0.37324787695E+03  0.46999998093E+01 0. -1.
       -5    1    3    3    0  502  0.28561555711E+03  0.19490773452E+03  0.20473487559E+04  0.20763487881E+04  0.46999998093E+01 0.  1.
</event>
<event>
 5   0  0.1372794E-03  0.1100211E+04  0.7818609E-02  0.9204986E-01
        2   -1    0    0  501    0  0.00000000000E+00  0.00000000000E+00  0.74765946762E+03  0.74765946763E+03  0.25500000920E-02 0.  1.
       -2   -1    0    0    0  501  0.00000000000E+00  0.00000000000E+00 -0.40475127067E+03  0.40475127068E+03  0.25500000920E-02 0. -1.
    10030    2    1    2    0    0  0.00000000000E+00  0.00000000000E+00  0.34290819695E+03  0.11524107383E+04  0.11002111062E+04 0.  0.
        4    1    3    3  502    0  0.75905964967E+02 -0.29943482949E+03  0.64823331609E+03  0.71807449309E+03  0.12699999809E+01 0.  1.
       -4    1    3    3    0  502 -0.75905964967E+02  0.29943482949E+03 -0.30532511915E+03  0.43433624522E+03  0.12699999809E+01 0. -1.
</event>
<event>
 5   0  0.8150924E-04  0.1101952E+04  0.7818609E-02  0.9203291E-01
       -1   -1    0    0    0  501  0.00000000000E+00  0.00000000000E+00  0.21109611696E+03  0.21109611702E+03  0.50400001928E-02 0.  1.
        1   -1    0    0  501    0  0.00000000000E+00  0.00000000000E+00 -0.14380873120E+04  0.14380873121E+04  0.50400001928E-02 0. -1.
    10030    2    1    2    0    0  0.00000000000E+00  0.00000000000E+00 -0.12269911951E+04  0.16491834291E+04  0.11019521722E+04 0.  0.
        3    1    3    3  502    0 -0.42835271332E+03  0.76751222770E+02 -0.10774644709E+03  0.44831473796E+03  0.10100000352E+00 0.  1.
       -3    1    3    3    0  502  0.42835271332E+03 -0.76751222770E+02 -0.11192447480E+04  0.12008686911E+04  0.10100000352E+00 0. -1.
</event>
<event>
 5   0  0.8150924E-04  0.1099629E+04  0.7818609E-02  0.9205553E-01
        1   -1    0    0  501    0  0.00000000000E+00  0.00000000000E+00  0.14771957625E+04  0.14771957625E+04  0.50400001928E-02 0.  1.
       -1   -1    0    0    0  501  0.00000000000E+00  0.00000000000E+00 -0.20464185759E+03  0.20464185766E+03  0.50400001928E-02 0. -1.
    10030    2    1    2    0    0  0.00000000000E+00  0.00000000000E+00  0.12725539049E+04  0.16818376202E+04  0.10996291828E+04 0.  0.
        3    1    3    3  502    0  0.97921626798E+02 -0.31859114266E+03  0.13050670415E+04  0.13469554388E+04  0.10100000352E+00 0.  1.
       -3    1    3    3    0  502 -0.97921626798E+02  0.31859114266E+03 -0.32513136519E+02  0.33488218141E+03  0.10100000352E+00 0. -1.
</event>
<event>
 5   0  0.1429680E-03  0.1100191E+04  0.7818609E-02  0.9205006E-01
        2   -1    0    0  501    0  0.00000000000E+00  0.00000000000E+00  0.13718654841E+04  0.13718654841E+04  0.25500000920E-02 0.  1.
       -2   -1    0    0    0  501  0.00000000000E+00  0.00000000000E+00 -0.22057906610E+03  0.22057906611E+03  0.25500000920E-02 0. -1.
    10030    2    1    2    0    0  0.00000000000E+00  0.00000000000E+00  0.11512864180E+04  0.15924445502E+04  0.11001905422E+04 0.  0.
        3    1    3    3  502    0 -0.34210771122E+02  0.21673587176E+03  0.13057832365E+04  0.13240901351E+04  0.10100000352E+00 0.  1.
       -3    1    3    3    0  502  0.34210771122E+02 -0.21673587176E+03 -0.15449681851E+03  0.26835441509E+03  0.10100000352E+00 0. -1.
</event>
<event>
 5   0  0.1372794E-03  0.1096144E+04  0.7818609E-02  0.9208958E-01
       -2   -1    0    0    0  501  0.00000000000E+00  0.00000000000E+00  0.54269679712E+03  0.54269679712E+03  0.25500000920E-02 0. -1.
        2   -1    0    0  501    0  0.00000000000E+00  0.00000000000E+00 -0.55350088483E+03  0.55350088483E+03  0.25500000920E-02 0.  1.
    10030    2    1    2    0    0  0.00000000000E+00  0.00000000000E+00 -0.10804087713E+02  0.10961976820E+04  0.10961444383E+04 0.  0.
        4    1    3    3  502    0 -0.16679494323E+03 -0.48965705570E+03  0.17570606041E+03  0.54631384556E+03  0.12699999809E+01 0.  1.
       -4    1    3    3    0  502  0.16679494323E+03  0.48965705570E+03 -0.18651014812E+03  0.54988383640E+03  0.12699999809E+01 0. -1.
</event>
<event>
 5   0  0.8341767E-04  0.1105541E+04  0.7818609E-02  0.9199808E-01
        1   -1    0    0  501    0  0.00000000000E+00  0.00000000000E+00  0.23043485039E+03  0.23043485045E+03  0.50400001928E-02 0. -1.
       -1   -1    0    0    0  501  0.00000000000E+00  0.00000000000E+00 -0.13259947144E+04  0.13259947144E+04  0.50400001928E-02 0.  1.
    10030    2    1    2    0    0  0.00000000000E+00  0.00000000000E+00 -0.10955598640E+04  0.15564295648E+04  0.11055413039E+04 0.  0.
        2    1    3    3  502    0 -0.37512170574E+03  0.24581213633E+03 -0.10027019647E+04  0.10984312134E+04  0.25500000920E-02 0.  1.
       -2    1    3    3    0  502  0.37512170574E+03 -0.24581213633E+03 -0.92857899293E+02  0.45799835147E+03  0.25500000920E-02 0. -1.
</event>
<event>
 5   0  0.8009636E-04  0.1095519E+04  0.7818609E-02  0.9209570E-01
        1   -1    0    0  501    0  0.00000000000E+00  0.00000000000E+00  0.17832695794E+04  0.17832695794E+04  0.50400001928E-02 0. -1.
       -1   -1    0    0    0  501  0.00000000000E+00  0.00000000000E+00 -0.16825301450E+03  0.16825301457E+03  0.50400001928E-02 0.  1.
    10030    2    1    2    0    0  0.00000000000E+00  0.00000000000E+00  0.16150165649E+04  0.19515225940E+04  0.10955190231E+04 0.  0.
        1    1    3    3  502    0  0.34387655854E+03  0.40375260752E+03  0.10515831850E+04  0.11777497403E+04  0.50400001928E-02 0. -1.
       -1    1    3    3    0  502 -0.34387655854E+03 -0.40375260752E+03  0.56343337985E+03  0.77377285372E+03  0.50400001928E-02 0.  1.
</event>
<event>
 5   0  0.8341767E-04  0.1108264E+04  0.7818609E-02  0.9197175E-01
        1   -1    0    0  501    0  0.00000000000E+00  0.00000000000E+00  0.10639573915E+04  0.10639573915E+04  0.50400001928E-02 0. -1.
       -1   -1    0    0    0  501  0.00000000000E+00  0.00000000000E+00 -0.28860380003E+03  0.28860380007E+03  0.50400001928E-02 0.  1.
    10030    2    1    2    0    0  0.00000000000E+00  0.00000000000E+00  0.77535359150E+03  0.13525611916E+04  0.11082637706E+04 0.  0.
        2    1    3    3  502    0 -0.30899420458E+03  0.44316737899E+03  0.23727413104E+03  0.59006250307E+03  0.25500000920E-02 0.  1.
       -2    1    3    3    0  502  0.30899420458E+03 -0.44316737899E+03  0.53807946047E+03  0.76249868855E+03  0.25500000920E-02 0. -1.
</event>
<event>
 5   0  0.5409500E-04  0.1099044E+04  0.7818609E-02  0.9206125E-01
       -3   -1    0    0    0  501  0.00000000000E+00  0.00000000000E+00  0.10332232662E+04  0.10332232711E+04  0.10100000352E+00 0.  1.
        3   -1    0    0  501    0  0.00000000000E+00  0.00000000000E+00 -0.29226419149E+03  0.29226420894E+03  0.10100000352E+00 0. -1.
    10030    2    1    2    0    0  0.00000000000E+00  0.00000000000E+00  0.74095907469E+03  0.13254874801E+04  0.10990435430E+04 0.  0.
        3    1    3    3  502    0  0.13116510088E+03 -0.50619802047E+02  0.10111652234E+04  0.10208926326E+04  0.10100000352E+00 0.  1.
       -3    1    3    3    0  502 -0.13116510088E+03  0.50619802047E+02 -0.27020614876E+03  0.30459484743E+03  0.10100000352E+00 0. -1.
</event>
<event>
 5   0  0.1372794E-03  0.1103862E+04  0.7818609E-02  0.9201436E-01
        2   -1    0    0  501    0  0.00000000000E+00  0.00000000000E+00  0.18944501477E+04  0.18944501477E+04  0.25500000920E-02 0. -1.
       -2   -1    0    0    0  501  0.00000000000E+00  0.00000000000E+00 -0.16080004958E+03  0.16080004960E+03  0.25500000920E-02 0.  1.
    10030    2    1    2    0    0  0.00000000000E+00  0.00000000000E+00  0.17336500981E+04  0.20552501973E+04  0.11038617263E+04 0.  0.
        4    1    3    3  502    0 -0.15328797261E+03 -0.52859532789E+03  0.94394888403E+03  0.10926808005E+04  0.12699999809E+01 0. -1.
       -4    1    3    3    0  502  0.15328797261E+03  0.52859532789E+03  0.78970121404E+03  0.96256939676E+03  0.12699999809E+01 0.  1.
</event>
<event>
 5   0  0.1372794E-03  0.1101230E+04  0.7818609E-02  0.9203994E-01
        2   -1    0    0  501    0  0.00000000000E+00  0.00000000000E+00  0.12715813048E+04  0.12715813048E+04  0.25500000920E-02 0. -1.
       -2   -1    0    0    0  501  0.00000000000E+00  0.00000000000E+00 -0.23842511675E+03  0.23842511677E+03  0.25500000920E-02 0.  1.
    10030    2    1    2    0    0  0.00000000000E+00  0.00000000000E+00  0.10331561880E+04  0.15100064215E+04  0.11012300778E+04 0.  0.
        4    1    3    3  502    0 -0.98690500393E+02  0.52938450059E+03  0.67404260446E+03  0.86274145018E+03  0.12699999809E+01 0.  1.
       -4    1    3    3    0  502  0.98690500393E+02 -0.52938450059E+03  0.35911358354E+03  0.64726497134E+03  0.12699999809E+01 0. -1.
</event>
<event>
 5   0  0.1402775E-03  0.1110408E+04  0.7818609E-02  0.9195107E-01
       -2   -1    0    0    0  501  0.00000000000E+00  0.00000000000E+00  0.32259838804E+03  0.32259838805E+03  0.25500000920E-02 0.  1.
        2   -1    0    0  501    0  0.00000000000E+00  0.00000000000E+00 -0.95552670119E+03  0.95552670119E+03  0.25500000920E-02 0. -1.
    10030    2    1    2    0    0  0.00000000000E+00  0.00000000000E+00 -0.63292831315E+03  0.12781250892E+04  0.11104078053E+04 0.  0.
        5    1    3    3  502    0  0.30462265517E+03 -0.93877705660E+02  0.20674868752E+03  0.37996722944E+03  0.46999998093E+01 0.  1.
       -5    1    3    3    0  502 -0.30462265517E+03  0.93877705660E+02 -0.83967700067E+03  0.89815785979E+03  0.46999998093E+01 0. -1.
</event>
<event>
 5   0  0.8150924E-04  0.1099896E+04  0.7818609E-02  0.9205293E-01
       -1   -1    0    0    0  501  0.00000000000E+00  0.00000000000E+00  0.37158952560E+03  0.37158952564E+03  0.50400001928E-02 0.  1.
        1   -1    0    0  501    0  0.00000000000E+00  0.00000000000E+00 -0.81391653092E+03  0.81391653093E+03  0.50400001928E-02 0. -1.
    10030    2    1    2    0    0  0.00000000000E+00  0.00000000000E+00 -0.44232700531E+03  0.11855060566E+04  0.10998960999E+04 0.  0.
        3    1    3    3  502    0  0.86957080685E+02  0.24099273052E+03 -0.74566467657E+03  0.78845091802E+03  0.10100000352E+00 0. -1.
       -3    1    3    3    0  502 -0.86957080685E+02 -0.24099273052E+03  0.30333767125E+03  0.39705513855E+03  0.10100000352E+00 0.  1.
</event>
<event>
 5   0  0.8341767E-04  0.1098710E+04  0.7818609E-02  0.9206450E-01
       -1   -1    0    0    0  501  0.00000000000E+00  0.00000000000E+00  0.49279200896E+03  0.49279200899E+03  0.50400001928E-02 0. -1.
        1   -1    0    0  501    0  0.00000000000E+00  0.00000000000E+00 -0.61241054698E+03  0.61241054700E+03  0.50400001928E-02 0.  1.
    10030    2    1    2    0    0  0.00000000000E+00  0.00000000000E+00 -0.11961853802E+03  0.11052025560E+04  0.10987101962E+04 0.  0.
        2    1    3    3  502    0  0.37117271421E+03 -0.36146867458E+03  0.12392336846E+03  0.53271548479E+03  0.25500000920E-02 0. -1.
       -2    1    3    3    0  502 -0.37117271421E+03  0.36146867458E+03 -0.24354190648E+03  0.57248707120E+03  0.25500000920E-02 0.  1.
</event>
<event>
 5   0  0.1425432E-03  0.1099380E+04  0.7818609E-02  0.9205797E-01
       -2   -1    0    0    0  501  0.00000000000E+00  0.00000000000E+00  0.40106983061E+03  0.40106983062E+03  0.25500000920E-02 0.  1.
        2   -1    0    0  501    0  0.00000000000E+00  0.00000000000E+00 -0.75338241372E+03  0.75338241372E+03  0.25500000920E-02 0. -1.
    10030    2    1    2    0    0  0.00000000000E+00  0.00000000000E+00 -0.35231258311E+03  0.11544522443E+04  0.10993797471E+04 0.  0.
        1    1    3    3  502    0 -0.32604773331E+03  0.26661291677E+03  0.19476542245E+03  0.46402924648E+03  0.50400001928E-02 0.  1.
       -1    1    3    3    0  502  0.32604773331E+03 -0.26661291677E+03 -0.54707800555E+03  0.69042299786E+03  0.50400001928E-02 0. -1.
</event>
<event>
 5   0  0.7946038E-04  0.1096801E+04  0.7818609E-02  0.9208316E-01
       -1   -1    0    0    0  501  0.00000000000E+00  0.00000000000E+00  0.21378597839E+03  0.21378597845E+03  0.50400001928E-02 0.  1.
        1   -1    0    0  501    0  0.00000000000E+00  0.00000000000E+00 -0.14067474804E+04  0.14067474804E+04  0.50400001928E-02 0. -1.
    10030    2    1    2    0    0  0.00000000000E+00  0.00000000000E+00 -0.11929615020E+04  0.16205334588E+04  0.10968005954E+04 0.  0.
        4    1    3    3  502    0 -0.47445838049E+03  0.54529383900E+02 -0.99474309928E+03  0.11034489816E+04  0.12699999809E+01 0. -1.
       -4    1    3    3    0  502  0.47445838049E+03 -0.54529383900E+02 -0.19821840270E+03  0.51708447723E+03  0.12699999809E+01 0.  1.
</event>
<event>
 5   0  0.1372794E-03  0.1100316E+04  0.7818609E-02  0.9204884E-01
        2   -1    0    0  501    0  0.00000000000E+00  0.00000000000E+00  0.11151088761E+04  0.11151088761E+04  0.25500000920E-02 0. -1.
       -2   -1    0    0    0  501  0.00000000000E+00  0.00000000000E+00 -0.27142962816E+03  0.27142962817E+03  0.25500000920E-02 0.  1.
    10030    2    1    2    0    0  0.00000000000E+00  0.00000000000E+00  0.84367924793E+03  0.13865385043E+04  0.11003155686E+04 0.  0.
        4    1    3    3  502    0  0.23344496034E+03  0.46844619002E+03  0.63544375072E+03  0.82324282911E+03  0.12699999809E+01 0. -1.
       -4    1    3    3    0  502 -0.23344496034E+03 -0.46844619002E+03  0.20823549721E+03  0.56329567516E+03  0.12699999809E+01 0.  1.
</event>
<event>
 5   0  0.5409500E-04  0.1102144E+04  0.7818609E-02  0.9203105E-01
       -3   -1    0    0    0  501  0.00000000000E+00  0.00000000000E+00  0.10206679790E+04  0.10206679840E+04  0.10100000352E+00 0. -1.
        3   -1    0    0  501    0  0.00000000000E+00  0.00000000000E+00 -0.29753107436E+03  0.29753109151E+03  0.10100000352E+00 0.  1.
    10030    2    1    2    0    0  0.00000000000E+00  0.00000000000E+00  0.72313690465E+03  0.13181990755E+04  0.11021441919E+04 0.  0.
        1    1    3    3  502    0 -0.51302000649E+03 -0.66530958236E+02  0.13443405855E+03  0.53449828025E+03  0.50400001928E-02 0. -1.
       -1    1    3    3    0  502  0.51302000649E+03  0.66530958236E+02  0.58870284610E+03  0.78370079526E+03  0.50400001928E-02 0.  1.
</event>
<event>
 5   0  0.1396936E-03  0.1101198E+04  0.7818609E-02  0.9204025E-01
        2   -1    0    0  501    0  0.00000000000E+00  0.00000000000E+00  0.16200419755E+03  0.16200419757E+03  0.25500000920E-02 0. -1.
       -2   -1    0    0    0  501  0.00000000000E+00  0.00000000000E+00 -0.18713058699E+04  0.18713058699E+04  0.25500000920E-02 0.  1.
    10030    2    1    2    0    0  0.00000000000E+00  0.00000000000E+00 -0.17093016724E+04  0.20333100675E+04  0.11011982671E+04 0.  0.
        2    1    3    3  502    0 -0.60773074525E+02 -0.17996177484E+03 -0.18088930213E+04  0.18188385221E+04  0.25500000920E-02 0.  1.
       -2    1    3    3    0  502  0.60773074525E+02  0.17996177484E+03  0.99591348925E+02  0.21447154538E+03  0.25500000920E-02 0. -1.
</event>
<event>
 5   0  0.7946038E-04  0.1095907E+04  0.7818609E-02  0.9209190E-01
       -1   -1    0    0    0  501  0.00000000000E+00  0.00000000000E+00  0.20909312542E+03  0.20909312548E+03  0.50400001928E-02 0.  1.
        1   -1    0    0  501    0  0.00000000000E+00  0.00000000000E+00 -0.14359785170E+04  0.14359785170E+04  0.50400001928E-02 0. -1.
    10030    2    1    2    0    0  0.00000000000E+00  0.00000000000E+00 -0.12268853916E+04  0.16450716425E+04  0.10959073614E+04 0.  0.
        4    1    3    3  502    0 -0.51324010658E+03  0.14996290630E+03 -0.79324560443E+03  0.95663184251E+03  0.12699999809E+01 0. -1.
       -4    1    3    3    0  502  0.51324010658E+03 -0.14996290630E+03 -0.43363978712E+03  0.68843979994E+03  0.12699999809E+01 0.  1.
</event>
<event>
 5   0  0.1372794E-03  0.1099073E+04  0.7818609E-02  0.9206096E-01
        2   -1    0    0  501    0  0.00000000000E+00  0.00000000000E+00  0.12721062866E+04  0.12721062866E+04  0.25500000920E-02 0. -1.
       -2   -1    0    0    0  501  0.00000000000E+00  0.00000000000E+00 -0.23739407070E+03  0.23739407071E+03  0.25500000920E-02 0.  1.
    10030    2    1    2    0    0  0.00000000000E+00  0.00000000000E+00  0.10347122159E+04  0.15095003573E+04  0.10990732273E+04 0.  0.
        4    1    3    3  502    0  0.54866774198E+03 -0.27237210035E+02  0.53729309916E+03  0.76841632206E+03  0.12699999809E+01 0. -1.
       -4    1    3    3    0  502 -0.54866774198E+03  0.27237210035E+02  0.49741911672E+03  0.74108403524E+03  0.12699999809E+01 0.  1.
</event>
<event>
 5   0  0.8150924E-04  0.1100760E+04  0.7818609E-02  0.9204451E-01
        1   -1    0    0  501    0  0.00000000000E+00  0.00000000000E+00  0.11796657897E+04  0.11796657897E+04  0.50400001928E-02 0. -1.
       -1   -1    0    0    0  501  0.00000000000E+00  0.00000000000E+00 -0.25678323098E+03  0.25678323103E+03  0.50400001928E-02 0.  1.
    10030    2    1    2    0    0  0.00000000000E+00  0.00000000000E+00  0.92288255875E+03  0.14364490208E+04  0.11007604517E+04 0.  0.
        3    1    3    3  502    0 -0.10140084342E+03  0.48402514546E+03  0.77668019429E+03  0.92075762657E+03  0.10100000352E+00 0. -1.
       -3    1    3    3    0  502  0.10140084342E+03 -0.48402514546E+03  0.14620236446E+03  0.51569139421E+03  0.10100000352E+00 0.  1.
</event>
<event>
 5   0  0.1402775E-03  0.1100749E+04  0.7818609E-02  0.9204462E-01
        2   -1    0    0  501    0  0.00000000000E+00  0.00000000000E+00  0.27271007260E+03  0.27271007261E+03  0.25500000920E-02 0.  1.
       -2   -1    0    0    0  501  0.00000000000E+00  0.00000000000E+00 -0.11107473505E+04  0.11107473505E+04  0.25500000920E-02 0. -1.
    10030    2    1    2    0    0  0.00000000000E+00  0.00000000000E+00 -0.83803727786E+03  0.13834574231E+04  0.11007488189E+04 0.  0.
        5    1    3    3  502    0 -0.83637504362E+02  0.50222076150E+03 -0.15637670366E+03  0.53263185115E+03  0.46999998093E+01 0. -1.
       -5    1    3    3    0  502  0.83637504362E+02 -0.50222076150E+03 -0.68166057420E+03  0.85082557192E+03  0.46999998093E+01 0.  1.
</event>
<event>
 5   0  0.1402775E-03  0.1099795E+04  0.7818609E-02  0.9205392E-01
        2   -1    0    0  501    0  0.00000000000E+00  0.00000000000E+00  0.70184551016E+03  0.70184551017E+03  0.25500000920E-02 0.  1.
       -2   -1    0    0    0  501  0.00000000000E+00  0.00000000000E+00 -0.43084563778E+03  0.43084563778E+03  0.25500000920E-02 0. -1.
    10030    2    1    2    0    0  0.00000000000E+00  0.00000000000E+00  0.27099987238E+03  0.11326911480E+04  0.10997946653E+04 0.  0.
        5    1    3    3  502    0 -0.20452385919E+03 -0.30816045615E+03  0.55457661203E+03  0.66661096925E+03  0.46999998093E+01 0.  1.
       -5    1    3    3    0  502  0.20452385919E+03  0.30816045615E+03 -0.28357673964E+03  0.46608017870E+03  0.46999998093E+01 0. -1.
</event>
<event>
 5   0  0.1425432E-03  0.1106294E+04  0.7818609E-02  0.9199079E-01
        2   -1    0    0  501    0  0.00000000000E+00  0.00000000000E+00  0.67515022572E+03  0.67515022572E+03  0.25500000920E-02 0. -1.
       -2   -1    0    0    0  501  0.00000000000E+00  0.00000000000E+00 -0.45319029578E+03  0.45319029579E+03  0.25500000920E-02 0.  1.
    10030    2    1    2    0    0  0.00000000000E+00  0.00000000000E+00  0.22195992994E+03  0.11283405215E+04  0.11062938678E+04 0.  0.
        1    1    3    3  502    0 -0.83079633371E+02  0.54276157142E+03  0.42719535843E+02  0.55074250577E+03  0.50400001928E-02 0.  1.
       -1    1    3    3    0  502  0.83079633371E+02 -0.54276157142E+03  0.17924039410E+03  0.57759801574E+03  0.50400001928E-02 0. -1.
</event>
<event>
 5   0  0.8341767E-04  0.1097221E+04  0.7818609E-02  0.9207905E-01
       -1   -1    0    0    0  501  0.00000000000E+00  0.00000000000E+00  0.22251775154E+03  0.22251775160E+03  0.50400001928E-02 0.  1.
        1   -1    0    0  501    0  0.00000000000E+00  0.00000000000E+00 -0.13525822104E+04  0.13525822105E+04  0.50400001928E-02 0. -1.
    10030    2    1    2    0    0  0.00000000000E+00  0.00000000000E+00 -0.11300644589E+04  0.15750999621E+04  0.10972211305E+04 0.  0.
        2    1    3    3  502    0 -0.38515071527E+03  0.30735454693E+03 -0.21881610278E+03  0.53915524465E+03  0.25500000920E-02 0.  1.
       -2    1    3    3    0  502  0.38515071527E+03 -0.30735454693E+03 -0.91124835612E+03  0.10359447174E+04  0.25500000920E-02 0. -1.
</event>
<event>
 5   0  0.8150924E-04  0.1102223E+04  0.7818609E-02  0.9203028E-01
        1   -1    0    0  501    0  0.00000000000E+00  0.00000000000E+00  0.43863957998E+03  0.43863958001E+03  0.50400001928E-02 0. -1.
       -1   -1    0    0    0  501  0.00000000000E+00  0.00000000000E+00 -0.69242195354E+03  0.69242195355E+03  0.50400001928E-02 0.  1.
    10030    2    1    2    0    0  0.00000000000E+00  0.00000000000E+00 -0.25378237355E+03  0.11310615336E+04  0.11022226180E+04 0.  0.
        3    1    3    3  502    0  0.38415103600E+03  0.15540254402E+03  0.24593522310E+03  0.48187769538E+03  0.10100000352E+00 0. -1.
       -3    1    3    3    0  502 -0.38415103600E+03 -0.15540254402E+03 -0.49971759666E+03  0.64918383818E+03  0.10100000352E+00 0.  1.
</event>
<event>
 5   0  0.8009636E-04  0.1085556E+04  0.7818609E-02  0.9219385E-01
       -1   -1    0    0    0  501  0.00000000000E+00  0.00000000000E+00  0.42124627783E+03  0.42124627786E+03  0.50400001928E-02 0.  1.
        1   -1    0    0  501    0  0.00000000000E+00  0.00000000000E+00 -0.69937272679E+03  0.69937272681E+03  0.50400001928E-02 0. -1.
    10030    2    1    2    0    0  0.00000000000E+00  0.00000000000E+00 -0.27812644896E+03  0.11206190047E+04  0.10855563698E+04 0.  0.
        1    1    3    3  502    0 -0.48279927533E+02 -0.28157457901E+03  0.33735485166E+03  0.44206729229E+03  0.50400001928E-02 0.  1.
       -1    1    3    3    0  502  0.48279927533E+02  0.28157457901E+03 -0.61548130062E+03  0.67855171238E+03  0.50400001928E-02 0. -1.
</event>
<event>
 5   0  0.1372794E-03  0.1098627E+04  0.7818609E-02  0.9206531E-01
       -2   -1    0    0    0  501  0.00000000000E+00  0.00000000000E+00  0.57428574471E+03  0.57428574472E+03  0.25500000920E-02 0.  1.
        2   -1    0    0  501    0  0.00000000000E+00  0.00000000000E+00 -0.52542725271E+03  0.52542725272E+03  0.25500000920E-02 0. -1.
    10030    2    1    2    0    0  0.00000000000E+00  0.00000000000E+00  0.48858491997E+02  0.10997129974E+04  0.10986271089E+04 0.  0.
        4    1    3    3  502    0  0.39290311146E+03 -0.22010286308E+03  0.33926459461E+03  0.56384413040E+03  0.12699999809E+01 0.  1.
       -4    1    3    3    0  502 -0.39290311146E+03  0.22010286308E+03 -0.29040610261E+03  0.53586886704E+03  0.12699999809E+01 0. -1.
</event>
<event>
 5   0  0.8305271E-04  0.1100764E+04  0.7818609E-02  0.9204447E-01
        1   -1    0    0  501    0  0.00000000000E+00  0.00000000000E+00  0.35438988045E+03  0.35438988049E+03  0.50400001928E-02 0. -1.
       -1   -1    0    0    0  501  0.00000000000E+00  0.00000000000E+00 -0.85476656340E+03  0.85476656342E+03  0.50400001928E-02 0.  1.
    10030    2    1    2    0    0  0.00000000000E+00  0.00000000000E+00 -0.50037668295E+03  0.12091564439E+04  0.11007644984E+04 0.  0.
        5    1    3    3  502    0  0.53724000554E+02 -0.18668337195E+03 -0.81583259567E+03  0.83865479415E+03  0.46999998093E+01 0.  1.
       -5    1    3    3    0  502 -0.53724000554E+02  0.18668337195E+03  0.31545591272E+03  0.37050164975E+03  0.46999998093E+01 0. -1.
</event>
<event>
 5   0  0.7946038E-04  0.1106428E+04  0.7818609E-02  0.9198949E-01
        1   -1    0    0  501    0  0.00000000000E+00  0.00000000000E+00  0.72482121388E+03  0.72482121390E+03  0.50400001928E-02 0. -1.
       -1   -1    0    0    0  501  0.00000000000E+00  0.00000000000E+00 -0.42223653102E+03  0.42223653105E+03  0.50400001928E-02 0.  1.
    10030    2    1    2    0    0  0.00000000000E+00  0.00000000000E+00  0.30258468286E+03  0.11470577449E+04  0.11064284794E+04 0.  0.
        4    1    3    3  502    0 -0.17372163007E+02 -0.16307393746E+03  0.69903977075E+03  0.71802027486E+03  0.12699999809E+01 0. -1.
       -4    1    3    3    0  502  0.17372163007E+02  0.16307393746E+03 -0.39645508789E+03  0.42903747009E+03  0.12699999809E+01 0.  1.
</event>
<event>
 5   0  0.8341767E-04  0.1099280E+04  0.7818609E-02  0.9205894E-01
       -1   -1    0    0    0  501  0.00000000000E+00  0.00000000000E+00  0.37231678022E+03  0.37231678026E+03  0.50400001928E-02 0.  1.
        1   -1    0    0  501    0  0.00000000000E+00  0.00000000000E+00 -0.81141730363E+03  0.81141730364E+03  0.50400001928E-02 0. -1.
    10030    2    1    2    0    0  0.00000000000E+00  0.00000000000E+00 -0.43910052341E+03  0.11837340839E+04  0.10992802699E+04 0.  0.
        2    1    3    3  502    0 -0.40373613756E+03 -0.34755009350E+03 -0.36526180016E+03  0.64591804350E+03  0.25500000920E-02 0. -1.
       -2    1    3    3    0  502  0.40373613756E+03  0.34755009350E+03 -0.73838723247E+02  0.53781604040E+03  0.25500000920E-02 0.  1.
</event>
<event>
 5   0  0.1429680E-03  0.1088739E+04  0.7818609E-02  0.9216237E-01
        2   -1    0    0  501    0  0.00000000000E+00  0.00000000000E+00  0.15170356827E+04  0.15170356827E+04  0.25500000920E-02 0. -1.
       -2   -1    0    0    0  501  0.00000000000E+00  0.00000000000E+00 -0.19534044124E+03  0.19534044126E+03  0.25500000920E-02 0.  1.
    10030    2    1    2    0    0  0.00000000000E+00  0.00000000000E+00  0.13216952415E+04  0.17123761240E+04  0.10887394907E+04 0.  0.
        3    1    3    3  502    0  0.41102204754E+03  0.16869776078E+02  0.10009272963E+03  0.42337014258E+03  0.10100000352E+00 0.  1.
       -3    1    3    3    0  502 -0.41102204754E+03 -0.16869776078E+02  0.12216025119E+04  0.12890059814E+04  0.10100000352E+00 0. -1.
</event>
<event>
 5   0  0.1372794E-03  0.1101115E+04  0.7818609E-02  0.9204106E-01
        2   -1    0    0  501    0  0.00000000000E+00  0.00000000000E+00  0.93081905417E+03  0.93081905418E+03  0.25500000920E-02 0.  1.
       -2   -1    0    0    0  501  0.00000000000E+00  0.00000000000E+00 -0.32564159199E+03  0.32564159200E+03  0.25500000920E-02 0. -1.
    10030    2    1    2    0    0  0.00000000000E+00  0.00000000000E+00  0.60517746218E+03  0.12564606462E+04  0.11011147055E+04 0.  0.
        4    1    3    3  502    0  0.86292018889E+02 -0.20044011239E+03 -0.27418122565E+03  0.35042760818E+03  0.12699999809E+01 0. -1.
       -4    1    3    3    0  502 -0.86292018889E+02  0.20044011239E+03  0.87935868783E+03  0.90603303799E+03  0.12699999809E+01 0.  1.
</event>
<event>
 5   0  0.1425432E-03  0.1097911E+04  0.7818609E-02  0.9207231E-01
       -2   -1    0    0    0  501  0.00000000000E+00  0.00000000000E+00  0.84446939875E+03  0.84446939875E+03  0.25500000920E-02 0.  1.
        2   -1    0    0  501    0  0.00000000000E+00  0.00000000000E+00 -0.35685365755E+03  0.35685365756E+03  0.25500000920E-02 0. -1.
    10030    2    1    2    0    0  0.00000000000E+00  0.00000000000E+00  0.48761574120E+03  0.12013230563E+04  0.10979107316E+04 0.  0.
        1    1    3    3  502    0 -0.28455737711E+03 -0.40355163411E+03  0.50624286324E+03  0.70718361044E+03  0.50400001928E-02 0.  1.
       -1    1    3    3    0  502  0.28455737711E+03  0.40355163411E+03 -0.18627122042E+02  0.49413944587E+03  0.50400001928E-02 0. -1.
</event>
<event>
 5   0  0.1429680E-03  0.1103214E+04  0.7818609E-02  0.9202065E-01
       -2   -1    0    0    0  501  0.00000000000E+00  0.00000000000E+00  0.22373455656E+03  0.22373455658E+03  0.25500000920E-02 0.  1.
        2   -1    0    0  501    0  0.00000000000E+00  0.00000000000E+00 -0.13599614745E+04  0.13599614745E+04  0.25500000920E-02 0. -1.
    10030    2    1    2    0    0  0.00000000000E+00  0.00000000000E+00 -0.11362269180E+04  0.15836960311E+04  0.11032141722E+04 0.  0.
        3    1    3    3  502    0  0.16556699806E+03  0.10689345218E+03  0.17147208168E+03  0.26123040780E+03  0.10100000352E+00 0.  1.
       -3    1    3    3    0  502 -0.16556699806E+03 -0.10689345218E+03 -0.13076989996E+04  0.13224656233E+04  0.10100000352E+00 0. -1.
</event>
<event>
 5   0  0.8305271E-04  0.1099193E+04  0.7818609E-02  0.9205979E-01
       -1   -1    0    0    0  501  0.00000000000E+00  0.00000000000E+00  0.79139901868E+03  0.79139901870E+03  0.50400001928E-02 0.  1.
        1   -1    0    0  501    0  0.00000000000E+00  0.00000000000E+00 -0.38167382399E+03  0.38167382402E+03  0.50400001928E-02 0. -1.
    10030    2    1    2    0    0  0.00000000000E+00  0.00000000000E+00  0.40972519469E+03  0.11730728427E+04  0.10991929581E+04 0.  0.
        5    1    3    3  502    0 -0.14482886394E+03 -0.39279358747E+03 -0.17511912783E+03  0.45381824679E+03  0.46999998093E+01 0. -1.
       -5    1    3    3    0  502  0.14482886394E+03  0.39279358747E+03  0.58484432252E+03  0.71925459593E+03  0.46999998093E+01 0.  1.
</event>
<event>
 5   0  0.7946038E-04  0.1028858E+04  0.7818609E-02  0.9277448E-01
       -1   -1    0    0    0  501  0.00000000000E+00  0.00000000000E+00  0.10852574735E+03  0.10852574746E+03  0.50400001928E-02 0. -1.
        1   -1    0    0  501    0  0.00000000000E+00  0.00000000000E+00 -0.24384760126E+04  0.24384760126E+04  0.50400001928E-02 0.  1.
    10030    2    1    2    0    0  0.00000000000E+00  0.00000000000E+00 -0.23299502653E+04  0.25470017601E+04  0.10288584583E+04 0.  0.
        4    1    3    3  502    0  0.15161551999E+03  0.28674170399E+03 -0.17652316829E+03  0.36928324163E+03  0.12699999809E+01 0. -1.
       -4    1    3    3    0  502 -0.15161551999E+03 -0.28674170399E+03 -0.21534270970E+04  0.21777185185E+04  0.12699999809E+01 0.  1.
</event>
<event>
 5   0  0.8305271E-04  0.1104491E+04  0.7818609E-02  0.9200825E-01
        1   -1    0    0  501    0  0.00000000000E+00  0.00000000000E+00  0.87378648440E+03  0.87378648441E+03  0.50400001928E-02 0. -1.
       -1   -1    0    0    0  501  0.00000000000E+00  0.00000000000E+00 -0.34902731977E+03  0.34902731981E+03  0.50400001928E-02 0.  1.
    10030    2    1    2    0    0  0.00000000000E+00  0.00000000000E+00  0.52475916462E+03  0.12228138042E+04  0.11044914753E+04 0.  0.
        5    1    3    3  502    0 -0.26486300164E+03  0.39930038019E+03 -0.41546930157E+02  0.48097966761E+03  0.46999998093E+01 0.  1.
       -5    1    3    3    0  502  0.26486300164E+03 -0.39930038019E+03  0.56630609478E+03  0.74183413661E+03  0.46999998093E+01 0. -1.
</event>
<event>
 5   0  0.8009636E-04  0.1112386E+04  0.7818609E-02  0.9193203E-01
        1   -1    0    0  501    0  0.00000000000E+00  0.00000000000E+00  0.72843636492E+03  0.72843636493E+03  0.50400001928E-02 0.  1.
       -1   -1    0    0    0  501  0.00000000000E+00  0.00000000000E+00 -0.42467740851E+03  0.42467740854E+03  0.50400001928E-02 0. -1.
    10030    2    1    2    0    0  0.00000000000E+00  0.00000000000E+00  0.30375895641E+03  0.11531137735E+04  0.11123856665E+04 0.  0.
        1    1    3    3  502    0  0.38435882088E+03  0.33080346857E+03 -0.84931261181E+02  0.51417502580E+03  0.50400001928E-02 0.  1.
       -1    1    3    3    0  502 -0.38435882088E+03 -0.33080346857E+03  0.38869021759E+03  0.63893874767E+03  0.50400001928E-02 0. -1.
</event>
<event>
 5   0  0.1372794E-03  0.1101584E+04  0.7818609E-02  0.9203649E-01
       -2   -1    0    0    0  501  0.00000000000E+00  0.00000000000E+00  0.18077956277E+03  0.18077956279E+03  0.25500000920E-02 0. -1.
        2   -1    0    0  501    0  0.00000000000E+00  0.00000000000E+00 -0.16781326004E+04  0.16781326004E+04  0.25500000920E-02 0.  1.
    10030    2    1    2    0    0  0.00000000000E+00  0.00000000000E+00 -0.14973530376E+04  0.18589121632E+04  0.11015844549E+04 0.  0.
        4    1    3    3  502    0  0.41729574581E+03  0.26466629039E+03 -0.33813949748E+03  0.59876866768E+03  0.12699999809E+01 0. -1.
       -4    1    3    3    0  502 -0.41729574581E+03 -0.26466629039E+03 -0.11592135401E+04  0.12601434955E+04  0.12699999809E+01 0.  1.
</event>
<event>
 5   0  0.1425432E-03  0.1053569E+04  0.7818609E-02  0.9251667E-01
       -2   -1    0    0    0  501  0.00000000000E+00  0.00000000000E+00  0.31354955149E+03  0.31354955150E+03  0.25500000920E-02 0. -1.
        2   -1    0    0  501    0  0.00000000000E+00  0.00000000000E+00 -0.88503336885E+03  0.88503336885E+03  0.25500000920E-02 0.  1.
    10030    2    1    2    0    0  0.00000000000E+00  0.00000000000E+00 -0.57148381735E+03  0.11985829204E+04  0.10535688224E+04 0.  0.
        1    1    3    3  502    0 -0.39893489113E+03 -0.99269678633E+02  0.88986518259E+02  0.42062110850E+03  0.50400001928E-02 0. -1.
       -1    1    3    3    0  502  0.39893489113E+03  0.99269678633E+02 -0.66047033561E+03  0.77796181185E+03  0.50400001928E-02 0.  1.
</event>
<event>
 5   0  0.1396936E-03  0.1104106E+04  0.7818609E-02  0.9201199E-01
        2   -1    0    0  501    0  0.00000000000E+00  0.00000000000E+00  0.15411955499E+04  0.15411955499E+04  0.25500000920E-02 0. -1.
       -2   -1    0    0    0  501  0.00000000000E+00  0.00000000000E+00 -0.19774407943E+03  0.19774407945E+03  0.25500000920E-02 0.  1.
    10030    2    1    2    0    0  0.00000000000E+00  0.00000000000E+00  0.13434514705E+04  0.17389396294E+04  0.11041056023E+04 0.  0.
        2    1    3    3  502    0  0.10208523922E+03 -0.53179782507E+03  0.50259377238E+03  0.73880364297E+03  0.25500000920E-02 0.  1.
       -2    1    3    3    0  502 -0.10208523922E+03  0.53179782507E+03  0.84085769810E+03  0.10001359864E+04  0.25500000920E-02 0. -1.
</event>
<event>
 5   0  0.8150924E-04  0.1101009E+04  0.7818609E-02  0.9204209E-01
       -1   -1    0    0    0  501  0.00000000000E+00  0.00000000000E+00  0.47898902751E+03  0.47898902754E+03  0.50400001928E-02 0.  1.
        1   -1    0    0  501    0  0.00000000000E+00  0.00000000000E+00 -0.63269778195E+03  0.63269778197E+03  0.50400001928E-02 0. -1.
    10030    2    1    2    0    0  0.00000000000E+00  0.00000000000E+00 -0.15370875444E+03  0.11116868095E+04  0.11010091649E+04 0.  0.
        3    1    3    3  502    0 -0.46439450757E+03 -0.14395581970E+03 -0.33756331894E+03  0.59189064968E+03  0.10100000352E+00 0. -1.
       -3    1    3    3    0  502  0.46439450757E+03  0.14395581970E+03  0.18385456450E+03  0.51979615983E+03  0.10100000352E+00 0.  1.
</event>
<event>
 5   0  0.1429680E-03  0.1098446E+04  0.7818609E-02  0.9206708E-01
       -2   -1    0    0    0  501  0.00000000000E+00  0.00000000000E+00  0.57723815958E+03  0.57723815959E+03  0.25500000920E-02 0. -1.
        2   -1    0    0  501    0  0.00000000000E+00  0.00000000000E+00 -0.52256729869E+03  0.52256729870E+03  0.25500000920E-02 0.  1.
    10030    2    1    2    0    0  0.00000000000E+00  0.00000000000E+00  0.54670860892E+02  0.10998054583E+04  0.10984457852E+04 0.  0.
        3    1    3    3  502    0  0.93363405315E+02 -0.47137319060E+03 -0.23895687284E+03  0.53666545217E+03  0.10100000352E+00 0.  1.
       -3    1    3    3    0  502 -0.93363405315E+02  0.47137319060E+03  0.29362773373E+03  0.56314000612E+03  0.10100000352E+00 0. -1.
</event>
<event>
 5   0  0.1402775E-03  0.1098361E+04  0.7818609E-02  0.9206790E-01
       -2   -1    0    0    0  501  0.00000000000E+00  0.00000000000E+00  0.24194115021E+03  0.24194115023E+03  0.25500000920E-02 0.  1.
        2   -1    0    0  501    0  0.00000000000E+00  0.00000000000E+00 -0.12465816851E+04  0.12465816851E+04  0.25500000920E-02 0. -1.
    10030    2    1    2    0    0  0.00000000000E+00  0.00000000000E+00 -0.10046405348E+04  0.14885228353E+04  0.10983613371E+04 0.  0.
        5    1    3    3  502    0  0.17856211753E+03  0.45772141284E+03 -0.16985156282E+03  0.51987014242E+03  0.46999998093E+01 0. -1.
       -5    1    3    3    0  502 -0.17856211753E+03 -0.45772141284E+03 -0.83478897203E+03  0.96865269287E+03  0.46999998093E+01 0.  1.
</event>
<event>
 5   0  0.1425432E-03  0.1095800E+04  0.7818609E-02  0.9209295E-01
        2   -1    0    0  501    0  0.00000000000E+00  0.00000000000E+00  0.82138180861E+03  0.82138180862E+03  0.25500000920E-02 0.  1.
       -2   -1    0    0    0  501  0.00000000000E+00  0.00000000000E+00 -0.36547473367E+03  0.36547473368E+03  0.25500000920E-02 0. -1.
    10030    2    1    2    0    0  0.00000000000E+00  0.00000000000E+00  0.45590707495E+03  0.11868565423E+04  0.10957997951E+04 0.  0.
        1    1    3    3  502    0 -0.48889080502E+03  0.72015016699E+02 -0.28339868947E+02  0.49497831272E+03  0.50400001928E-02 0. -1.
       -1    1    3    3    0  502  0.48889080502E+03 -0.72015016699E+02  0.48424694389E+03  0.69187822958E+03  0.50400001928E-02 0.  1.
</event>
<event>
 5   0  0.8150924E-04  0.1097472E+04  0.7818609E-02  0.9207659E-01
       -1   -1    0    0    0  501  0.00000000000E+00  0.00000000000E+00  0.47808149465E+03  0.47808149468E+03  0.50400001928E-02 0.  1.
        1   -1    0    0  501    0  0.00000000000E+00  0.00000000000E+00 -0.62983264566E+03  0.62983264568E+03  0.50400001928E-02 0. -1.
    10030    2    1    2    0    0  0.00000000000E+00  0.00000000000E+00 -0.15175115101E+03  0.11079141404E+04  0.10974722459E+04 0.  0.
        3    1    3    3  502    0 -0.42427923604E+02  0.95305401376E+02 -0.61972950307E+03  0.62844881686E+03  0.10100000352E+00 0. -1.
       -3    1    3    3    0  502  0.42427923604E+02 -0.95305401376E+02  0.46797835206E+03  0.47946532349E+03  0.10100000352E+00 0.  1.
</event>
<event>
 5   0  0.7946038E-04  0.1100205E+04  0.7818609E-02  0.9204992E-01
        1   -1    0    0  501    0  0.00000000000E+00  0.00000000000E+00  0.50297659131E+03  0.50297659134E+03  0.50400001928E-02 0.  1.
       -1   -1    0    0    0  501  0.00000000000E+00  0.00000000000E+00 -0.60164383071E+03  0.60164383073E+03  0.50400001928E-02 0. -1.
    10030    2    1    2    0    0  0.00000000000E+00  0.00000000000E+00 -0.98667239391E+02  0.11046204221E+04  0.11002050049E+04 0.  0.
        4    1    3    3  502    0  0.37466121490E+03 -0.36501784200E+03 -0.22031710676E+03  0.56758284977E+03  0.12699999809E+01 0.  1.
       -4    1    3    3    0  502 -0.37466121490E+03  0.36501784200E+03  0.12164986737E+03  0.53703757229E+03  0.12699999809E+01 0. -1.
</event>
<event>
 5   0  0.8150924E-04  0.1097683E+04  0.7818609E-02  0.9207453E-01
       -1   -1    0    0    0  501  0.00000000000E+00  0.00000000000E+00  0.34207080438E+03  0.34207080441E+03  0.50400001928E-02 0.  1.
        1   -1    0    0  501    0  0.00000000000E+00  0.00000000000E+00 -0.88059878760E+03  0.88059878761E+03  0.50400001928E-02 0. -1.
    10030    2    1    2    0    0  0.00000000000E+00  0.00000000000E+00 -0.53852798322E+03  0.12226695920E+04  0.10976832615E+04 0.  0.
        3    1    3    3  502    0  0.18058956467E+03 -0.46506548822E+03 -0.52406534850E+03  0.72356271249E+03  0.10100000352E+00 0. -1.
       -3    1    3    3    0  502 -0.18058956467E+03  0.46506548822E+03 -0.14462634722E+02  0.49910687954E+03  0.10100000352E+00 0.  1.
</event>
<event>
 5   0  0.1372794E-03  0.1118350E+04  0.7818609E-02  0.9187489E-01
       -2   -1    0    0    0  501  0.00000000000E+00  0.00000000000E+00  0.14781788299E+03  0.14781788301E+03  0.25500000920E-02 0.  1.
        2   -1    0    0  501    0  0.00000000000E+00  0.00000000000E+00 -0.21152825779E+04  0.21152825779E+04  0.25500000920E-02 0. -1.
    10030    2    1    2    0    0  0.00000000000E+00  0.00000000000E+00 -0.19674646949E+04  0.22631004609E+04  0.11183498426E+04 0.  0.
        4    1    3    3  502    0  0.50124841543E+03 -0.41144068180E+02 -0.48915946137E+03  0.70158491993E+03  0.12699999809E+01 0.  1.
       -4    1    3    3    0  502 -0.50124841543E+03  0.41144068180E+02 -0.14783052336E+04  0.15615155410E+04  0.12699999809E+01 0. -1.
</event>
<event>
 5   0  0.1402775E-03  0.1133615E+04  0.7818609E-02  0.9173034E-01
       -2   -1    0    0    0  501  0.00000000000E+00  0.00000000000E+00  0.24872463389E+03  0.24872463390E+03  0.25500000920E-02 0. -1.
        2   -1    0    0  501    0  0.00000000000E+00  0.00000000000E+00 -0.12916723738E+04  0.12916723738E+04  0.25500000920E-02 0.  1.
    10030    2    1    2    0    0  0.00000000000E+00  0.00000000000E+00 -0.10429477399E+04  0.15403970077E+04  0.11336149934E+04 0.  0.
        5    1    3    3  502    0  0.36817628254E+02 -0.10190634291E+03  0.23449370876E+03  0.25835988451E+03  0.46999998093E+01 0. -1.
       -5    1    3    3    0  502 -0.36817628254E+02  0.10190634291E+03 -0.12774414487E+04  0.12820371232E+04  0.46999998093E+01 0.  1.
</event>
<event>
 5   0  0.1396936E-03  0.1101547E+04  0.7818609E-02  0.9203685E-01
        2   -1    0    0  501    0  0.00000000000E+00  0.00000000000E+00  0.15866731907E+04  0.15866731908E+04  0.25500000920E-02 0.  1.
       -2   -1    0    0    0  501  0.00000000000E+00  0.00000000000E+00 -0.19118724149E+03  0.19118724150E+03  0.25500000920E-02 0. -1.
    10030    2    1    2    0    0  0.00000000000E+00  0.00000000000E+00  0.13954859493E+04  0.17778604323E+04  0.11015474034E+04 0.  0.
        2    1    3    3  502    0  0.42806459221E+03 -0.64485371120E+02  0.14815481989E+03  0.45754508943E+03  0.25500000920E-02 0.  1.
       -2    1    3    3    0  502 -0.42806459221E+03  0.64485371120E+02  0.12473311294E+04  0.13203153428E+04  0.25500000920E-02 0. -1.
</event>
<event>
 5   0  0.1429680E-03  0.1106542E+04  0.7818609E-02  0.9198839E-01
        2   -1    0    0  501    0  0.00000000000E+00  0.00000000000E+00  0.14872624095E+04  0.14872624096E+04  0.25500000920E-02 0.  1.
       -2   -1    0    0    0  501  0.00000000000E+00  0.00000000000E+00 -0.20582022328E+03  0.20582022330E+03  0.25500000920E-02 0. -1.
    10030    2    1    2    0    0  0.00000000000E+00  0.00000000000E+00  0.12814421863E+04  0.16930826328E+04  0.11065417863E+04 0.  0.
        3    1    3    3  502    0 -0.38043704399E+02 -0.27610605064E+03 -0.90559183985E+02  0.29305775992E+03  0.10100000352E+00 0. -1.
       -3    1    3    3    0  502  0.38043704399E+02  0.27610605064E+03  0.13720013702E+04  0.14000248729E+04  0.10100000352E+00 0.  1.
</event>
<event>
 5   0  0.1396936E-03  0.1102850E+04  0.7818609E-02  0.9202419E-01
       -2   -1    0    0    0  501  0.00000000000E+00  0.00000000000E+00  0.11594213787E+03  0.11594213790E+03  0.25500000920E-02 0.  1.
        2   -1    0    0  501    0  0.00000000000E+00  0.00000000000E+00 -0.26225952911E+04  0.26225952911E+04  0.25500000920E-02 0. -1.
    10030    2    1    2    0    0  0.00000000000E+00  0.00000000000E+00 -0.25066531532E+04  0.27385374290E+04  0.11028495906E+04 0.  0.
        2    1    3    3  502    0  0.38748330033E+03  0.37152051936E+03 -0.94022844399E+03  0.10826820084E+04  0.25500000920E-02 0. -1.
       -2    1    3    3    0  502 -0.38748330033E+03 -0.37152051936E+03 -0.15664247092E+04  0.16558554206E+04  0.25500000920E-02 0.  1.
</event>
<event>
 5   0  0.1429680E-03  0.1098837E+04  0.7818609E-02  0.9206326E-01
        2   -1    0    0  501    0  0.00000000000E+00  0.00000000000E+00  0.71160306004E+03  0.71160306004E+03  0.25500000920E-02 0.  1.
       -2   -1    0    0    0  501  0.00000000000E+00  0.00000000000E+00 -0.42419800789E+03  0.42419800790E+03  0.25500000920E-02 0. -1.
    10030    2    1    2    0    0  0.00000000000E+00  0.00000000000E+00  0.28740505215E+03  0.11358010679E+04  0.10988368405E+04 0.  0.
        3    1    3    3  502    0 -0.15705887028E+03  0.35255403579E+02  0.68668321573E+03  0.70529729986E+03  0.10100000352E+00 0.  1.
       -3    1    3    3    0  502  0.15705887028E+03 -0.35255403579E+02 -0.39927816358E+03  0.43050376808E+03  0.10100000352E+00 0. -1.
</event>
<event>
 5   0  0.1429680E-03  0.1097495E+04  0.7818609E-02  0.9207637E-01
       -2   -1    0    0    0  501  0.00000000000E+00  0.00000000000E+00  0.12350000870E+04  0.12350000871E+04  0.25500000920E-02 0.  1.
        2   -1    0    0  501    0  0.00000000000E+00  0.00000000000E+00 -0.24382484701E+03  0.24382484702E+03  0.25500000920E-02 0. -1.
    10030    2    1    2    0    0  0.00000000000E+00  0.00000000000E+00  0.99117524004E+03  0.14788249341E+04  0.10974947969E+04 0.  0.
        3    1    3    3  502    0 -0.17511678705E+03 -0.43338336419E+03  0.88293506208E+03  0.99903021152E+03  0.10100000352E+00 0.  1.
       -3    1    3    3    0  502  0.17511678705E+03  0.43338336419E+03  0.10824017796E+03  0.47979472256E+03  0.10100000352E+00 0. -1.
</event>
<event>
 5   0  0.1372794E-03  0.1094210E+04  0.7818609E-02  0.9210854E-01
        2   -1    0    0  501    0  0.00000000000E+00  0.00000000000E+00  0.10244032391E+04  0.10244032391E+04  0.25500000920E-02 0. -1.
       -2   -1    0    0    0  501  0.00000000000E+00  0.00000000000E+00 -0.29219345234E+03  0.29219345235E+03  0.25500000920E-02 0.  1.
    10030    2    1    2    0    0  0.00000000000E+00  0.00000000000E+00  0.73220978671E+03  0.13165966914E+04  0.10942100694E+04 0.  0.
        4    1    3    3  502    0  0.97457179502E+02  0.49585027104E+03  0.11383487145E+03  0.51800133589E+03  0.12699999809E+01 0.  1.
       -4    1    3    3    0  502 -0.97457179502E+02 -0.49585027104E+03  0.61837491526E+03  0.79859535552E+03  0.12699999809E+01 0. -1.
</event>
<event>
 5   0  0.8150924E-04  0.1099664E+04  0.7818609E-02  0.9205519E-01
        1   -1    0    0  501    0  0.00000000000E+00  0.00000000000E+00  0.48122376578E+03  0.48122376580E+03  0.50400001928E-02 0. -1.
       -1   -1    0    0    0  501  0.00000000000E+00  0.00000000000E+00 -0.62822174789E+03  0.62822174791E+03  0.50400001928E-02 0.  1.
    10030    2    1    2    0    0  0.00000000000E+00  0.00000000000E+00 -0.14699798211E+03  0.11094455137E+04  0.10996640128E+04 0.  0.
        3    1    3    3  502    0  0.46942994137E+03 -0.19734501950E+03  0.13572378904E+03  0.52700140767E+03  0.10100000352E+00 0. -1.
       -3    1    3    3    0  502 -0.46942994137E+03  0.19734501950E+03 -0.28272177115E+03  0.58244410604E+03  0.10100000352E+00 0.  1.
</event>
<event>
 5   0  0.8341767E-04  0.1102754E+04  0.7818609E-02  0.9202511E-01
        1   -1    0    0  501    0  0.00000000000E+00  0.00000000000E+00  0.60913712395E+03  0.60913712397E+03  0.50400001928E-02 0.  1.
       -1   -1    0    0    0  501  0.00000000000E+00  0.00000000000E+00 -0.49909427577E+03  0.49909427579E+03  0.50400001928E-02 0. -1.
    10030    2    1    2    0    0  0.00000000000E+00  0.00000000000E+00  0.11004284818E+03  0.11082313998E+04  0.11027544636E+04 0.  0.
        2    1    3    3  502    0  0.45120609574E+03 -0.23079520185E+03 -0.16322873759E+03  0.53244435091E+03  0.25500000920E-02 0. -1.
       -2    1    3    3    0  502 -0.45120609574E+03  0.23079520185E+03  0.27327158577E+03  0.57578704885E+03  0.25500000920E-02 0.  1.
</event>
<event>
 5   0  0.8341767E-04  0.1092989E+04  0.7818609E-02  0.9212053E-01
       -1   -1    0    0    0  501  0.00000000000E+00  0.00000000000E+00  0.60812744917E+03  0.60812744919E+03  0.50400001928E-02 0.  1.
        1   -1    0    0  501    0  0.00000000000E+00  0.00000000000E+00 -0.49110776309E+03  0.49110776312E+03  0.50400001928E-02 0. -1.
    10030    2    1    2    0    0  0.00000000000E+00  0.00000000000E+00  0.11701968607E+03  0.10992352123E+04  0.10929887671E+04 0.  0.
        2    1    3    3  502    0  0.76966779710E+02 -0.39231408385E+03 -0.31620759399E+03  0.50972685633E+03  0.25500000920E-02 0. -1.
       -2    1    3    3    0  502 -0.76966779710E+02  0.39231408385E+03  0.43322728006E+03  0.58950835597E+03  0.25500000920E-02 0.  1.
</event>
<event>
 5   0  0.8150924E-04  0.1150452E+04  0.7818609E-02  0.9157367E-01
        1   -1    0    0  501    0  0.00000000000E+00  0.00000000000E+00  0.45960205341E+03  0.45960205344E+03  0.50400001928E-02 0.  1.
       -1   -1    0    0    0  501  0.00000000000E+00  0.00000000000E+00 -0.71993794393E+03  0.71993794395E+03  0.50400001928E-02 0. -1.
    10030    2    1    2    0    0  0.00000000000E+00  0.00000000000E+00 -0.26033589052E+03  0.11795399974E+04  0.11504520110E+04 0.  0.
        3    1    3    3  502    0 -0.11176137306E+03 -0.56326664271E+03 -0.16455750208E+03  0.59736010663E+03  0.10100000352E+00 0.  1.
       -3    1    3    3    0  502  0.11176137306E+03  0.56326664271E+03 -0.95778388433E+02  0.58217989075E+03  0.10100000352E+00 0. -1.
</event>
<event>
 5   0  0.1425432E-03  0.1100174E+04  0.7818609E-02  0.9205023E-01
        2   -1    0    0  501    0  0.00000000000E+00  0.00000000000E+00  0.65645209053E+03  0.65645209053E+03  0.25500000920E-02 0.  1.
       -2   -1    0    0    0  501  0.00000000000E+00  0.00000000000E+00 -0.46095588513E+03  0.46095588514E+03  0.25500000920E-02 0. -1.
    10030    2    1    2    0    0  0.00000000000E+00  0.00000000000E+00  0.19549620539E+03  0.11174079757E+04  0.11001735398E+04 0.  0.
        1    1    3    3  502    0 -0.13492739503E+03 -0.50493136625E+02  0.63695106349E+03  0.65304028672E+03  0.50400001928E-02 0.  1.
       -1    1    3    3    0  502  0.13492739503E+03  0.50493136625E+02 -0.44145485810E+03  0.46436768895E+03  0.50400001928E-02 0. -1.
</event>
<event>
 5   0  0.8150924E-04  0.1100065E+04  0.7818609E-02  0.9205128E-01
        1   -1    0    0  501    0  0.00000000000E+00  0.00000000000E+00  0.68422665080E+03  0.68422665082E+03  0.50400001928E-02 0. -1.
       -1   -1    0    0    0  501  0.00000000000E+00  0.00000000000E+00 -0.44215742866E+03  0.44215742869E+03  0.50400001928E-02 0.  1.
    10030    2    1    2    0    0  0.00000000000E+00  0.00000000000E+00  0.24206922215E+03  0.11263840795E+04  0.11000652645E+04 0.  0.
        3    1    3    3  502    0  0.10800255915E+02 -0.54977362106E+03  0.13431434392E+03  0.56604596379E+03  0.10100000352E+00 0. -1.
       -3    1    3    3    0  502 -0.10800255915E+02  0.54977362106E+03  0.10775487822E+03  0.56033811572E+03  0.10100000352E+00 0.  1.
</event>
<event>
 5   0  0.1429680E-03  0.1095125E+04  0.7818609E-02  0.9209956E-01
       -2   -1    0    0    0  501  0.00000000000E+00  0.00000000000E+00  0.88355366830E+03  0.88355366830E+03  0.25500000920E-02 0.  1.
        2   -1    0    0  501    0  0.00000000000E+00  0.00000000000E+00 -0.33933970113E+03  0.33933970114E+03  0.25500000920E-02 0. -1.
    10030    2    1    2    0    0  0.00000000000E+00  0.00000000000E+00  0.54421396717E+03  0.12228933694E+04  0.10951252672E+04 0.  0.
        3    1    3    3  502    0  0.34073320298E+03  0.24163054185E+02 -0.20577273550E+03  0.39877988625E+03  0.10100000352E+00 0. -1.
       -3    1    3    3    0  502 -0.34073320298E+03 -0.24163054185E+02  0.74998670267E+03  0.82411348319E+03  0.10100000352E+00 0.  1.
</event>
<event>
 5   0  0.8009636E-04  0.1104746E+04  0.7818609E-02  0.9200579E-01
        1   -1    0    0  501    0  0.00000000000E+00  0.00000000000E+00  0.13030835063E+04  0.13030835063E+04  0.50400001928E-02 0. -1.
       -1   -1    0    0    0  501  0.00000000000E+00  0.00000000000E+00 -0.23414899452E+03  0.23414899457E+03  0.50400001928E-02 0.  1.
    10030    2    1    2    0    0  0.00000000000E+00  0.00000000000E+00  0.10689345117E+04  0.15372325008E+04  0.11047455686E+04 0.  0.
        1    1    3    3  502    0  0.33997561838E+03 -0.34044191153E+03  0.91204756658E+03  0.10311716055E+04  0.50400001928E-02 0. -1.
       -1    1    3    3    0  502 -0.33997561838E+03  0.34044191153E+03  0.15688694515E+03  0.50606089535E+03  0.50400001928E-02 0.  1.
</event>
<event>
 5   0  0.1372794E-03  0.1098607E+04  0.7818609E-02  0.9206551E-01
        2   -1    0    0  501    0  0.00000000000E+00  0.00000000000E+00  0.43239301747E+03  0.43239301748E+03  0.25500000920E-02 0.  1.
       -2   -1    0    0    0  501  0.00000000000E+00  0.00000000000E+00 -0.69782365926E+03  0.69782365926E+03  0.25500000920E-02 0. -1.
    10030    2    1    2    0    0  0.00000000000E+00  0.00000000000E+00 -0.26543064179E+03  0.11302166767E+04  0.10986065314E+04 0.  0.
        4    1    3    3  502    0  0.20088595742E+03  0.47645234709E+03 -0.32344232776E+03  0.60990045026E+03  0.12699999809E+01 0. -1.
       -4    1    3    3    0  502 -0.20088595742E+03 -0.47645234709E+03  0.58011685973E+02  0.52031622649E+03  0.12699999809E+01 0.  1.
</event>
<event>
 5   0  0.1372794E-03  0.1100359E+04  0.7818609E-02  0.9204842E-01
        2   -1    0    0  501    0  0.00000000000E+00  0.00000000000E+00  0.13097607747E+04  0.13097607747E+04  0.25500000920E-02 0. -1.
       -2   -1    0    0    0  501  0.00000000000E+00  0.00000000000E+00 -0.23110883275E+03  0.23110883276E+03  0.25500000920E-02 0.  1.
    10030    2    1    2    0    0  0.00000000000E+00  0.00000000000E+00  0.10786519419E+04  0.15408696074E+04  0.11003586394E+04 0.  0.
        4    1    3    3  502    0  0.18447112419E+02 -0.54940023744E+03  0.57109701806E+03  0.79267542777E+03  0.12699999809E+01 0. -1.
       -4    1    3    3    0  502 -0.18447112419E+02  0.54940023744E+03  0.50755492386E+03  0.74819417967E+03  0.12699999809E+01 0.  1.
</event>
<event>
 5   0  0.8305271E-04  0.1098227E+04  0.7818609E-02  0.9206922E-01
        1   -1    0    0  501    0  0.00000000000E+00  0.00000000000E+00  0.97217232862E+03  0.97217232864E+03  0.50400001928E-02 0. -1.
       -1   -1    0    0    0  501  0.00000000000E+00  0.00000000000E+00 -0.31015637539E+03  0.31015637543E+03  0.50400001928E-02 0.  1.
    10030    2    1    2    0    0  0.00000000000E+00  0.00000000000E+00  0.66201595324E+03  0.12823287041E+04  0.10982266537E+04 0.  0.
        5    1    3    3  502    0 -0.51166600553E+03  0.19855168048E+03  0.35049331943E+03  0.65122386935E+03  0.46999998093E+01 0.  1.
       -5    1    3    3    0  502  0.51166600553E+03 -0.19855168048E+03  0.31152263380E+03  0.63110483472E+03  0.46999998093E+01 0. -1.
</event>
<event>
 5   0  0.8150924E-04  0.1095285E+04  0.7818609E-02  0.9209800E-01
       -1   -1    0    0    0  501  0.00000000000E+00  0.00000000000E+00  0.52382338846E+03  0.52382338849E+03  0.50400001928E-02 0. -1.
        1   -1    0    0  501    0  0.00000000000E+00  0.00000000000E+00 -0.57254431018E+03  0.57254431021E+03  0.50400001928E-02 0.  1.
    10030    2    1    2    0    0  0.00000000000E+00  0.00000000000E+00 -0.48720921719E+02  0.10963676987E+04  0.10952846217E+04 0.  0.
        3    1    3    3  502    0 -0.64301367276E+02 -0.95437669304E+02 -0.56030477152E+03  0.57200040363E+03  0.10100000352E+00 0.  1.
       -3    1    3    3    0  502  0.64301367276E+02  0.95437669304E+02  0.51158384980E+03  0.52436729507E+03  0.10100000352E+00 0. -1.
</event>
<event>
 5   0  0.8341767E-04  0.1101610E+04  0.7818609E-02  0.9203624E-01
       -1   -1    0    0    0  501  0.00000000000E+00  0.00000000000E+00  0.41866118574E+03  0.41866118577E+03  0.50400001928E-02 0.  1.
        1   -1    0    0  501    0  0.00000000000E+00  0.00000000000E+00 -0.72465804686E+03  0.72465804688E+03  0.50400001928E-02 0. -1.
    10030    2    1    2    0    0  0.00000000000E+00  0.00000000000E+00 -0.30599686112E+03  0.11433192326E+04  0.11016100892E+04 0.  0.
        2    1    3    3  502    0 -0.38184345230E+03  0.38391822578E+03 -0.48238248881E+02  0.54362170193E+03  0.25500000920E-02 0. -1.
       -2    1    3    3    0  502  0.38184345230E+03 -0.38391822578E+03 -0.25775861224E+03  0.59969753071E+03  0.25500000920E-02 0.  1.
</event>
<event>
 5   0  0.1372794E-03  0.1097098E+04  0.7818609E-02  0.9208025E-01
        2   -1    0    0  501    0  0.00000000000E+00  0.00000000000E+00  0.13833144903E+04  0.13833144903E+04  0.25500000920E-02 0. -1.
       -2   -1    0    0    0  501  0.00000000000E+00  0.00000000000E+00 -0.21752531456E+03  0.21752531458E+03  0.25500000920E-02 0.  1.
    10030    2    1    2    0    0  0.00000000000E+00  0.00000000000E+00  0.11657891758E+04  0.16008398049E+04  0.10970978437E+04 0.  0.
        4    1    3    3  502    0 -0.39346802752E+03  0.37033824637E+03  0.44495352585E+03  0.69996625524E+03  0.12699999809E+01 0. -1.
       -4    1    3    3    0  502  0.39346802752E+03 -0.37033824637E+03  0.72083564993E+03  0.90087354968E+03  0.12699999809E+01 0.  1.
</event>
<event>
 5   0  0.8150924E-04  0.1109501E+04  0.7818609E-02  0.9195981E-01
        1   -1    0    0  501    0  0.00000000000E+00  0.00000000000E+00  0.26670136159E+03  0.26670136164E+03  0.50400001928E-02 0. -1.
       -1   -1    0    0    0  501  0.00000000000E+00  0.00000000000E+00 -0.11539048305E+04  0.11539048305E+04  0.50400001928E-02 0.  1.
    10030    2    1    2    0    0  0.00000000000E+00  0.00000000000E+00 -0.88720346889E+03  0.14206061921E+04  0.11095007697E+04 0.  0.
        3    1    3    3  502    0  0.37359134375E+02 -0.33367660406E+03 -0.10090293093E+04  0.10634265082E+04  0.10100000352E+00 0.  1.
       -3    1    3    3    0  502 -0.37359134375E+02  0.33367660406E+03  0.12182584045E+03  0.35717968394E+03  0.10100000352E+00 0. -1.
</event>
<event>
 5   0  0.1396936E-03  0.1098622E+04  0.7818609E-02  0.9206536E-01
       -2   -1    0    0    0  501  0.00000000000E+00  0.00000000000E+00  0.48012312402E+03  0.48012312402E+03  0.25500000920E-02 0.  1.
        2   -1    0    0  501    0  0.00000000000E+00  0.00000000000E+00 -0.62846866242E+03  0.62846866242E+03  0.25500000920E-02 0. -1.
    10030    2    1    2    0    0  0.00000000000E+00  0.00000000000E+00 -0.14834553840E+03  0.11085917864E+04  0.10986215682E+04 0.  0.
        2    1    3    3  502    0 -0.39979745590E+03  0.26672933057E+03 -0.34259397430E+03  0.59021451419E+03  0.25500000920E-02 0. -1.
       -2    1    3    3    0  502  0.39979745590E+03 -0.26672933057E+03  0.19424843590E+03  0.51837727225E+03  0.25500000920E-02 0.  1.
</event>
<event>
 5   0  0.1372794E-03  0.1099856E+04  0.7818609E-02  0.9205332E-01
        2   -1    0    0  501    0  0.00000000000E+00  0.00000000000E+00  0.14393732380E+04  0.14393732380E+04  0.25500000920E-02 0. -1.
       -2   -1    0    0    0  501  0.00000000000E+00  0.00000000000E+00 -0.21010585492E+03  0.21010585493E+03  0.25500000920E-02 0.  1.
    10030    2    1    2    0    0  0.00000000000E+00  0.00000000000E+00  0.12292673831E+04  0.16494790929E+04  0.10998558901E+04 0.  0.
        4    1    3    3  502    0 -0.11590954297E+03 -0.29175136303E+03 -0.62512802678E+02  0.32009895873E+03  0.12699999809E+01 0.  1.
       -4    1    3    3    0  502  0.11590954297E+03  0.29175136303E+03  0.12917801858E+04  0.13293801342E+04  0.12699999809E+01 0. -1.
</event>
<event>
 5   0  0.8305271E-04  0.1100826E+04  0.7818609E-02  0.9204387E-01
        1   -1    0    0  501    0  0.00000000000E+00  0.00000000000E+00  0.34429371144E+03  0.34429371147E+03  0.50400001928E-02 0.  1.
       -1   -1    0    0    0  501  0.00000000000E+00  0.00000000000E+00 -0.87993097182E+03  0.87993097184E+03  0.50400001928E-02 0. -1.
    10030    2    1    2    0    0  0.00000000000E+00  0.00000000000E+00 -0.53563726038E+03  0.12242246833E+04  0.11008264171E+04 0.  0.
        5    1    3    3  502    0 -0.14713488565E+03  0.33660363065E+03  0.18798058580E+03  0.41268567867E+03  0.46999998093E+01 0.  1.
       -5    1    3    3    0  502  0.14713488565E+03 -0.33660363065E+03 -0.72361784618E+03  0.81153900464E+03  0.46999998093E+01 0. -1.
</event>
<event>
 5   0  0.5409500E-04  0.1100118E+04  0.7818609E-02  0.9205077E-01
       -4   -1    0    0    0  501  0.00000000000E+00  0.00000000000E+00  0.24458382757E+03  0.24458712478E+03  0.12699999809E+01 0.  1.
        4   -1    0    0  501    0  0.00000000000E+00  0.00000000000E+00 -0.12370485461E+04  0.12370491980E+04  0.12699999809E+01 0. -1.
    10030    2    1    2    0    0  0.00000000000E+00  0.00000000000E+00 -0.99246471854E+03  0.14816363228E+04  0.11001181643E+04 0.  0.
        3    1    3    3  502    0  0.42777269991E+03 -0.26864385105E+03 -0.20299530015E+03  0.54439517226E+03  0.10100000352E+00 0.  1.
       -3    1    3    3    0  502 -0.42777269991E+03  0.26864385105E+03 -0.78946941839E+03  0.93724115054E+03  0.10100000352E+00 0. -1.
</event>
<event>
 5   0  0.1396936E-03  0.1098310E+04  0.7818609E-02  0.9206841E-01
        2   -1    0    0  501    0  0.00000000000E+00  0.00000000000E+00  0.23958898447E+04  0.23958898447E+04  0.25500000920E-02 0. -1.
       -2   -1    0    0    0  501  0.00000000000E+00  0.00000000000E+00 -0.12587012344E+03  0.12587012346E+03  0.25500000920E-02 0.  1.
    10030    2    1    2    0    0  0.00000000000E+00  0.00000000000E+00  0.22700197212E+04  0.25217599681E+04  0.10983095202E+04 0.  0.
        2    1    3    3  502    0  0.11152010569E+03 -0.13742289390E+03 -0.58596648050E+02  0.18642787589E+03  0.25500000920E-02 0.  1.
       -2    1    3    3    0  502 -0.11152010569E+03  0.13742289390E+03  0.23286163693E+04  0.23353320922E+04  0.25500000920E-02 0. -1.
</event>
<event>
 5   0  0.1429680E-03  0.1098335E+04  0.7818609E-02  0.9206816E-01
        2   -1    0    0  501    0  0.00000000000E+00  0.00000000000E+00  0.10273218536E+04  0.10273218537E+04  0.25500000920E-02 0. -1.
       -2   -1    0    0    0  501  0.00000000000E+00  0.00000000000E+00 -0.29356409783E+03  0.29356409785E+03  0.25500000920E-02 0.  1.
    10030    2    1    2    0    0  0.00000000000E+00  0.00000000000E+00  0.73375775581E+03  0.13208859515E+04  0.10983347635E+04 0.  0.
        3    1    3    3  502    0  0.22824645591E+03 -0.36753960666E+03  0.77364922891E+03  0.88640563327E+03  0.10100000352E+00 0. -1.
       -3    1    3    3    0  502 -0.22824645591E+03  0.36753960666E+03 -0.39891473099E+02  0.43448031822E+03  0.10100000352E+00 0.  1.
</event>
<event>
 5   0  0.1402775E-03  0.1099368E+04  0.7818609E-02  0.9205808E-01
       -2   -1    0    0    0  501  0.00000000000E+00  0.00000000000E+00  0.25226869825E+03  0.25226869826E+03  0.25500000920E-02 0.  1.
        2   -1    0    0  501    0  0.00000000000E+00  0.00000000000E+00 -0.11977399509E+04  0.11977399509E+04  0.25500000920E-02 0. -1.
    10030    2    1    2    0    0  0.00000000000E+00  0.00000000000E+00 -0.94547125264E+03  0.14500086492E+04  0.10993676333E+04 0.  0.
        5    1    3    3  502    0 -0.38244865956E+03 -0.31124812373E+03 -0.79307393643E+03  0.93387939819E+03  0.46999998093E+01 0. -1.
       -5    1    3    3    0  502  0.38244865956E+03  0.31124812373E+03 -0.15239731622E+03  0.51612925097E+03  0.46999998093E+01 0.  1.
</event>
<event>
 5   0  0.8341767E-04  0.1094334E+04  0.7818609E-02  0.9210732E-01
       -1   -1    0    0    0  501  0.00000000000E+00  0.00000000000E+00  0.13534621284E+04  0.13534621284E+04  0.50400001928E-02 0.  1.
        1   -1    0    0  501    0  0.00000000000E+00  0.00000000000E+00 -0.22120435444E+03  0.22120435449E+03  0.50400001928E-02 0. -1.
    10030    2    1    2    0    0  0.00000000000E+00  0.00000000000E+00  0.11322577740E+04  0.15746664829E+04  0.10943339827E+04 0.  0.
        2    1    3    3  502    0 -0.12057710617E+03  0.49706631476E+03  0.84580664505E+03  0.98843443921E+03  0.25500000920E-02 0.  1.
       -2    1    3    3    0  502  0.12057710617E+03 -0.49706631476E+03  0.28645112893E+03  0.58623204371E+03  0.25500000920E-02 0. -1.
</event>
<event>
 5   0  0.1396936E-03  0.1089905E+04  0.7818609E-02  0.9215087E-01
       -2   -1    0    0    0  501  0.00000000000E+00  0.00000000000E+00  0.42393144795E+03  0.42393144796E+03  0.25500000920E-02 0. -1.
        2   -1    0    0  501    0  0.00000000000E+00  0.00000000000E+00 -0.70052235629E+03  0.70052235629E+03  0.25500000920E-02 0.  1.
    10030    2    1    2    0    0  0.00000000000E+00  0.00000000000E+00 -0.27659090834E+03  0.11244538043E+04  0.10899054213E+04 0.  0.
        2    1    3    3  502    0 -0.10901651783E+03  0.45153262652E+03 -0.43229720769E+03  0.63454486819E+03  0.25500000920E-02 0.  1.
       -2    1    3    3    0  502  0.10901651783E+03 -0.45153262652E+03  0.15570629935E+03  0.48990893606E+03  0.25500000920E-02 0. -1.
</event>
<event>
 5   0  0.8341767E-04  0.1106046E+04  0.7818609E-02  0.9199319E-01
       -1   -1    0    0    0  501  0.00000000000E+00  0.00000000000E+00  0.25515908451E+03  0.25515908456E+03  0.50400001928E-02 0.  1.
        1   -1    0    0  501    0  0.00000000000E+00  0.00000000000E+00 -0.11986027643E+04  0.11986027644E+04  0.50400001928E-02 0. -1.
    10030    2    1    2    0    0  0.00000000000E+00  0.00000000000E+00 -0.94344367984E+03  0.14537618489E+04  0.11060459016E+04 0.  0.
        2    1    3    3  502    0  0.26875877226E+02 -0.30820263700E+03 -0.10742219433E+04  0.11178836978E+04  0.25500000920E-02 0. -1.
       -2    1    3    3    0  502 -0.26875877226E+02  0.30820263700E+03  0.13077826346E+03  0.33587815117E+03  0.25500000920E-02 0.  1.
</event>
<event>
 5   0  0.1402775E-03  0.1103947E+04  0.7818609E-02  0.9201354E-01
        2   -1    0    0  501    0  0.00000000000E+00  0.00000000000E+00  0.75631394278E+03  0.75631394279E+03  0.25500000920E-02 0. -1.
       -2   -1    0    0    0  501  0.00000000000E+00  0.00000000000E+00 -0.40284129658E+03  0.40284129659E+03  0.25500000920E-02 0.  1.
    10030    2    1    2    0    0  0.00000000000E+00  0.00000000000E+00  0.35347264620E+03  0.11591552394E+04  0.11039465374E+04 0.  0.
        5    1    3    3  502    0  0.61607157144E+02  0.21968751447E+03 -0.35098589603E+03  0.41865407562E+03  0.46999998093E+01 0.  1.
       -5    1    3    3    0  502 -0.61607157144E+02 -0.21968751447E+03  0.70445854223E+03  0.74050116376E+03  0.46999998093E+01 0. -1.
</event>
<event>
 5   0  0.7946038E-04  0.1101647E+04  0.7818609E-02  0.9203588E-01
       -1   -1    0    0    0  501  0.00000000000E+00  0.00000000000E+00  0.13918370684E+04  0.13918370684E+04  0.50400001928E-02 0.  1.
        1   -1    0    0  501    0  0.00000000000E+00  0.00000000000E+00 -0.21799012889E+03  0.21799012895E+03  0.50400001928E-02 0. -1.
    10030    2    1    2    0    0  0.00000000000E+00  0.00000000000E+00  0.11738469395E+04  0.16098271974E+04  0.11016473882E+04 0.  0.
        4    1    3    3  502    0 -0.27230350971E+03  0.76722369901E+02 -0.10371169908E+03  0.30131918769E+03  0.12699999809E+01 0. -1.
       -4    1    3    3    0  502  0.27230350971E+03 -0.76722369901E+02  0.12775586386E+04  0.13085080097E+04  0.12699999809E+01 0.  1.
</event>
<event>
 5   0  0.8341767E-04  0.1101833E+04  0.7818609E-02  0.9203407E-01
       -1   -1    0    0    0  501  0.00000000000E+00  0.00000000000E+00  0.30030777051E+03  0.30030777055E+03  0.50400001928E-02 0.  1.
        1   -1    0    0  501    0  0.00000000000E+00  0.00000000000E+00 -0.10106599478E+04  0.10106599478E+04  0.50400001928E-02 0. -1.
    10030    2    1    2    0    0  0.00000000000E+00  0.00000000000E+00 -0.71035217732E+03  0.13109677184E+04  0.11018330830E+04 0.  0.
        2    1    3    3  502    0 -0.40527896391E+03  0.27264799364E+03 -0.65833407915E+03  0.81975101513E+03  0.25500000920E-02 0. -1.
       -2    1    3    3    0  502  0.40527896391E+03 -0.27264799364E+03 -0.52018098169E+02  0.49121670327E+03  0.25500000920E-02 0.  1.
</event>
<event>
 5   0  0.8009636E-04  0.1099306E+04  0.7818609E-02  0.9205869E-01
        1   -1    0    0  501    0  0.00000000000E+00  0.00000000000E+00  0.17704544770E+04  0.17704544770E+04  0.50400001928E-02 0.  1.
       -1   -1    0    0    0  501  0.00000000000E+00  0.00000000000E+00 -0.17064448395E+03  0.17064448402E+03  0.50400001928E-02 0. -1.
    10030    2    1    2    0    0  0.00000000000E+00  0.00000000000E+00  0.15998099930E+04  0.19410989610E+04  0.10993057639E+04 0.  0.
        1    1    3    3  502    0  0.92081616973E+02  0.44806650913E+02 -0.15365162230E+03  0.18464961741E+03  0.50400001928E-02 0. -1.
       -1    1    3    3    0  502 -0.92081616973E+02 -0.44806650913E+02  0.17534616153E+04  0.17564493436E+04  0.50400001928E-02 0.  1.
</event>
<event>
 5   0  0.1402775E-03  0.1111022E+04  0.7818609E-02  0.9194515E-01
        2   -1    0    0  501    0  0.00000000000E+00  0.00000000000E+00  0.80447344314E+03  0.80447344314E+03  0.25500000920E-02 0. -1.
       -2   -1    0    0    0  501  0.00000000000E+00  0.00000000000E+00 -0.38359539373E+03  0.38359539374E+03  0.25500000920E-02 0.  1.
    10030    2    1    2    0    0  0.00000000000E+00  0.00000000000E+00  0.42087804941E+03  0.11880688369E+04  0.11110217049E+04 0.  0.
        5    1    3    3  502    0  0.18503386687E+03 -0.12732804304E+03 -0.33284896409E+03  0.40157251565E+03  0.46999998093E+01 0.  1.
       -5    1    3    3    0  502 -0.18503386687E+03  0.12732804304E+03  0.75372701349E+03  0.78649632123E+03  0.46999998093E+01 0. -1.
</event>
<event>
 5   0  0.8305271E-04  0.1096217E+04  0.7818609E-02  0.9208887E-01
       -1   -1    0    0    0  501  0.00000000000E+00  0.00000000000E+00  0.24248026300E+03  0.24248026305E+03  0.50400001928E-02 0. -1.
        1   -1    0    0  501    0  0.00000000000E+00  0.00000000000E+00 -0.12389572156E+04  0.12389572156E+04  0.50400001928E-02 0.  1.
    10030    2    1    2    0    0  0.00000000000E+00  0.00000000000E+00 -0.99647695257E+03  0.14814374786E+04  0.10962165325E+04 0.  0.
        5    1    3    3  502    0  0.50828282531E+03  0.19648845921E+03 -0.57751723745E+03  0.79404495758E+03  0.46999998093E+01 0.  1.
       -5    1    3    3    0  502 -0.50828282531E+03 -0.19648845921E+03 -0.41895971512E+03  0.68739252105E+03  0.46999998093E+01 0. -1.
</event>
<event>
 5   0  0.8150924E-04  0.1101853E+04  0.7818609E-02  0.9203388E-01
       -1   -1    0    0    0  501  0.00000000000E+00  0.00000000000E+00  0.46490657594E+03  0.46490657597E+03  0.50400001928E-02 0. -1.
        1   -1    0    0  501    0  0.00000000000E+00  0.00000000000E+00 -0.65286202647E+03  0.65286202649E+03  0.50400001928E-02 0.  1.
    10030    2    1    2    0    0  0.00000000000E+00  0.00000000000E+00 -0.18795545053E+03  0.11177686025E+04  0.11018527112E+04 0.  0.
        3    1    3    3  502    0 -0.89883963780E+02  0.53984295100E+03 -0.15821939437E+03  0.56968669077E+03  0.10100000352E+00 0. -1.
       -3    1    3    3    0  502  0.89883963780E+02 -0.53984295100E+03 -0.29736056157E+02  0.54808191169E+03  0.10100000352E+00 0.  1.
</event>
<event>
 5   0  0.1425432E-03  0.1101568E+04  0.7818609E-02  0.9203665E-01
       -2   -1    0    0    0  501  0.00000000000E+00  0.00000000000E+00  0.14910166740E+03  0.14910166743E+03  0.25500000920E-02 0.  1.
        2   -1    0    0  501    0  0.00000000000E+00  0.00000000000E+00 -0.20346058722E+04  0.20346058722E+04  0.25500000920E-02 0. -1.
    10030    2    1    2    0    0  0.00000000000E+00  0.00000000000E+00 -0.18855042048E+04  0.21837075396E+04  0.11015682059E+04 0.  0.
        1    1    3    3  502    0 -0.23138204071E+03 -0.49351918775E+03 -0.10996506884E+04  0.12273265556E+04  0.50400001928E-02 0. -1.
       -1    1    3    3    0  502  0.23138204071E+03  0.49351918775E+03 -0.78585351639E+03  0.95638098407E+03  0.50400001928E-02 0.  1.
</event>
<event>
 5   0  0.8009636E-04  0.1099640E+04  0.7818609E-02  0.9205543E-01
        1   -1    0    0  501    0  0.00000000000E+00  0.00000000000E+00  0.74252978800E+03  0.74252978802E+03  0.50400001928E-02 0.  1.
       -1   -1    0    0    0  501  0.00000000000E+00  0.00000000000E+00 -0.40712461299E+03  0.40712461302E+03  0.50400001928E-02 0. -1.
    10030    2    1    2    0    0  0.00000000000E+00  0.00000000000E+00  0.33540517501E+03  0.11496544010E+04  0.10996402186E+04 0.  0.
        1    1    3    3  502    0  0.38512724271E+03  0.39205187021E+03  0.18502388401E+03  0.57988059090E+03  0.50400001928E-02 0. -1.
       -1    1    3    3    0  502 -0.38512724271E+03 -0.39205187021E+03  0.15038129100E+03  0.56977381014E+03  0.50400001928E-02 0.  1.
</event>
<event>
 5   0  0.1429680E-03  0.1102643E+04  0.7818609E-02  0.9202620E-01
        2   -1    0    0  501    0  0.00000000000E+00  0.00000000000E+00  0.10080229546E+04  0.10080229546E+04  0.25500000920E-02 0.  1.
       -2   -1    0    0    0  501  0.00000000000E+00  0.00000000000E+00 -0.30153600467E+03  0.30153600468E+03  0.25500000920E-02 0. -1.
    10030    2    1    2    0    0  0.00000000000E+00  0.00000000000E+00  0.70648694993E+03  0.13095589593E+04  0.11026426699E+04 0.  0.
        3    1    3    3  502    0 -0.46432115800E+03 -0.83000458671E+02  0.14247591684E+02  0.47189640598E+03  0.10100000352E+00 0. -1.
       -3    1    3    3    0  502  0.46432115800E+03  0.83000458671E+02  0.69223935825E+03  0.83766255331E+03  0.10100000352E+00 0.  1.
</event>
<event>
 5   0  0.8009636E-04  0.1099030E+04  0.7818609E-02  0.9206138E-01
        1   -1    0    0  501    0  0.00000000000E+00  0.00000000000E+00  0.95322383715E+03  0.95322383716E+03  0.50400001928E-02 0.  1.
       -1   -1    0    0    0  501  0.00000000000E+00  0.00000000000E+00 -0.31678476677E+03  0.31678476681E+03  0.50400001928E-02 0. -1.
    10030    2    1    2    0    0  0.00000000000E+00  0.00000000000E+00  0.63643907038E+03  0.12700086040E+04  0.10990301014E+04 0.  0.
        1    1    3    3  502    0  0.22742569913E+03  0.45758254868E+03  0.55181253641E+03  0.75206469990E+03  0.50400001928E-02 0.  1.
       -1    1    3    3    0  502 -0.22742569913E+03 -0.45758254868E+03  0.84626533970E+02  0.51794390407E+03  0.50400001928E-02 0. -1.
</event>
<event>
 5   0  0.7946038E-04  0.1100362E+04  0.7818609E-02  0.9204839E-01
       -1   -1    0    0    0  501  0.00000000000E+00  0.00000000000E+00  0.43211750164E+03  0.43211750167E+03  0.50400001928E-02 0.  1.
        1   -1    0    0  501    0  0.00000000000E+00  0.00000000000E+00 -0.70050197878E+03  0.70050197879E+03  0.50400001928E-02 0. -1.
    10030    2    1    2    0    0  0.00000000000E+00  0.00000000000E+00 -0.26838447714E+03  0.11326194805E+04  0.11003620586E+04 0.  0.
        4    1    3    3  502    0 -0.23725874085E+02 -0.54953109957E+03 -0.12157711586E+03  0.56332047228E+03  0.12699999809E+01 0.  1.
       -4    1    3    3    0  502  0.23725874085E+02  0.54953109957E+03 -0.14680736127E+03  0.56929900818E+03  0.12699999809E+01 0. -1.
</event>
<event>
 5   0  0.1425432E-03  0.1092742E+04  0.7818609E-02  0.9212295E-01
       -2   -1    0    0    0  501  0.00000000000E+00  0.00000000000E+00  0.12673504651E+04  0.12673504651E+04  0.25500000920E-02 0. -1.
        2   -1    0    0  501    0  0.00000000000E+00  0.00000000000E+00 -0.23554764334E+03  0.23554764336E+03  0.25500000920E-02 0.  1.
    10030    2    1    2    0    0  0.00000000000E+00  0.00000000000E+00  0.10318028218E+04  0.15028981085E+04  0.10927422667E+04 0.  0.
        1    1    3    3  502    0 -0.44858689884E+03 -0.18112850009E+01  0.86917232604E+02  0.45693335610E+03  0.50400001928E-02 0.  1.
       -1    1    3    3    0  502  0.44858689884E+03  0.18112850009E+01  0.94488558919E+03  0.10459647524E+04  0.50400001928E-02 0. -1.
</event>
<event>
 5   0  0.8009636E-04  0.1097403E+04  0.7818609E-02  0.9207726E-01
        1   -1    0    0  501    0  0.00000000000E+00  0.00000000000E+00  0.12299827507E+04  0.12299827507E+04  0.50400001928E-02 0. -1.
       -1   -1    0    0    0  501  0.00000000000E+00  0.00000000000E+00 -0.24477870523E+03  0.24477870528E+03  0.50400001928E-02 0.  1.
    10030    2    1    2    0    0  0.00000000000E+00  0.00000000000E+00  0.98520404551E+03  0.14747614560E+04  0.10974034540E+04 0.  0.
        1    1    3    3  502    0  0.47047185704E+03 -0.23027509793E+03  0.27299962431E+03  0.59067688621E+03  0.50400001928E-02 0.  1.
       -1    1    3    3    0  502 -0.47047185704E+03  0.23027509793E+03  0.71220442120E+03  0.88408456982E+03  0.50400001928E-02 0. -1.
</event>
<event>
 5   0  0.8009636E-04  0.1093969E+04  0.7818609E-02  0.9211090E-01
       -1   -1    0    0    0  501  0.00000000000E+00  0.00000000000E+00  0.32065249957E+03  0.32065249961E+03  0.50400001928E-02 0. -1.
        1   -1    0    0  501    0  0.00000000000E+00  0.00000000000E+00 -0.93307302587E+03  0.93307302589E+03  0.50400001928E-02 0.  1.
    10030    2    1    2    0    0  0.00000000000E+00  0.00000000000E+00 -0.61242052630E+03  0.12537255255E+04  0.10939692830E+04 0.  0.
        1    1    3    3  502    0 -0.34567146268E+03  0.40202882085E+03 -0.46029218671E+03  0.70212878454E+03  0.50400001928E-02 0.  1.
       -1    1    3    3    0  502  0.34567146268E+03 -0.40202882085E+03 -0.15212833959E+03  0.55159674096E+03  0.50400001928E-02 0. -1.
</event>
<event>
 5   0  0.1429680E-03  0.1101389E+04  0.7818609E-02  0.9203839E-01
       -2   -1    0    0    0  501  0.00000000000E+00  0.00000000000E+00  0.49396719187E+03  0.49396719188E+03  0.25500000920E-02 0.  1.
        2   -1    0    0  501    0  0.00000000000E+00  0.00000000000E+00 -0.61393672900E+03  0.61393672900E+03  0.25500000920E-02 0. -1.
    10030    2    1    2    0    0  0.00000000000E+00  0.00000000000E+00 -0.11996953713E+03  0.11079039209E+04  0.11013893081E+04 0.  0.
        3    1    3    3  502    0  0.84139606784E+02  0.40797995077E+02  0.48592279609E+03  0.49483828045E+03  0.10100000352E+00 0.  1.
       -3    1    3    3    0  502 -0.84139606784E+02 -0.40797995077E+02 -0.60589233322E+03  0.61306564044E+03  0.10100000352E+00 0. -1.
</event>
<event>
 5   0  0.1402775E-03  0.1070541E+04  0.7818609E-02  0.9234390E-01
       -2   -1    0    0    0  501  0.00000000000E+00  0.00000000000E+00  0.24356358477E+03  0.24356358478E+03  0.25500000920E-02 0.  1.
        2   -1    0    0  501    0  0.00000000000E+00  0.00000000000E+00 -0.11763440880E+04  0.11763440880E+04  0.25500000920E-02 0. -1.
    10030    2    1    2    0    0  0.00000000000E+00  0.00000000000E+00 -0.93278050327E+03  0.14199076728E+04  0.10705411398E+04 0.  0.
        5    1    3    3  502    0 -0.36382022419E+03  0.34856180250E+03 -0.70598574194E+03  0.86735139564E+03  0.46999998093E+01 0. -1.
       -5    1    3    3    0  502  0.36382022419E+03 -0.34856180250E+03 -0.22679476132E+03  0.55255627718E+03  0.46999998093E+01 0.  1.
</event>
<event>
 5   0  0.1396936E-03  0.1102340E+04  0.7818609E-02  0.9202914E-01
       -2   -1    0    0    0  501  0.00000000000E+00  0.00000000000E+00  0.45705554448E+03  0.45705554449E+03  0.25500000920E-02 0.  1.
        2   -1    0    0  501    0  0.00000000000E+00  0.00000000000E+00 -0.66466361487E+03  0.66466361487E+03  0.25500000920E-02 0. -1.
    10030    2    1    2    0    0  0.00000000000E+00  0.00000000000E+00 -0.20760807039E+03  0.11217191594E+04  0.11023396761E+04 0.  0.
        2    1    3    3  502    0 -0.31109018892E+03  0.29069919311E+03  0.25235643769E+03  0.49494130780E+03  0.25500000920E-02 0.  1.
       -2    1    3    3    0  502  0.31109018892E+03 -0.29069919311E+03 -0.45996450808E+03  0.62677785156E+03  0.25500000920E-02 0. -1.
</event>
<event>
 5   0  0.1396936E-03  0.1100235E+04  0.7818609E-02  0.9204963E-01
       -2   -1    0    0    0  501  0.00000000000E+00  0.00000000000E+00  0.17772764926E+03  0.17772764928E+03  0.25500000920E-02 0.  1.
        2   -1    0    0  501    0  0.00000000000E+00  0.00000000000E+00 -0.17027688736E+04  0.17027688736E+04  0.25500000920E-02 0. -1.
    10030    2    1    2    0    0  0.00000000000E+00  0.00000000000E+00 -0.15250412244E+04  0.18804965229E+04  0.11002347189E+04 0.  0.
        2    1    3    3  502    0  0.28032180764E+03 -0.15089845359E+02 -0.15711279767E+04  0.15960110083E+04  0.25500000920E-02 0. -1.
       -2    1    3    3    0  502 -0.28032180764E+03  0.15089845359E+02  0.46086752380E+02  0.28448551461E+03  0.25500000920E-02 0.  1.
</event>
<event>
 5   0  0.1429680E-03  0.1101345E+04  0.7818609E-02  0.9203882E-01
       -2   -1    0    0    0  501  0.00000000000E+00  0.00000000000E+00  0.20029473977E+03  0.20029473979E+03  0.25500000920E-02 0.  1.
        2   -1    0    0  501    0  0.00000000000E+00  0.00000000000E+00 -0.15139690638E+04  0.15139690638E+04  0.25500000920E-02 0. -1.
    10030    2    1    2    0    0  0.00000000000E+00  0.00000000000E+00 -0.13136743240E+04  0.17142638036E+04  0.11013447048E+04 0.  0.
        3    1    3    3  502    0  0.25382606705E+02 -0.20747500995E+03  0.13614751870E+03  0.24945202650E+03  0.10100000352E+00 0.  1.
       -3    1    3    3    0  502 -0.25382606705E+02  0.20747500995E+03 -0.14498218427E+04  0.14648117771E+04  0.10100000352E+00 0. -1.
</event>
<event>
 5   0  0.8341767E-04  0.1100140E+04  0.7818609E-02  0.9205056E-01
       -1   -1    0    0    0  501  0.00000000000E+00  0.00000000000E+00  0.58164249308E+03  0.58164249310E+03  0.50400001928E-02 0. -1.
        1   -1    0    0  501    0  0.00000000000E+00  0.00000000000E+00 -0.52021086340E+03  0.52021086342E+03  0.50400001928E-02 0.  1.
    10030    2    1    2    0    0  0.00000000000E+00  0.00000000000E+00  0.61431629686E+02  0.11018533565E+04  0.11001395249E+04 0.  0.
        2    1    3    3  502    0 -0.32400704218E+03 -0.18903170333E+03 -0.37223318835E+03  0.52846106267E+03  0.25500000920E-02 0.  1.
       -2    1    3    3    0  502  0.32400704218E+03  0.18903170333E+03  0.43366481803E+03  0.57339229385E+03  0.25500000920E-02 0. -1.
</event>
<event>
 5   0  0.1425432E-03  0.1100568E+04  0.7818609E-02  0.9204638E-01
       -2   -1    0    0    0  501  0.00000000000E+00  0.00000000000E+00  0.15454697995E+04  0.15454697995E+04  0.25500000920E-02 0.  1.
        2   -1    0    0  501    0  0.00000000000E+00  0.00000000000E+00 -0.19593573083E+03  0.19593573084E+03  0.25500000920E-02 0. -1.
    10030    2    1    2    0    0  0.00000000000E+00  0.00000000000E+00  0.13495340687E+04  0.17414055303E+04  0.11005684979E+04 0.  0.
        1    1    3    3  502    0 -0.80739112407E+02  0.13404040586E+03  0.15095250626E+04  0.15176137681E+04  0.50400001928E-02 0.  1.
       -1    1    3    3    0  502  0.80739112407E+02 -0.13404040586E+03 -0.15999099391E+03  0.22379176221E+03  0.50400001928E-02 0. -1.
</event>
<event>
 5   0  0.8009636E-04  0.1082758E+04  0.7818609E-02  0.9222162E-01
        1   -1    0    0  501    0  0.00000000000E+00  0.00000000000E+00  0.61791582601E+03  0.61791582603E+03  0.50400001928E-02 0. -1.
       -1   -1    0    0    0  501  0.00000000000E+00  0.00000000000E+00 -0.47432245630E+03  0.47432245632E+03  0.50400001928E-02 0.  1.
    10030    2    1    2    0    0  0.00000000000E+00  0.00000000000E+00  0.14359336971E+03  0.10922382824E+04  0.10827582415E+04 0.  0.
        1    1    3    3  502    0 -0.53101302508E+03  0.99366964076E+02  0.36235715370E+02  0.54144404461E+03  0.50400001928E-02 0. -1.
       -1    1    3    3    0  502  0.53101302508E+03 -0.99366964076E+02  0.10735765434E+03  0.55079423774E+03  0.50400001928E-02 0.  1.
</event>
<event>
 5   0  0.8150924E-04  0.1099105E+04  0.7818609E-02  0.9206065E-01
       -1   -1    0    0    0  501  0.00000000000E+00  0.00000000000E+00  0.22890200651E+03  0.22890200657E+03  0.50400001928E-02 0.  1.
        1   -1    0    0  501    0  0.00000000000E+00  0.00000000000E+00 -0.13193768352E+04  0.13193768352E+04  0.50400001928E-02 0. -1.
    10030    2    1    2    0    0  0.00000000000E+00  0.00000000000E+00 -0.10904748287E+04  0.15482788418E+04  0.10991050996E+04 0.  0.
        3    1    3    3  502    0  0.16122290966E+03  0.32344258334E+03 -0.11284346345E+04  0.11848935251E+04  0.10100000352E+00 0. -1.
       -3    1    3    3    0  502 -0.16122290966E+03 -0.32344258334E+03  0.37959805801E+02  0.36338531667E+03  0.10100000352E+00 0.  1.
</event>
<event>
 5   0  0.7946038E-04  0.1078647E+04  0.7818609E-02  0.9226258E-01
        1   -1    0    0  501    0  0.00000000000E+00  0.00000000000E+00  0.19001398567E+04  0.19001398567E+04  0.50400001928E-02 0. -1.
       -1   -1    0    0    0  501  0.00000000000E+00  0.00000000000E+00 -0.15307804899E+03  0.15307804907E+03  0.50400001928E-02 0.  1.
    10030    2    1    2    0    0  0.00000000000E+00  0.00000000000E+00  0.17470618077E+04  0.20532179057E+04  0.10786467488E+04 0.  0.
        4    1    3    3  502    0  0.64827061506E+02 -0.13607716458E+03  0.18592281153E+04  0.18653284806E+04  0.12699999809E+01 0. -1.
       -4    1    3    3    0  502 -0.64827061506E+02  0.13607716458E+03 -0.11216630766E+03  0.18788942519E+03  0.12699999809E+01 0.  1.
</event>
<event>
 5   0  0.1372794E-03  0.1099107E+04  0.7818609E-02  0.9206062E-01
       -2   -1    0    0    0  501  0.00000000000E+00  0.00000000000E+00  0.20341536157E+03  0.20341536159E+03  0.25500000920E-02 0.  1.
        2   -1    0    0  501    0  0.00000000000E+00  0.00000000000E+00 -0.14846921305E+04  0.14846921305E+04  0.25500000920E-02 0. -1.
    10030    2    1    2    0    0  0.00000000000E+00  0.00000000000E+00 -0.12812767690E+04  0.16881074921E+04  0.10991072497E+04 0.  0.
        4    1    3    3  502    0 -0.23929692780E+03  0.21782452649E+03  0.41575098492E+02  0.32625242637E+03  0.12699999809E+01 0.  1.
       -4    1    3    3    0  502  0.23929692780E+03 -0.21782452649E+03 -0.13228518675E+04  0.13618550658E+04  0.12699999809E+01 0. -1.
</event>
<event>
 5   0  0.8150924E-04  0.1116913E+04  0.7818609E-02  0.9188863E-01
        1   -1    0    0  501    0  0.00000000000E+00  0.00000000000E+00  0.83461835644E+03  0.83461835645E+03  0.50400001928E-02 0.  1.
       -1   -1    0    0    0  501  0.00000000000E+00  0.00000000000E+00 -0.37367198594E+03  0.37367198597E+03  0.50400001928E-02 0. -1.
    10030    2    1    2    0    0  0.00000000000E+00  0.00000000000E+00  0.46094637050E+03  0.12082903424E+04  0.11169127070E+04 0.  0.
        3    1    3    3  502    0 -0.34516395288E+03  0.36532334973E+03 -0.32908071526E+02  0.50366879554E+03  0.10100000352E+00 0.  1.
       -3    1    3    3    0  502  0.34516395288E+03 -0.36532334973E+03  0.49385444202E+03  0.70462154689E+03  0.10100000352E+00 0. -1.
</event>
<event>
 5   0  0.1402775E-03  0.1102096E+04  0.7818609E-02  0.9203151E-01
       -2   -1    0    0    0  501  0.00000000000E+00  0.00000000000E+00  0.41206425624E+03  0.41206425625E+03  0.25500000920E-02 0. -1.
        2   -1    0    0  501    0  0.00000000000E+00  0.00000000000E+00 -0.73690916281E+03  0.73690916281E+03  0.25500000920E-02 0.  1.
    10030    2    1    2    0    0  0.00000000000E+00  0.00000000000E+00 -0.32484490657E+03  0.11489734191E+04  0.11020960504E+04 0.  0.
        5    1    3    3  502    0  0.30118196537E+03  0.11976731720E+03 -0.62699662626E+03  0.70583400731E+03  0.46999998093E+01 0.  1.
       -5    1    3    3    0  502 -0.30118196537E+03 -0.11976731720E+03  0.30215171970E+03  0.44313941175E+03  0.46999998093E+01 0. -1.
</event>
<event>
 5   0  0.8150924E-04  0.1097221E+04  0.7818609E-02  0.9207905E-01
       -1   -1    0    0    0  501  0.00000000000E+00  0.00000000000E+00  0.48889511865E+03  0.48889511867E+03  0.50400001928E-02 0. -1.
        1   -1    0    0  501    0  0.00000000000E+00  0.00000000000E+00 -0.61561974644E+03  0.61561974646E+03  0.50400001928E-02 0.  1.
    10030    2    1    2    0    0  0.00000000000E+00  0.00000000000E+00 -0.12672462779E+03  0.11045148651E+04  0.10972210151E+04 0.  0.
        3    1    3    3  502    0 -0.50193377737E+03 -0.20590716632E+03  0.18654452109E+02  0.54284737891E+03  0.10100000352E+00 0. -1.
       -3    1    3    3    0  502  0.50193377737E+03  0.20590716632E+03 -0.14537907990E+03  0.56166748622E+03  0.10100000352E+00 0.  1.
</event>
<event>
 5   0  0.1425432E-03  0.1135357E+04  0.7818609E-02  0.9171399E-01
       -2   -1    0    0    0  501  0.00000000000E+00  0.00000000000E+00  0.26922868550E+03  0.26922868551E+03  0.25500000920E-02 0.  1.
        2   -1    0    0  501    0  0.00000000000E+00  0.00000000000E+00 -0.11969712272E+04  0.11969712272E+04  0.25500000920E-02 0. -1.
    10030    2    1    2    0    0  0.00000000000E+00  0.00000000000E+00 -0.92774254167E+03  0.14661999127E+04  0.11353571950E+04 0.  0.
        1    1    3    3  502    0 -0.25138854917E+03 -0.48058315995E+03 -0.68035937146E+03  0.87008347337E+03  0.50400001928E-02 0. -1.
       -1    1    3    3    0  502  0.25138854917E+03  0.48058315995E+03 -0.24738317022E+03  0.59611643931E+03  0.50400001928E-02 0.  1.
</event>
<event>
 5   0  0.8150924E-04  0.1100769E+04  0.7818609E-02  0.9204442E-01
        1   -1    0    0  501    0  0.00000000000E+00  0.00000000000E+00  0.10642826647E+04  0.10642826647E+04  0.50400001928E-02 0.  1.
       -1   -1    0    0    0  501  0.00000000000E+00  0.00000000000E+00 -0.28462663944E+03  0.28462663949E+03  0.50400001928E-02 0. -1.
    10030    2    1    2    0    0  0.00000000000E+00  0.00000000000E+00  0.77965602524E+03  0.13489093042E+04  0.11007691825E+04 0.  0.
        3    1    3    3  502    0 -0.36306539221E+02 -0.54913286550E+03  0.38048586319E+03  0.66905498358E+03  0.10100000352E+00 0. -1.
       -3    1    3    3    0  502  0.36306539221E+02  0.54913286550E+03  0.39917016205E+03  0.67985432060E+03  0.10100000352E+00 0.  1.
</event>
<event>
 5   0  0.1402775E-03  0.1100973E+04  0.7818609E-02  0.9204244E-01
       -2   -1    0    0    0  501  0.00000000000E+00  0.00000000000E+00  0.43902935574E+03  0.43902935574E+03  0.25500000920E-02 0.  1.
        2   -1    0    0  501    0  0.00000000000E+00  0.00000000000E+00 -0.69023983985E+03  0.69023983986E+03  0.25500000920E-02 0. -1.
    10030    2    1    2    0    0  0.00000000000E+00  0.00000000000E+00 -0.25121048412E+03  0.11292691956E+04  0.11009733007E+04 0.  0.
        5    1    3    3  502    0  0.20793078470E+03  0.47586765340E+03 -0.31285738754E+03  0.60628959229E+03  0.46999998093E+01 0. -1.
       -5    1    3    3    0  502 -0.20793078470E+03 -0.47586765340E+03  0.61646903418E+02  0.52297960331E+03  0.46999998093E+01 0.  1.
</event>
<event>
 5   0  0.1429680E-03  0.1099016E+04  0.7818609E-02  0.9206151E-01
        2   -1    0    0  501    0  0.00000000000E+00  0.00000000000E+00  0.71834470412E+03  0.71834470413E+03  0.25500000920E-02 0. -1.
       -2   -1    0    0    0  501  0.00000000000E+00  0.00000000000E+00 -0.42035395790E+03  0.42035395790E+03  0.25500000920E-02 0.  1.
    10030    2    1    2    0    0  0.00000000000E+00  0.00000000000E+00  0.29799074623E+03  0.11386986620E+04  0.10990159954E+04 0.  0.
        3    1    3    3  502    0 -0.52317436779E+03  0.15510126008E+03  0.21607250318E+03  0.58690302165E+03  0.10100000352E+00 0. -1.
       -3    1    3    3    0  502  0.52317436779E+03 -0.15510126008E+03  0.81918243044E+02  0.55179564038E+03  0.10100000352E+00 0.  1.
</event>
<event>
 5   0  0.1429680E-03  0.1082545E+04  0.7818609E-02  0.9222373E-01
        2   -1    0    0  501    0  0.00000000000E+00  0.00000000000E+00  0.64249168387E+03  0.64249168388E+03  0.25500000920E-02 0.  1.
       -2   -1    0    0    0  501  0.00000000000E+00  0.00000000000E+00 -0.45599992568E+03  0.45599992569E+03  0.25500000920E-02 0. -1.
    10030    2    1    2    0    0  0.00000000000E+00  0.00000000000E+00  0.18649175820E+03  0.10984916096E+04  0.10825454450E+04 0.  0.
        3    1    3    3  502    0 -0.33010998877E+03  0.16068776260E+03  0.49682667714E+03  0.61776202461E+03  0.10100000352E+00 0.  1.
       -3    1    3    3    0  502  0.33010998877E+03 -0.16068776260E+03 -0.31033491894E+03  0.48072958495E+03  0.10100000352E+00 0. -1.
</event>
<event>
 5   0  0.8009636E-04  0.1100989E+04  0.7818609E-02  0.9204228E-01
        1   -1    0    0  501    0  0.00000000000E+00  0.00000000000E+00  0.94643970395E+03  0.94643970396E+03  0.50400001928E-02 0. -1.
       -1   -1    0    0    0  501  0.00000000000E+00  0.00000000000E+00 -0.32019409351E+03  0.32019409354E+03  0.50400001928E-02 0.  1.
    10030    2    1    2    0    0  0.00000000000E+00  0.00000000000E+00  0.62624561044E+03  0.12666337975E+04  0.11009893789E+04 0.  0.
        1    1    3    3  502    0  0.56340008428E+02  0.20600591267E+03 -0.27058972272E+03  0.34471935059E+03  0.50400001928E-02 0.  1.
       -1    1    3    3    0  502 -0.56340008428E+02 -0.20600591267E+03  0.89683533316E+03  0.92191444692E+03  0.50400001928E-02 0. -1.
</event>
<event>
 5   0  0.7946038E-04  0.1156559E+04  0.7818609E-02  0.9151754E-01
       -1   -1    0    0    0  501  0.00000000000E+00  0.00000000000E+00  0.44363626280E+03  0.44363626283E+03  0.50400001928E-02 0. -1.
        1   -1    0    0  501    0  0.00000000000E+00  0.00000000000E+00 -0.75378658518E+03  0.75378658519E+03  0.50400001928E-02 0.  1.
    10030    2    1    2    0    0  0.00000000000E+00  0.00000000000E+00 -0.31015032238E+03  0.11974228480E+04  0.11565587985E+04 0.  0.
        4    1    3    3  502    0 -0.25971708910E+03  0.23494624902E+03 -0.63149994729E+03  0.72211252767E+03  0.12699999809E+01 0.  1.
       -4    1    3    3    0  502  0.25971708910E+03 -0.23494624902E+03  0.32134962491E+03  0.47531032035E+03  0.12699999809E+01 0. -1.
</event>
<event>
 5   0  0.8009636E-04  0.1097953E+04  0.7818609E-02  0.9207190E-01
        1   -1    0    0  501    0  0.00000000000E+00  0.00000000000E+00  0.13078219932E+04  0.13078219932E+04  0.50400001928E-02 0. -1.
       -1   -1    0    0    0  501  0.00000000000E+00  0.00000000000E+00 -0.23044044637E+03  0.23044044642E+03  0.50400001928E-02 0.  1.
    10030    2    1    2    0    0  0.00000000000E+00  0.00000000000E+00  0.10773815468E+04  0.15382624396E+04  0.10979527930E+04 0.  0.
        1    1    3    3  502    0  0.14961719684E+03 -0.50508085032E+03  0.32217365713E+03  0.61748508996E+03  0.50400001928E-02 0.  1.
       -1    1    3    3    0  502 -0.14961719684E+03  0.50508085032E+03  0.75520788966E+03  0.92077734962E+03  0.50400001928E-02 0. -1.
</event>
<event>
 5   0  0.8305271E-04  0.1100541E+04  0.7818609E-02  0.9204665E-01
        1   -1    0    0  501    0  0.00000000000E+00  0.00000000000E+00  0.78382908499E+03  0.78382908500E+03  0.50400001928E-02 0.  1.
       -1   -1    0    0    0  501  0.00000000000E+00  0.00000000000E+00 -0.38630581841E+03  0.38630581844E+03  0.50400001928E-02 0. -1.
    10030    2    1    2    0    0  0.00000000000E+00  0.00000000000E+00  0.39752326658E+03  0.11701349034E+04  0.11005412054E+04 0.  0.
        5    1    3    3  502    0  0.14243920997E+01  0.33802295756E+03  0.66039962485E+03  0.74189709747E+03  0.46999998093E+01 0.  1.
       -5    1    3    3    0  502 -0.14243920997E+01 -0.33802295756E+03 -0.26287635827E+03  0.42823780597E+03  0.46999998093E+01 0. -1.
</event>
<event>
 5   0  0.8150924E-04  0.1099092E+04  0.7818609E-02  0.9206077E-01
        1   -1    0    0  501    0  0.00000000000E+00  0.00000000000E+00  0.59381835136E+03  0.59381835138E+03  0.50400001928E-02 0.  1.
       -1   -1    0    0    0  501  0.00000000000E+00  0.00000000000E+00 -0.50857438207E+03  0.50857438210E+03  0.50400001928E-02 0. -1.
    10030    2    1    2    0    0  0.00000000000E+00  0.00000000000E+00  0.85243969287E+02  0.11023927335E+04  0.10990919909E+04 0.  0.
        3    1    3    3  502    0  0.53400663696E+03  0.91093466454E+02 -0.50065943221E+02  0.54402915071E+03  0.10100000352E+00 0. -1.
       -3    1    3    3    0  502 -0.53400663696E+03 -0.91093466454E+02  0.13530991251E+03  0.55836358278E+03  0.10100000352E+00 0.  1.
</event>
<event>
 5   0  0.7946038E-04  0.1098681E+04  0.7818609E-02  0.9206478E-01
        1   -1    0    0  501    0  0.00000000000E+00  0.00000000000E+00  0.10132469703E+04  0.10132469703E+04  0.50400001928E-02 0. -1.
       -1   -1    0    0    0  501  0.00000000000E+00  0.00000000000E+00 -0.29782982466E+03  0.29782982470E+03  0.50400001928E-02 0.  1.
    10030    2    1    2    0    0  0.00000000000E+00  0.00000000000E+00  0.71541714565E+03  0.13110767950E+04  0.10986813324E+04 0.  0.
        4    1    3    3  502    0  0.22269329237E+03  0.44970848025E+03  0.62439199797E+03  0.80105992267E+03  0.12699999809E+01 0. -1.
       -4    1    3    3    0  502 -0.22269329237E+03 -0.44970848025E+03  0.91025147685E+02  0.51001687236E+03  0.12699999809E+01 0.  1.
</event>
<event>
 5   0  0.8341767E-04  0.1099531E+04  0.7818609E-02  0.9205649E-01
       -1   -1    0    0    0  501  0.00000000000E+00  0.00000000000E+00  0.21244909467E+03  0.21244909473E+03  0.50400001928E-02 0. -1.
        1   -1    0    0  501    0  0.00000000000E+00  0.00000000000E+00 -0.14226567949E+04  0.14226567949E+04  0.50400001928E-02 0.  1.
    10030    2    1    2    0    0  0.00000000000E+00  0.00000000000E+00 -0.12102077002E+04  0.16351058896E+04  0.10995310785E+04 0.  0.
        2    1    3    3  502    0 -0.26634919236E+03 -0.23580458296E+03 -0.12284364954E+04  0.12789065317E+04  0.25500000920E-02 0.  1.
       -2    1    3    3    0  502  0.26634919236E+03  0.23580458296E+03  0.18228795156E+02  0.35619935794E+03  0.25500000920E-02 0. -1.
</event>
<event>
 5   0  0.1396936E-03  0.1100029E+04  0.7818609E-02  0.9205164E-01
       -2   -1    0    0    0  501  0.00000000000E+00  0.00000000000E+00  0.41682588371E+03  0.41682588372E+03  0.25500000920E-02 0. -1.
        2   -1    0    0  501    0  0.00000000000E+00  0.00000000000E+00 -0.72576032906E+03  0.72576032906E+03  0.25500000920E-02 0.  1.
    10030    2    1    2    0    0  0.00000000000E+00  0.00000000000E+00 -0.30893444535E+03  0.11425862128E+04  0.11000285279E+04 0.  0.
        2    1    3    3  502    0  0.22436942933E+02 -0.22808122911E+03  0.36486756545E+03  0.43087446408E+03  0.25500000920E-02 0. -1.
       -2    1    3    3    0  502 -0.22436942933E+02  0.22808122911E+03 -0.67380201079E+03  0.71171174870E+03  0.25500000920E-02 0.  1.
</event>
<event>
 5   0  0.8305271E-04  0.1095249E+04  0.7818609E-02  0.9209835E-01
       -1   -1    0    0    0  501  0.00000000000E+00  0.00000000000E+00  0.23882066330E+03  0.23882066336E+03  0.50400001928E-02 0. -1.
        1   -1    0    0  501    0  0.00000000000E+00  0.00000000000E+00 -0.12557223807E+04  0.12557223807E+04  0.50400001928E-02 0.  1.
    10030    2    1    2    0    0  0.00000000000E+00  0.00000000000E+00 -0.10169017174E+04  0.14945430441E+04  0.10952487424E+04 0.  0.
        5    1    3    3  502    0 -0.52422439743E+03  0.11664688157E+03 -0.65448305689E+03  0.84663325920E+03  0.46999998093E+01 0.  1.
       -5    1    3    3    0  502  0.52422439743E+03 -0.11664688157E+03 -0.36241866052E+03  0.64790978487E+03  0.46999998093E+01 0. -1.
</event>
<event>
 5   0  0.8150924E-04  0.1120564E+04  0.7818609E-02  0.9185378E-01
        1   -1    0    0  501    0  0.00000000000E+00  0.00000000000E+00  0.21598049098E+04  0.21598049098E+04  0.50400001928E-02 0. -1.
       -1   -1    0    0    0  501  0.00000000000E+00  0.00000000000E+00 -0.14534453118E+03  0.14534453127E+03  0.50400001928E-02 0.  1.
    10030    2    1    2    0    0  0.00000000000E+00  0.00000000000E+00  0.20144603786E+04  0.23051494411E+04  0.11205638441E+04 0.  0.
        3    1    3    3  502    0 -0.38058245552E+02 -0.47031152708E+03  0.16287244391E+04  0.16956959254E+04  0.10100000352E+00 0. -1.
       -3    1    3    3    0  502  0.38058245552E+02  0.47031152708E+03  0.38573593949E+03  0.60945351568E+03  0.10100000352E+00 0.  1.
</event>
<event>
 5   0  0.1396936E-03  0.1101537E+04  0.7818609E-02  0.9203695E-01
       -2   -1    0    0    0  501  0.00000000000E+00  0.00000000000E+00  0.23962359085E+03  0.23962359087E+03  0.25500000920E-02 0.  1.
        2   -1    0    0  501    0  0.00000000000E+00  0.00000000000E+00 -0.12659261520E+04  0.12659261520E+04  0.25500000920E-02 0. -1.
    10030    2    1    2    0    0  0.00000000000E+00  0.00000000000E+00 -0.10263025611E+04  0.15055497429E+04  0.11015366908E+04 0.  0.
        2    1    3    3  502    0  0.13712509722E+03 -0.52622371784E+03 -0.63254708161E+03  0.83416455449E+03  0.25500000920E-02 0.  1.
       -2    1    3    3    0  502 -0.13712509722E+03  0.52622371784E+03 -0.39375547953E+03  0.67138518838E+03  0.25500000920E-02 0. -1.
</event>
<event>
 5   0  0.8341767E-04  0.1103924E+04  0.7818609E-02  0.9201376E-01
        1   -1    0    0  501    0  0.00000000000E+00  0.00000000000E+00  0.36066289862E+03  0.36066289866E+03  0.50400001928E-02 0. -1.
       -1   -1    0    0    0  501  0.00000000000E+00  0.00000000000E+00 -0.84472789856E+03  0.84472789857E+03  0.50400001928E-02 0.  1.
    10030    2    1    2    0    0  0.00000000000E+00  0.00000000000E+00 -0.48406499993E+03  0.12053907972E+04  0.11039239330E+04 0.  0.
        2    1    3    3  502    0  0.22436542453E+03  0.45086754603E+03  0.46547553692E+01  0.50362987853E+03  0.25500000920E-02 0. -1.
       -2    1    3    3    0  502 -0.22436542453E+03 -0.45086754603E+03 -0.48871975530E+03  0.70176091870E+03  0.25500000920E-02 0.  1.
</event>
<event>
 5   0  0.8305271E-04  0.1088513E+04  0.7818609E-02  0.9216461E-01
        1   -1    0    0  501    0  0.00000000000E+00  0.00000000000E+00  0.30100421596E+03  0.30100421600E+03  0.50400001928E-02 0. -1.
       -1   -1    0    0    0  501  0.00000000000E+00  0.00000000000E+00 -0.98408903359E+03  0.98408903360E+03  0.50400001928E-02 0.  1.
    10030    2    1    2    0    0  0.00000000000E+00  0.00000000000E+00 -0.68308481763E+03  0.12850932496E+04  0.10885126513E+04 0.  0.
        5    1    3    3  502    0 -0.36685115665E+03 -0.38379844851E+02 -0.81398731869E+03  0.89367232732E+03  0.46999998093E+01 0.  1.
       -5    1    3    3    0  502  0.36685115665E+03  0.38379844851E+02  0.13090250106E+03  0.39142092229E+03  0.46999998093E+01 0. -1.
</event>
<event>
 5   0  0.1425432E-03  0.1101204E+04  0.7818609E-02  0.9204019E-01
        2   -1    0    0  501    0  0.00000000000E+00  0.00000000000E+00  0.21839251135E+03  0.21839251136E+03  0.25500000920E-02 0. -1.
       -2   -1    0    0    0  501  0.00000000000E+00  0.00000000000E+00 -0.13881554009E+04  0.13881554009E+04  0.25500000920E-02 0.  1.
    10030    2    1    2    0    0  0.00000000000E+00  0.00000000000E+00 -0.11697628895E+04  0.16065479122E+04  0.11012043301E+04 0.  0.
        1    1    3    3  502    0 -0.12160644204E+03  0.60443323805E+02 -0.13633403500E+04  0.13700870162E+04  0.50400001928E-02 0.  1.
       -1    1    3    3    0  502  0.12160644204E+03 -0.60443323805E+02  0.19357746043E+03  0.23646089603E+03  0.50400001928E-02 0. -1.
</event>
<event>
 5   0  0.1396936E-03  0.1104978E+04  0.7818609E-02  0.9200354E-01
        2   -1    0    0  501    0  0.00000000000E+00  0.00000000000E+00  0.60434899538E+03  0.60434899538E+03  0.25500000920E-02 0.  1.
       -2   -1    0    0    0  501  0.00000000000E+00  0.00000000000E+00 -0.50507907330E+03  0.50507907331E+03  0.25500000920E-02 0. -1.
    10030    2    1    2    0    0  0.00000000000E+00  0.00000000000E+00  0.99269922074E+02  0.11094280687E+04  0.11049778831E+04 0.  0.
        2    1    3    3  502    0 -0.45927765407E+03  0.29431414542E+03  0.13766503963E+03  0.56259083077E+03  0.25500000920E-02 0.  1.
       -2    1    3    3    0  502  0.45927765407E+03 -0.29431414542E+03 -0.38395117557E+02  0.54683723792E+03  0.25500000920E-02 0. -1.
</event>
<event>
 5   0  0.1372794E-03  0.1102443E+04  0.7818609E-02  0.9202814E-01
       -2   -1    0    0    0  501  0.00000000000E+00  0.00000000000E+00  0.73169456180E+03  0.73169456181E+03  0.25500000920E-02 0. -1.
        2   -1    0    0  501    0  0.00000000000E+00  0.00000000000E+00 -0.41526193541E+03  0.41526193542E+03  0.25500000920E-02 0.  1.
    10030    2    1    2    0    0  0.00000000000E+00  0.00000000000E+00  0.31643262639E+03  0.11469564972E+04  0.11024425606E+04 0.  0.
        4    1    3    3  502    0 -0.44528325519E+03 -0.28174551771E+03 -0.10137134440E+02  0.52703139232E+03  0.12699999809E+01 0.  1.
       -4    1    3    3    0  502  0.44528325519E+03  0.28174551771E+03  0.32656976083E+03  0.61992510490E+03  0.12699999809E+01 0. -1.
</event>
<event>
 5   0  0.1402775E-03  0.1099292E+04  0.7818609E-02  0.9205882E-01
        2   -1    0    0  501    0  0.00000000000E+00  0.00000000000E+00  0.42584096417E+03  0.42584096418E+03  0.25500000920E-02 0.  1.
       -2   -1    0    0    0  501  0.00000000000E+00  0.00000000000E+00 -0.70944499604E+03  0.70944499604E+03  0.25500000920E-02 0. -1.
    10030    2    1    2    0    0  0.00000000000E+00  0.00000000000E+00 -0.28360403187E+03  0.11352859602E+04  0.10992920288E+04 0.  0.
        5    1    3    3  502    0 -0.25601579323E+03  0.34024018888E+03 -0.50071719024E+03  0.65730302533E+03  0.46999998093E+01 0. -1.
       -5    1    3    3    0  502  0.25601579323E+03 -0.34024018888E+03  0.21711315837E+03  0.47798293489E+03  0.46999998093E+01 0.  1.
</event>
<event>
 5   0  0.1372794E-03  0.1100835E+04  0.7818609E-02  0.9204379E-01
       -2   -1    0    0    0  501  0.00000000000E+00  0.00000000000E+00  0.68588035984E+03  0.68588035984E+03  0.25500000920E-02 0.  1.
        2   -1    0    0  501    0  0.00000000000E+00  0.00000000000E+00 -0.44170863815E+03  0.44170863816E+03  0.25500000920E-02 0. -1.
    10030    2    1    2    0    0  0.00000000000E+00  0.00000000000E+00  0.24417172169E+03  0.11275889980E+04  0.11008347373E+04 0.  0.
        4    1    3    3  502    0 -0.12545726817E+03  0.53001434028E+03  0.40765315601E+02  0.54618508850E+03  0.12699999809E+01 0. -1.
       -4    1    3    3    0  502  0.12545726817E+03 -0.53001434028E+03  0.20340640609E+03  0.58140390950E+03  0.12699999809E+01 0.  1.
</event>
<event>
 5   0  0.1425432E-03  0.1097554E+04  0.7818609E-02  0.9207579E-01
       -2   -1    0    0    0  501  0.00000000000E+00  0.00000000000E+00  0.53930438002E+03  0.53930438003E+03  0.25500000920E-02 0. -1.
        2   -1    0    0  501    0  0.00000000000E+00  0.00000000000E+00 -0.55841641221E+03  0.55841641221E+03  0.25500000920E-02 0.  1.
    10030    2    1    2    0    0  0.00000000000E+00  0.00000000000E+00 -0.19112032187E+02  0.10977207922E+04  0.10975544032E+04 0.  0.
        1    1    3    3  502    0 -0.42328261884E+03  0.30845913555E+03  0.15430167248E+03  0.54600752730E+03  0.50400001928E-02 0. -1.
       -1    1    3    3    0  502  0.42328261884E+03 -0.30845913555E+03 -0.17341370467E+03  0.55171326494E+03  0.50400001928E-02 0.  1.
</event>
<event>
 5   0  0.8341767E-04  0.1099507E+04  0.7818609E-02  0.9205673E-01
        1   -1    0    0  501    0  0.00000000000E+00  0.00000000000E+00  0.92921192730E+03  0.92921192732E+03  0.50400001928E-02 0. -1.
       -1   -1    0    0    0  501  0.00000000000E+00  0.00000000000E+00 -0.32525292672E+03  0.32525292676E+03  0.50400001928E-02 0.  1.
    10030    2    1    2    0    0  0.00000000000E+00  0.00000000000E+00  0.60395900058E+03  0.12544648541E+04  0.10995069785E+04 0.  0.
        2    1    3    3  502    0  0.15822424244E+03 -0.40683807067E+03 -0.79298664733E+02  0.44366699773E+03  0.25500000920E-02 0.  1.
       -2    1    3    3    0  502 -0.15822424244E+03  0.40683807067E+03  0.68325766531E+03  0.81079785635E+03  0.25500000920E-02 0. -1.
</event>
<event>
 5   0  0.1396936E-03  0.1102163E+04  0.7818609E-02  0.9203086E-01
        2   -1    0    0  501    0  0.00000000000E+00  0.00000000000E+00  0.15308515223E+04  0.15308515223E+04  0.25500000920E-02 0. -1.
       -2   -1    0    0    0  501  0.00000000000E+00  0.00000000000E+00 -0.19838030901E+03  0.19838030903E+03  0.25500000920E-02 0.  1.
    10030    2    1    2    0    0  0.00000000000E+00  0.00000000000E+00  0.13324712133E+04  0.17292318313E+04  0.11021629608E+04 0.  0.
        2    1    3    3  502    0  0.44672713811E+03 -0.18437427301E+03  0.10817297149E+04  0.11847776941E+04  0.25500000920E-02 0. -1.
       -2    1    3    3    0  502 -0.44672713811E+03  0.18437427301E+03  0.25074149840E+03  0.54445413718E+03  0.25500000920E-02 0.  1.
</event>
<event>
 5   0  0.1429680E-03  0.1103653E+04  0.7818609E-02  0.9201639E-01
       -2   -1    0    0    0  501  0.00000000000E+00  0.00000000000E+00  0.43688823355E+03  0.43688823355E+03  0.25500000920E-02 0. -1.
        2   -1    0    0  501    0  0.00000000000E+00  0.00000000000E+00 -0.69700334445E+03  0.69700334446E+03  0.25500000920E-02 0.  1.
    10030    2    1    2    0    0  0.00000000000E+00  0.00000000000E+00 -0.26011511091E+03  0.11338915780E+04  0.11036531338E+04 0.  0.
        3    1    3    3  502    0 -0.36738523138E+03 -0.41159218163E+03 -0.11823052868E+03  0.56423266507E+03  0.10100000352E+00 0.  1.
       -3    1    3    3    0  502  0.36738523138E+03  0.41159218163E+03 -0.14188458223E+03  0.56965891294E+03  0.10100000352E+00 0. -1.
</event>
<event>
 5   0  0.1402775E-03  0.1103408E+04  0.7818609E-02  0.9201877E-01
        2   -1    0    0  501    0  0.00000000000E+00  0.00000000000E+00  0.17696830289E+04  0.17696830289E+04  0.25500000920E-02 0. -1.
       -2   -1    0    0    0  501  0.00000000000E+00  0.00000000000E+00 -0.17199527870E+03  0.17199527872E+03  0.25500000920E-02 0.  1.
    10030    2    1    2    0    0  0.00000000000E+00  0.00000000000E+00  0.15976877502E+04  0.19416783076E+04  0.11034076776E+04 0.  0.
        5    1    3    3  502    0  0.46472552307E+03  0.29499814757E+03  0.86377021141E+03  0.10242630458E+04  0.46999998093E+01 0.  1.
       -5    1    3    3    0  502 -0.46472552307E+03 -0.29499814757E+03  0.73391753875E+03  0.91741526178E+03  0.46999998093E+01 0. -1.
</event>
<event>
 5   0  0.1425432E-03  0.1109998E+04  0.7818609E-02  0.9195502E-01
        2   -1    0    0  501    0  0.00000000000E+00  0.00000000000E+00  0.90195309761E+03  0.90195309762E+03  0.25500000920E-02 0.  1.
       -2   -1    0    0    0  501  0.00000000000E+00  0.00000000000E+00 -0.34150749808E+03  0.34150749809E+03  0.25500000920E-02 0. -1.
    10030    2    1    2    0    0  0.00000000000E+00  0.00000000000E+00  0.56044559953E+03  0.12434605957E+04  0.11099977401E+04 0.  0.
        1    1    3    3  502    0 -0.33816187128E+03  0.28047233132E+03  0.66012286005E+03  0.79295672657E+03  0.50400001928E-02 0.  1.
       -1    1    3    3    0  502  0.33816187128E+03 -0.28047233132E+03 -0.99677260515E+02  0.45050386914E+03  0.50400001928E-02 0. -1.
</event>
<event>
 5   0  0.8009636E-04  0.1098844E+04  0.7818609E-02  0.9206319E-01
        1   -1    0    0  501    0  0.00000000000E+00  0.00000000000E+00  0.11690239069E+04  0.11690239069E+04  0.50400001928E-02 0.  1.
       -1   -1    0    0    0  501  0.00000000000E+00  0.00000000000E+00 -0.25821946045E+03  0.25821946050E+03  0.50400001928E-02 0. -1.
    10030    2    1    2    0    0  0.00000000000E+00  0.00000000000E+00  0.91080444643E+03  0.14272433674E+04  0.10988443430E+04 0.  0.
        1    1    3    3  502    0  0.38219048913E+03 -0.11706204445E+03  0.94500751744E+03  0.10260664210E+04  0.50400001928E-02 0.  1.
       -1    1    3    3    0  502 -0.38219048913E+03  0.11706204445E+03 -0.34203071010E+02  0.40117694640E+03  0.50400001928E-02 0. -1.
</event>
<event>
 5   0  0.1396936E-03  0.1094335E+04  0.7818609E-02  0.9210731E-01
       -2   -1    0    0    0  501  0.00000000000E+00  0.00000000000E+00  0.22937799198E+03  0.22937799199E+03  0.25500000920E-02 0. -1.
        2   -1    0    0  501    0  0.00000000000E+00  0.00000000000E+00 -0.13052347003E+04  0.13052347003E+04  0.25500000920E-02 0.  1.
    10030    2    1    2    0    0  0.00000000000E+00  0.00000000000E+00 -0.10758567083E+04  0.15346126923E+04  0.10943347105E+04 0.  0.
        2    1    3    3  502    0  0.95586673512E+02  0.30547722007E+03 -0.11602493349E+04  0.12035911529E+04  0.25500000920E-02 0.  1.
       -2    1    3    3    0  502 -0.95586673512E+02 -0.30547722007E+03  0.84392626582E+02  0.33102153942E+03  0.25500000920E-02 0. -1.
</event>
<event>
 5   0  0.8150924E-04  0.1099905E+04  0.7818609E-02  0.9205285E-01
       -1   -1    0    0    0  501  0.00000000000E+00  0.00000000000E+00  0.10087802474E+04  0.10087802474E+04  0.50400001928E-02 0. -1.
        1   -1    0    0  501    0  0.00000000000E+00  0.00000000000E+00 -0.29981527431E+03  0.29981527436E+03  0.50400001928E-02 0.  1.
    10030    2    1    2    0    0  0.00000000000E+00  0.00000000000E+00  0.70896497311E+03  0.13085955218E+04  0.10999049534E+04 0.  0.
        3    1    3    3  502    0  0.34436169456E+03 -0.29008424284E+03  0.73017112539E+03  0.85783665530E+03  0.10100000352E+00 0. -1.
       -3    1    3    3    0  502 -0.34436169456E+03  0.29008424284E+03 -0.21206152279E+02  0.45075886649E+03  0.10100000352E+00 0.  1.
</event>
<event>
 5   0  0.1402775E-03  0.1095650E+04  0.7818609E-02  0.9209442E-01
       -2   -1    0    0    0  501  0.00000000000E+00  0.00000000000E+00  0.68935743813E+03  0.68935743813E+03  0.25500000920E-02 0. -1.
        2   -1    0    0  501    0  0.00000000000E+00  0.00000000000E+00 -0.43535081166E+03  0.43535081167E+03  0.25500000920E-02 0.  1.
    10030    2    1    2    0    0  0.00000000000E+00  0.00000000000E+00  0.25400662647E+03  0.11247082498E+04  0.10956501636E+04 0.  0.
        5    1    3    3  502    0  0.26497159471E+03 -0.14875643090E+03 -0.34088304104E+03  0.45668562426E+03  0.46999998093E+01 0.  1.
       -5    1    3    3    0  502 -0.26497159471E+03  0.14875643090E+03  0.59488966751E+03  0.66802262555E+03  0.46999998093E+01 0. -1.
</event>
<event>
 5   0  0.8341767E-04  0.1100817E+04  0.7818609E-02  0.9204396E-01
       -1   -1    0    0    0  501  0.00000000000E+00  0.00000000000E+00  0.28874074598E+03  0.28874074603E+03  0.50400001928E-02 0.  1.
        1   -1    0    0  501    0  0.00000000000E+00  0.00000000000E+00 -0.10492085473E+04  0.10492085473E+04  0.50400001928E-02 0. -1.
    10030    2    1    2    0    0  0.00000000000E+00  0.00000000000E+00 -0.76046780128E+03  0.13379492933E+04  0.11008165309E+04 0.  0.
        2    1    3    3  502    0  0.53690924611E+03  0.10857805786E+03 -0.44555640267E+03  0.70610285453E+03  0.25500000920E-02 0. -1.
       -2    1    3    3    0  502 -0.53690924611E+03 -0.10857805786E+03 -0.31491139861E+03  0.63184643877E+03  0.25500000920E-02 0.  1.
</event>
<event>
 5   0  0.1372794E-03  0.1107711E+04  0.7818609E-02  0.9197708E-01
        2   -1    0    0  501    0  0.00000000000E+00  0.00000000000E+00  0.14257710193E+04  0.14257710193E+04  0.25500000920E-02 0.  1.
       -2   -1    0    0    0  501  0.00000000000E+00  0.00000000000E+00 -0.21515105895E+03  0.21515105896E+03  0.25500000920E-02 0. -1.
    10030    2    1    2    0    0  0.00000000000E+00  0.00000000000E+00  0.12106199603E+04  0.16409220782E+04  0.11077114148E+04 0.  0.
        4    1    3    3  502    0  0.19814118904E+03 -0.39177323431E+03  0.10512617442E+03  0.45144138419E+03  0.12699999809E+01 0. -1.
       -4    1    3    3    0  502 -0.19814118904E+03  0.39177323431E+03  0.11054937859E+04  0.11894806940E+04  0.12699999809E+01 0.  1.
</event>
<event>
 5   0  0.8009636E-04  0.1099524E+04  0.7818609E-02  0.9205655E-01
       -1   -1    0    0    0  501  0.00000000000E+00  0.00000000000E+00  0.14886008633E+03  0.14886008642E+03  0.50400001928E-02 0.  1.
        1   -1    0    0  501    0  0.00000000000E+00  0.00000000000E+00 -0.20303528647E+04  0.20303528647E+04  0.50400001928E-02 0. -1.
    10030    2    1    2    0    0  0.00000000000E+00  0.00000000000E+00 -0.18814927784E+04  0.21792129511E+04  0.10995244478E+04 0.  0.
        1    1    3    3  502    0 -0.47822071123E+03 -0.29845411949E+02 -0.14749670459E+04  0.15508428623E+04  0.50400001928E-02 0.  1.
       -1    1    3    3    0  502  0.47822071123E+03  0.29845411949E+02 -0.40652573251E+03  0.62837008878E+03  0.50400001928E-02 0. -1.
</event>
<event>
 5   0  0.1425432E-03  0.1101588E+04  0.7818609E-02  0.9203646E-01
        2   -1    0    0  501    0  0.00000000000E+00  0.00000000000E+00  0.55711926248E+03  0.55711926248E+03  0.25500000920E-02 0.  1.
       -2   -1    0    0    0  501  0.00000000000E+00  0.00000000000E+00 -0.54454044225E+03  0.54454044225E+03  0.25500000920E-02 0. -1.
    10030    2    1    2    0    0  0.00000000000E+00  0.00000000000E+00  0.12578820231E+02  0.11016597047E+04  0.11015878895E+04 0.  0.
        1    1    3    3  502    0  0.24965459125E+02  0.54012047448E+03 -0.98696328983E+02  0.54963111855E+03  0.50400001928E-02 0.  1.
       -1    1    3    3    0  502 -0.24965459125E+02 -0.54012047448E+03  0.11127514921E+03  0.55202858618E+03  0.50400001928E-02 0. -1.
</event>
<event>
 5   0  0.7946038E-04  0.1095063E+04  0.7818609E-02  0.9210017E-01
        1   -1    0    0  501    0  0.00000000000E+00  0.00000000000E+00  0.10660709252E+04  0.10660709252E+04  0.50400001928E-02 0. -1.
       -1   -1    0    0    0  501  0.00000000000E+00  0.00000000000E+00 -0.28121083793E+03  0.28121083797E+03  0.50400001928E-02 0.  1.
    10030    2    1    2    0    0  0.00000000000E+00  0.00000000000E+00  0.78486008725E+03  0.13472817632E+04  0.10950629173E+04 0.  0.
        4    1    3    3  502    0  0.10586513322E+03 -0.32330792609E+03  0.92025700312E+03  0.98112690626E+03  0.12699999809E+01 0. -1.
       -4    1    3    3    0  502 -0.10586513322E+03  0.32330792609E+03 -0.13539691586E+03  0.36615485690E+03  0.12699999809E+01 0.  1.
</event>
<event>
 5   0  0.5409500E-04  0.1102182E+04  0.7818609E-02  0.9203068E-01
        3   -1    0    0  501    0  0.00000000000E+00  0.00000000000E+00  0.36686215295E+03  0.36686216686E+03  0.10100000352E+00 0. -1.
       -3   -1    0    0    0  501  0.00000000000E+00  0.00000000000E+00 -0.82783423099E+03  0.82783423715E+03  0.10100000352E+00 0.  1.
    10030    2    1    2    0    0  0.00000000000E+00  0.00000000000E+00 -0.46097207804E+03  0.11946964040E+04  0.11021815826E+04 0.  0.
        3    1    3    3  502    0 -0.29678653979E+03  0.43168681911E+03 -0.45055686783E+02  0.52580013798E+03  0.10100000352E+00 0. -1.
       -3    1    3    3    0  502  0.29678653979E+03 -0.43168681911E+03 -0.41591639125E+03  0.66889626603E+03  0.10100000352E+00 0.  1.
</event>
<event>
 5   0  0.1429680E-03  0.1093356E+04  0.7818609E-02  0.9211692E-01
        2   -1    0    0  501    0  0.00000000000E+00  0.00000000000E+00  0.27277424930E+03  0.27277424931E+03  0.25500000920E-02 0. -1.
       -2   -1    0    0    0  501  0.00000000000E+00  0.00000000000E+00 -0.10956187962E+04  0.10956187962E+04  0.25500000920E-02 0.  1.
    10030    2    1    2    0    0  0.00000000000E+00  0.00000000000E+00 -0.82284454694E+03  0.13683930456E+04  0.10933555591E+04 0.  0.
        3    1    3    3  502    0  0.24795841105E+03 -0.43447169401E+03 -0.13549073505E+03  0.51827287792E+03  0.10100000352E+00 0. -1.
       -3    1    3    3    0  502 -0.24795841105E+03  0.43447169401E+03 -0.68735381189E+03  0.85012016764E+03  0.10100000352E+00 0.  1.
</event>
<event>
 5   0  0.8150924E-04  0.1087370E+04  0.7818609E-02  0.9217590E-01
        1   -1    0    0  501    0  0.00000000000E+00  0.00000000000E+00  0.69469024589E+03  0.69469024591E+03  0.50400001928E-02 0.  1.
       -1   -1    0    0    0  501  0.00000000000E+00  0.00000000000E+00 -0.42550384700E+03  0.42550384703E+03  0.50400001928E-02 0. -1.
    10030    2    1    2    0    0  0.00000000000E+00  0.00000000000E+00  0.26918639890E+03  0.11201940929E+04  0.10873699869E+04 0.  0.
        3    1    3    3  502    0  0.10987793251E+03  0.22824439653E+03  0.63018120719E+03  0.67918850748E+03  0.10100000352E+00 0.  1.
       -3    1    3    3    0  502 -0.10987793251E+03 -0.22824439653E+03 -0.36099480829E+03  0.44100558546E+03  0.10100000352E+00 0. -1.
</event>
<event>
 5   0  0.1425432E-03  0.1098749E+04  0.7818609E-02  0.9206412E-01
        2   -1    0    0  501    0  0.00000000000E+00  0.00000000000E+00  0.54148292928E+03  0.54148292929E+03  0.25500000920E-02 0. -1.
       -2   -1    0    0    0  501  0.00000000000E+00  0.00000000000E+00 -0.55738118364E+03  0.55738118364E+03  0.25500000920E-02 0.  1.
    10030    2    1    2    0    0  0.00000000000E+00  0.00000000000E+00 -0.15898254352E+02  0.10988641129E+04  0.10987490997E+04 0.  0.
        1    1    3    3  502    0 -0.82652198812E+02  0.76938069926E+02 -0.54564984552E+03  0.55721145583E+03  0.50400001928E-02 0.  1.
       -1    1    3    3    0  502  0.82652198812E+02 -0.76938069926E+02  0.52975159117E+03  0.54165265710E+03  0.50400001928E-02 0. -1.
</event>
<event>
 5   0  0.7946038E-04  0.1162429E+04  0.7818609E-02  0.9146393E-01
       -1   -1    0    0    0  501  0.00000000000E+00  0.00000000000E+00  0.28582046558E+03  0.28582046562E+03  0.50400001928E-02 0. -1.
        1   -1    0    0  501    0  0.00000000000E+00  0.00000000000E+00 -0.11818977685E+04  0.11818977685E+04  0.50400001928E-02 0.  1.
    10030    2    1    2    0    0  0.00000000000E+00  0.00000000000E+00 -0.89607730296E+03  0.14677182342E+04  0.11624294740E+04 0.  0.
        4    1    3    3  502    0  0.21799359222E+03  0.53810937232E+03 -0.48206072440E+03  0.75463041135E+03  0.12699999809E+01 0.  1.
       -4    1    3    3    0  502 -0.21799359222E+03 -0.53810937232E+03 -0.41401657856E+03  0.71308782281E+03  0.12699999809E+01 0. -1.
</event>
<event>
 5   0  0.1429680E-03  0.1102329E+04  0.7818609E-02  0.9202925E-01
        2   -1    0    0  501    0  0.00000000000E+00  0.00000000000E+00  0.54447193769E+03  0.54447193770E+03  0.25500000920E-02 0.  1.
       -2   -1    0    0    0  501  0.00000000000E+00  0.00000000000E+00 -0.55793946636E+03  0.55793946637E+03  0.25500000920E-02 0. -1.
    10030    2    1    2    0    0  0.00000000000E+00  0.00000000000E+00 -0.13467528665E+02  0.11024114041E+04  0.11023291385E+04 0.  0.
        3    1    3    3  502    0 -0.43663386961E+03  0.15772217238E+03 -0.30383665214E+03  0.55483523783E+03  0.10100000352E+00 0. -1.
       -3    1    3    3    0  502  0.43663386961E+03 -0.15772217238E+03  0.29036912348E+03  0.54757616623E+03  0.10100000352E+00 0.  1.
</event>
<event>
 5   0  0.7946038E-04  0.1097315E+04  0.7818609E-02  0.9207812E-01
        1   -1    0    0  501    0  0.00000000000E+00  0.00000000000E+00  0.36990685717E+03  0.36990685721E+03  0.50400001928E-02 0. -1.
       -1   -1    0    0    0  501  0.00000000000E+00  0.00000000000E+00 -0.81378660849E+03  0.81378660850E+03  0.50400001928E-02 0.  1.
    10030    2    1    2    0    0  0.00000000000E+00  0.00000000000E+00 -0.44387975132E+03  0.11836934657E+04  0.10973153545E+04 0.  0.
        4    1    3    3  502    0  0.10603522362E+03  0.47299030047E+03  0.55314366106E+02  0.48787763321E+03  0.12699999809E+01 0. -1.
       -4    1    3    3    0  502 -0.10603522362E+03 -0.47299030047E+03 -0.49919411742E+03  0.69581583250E+03  0.12699999809E+01 0.  1.
</event>
<event>
 5   0  0.8305271E-04  0.1103228E+04  0.7818609E-02  0.9202052E-01
        1   -1    0    0  501    0  0.00000000000E+00  0.00000000000E+00  0.39625512320E+03  0.39625512324E+03  0.50400001928E-02 0.  1.
       -1   -1    0    0    0  501  0.00000000000E+00  0.00000000000E+00 -0.76788379965E+03  0.76788379967E+03  0.50400001928E-02 0. -1.
    10030    2    1    2    0    0  0.00000000000E+00  0.00000000000E+00 -0.37162867645E+03  0.11641389229E+04  0.11032277909E+04 0.  0.
        5    1    3    3  502    0 -0.52817652845E+02 -0.32868092900E+03 -0.64990954242E+03  0.73022281591E+03  0.46999998093E+01 0. -1.
       -5    1    3    3    0  502  0.52817652845E+02  0.32868092900E+03  0.27828086598E+03  0.43391610700E+03  0.46999998093E+01 0.  1.
</event>
<event>
 5   0  0.7946038E-04  0.1098827E+04  0.7818609E-02  0.9206336E-01
       -1   -1    0    0    0  501  0.00000000000E+00  0.00000000000E+00  0.23897800336E+03  0.23897800342E+03  0.50400001928E-02 0.  1.
        1   -1    0    0  501    0  0.00000000000E+00  0.00000000000E+00 -0.12631083580E+04  0.12631083580E+04  0.50400001928E-02 0. -1.
    10030    2    1    2    0    0  0.00000000000E+00  0.00000000000E+00 -0.10241303547E+04  0.15020863615E+04  0.10988268535E+04 0.  0.
        4    1    3    3  502    0 -0.31046299424E+02  0.54426749197E+03 -0.60540698950E+03  0.81468411753E+03  0.12699999809E+01 0.  1.
       -4    1    3    3    0  502  0.31046299424E+02 -0.54426749197E+03 -0.41872336516E+03  0.68740224392E+03  0.12699999809E+01 0. -1.
</event>
<event>
 5   0  0.8150924E-04  0.1103932E+04  0.7818609E-02  0.9201368E-01
        1   -1    0    0  501    0  0.00000000000E+00  0.00000000000E+00  0.76939725817E+03  0.76939725819E+03  0.50400001928E-02 0. -1.
       -1   -1    0    0    0  501  0.00000000000E+00  0.00000000000E+00 -0.39598059576E+03  0.39598059579E+03  0.50400001928E-02 0.  1.
    10030    2    1    2    0    0  0.00000000000E+00  0.00000000000E+00  0.37341666242E+03  0.11653778540E+04  0.11039318542E+04 0.  0.
        3    1    3    3  502    0  0.43767326633E+03  0.20297190252E+03 -0.96379914574E+02  0.49198026323E+03  0.10100000352E+00 0.  1.
       -3    1    3    3    0  502 -0.43767326633E+03 -0.20297190252E+03  0.46979657699E+03  0.67339759075E+03  0.10100000352E+00 0. -1.
</event>
<event>
 5   0  0.1396936E-03  0.1072224E+04  0.7818609E-02  0.9232696E-01
        2   -1    0    0  501    0  0.00000000000E+00  0.00000000000E+00  0.99138675716E+03  0.99138675716E+03  0.25500000920E-02 0.  1.
       -2   -1    0    0    0  501  0.00000000000E+00  0.00000000000E+00 -0.28991298687E+03  0.28991298688E+03  0.25500000920E-02 0. -1.
    10030    2    1    2    0    0  0.00000000000E+00  0.00000000000E+00  0.70147377029E+03  0.12812997440E+04  0.10722236631E+04 0.  0.
        2    1    3    3  502    0 -0.26328474918E+03  0.44062459701E+03  0.53565988093E+03  0.74188975103E+03  0.25500000920E-02 0. -1.
       -2    1    3    3    0  502  0.26328474918E+03 -0.44062459701E+03  0.16581388936E+03  0.53940999301E+03  0.25500000920E-02 0.  1.
</event>
<event>
 5   0  0.1372794E-03  0.1125688E+04  0.7818609E-02  0.9180510E-01
       -2   -1    0    0    0  501  0.00000000000E+00  0.00000000000E+00  0.39630957857E+03  0.39630957858E+03  0.25500000920E-02 0. -1.
        2   -1    0    0  501    0  0.00000000000E+00  0.00000000000E+00 -0.79935852358E+03  0.79935852359E+03  0.25500000920E-02 0.  1.
    10030    2    1    2    0    0  0.00000000000E+00  0.00000000000E+00 -0.40304894502E+03  0.11956681022E+04  0.11256881266E+04 0.  0.
        4    1    3    3  502    0  0.52417217820E+03  0.98856008688E+02 -0.39230932089E+03  0.66214590462E+03  0.12699999809E+01 0.  1.
       -4    1    3    3    0  502 -0.52417217820E+03 -0.98856008688E+02 -0.10739624127E+02  0.53352219755E+03  0.12699999809E+01 0. -1.
</event>
<event>
 5   0  0.1402775E-03  0.1103980E+04  0.7818609E-02  0.9201322E-01
       -2   -1    0    0    0  501  0.00000000000E+00  0.00000000000E+00  0.11261292764E+04  0.11261292764E+04  0.25500000920E-02 0.  1.
        2   -1    0    0  501    0  0.00000000000E+00  0.00000000000E+00 -0.27056643719E+03  0.27056643720E+03  0.25500000920E-02 0. -1.
    10030    2    1    2    0    0  0.00000000000E+00  0.00000000000E+00  0.85556283922E+03  0.13966957136E+04  0.11039796848E+04 0.  0.
        5    1    3    3  502    0 -0.31771365326E+03  0.40192765087E+03  0.16793968596E+03  0.53917866252E+03  0.46999998093E+01 0. -1.
       -5    1    3    3    0  502  0.31771365326E+03 -0.40192765087E+03  0.68762315326E+03  0.85751705108E+03  0.46999998093E+01 0.  1.
</event>
<event>
 5   0  0.1402775E-03  0.1093472E+04  0.7818609E-02  0.9211578E-01
       -2   -1    0    0    0  501  0.00000000000E+00  0.00000000000E+00  0.42422537638E+03  0.42422537639E+03  0.25500000920E-02 0.  1.
        2   -1    0    0  501    0  0.00000000000E+00  0.00000000000E+00 -0.70462556381E+03  0.70462556382E+03  0.25500000920E-02 0. -1.
    10030    2    1    2    0    0  0.00000000000E+00  0.00000000000E+00 -0.28040018743E+03  0.11288509402E+04  0.10934716183E+04 0.  0.
        5    1    3    3  502    0 -0.10102944756E+02 -0.16058240844E+03 -0.67960849421E+03  0.69841146526E+03  0.46999998093E+01 0. -1.
       -5    1    3    3    0  502  0.10102944756E+02  0.16058240844E+03  0.39920830679E+03  0.43043947495E+03  0.46999998093E+01 0.  1.
</event>
<event>
 5   0  0.7946038E-04  0.1102428E+04  0.7818609E-02  0.9202829E-01
        1   -1    0    0  501    0  0.00000000000E+00  0.00000000000E+00  0.13092801502E+04  0.13092801502E+04  0.50400001928E-02 0. -1.
       -1   -1    0    0    0  501  0.00000000000E+00  0.00000000000E+00 -0.23206396863E+03  0.23206396869E+03  0.50400001928E-02 0.  1.
    10030    2    1    2    0    0  0.00000000000E+00  0.00000000000E+00  0.10772161816E+04  0.15413441189E+04  0.11024277714E+04 0.  0.
        4    1    3    3  502    0 -0.16072614696E+03 -0.51211368645E+03  0.36318900836E+03  0.64807498860E+03  0.12699999809E+01 0.  1.
       -4    1    3    3    0  502  0.16072614696E+03  0.51211368645E+03  0.71402717321E+03  0.89326913030E+03  0.12699999809E+01 0. -1.
</event>
<event>
 5   0  0.8009636E-04  0.1103818E+04  0.7818609E-02  0.9201478E-01
       -1   -1    0    0    0  501  0.00000000000E+00  0.00000000000E+00  0.28422425743E+03  0.28422425747E+03  0.50400001928E-02 0. -1.
        1   -1    0    0  501    0  0.00000000000E+00  0.00000000000E+00 -0.10717018718E+04  0.10717018718E+04  0.50400001928E-02 0.  1.
    10030    2    1    2    0    0  0.00000000000E+00  0.00000000000E+00 -0.78747761437E+03  0.13559261293E+04  0.11038182255E+04 0.  0.
        1    1    3    3  502    0 -0.15938968424E+03 -0.43589159932E+03 -0.26867401950E+02  0.46489613368E+03  0.50400001928E-02 0. -1.
       -1    1    3    3    0  502  0.15938968424E+03  0.43589159932E+03 -0.76061021242E+03  0.89102999560E+03  0.50400001928E-02 0.  1.
</event>
<event>
 5   0  0.1429680E-03  0.1034340E+04  0.7818609E-02  0.9271663E-01
       -2   -1    0    0    0  501  0.00000000000E+00  0.00000000000E+00  0.36498318425E+03  0.36498318426E+03  0.25500000920E-02 0.  1.
        2   -1    0    0  501    0  0.00000000000E+00  0.00000000000E+00 -0.73281420523E+03  0.73281420523E+03  0.25500000920E-02 0. -1.
    10030    2    1    2    0    0  0.00000000000E+00  0.00000000000E+00 -0.36783102098E+03  0.10977973895E+04  0.10343401029E+04 0.  0.
        3    1    3    3  502    0 -0.14761281506E+03  0.46117475622E+03 -0.37669940110E+03  0.61349339682E+03  0.10100000352E+00 0. -1.
       -3    1    3    3    0  502  0.14761281506E+03 -0.46117475622E+03  0.88683801248E+01  0.48430399267E+03  0.10100000352E+00 0.  1.
</event>
<event>
 5   0  0.1425432E-03  0.1131488E+04  0.7818609E-02  0.9175033E-01
        2   -1    0    0  501    0  0.00000000000E+00  0.00000000000E+00  0.12094865467E+04  0.12094865467E+04  0.25500000920E-02 0.  1.
       -2   -1    0    0    0  501  0.00000000000E+00  0.00000000000E+00 -0.26463000891E+03  0.26463000892E+03  0.25500000920E-02 0. -1.
    10030    2    1    2    0    0  0.00000000000E+00  0.00000000000E+00  0.94485653779E+03  0.14741165556E+04  0.11314882865E+04 0.  0.
        1    1    3    3  502    0 -0.31871431134E+03  0.21459520155E+03  0.10134271784E+04  0.10838194309E+04  0.50400001928E-02 0.  1.
       -1    1    3    3    0  502  0.31871431134E+03 -0.21459520155E+03 -0.68570640639E+02  0.39029712472E+03  0.50400001928E-02 0. -1.
</event>
<event>
 5   0  0.5409500E-04  0.1099590E+04  0.7818609E-02  0.9205591E-01
       -3   -1    0    0    0  501  0.00000000000E+00  0.00000000000E+00  0.90654813651E+03  0.90654814214E+03  0.10100000352E+00 0. -1.
        3   -1    0    0  501    0  0.00000000000E+00  0.00000000000E+00 -0.33343472898E+03  0.33343474427E+03  0.10100000352E+00 0.  1.
    10030    2    1    2    0    0  0.00000000000E+00  0.00000000000E+00  0.57311340754E+03  0.12399828864E+04  0.10995901876E+04 0.  0.
        1    1    3    3  502    0  0.13027344772E+03  0.21821766519E+03 -0.26321867784E+03  0.36588822470E+03  0.50400001928E-02 0.  1.
       -1    1    3    3    0  502 -0.13027344772E+03 -0.21821766519E+03  0.83633208538E+03  0.87409466172E+03  0.50400001928E-02 0. -1.
</event>
<event>
 5   0  0.1402775E-03  0.1100068E+04  0.7818609E-02  0.9205126E-01
       -2   -1    0    0    0  501  0.00000000000E+00  0.00000000000E+00  0.44690338463E+03  0.44690338464E+03  0.25500000920E-02 0.  1.
        2   -1    0    0  501    0  0.00000000000E+00  0.00000000000E+00 -0.67696376139E+03  0.67696376140E+03  0.25500000920E-02 0. -1.
    10030    2    1    2    0    0  0.00000000000E+00  0.00000000000E+00 -0.23006037677E+03  0.11238671460E+04  0.11000679911E+04 0.  0.
        5    1    3    3  502    0  0.63312541109E+02 -0.26041089409E+03 -0.60572633883E+03  0.66238115852E+03  0.46999998093E+01 0. -1.
       -5    1    3    3    0  502 -0.63312541109E+02  0.26041089409E+03  0.37566596206E+03  0.46148598751E+03  0.46999998093E+01 0.  1.
</event>
<event>
 5   0  0.8150924E-04  0.1101056E+04  0.7818609E-02  0.9204163E-01
       -1   -1    0    0    0  501  0.00000000000E+00  0.00000000000E+00  0.41192007695E+03  0.41192007698E+03  0.50400001928E-02 0.  1.
        1   -1    0    0  501    0  0.00000000000E+00  0.00000000000E+00 -0.73577606999E+03  0.73577607001E+03  0.50400001928E-02 0. -1.
    10030    2    1    2    0    0  0.00000000000E+00  0.00000000000E+00 -0.32385599304E+03  0.11476961470E+04  0.11010557395E+04 0.  0.
        3    1    3    3  502    0 -0.21372159288E+03  0.31233075300E+02 -0.68976613340E+03  0.72279302241E+03  0.10100000352E+00 0. -1.
       -3    1    3    3    0  502  0.21372159288E+03 -0.31233075300E+02  0.36591014036E+03  0.42490312458E+03  0.10100000352E+00 0.  1.
</event>
<event>
 5   0  0.5409500E-04  0.1102474E+04  0.7818609E-02  0.9202784E-01
        3   -1    0    0  501    0  0.00000000000E+00  0.00000000000E+00  0.30668945496E+03  0.30668947159E+03  0.10100000352E+00 0.  1.
       -3   -1    0    0    0  501  0.00000000000E+00  0.00000000000E+00 -0.99078078523E+03  0.99078079037E+03  0.10100000352E+00 0. -1.
    10030    2    1    2    0    0  0.00000000000E+00  0.00000000000E+00 -0.68409133026E+03  0.12974702620E+04  0.11024736426E+04 0.  0.
        3    1    3    3  502    0  0.41884229499E+03 -0.97847780440E+02  0.63691856895E+02  0.43480998039E+03  0.10100000352E+00 0.  1.
       -3    1    3    3    0  502 -0.41884229499E+03  0.97847780440E+02 -0.74778318716E+03  0.86266028158E+03  0.10100000352E+00 0. -1.
</event>
<event>
 5   0  0.1396936E-03  0.1098920E+04  0.7818609E-02  0.9206245E-01
        2   -1    0    0  501    0  0.00000000000E+00  0.00000000000E+00  0.20654907295E+04  0.20654907295E+04  0.25500000920E-02 0.  1.
       -2   -1    0    0    0  501  0.00000000000E+00  0.00000000000E+00 -0.14616687255E+03  0.14616687257E+03  0.25500000920E-02 0. -1.
    10030    2    1    2    0    0  0.00000000000E+00  0.00000000000E+00  0.19193238570E+04  0.22116576021E+04  0.10989200521E+04 0.  0.
        2    1    3    3  502    0 -0.29488682152E+03  0.15198145241E+02  0.18922398082E+04  0.19151398677E+04  0.25500000920E-02 0.  1.
       -2    1    3    3    0  502  0.29488682152E+03 -0.15198145241E+02  0.27084048808E+02  0.29651773443E+03  0.25500000920E-02 0. -1.
</event>
<event>
 5   0  0.8009636E-04  0.1098608E+04  0.7818609E-02  0.9206549E-01
        1   -1    0    0  501    0  0.00000000000E+00  0.00000000000E+00  0.65126524741E+03  0.65126524743E+03  0.50400001928E-02 0. -1.
       -1   -1    0    0    0  501  0.00000000000E+00  0.00000000000E+00 -0.46330602285E+03  0.46330602288E+03  0.50400001928E-02 0.  1.
    10030    2    1    2    0    0  0.00000000000E+00  0.00000000000E+00  0.18795922456E+03  0.11145712703E+04  0.10986084136E+04 0.  0.
        1    1    3    3  502    0  0.50605466285E+03  0.15523332543E+03  0.24289937236E+03  0.58239918632E+03  0.50400001928E-02 0. -1.
       -1    1    3    3    0  502 -0.50605466285E+03 -0.15523332543E+03 -0.54940147797E+02  0.53217208399E+03  0.50400001928E-02 0.  1.
</event>
<event>
 5   0  0.1429680E-03  0.1098238E+04  0.7818609E-02  0.9206911E-01
       -2   -1    0    0    0  501  0.00000000000E+00  0.00000000000E+00  0.15141292361E+03  0.15141292363E+03  0.25500000920E-02 0.  1.
        2   -1    0    0  501    0  0.00000000000E+00  0.00000000000E+00 -0.19914540471E+04  0.19914540471E+04  0.25500000920E-02 0. -1.
    10030    2    1    2    0    0  0.00000000000E+00  0.00000000000E+00 -0.18400411235E+04  0.21428669707E+04  0.10982383704E+04 0.  0.
        3    1    3    3  502    0  0.46821835208E+03 -0.19816272722E+03 -0.13247915607E+04  0.14190030237E+04  0.10100000352E+00 0. -1.
       -3    1    3    3    0  502 -0.46821835208E+03  0.19816272722E+03 -0.51524956271E+03  0.72386394699E+03  0.10100000352E+00 0.  1.
</event>
<event>
 5   0  0.1396936E-03  0.1124544E+04  0.7818609E-02  0.9181595E-01
       -2   -1    0    0    0  501  0.00000000000E+00  0.00000000000E+00  0.19953743568E+03  0.19953743570E+03  0.25500000920E-02 0.  1.
        2   -1    0    0  501    0  0.00000000000E+00  0.00000000000E+00 -0.15844124748E+04  0.15844124748E+04  0.25500000920E-02 0. -1.
    10030    2    1    2    0    0  0.00000000000E+00  0.00000000000E+00 -0.13848750391E+04  0.17839499105E+04  0.11245436449E+04 0.  0.
        2    1    3    3  502    0 -0.80168786551E+02 -0.44228046194E+03 -0.15655540708E+03  0.47597125632E+03  0.25500000920E-02 0.  1.
       -2    1    3    3    0  502  0.80168786551E+02  0.44228046194E+03 -0.12283196320E+04  0.13079786542E+04  0.25500000920E-02 0. -1.
</event>
<event>
 5   0  0.8009636E-04  0.1111227E+04  0.7818609E-02  0.9194318E-01
       -1   -1    0    0    0  501  0.00000000000E+00  0.00000000000E+00  0.27371442942E+03  0.27371442947E+03  0.50400001928E-02 0. -1.
        1   -1    0    0  501    0  0.00000000000E+00  0.00000000000E+00 -0.11278409872E+04  0.11278409873E+04  0.50400001928E-02 0.  1.
    10030    2    1    2    0    0  0.00000000000E+00  0.00000000000E+00 -0.85412655782E+03  0.14015554167E+04  0.11112269837E+04 0.  0.
        1    1    3    3  502    0  0.55514879886E+03 -0.22302842706E+02 -0.42160231509E+03  0.69744972420E+03  0.50400001928E-02 0. -1.
       -1    1    3    3    0  502 -0.55514879886E+03  0.22302842706E+02 -0.43252424273E+03  0.70410569252E+03  0.50400001928E-02 0.  1.
</event>
<event>
 5   0  0.1402775E-03  0.1116969E+04  0.7818609E-02  0.9188808E-01
        2   -1    0    0  501    0  0.00000000000E+00  0.00000000000E+00  0.54916104072E+03  0.54916104073E+03  0.25500000920E-02 0.  1.
       -2   -1    0    0    0  501  0.00000000000E+00  0.00000000000E+00 -0.56796662464E+03  0.56796662465E+03  0.25500000920E-02 0. -1.
    10030    2    1    2    0    0  0.00000000000E+00  0.00000000000E+00 -0.18805583923E+02  0.11171276654E+04  0.11169693688E+04 0.  0.
        5    1    3    3  502    0 -0.10747543871E+03 -0.32310784396E+03 -0.45210917676E+03  0.56601629522E+03  0.46999998093E+01 0. -1.
       -5    1    3    3    0  502  0.10747543871E+03  0.32310784396E+03  0.43330359283E+03  0.55111137015E+03  0.46999998093E+01 0.  1.
</event>
<event>
 5   0  0.1396936E-03  0.1097868E+04  0.7818609E-02  0.9207272E-01
        2   -1    0    0  501    0  0.00000000000E+00  0.00000000000E+00  0.17107083854E+04  0.17107083854E+04  0.25500000920E-02 0.  1.
       -2   -1    0    0    0  501  0.00000000000E+00  0.00000000000E+00 -0.17614251509E+03  0.17614251511E+03  0.25500000920E-02 0. -1.
    10030    2    1    2    0    0  0.00000000000E+00  0.00000000000E+00  0.15345658704E+04  0.18868509006E+04  0.10978678930E+04 0.  0.
        2    1    3    3  502    0  0.32997930949E+03 -0.42971435945E+03  0.61561556125E+03  0.82007517623E+03  0.25500000920E-02 0. -1.
       -2    1    3    3    0  502 -0.32997930949E+03  0.42971435945E+03  0.91895030910E+03  0.10667757243E+04  0.25500000920E-02 0.  1.
</event>
<event>
 5   0  0.1402775E-03  0.1097523E+04  0.7818609E-02  0.9207609E-01
       -2   -1    0    0    0  501  0.00000000000E+00  0.00000000000E+00  0.36798269250E+03  0.36798269251E+03  0.25500000920E-02 0.  1.
        2   -1    0    0  501    0  0.00000000000E+00  0.00000000000E+00 -0.81835212217E+03  0.81835212218E+03  0.25500000920E-02 0. -1.
    10030    2    1    2    0    0  0.00000000000E+00  0.00000000000E+00 -0.45036942968E+03  0.11863348147E+04  0.10975234254E+04 0.  0.
        5    1    3    3  502    0  0.40677669305E+03  0.34326042785E+03 -0.80881604171E+02  0.53838547829E+03  0.46999998093E+01 0.  1.
       -5    1    3    3    0  502 -0.40677669305E+03 -0.34326042785E+03 -0.36948782551E+03  0.64794933640E+03  0.46999998093E+01 0. -1.
</event>
<event>
 5   0  0.8009636E-04  0.1102000E+04  0.7818609E-02  0.9203245E-01
       -1   -1    0    0    0  501  0.00000000000E+00  0.00000000000E+00  0.22796935982E+03  0.22796935987E+03  0.50400001928E-02 0.  1.
        1   -1    0    0  501    0  0.00000000000E+00  0.00000000000E+00 -0.13317623700E+04  0.13317623700E+04  0.50400001928E-02 0. -1.
    10030    2    1    2    0    0  0.00000000000E+00  0.00000000000E+00 -0.11037930102E+04  0.15597317299E+04  0.11020000272E+04 0.  0.
        1    1    3    3  502    0 -0.47384523100E+02  0.41049027581E+03 -0.36009332759E+02  0.41478214961E+03  0.50400001928E-02 0.  1.
       -1    1    3    3    0  502  0.47384523100E+02 -0.41049027581E+03 -0.10677836774E+04  0.11449495803E+04  0.50400001928E-02 0. -1.
</event>
<event>
 5   0  0.1372794E-03  0.1098857E+04  0.7818609E-02  0.9206307E-01
       -2   -1    0    0    0  501  0.00000000000E+00  0.00000000000E+00  0.17397510723E+03  0.17397510725E+03  0.25500000920E-02 0.  1.
        2   -1    0    0  501    0  0.00000000000E+00  0.00000000000E+00 -0.17351433061E+04  0.17351433061E+04  0.25500000920E-02 0. -1.
    10030    2    1    2    0    0  0.00000000000E+00  0.00000000000E+00 -0.15611681989E+04  0.19091184133E+04  0.10988571204E+04 0.  0.
        4    1    3    3  502    0  0.31559425920E+03 -0.28607574190E+03 -0.13835057788E+04  0.14475941833E+04  0.12699999809E+01 0. -1.
       -4    1    3    3    0  502 -0.31559425920E+03  0.28607574190E+03 -0.17766242004E+03  0.46152423006E+03  0.12699999809E+01 0.  1.
</event>
<event>
 5   0  0.1429680E-03  0.1100302E+04  0.7818609E-02  0.9204897E-01
        2   -1    0    0  501    0  0.00000000000E+00  0.00000000000E+00  0.14698349089E+04  0.14698349089E+04  0.25500000920E-02 0.  1.
       -2   -1    0    0    0  501  0.00000000000E+00  0.00000000000E+00 -0.20591855634E+03  0.20591855635E+03  0.25500000920E-02 0. -1.
    10030    2    1    2    0    0  0.00000000000E+00  0.00000000000E+00  0.12639163525E+04  0.16757534652E+04  0.11003022903E+04 0.  0.
        3    1    3    3  502    0 -0.16923436196E+03  0.64479110741E+02 -0.15921975426E+03  0.24114055100E+03  0.10100000352E+00 0. -1.
       -3    1    3    3    0  502  0.16923436196E+03 -0.64479110741E+02  0.14231361068E+04  0.14346129142E+04  0.10100000352E+00 0.  1.
</event>
<event>
 5   0  0.1402775E-03  0.1098748E+04  0.7818609E-02  0.9206413E-01
        2   -1    0    0  501    0  0.00000000000E+00  0.00000000000E+00  0.16816044014E+03  0.16816044016E+03  0.25500000920E-02 0. -1.
       -2   -1    0    0    0  501  0.00000000000E+00  0.00000000000E+00 -0.17947840315E+04  0.17947840315E+04  0.25500000920E-02 0.  1.
    10030    2    1    2    0    0  0.00000000000E+00  0.00000000000E+00 -0.16266235914E+04  0.19629444717E+04  0.10987477831E+04 0.  0.
        5    1    3    3  502    0  0.35300245079E+03 -0.27863426078E+03 -0.24965759241E+03  0.51439166497E+03  0.46999998093E+01 0. -1.
       -5    1    3    3    0  502 -0.35300245079E+03  0.27863426078E+03 -0.13769659990E+04  0.14485528067E+04  0.46999998093E+01 0.  1.
</event>
<event>
 5   0  0.1429680E-03  0.1103866E+04  0.7818609E-02  0.9201432E-01
        2   -1    0    0  501    0  0.00000000000E+00  0.00000000000E+00  0.75942662294E+03  0.75942662294E+03  0.25500000920E-02 0.  1.
       -2   -1    0    0    0  501  0.00000000000E+00  0.00000000000E+00 -0.40113173471E+03  0.40113173472E+03  0.25500000920E-02 0. -1.
    10030    2    1    2    0    0  0.00000000000E+00  0.00000000000E+00  0.35829488823E+03  0.11605583577E+04  0.11038661489E+04 0.  0.
        3    1    3    3  502    0 -0.24111616105E+03 -0.12450934981E+03 -0.32615064161E+03  0.42428037019E+03  0.10100000352E+00 0. -1.
       -3    1    3    3    0  502  0.24111616105E+03  0.12450934981E+03  0.68444552984E+03  0.73627798747E+03  0.10100000352E+00 0.  1.
</event>
<event>
 5   0  0.8150924E-04  0.1102242E+04  0.7818609E-02  0.9203009E-01
        1   -1    0    0  501    0  0.00000000000E+00  0.00000000000E+00  0.62273364611E+03  0.62273364613E+03  0.50400001928E-02 0. -1.
       -1   -1    0    0    0  501  0.00000000000E+00  0.00000000000E+00 -0.48774365227E+03  0.48774365230E+03  0.50400001928E-02 0.  1.
    10030    2    1    2    0    0  0.00000000000E+00  0.00000000000E+00  0.13498999384E+03  0.11104772984E+04  0.11022420478E+04 0.  0.
        3    1    3    3  502    0 -0.94375452084E+02 -0.22822169707E+03 -0.42887511581E+03  0.49489973139E+03  0.10100000352E+00 0.  1.
       -3    1    3    3    0  502  0.94375452084E+02  0.22822169707E+03  0.56386510965E+03  0.61557756704E+03  0.10100000352E+00 0. -1.
</event>
<event>
 5   0  0.8150924E-04  0.1101046E+04  0.7818609E-02  0.9204173E-01
        1   -1    0    0  501    0  0.00000000000E+00  0.00000000000E+00  0.69565737387E+03  0.69565737388E+03  0.50400001928E-02 0.  1.
       -1   -1    0    0    0  501  0.00000000000E+00  0.00000000000E+00 -0.43566819767E+03  0.43566819770E+03  0.50400001928E-02 0. -1.
    10030    2    1    2    0    0  0.00000000000E+00  0.00000000000E+00  0.25998917619E+03  0.11313255716E+04  0.11010464010E+04 0.  0.
        3    1    3    3  502    0  0.43110476722E+03 -0.15184729995E+03  0.44529971281E+03  0.63812284652E+03  0.10100000352E+00 0.  1.
       -3    1    3    3    0  502 -0.43110476722E+03  0.15184729995E+03 -0.18531053662E+03  0.49320272506E+03  0.10100000352E+00 0. -1.
</event>
<event>
 5   0  0.1372794E-03  0.1100005E+04  0.7818609E-02  0.9205187E-01
        2   -1    0    0  501    0  0.00000000000E+00  0.00000000000E+00  0.71397535705E+03  0.71397535705E+03  0.25500000920E-02 0. -1.
       -2   -1    0    0    0  501  0.00000000000E+00  0.00000000000E+00 -0.42368780953E+03  0.42368780954E+03  0.25500000920E-02 0.  1.
    10030    2    1    2    0    0  0.00000000000E+00  0.00000000000E+00  0.29028754752E+03  0.11376631666E+04  0.11000048274E+04 0.  0.
        4    1    3    3  502    0  0.23402442450E+02 -0.37740530623E+03 -0.26792729160E+03  0.46343185688E+03  0.12699999809E+01 0.  1.
       -4    1    3    3    0  502 -0.23402442450E+02  0.37740530623E+03  0.55821483911E+03  0.67423130971E+03  0.12699999809E+01 0. -1.
</event>
<event>
 5   0  0.8305271E-04  0.1098513E+04  0.7818609E-02  0.9206642E-01
        1   -1    0    0  501    0  0.00000000000E+00  0.00000000000E+00  0.10017683003E+04  0.10017683003E+04  0.50400001928E-02 0. -1.
       -1   -1    0    0    0  501  0.00000000000E+00  0.00000000000E+00 -0.30115014047E+03  0.30115014051E+03  0.50400001928E-02 0.  1.
    10030    2    1    2    0    0  0.00000000000E+00  0.00000000000E+00  0.70061815984E+03  0.13029184408E+04  0.10985129301E+04 0.  0.
        5    1    3    3  502    0  0.44514237067E+03 -0.21523646618E+03  0.66685628340E+02  0.49894641954E+03  0.46999998093E+01 0.  1.
       -5    1    3    3    0  502 -0.44514237067E+03  0.21523646618E+03  0.63393253150E+03  0.80397202130E+03  0.46999998093E+01 0. -1.
</event>
<event>
 5   0  0.5409500E-04  0.1099358E+04  0.7818609E-02  0.9205817E-01
       -3   -1    0    0    0  501  0.00000000000E+00  0.00000000000E+00  0.38487864384E+03  0.38487865710E+03  0.10100000352E+00 0. -1.
        3   -1    0    0  501    0  0.00000000000E+00  0.00000000000E+00 -0.78504553731E+03  0.78504554381E+03  0.10100000352E+00 0.  1.
    10030    2    1    2    0    0  0.00000000000E+00  0.00000000000E+00 -0.40016689347E+03  0.11699242009E+04  0.10993584917E+04 0.  0.
        1    1    3    3  502    0  0.53618611012E+02 -0.38571673171E+03  0.21275421608E+03  0.44375298203E+03  0.50400001928E-02 0. -1.
       -1    1    3    3    0  502 -0.53618611012E+02  0.38571673171E+03 -0.61292110955E+03  0.72617121888E+03  0.50400001928E-02 0.  1.
</event>
<event>
 5   0  0.8150924E-04  0.1101557E+04  0.7818609E-02  0.9203676E-01
       -1   -1    0    0    0  501  0.00000000000E+00  0.00000000000E+00  0.91834508808E+03  0.91834508810E+03  0.50400001928E-02 0. -1.
        1   -1    0    0  501    0  0.00000000000E+00  0.00000000000E+00 -0.33032972758E+03  0.33032972761E+03  0.50400001928E-02 0.  1.
    10030    2    1    2    0    0  0.00000000000E+00  0.00000000000E+00  0.58801536051E+03  0.12486748157E+04  0.11015565039E+04 0.  0.
        3    1    3    3  502    0  0.16686591330E+03 -0.42807987933E+03  0.63831751799E+03  0.78647687829E+03  0.10100000352E+00 0. -1.
       -3    1    3    3    0  502 -0.16686591330E+03  0.42807987933E+03 -0.50302157478E+02  0.46219793743E+03  0.10100000352E+00 0.  1.
</event>
<event>
 5   0  0.5409500E-04  0.1115071E+04  0.7818609E-02  0.9190626E-01
        3   -1    0    0  501    0  0.00000000000E+00  0.00000000000E+00  0.13211893132E+04  0.13211893170E+04  0.10100000352E+00 0. -1.
       -3   -1    0    0    0  501  0.00000000000E+00  0.00000000000E+00 -0.23527725008E+03  0.23527727175E+03  0.10100000352E+00 0.  1.
    10030    2    1    2    0    0  0.00000000000E+00  0.00000000000E+00  0.10859120631E+04  0.15564665888E+04  0.11150709543E+04 0.  0.
        2    1    3    3  502    0  0.15941796167E+03  0.16644508257E+03  0.12515833577E+04  0.12726267926E+04  0.25500000920E-02 0. -1.
       -2    1    3    3    0  502 -0.15941796167E+03 -0.16644508257E+03 -0.16567129462E+03  0.28383979615E+03  0.25500000920E-02 0.  1.
</event>
<event>
 5   0  0.8150924E-04  0.1099235E+04  0.7818609E-02  0.9205938E-01
       -1   -1    0    0    0  501  0.00000000000E+00  0.00000000000E+00  0.29423555897E+03  0.29423555901E+03  0.50400001928E-02 0.  1.
        1   -1    0    0  501    0  0.00000000000E+00  0.00000000000E+00 -0.10266575920E+04  0.10266575920E+04  0.50400001928E-02 0. -1.
    10030    2    1    2    0    0  0.00000000000E+00  0.00000000000E+00 -0.73242203305E+03  0.13208931510E+04  0.10992345891E+04 0.  0.
        3    1    3    3  502    0 -0.27210830137E+03  0.27271501552E+03 -0.83725515873E+03  0.92163583827E+03  0.10100000352E+00 0. -1.
       -3    1    3    3    0  502  0.27210830137E+03 -0.27271501552E+03  0.10483312568E+03  0.39925731278E+03  0.10100000352E+00 0.  1.
</event>
<event>
 5   0  0.1425432E-03  0.1100200E+04  0.7818609E-02  0.9204996E-01
        2   -1    0    0  501    0  0.00000000000E+00  0.00000000000E+00  0.63570776306E+03  0.63570776306E+03  0.25500000920E-02 0. -1.
       -2   -1    0    0    0  501  0.00000000000E+00  0.00000000000E+00 -0.47602103753E+03  0.47602103754E+03  0.25500000920E-02 0.  1.
    10030    2    1    2    0    0  0.00000000000E+00  0.00000000000E+00  0.15968672553E+03  0.11117288006E+04  0.11002004707E+04 0.  0.
        1    1    3    3  502    0  0.26627489420E+03 -0.39079865513E+03 -0.20414306458E+03  0.51507310061E+03  0.50400001928E-02 0.  1.
       -1    1    3    3    0  502 -0.26627489420E+03  0.39079865513E+03  0.36382979010E+03  0.59665569999E+03  0.50400001928E-02 0. -1.
</event>
<event>
 5   0  0.8341767E-04  0.1097616E+04  0.7818609E-02  0.9207519E-01
       -1   -1    0    0    0  501  0.00000000000E+00  0.00000000000E+00  0.18284273566E+03  0.18284273573E+03  0.50400001928E-02 0. -1.
        1   -1    0    0  501    0  0.00000000000E+00  0.00000000000E+00 -0.16472624794E+04  0.16472624794E+04  0.50400001928E-02 0.  1.
    10030    2    1    2    0    0  0.00000000000E+00  0.00000000000E+00 -0.14644197438E+04  0.18301052152E+04  0.10976155578E+04 0.  0.
        2    1    3    3  502    0  0.40455105689E+03 -0.26247071930E+02 -0.13489916894E+04  0.14085911559E+04  0.25500000920E-02 0.  1.
       -2    1    3    3    0  502 -0.40455105689E+03  0.26247071930E+02 -0.11542805437E+03  0.42151405926E+03  0.25500000920E-02 0. -1.
</event>
<event>
 5   0  0.8150924E-04  0.1111304E+04  0.7818609E-02  0.9194244E-01
       -1   -1    0    0    0  501  0.00000000000E+00  0.00000000000E+00  0.33985801357E+03  0.33985801360E+03  0.50400001928E-02 0.  1.
        1   -1    0    0  501    0  0.00000000000E+00  0.00000000000E+00 -0.90846497856E+03  0.90846497857E+03  0.50400001928E-02 0. -1.
    10030    2    1    2    0    0  0.00000000000E+00  0.00000000000E+00 -0.56860696499E+03  0.12483229922E+04  0.11113039243E+04 0.  0.
        3    1    3    3  502    0  0.13904756366E+03 -0.31335367877E+03  0.20690482919E+03  0.40041774624E+03  0.10100000352E+00 0.  1.
       -3    1    3    3    0  502 -0.13904756366E+03  0.31335367877E+03 -0.77551179419E+03  0.84790524594E+03  0.10100000352E+00 0. -1.
</event>
<event>
 5   0  0.8341767E-04  0.1099400E+04  0.7818609E-02  0.9205777E-01
       -1   -1    0    0    0  501  0.00000000000E+00  0.00000000000E+00  0.16435456216E+03  0.16435456224E+03  0.50400001928E-02 0. -1.
        1   -1    0    0  501    0  0.00000000000E+00  0.00000000000E+00 -0.18385254215E+04  0.18385254215E+04  0.50400001928E-02 0.  1.
    10030    2    1    2    0    0  0.00000000000E+00  0.00000000000E+00 -0.16741708593E+04  0.20028799837E+04  0.10993999104E+04 0.  0.
        2    1    3    3  502    0 -0.73691948736E+02  0.35406811749E+03 -0.82908314042E+02  0.37103709205E+03  0.25500000920E-02 0. -1.
       -2    1    3    3    0  502  0.73691948736E+02 -0.35406811749E+03 -0.15912625453E+04  0.16318428917E+04  0.25500000920E-02 0.  1.
</event>
<event>
 5   0  0.8150924E-04  0.1096913E+04  0.7818609E-02  0.9208206E-01
        1   -1    0    0  501    0  0.00000000000E+00  0.00000000000E+00  0.28304406377E+03  0.28304406381E+03  0.50400001928E-02 0.  1.
       -1   -1    0    0    0  501  0.00000000000E+00  0.00000000000E+00 -0.10627479921E+04  0.10627479921E+04  0.50400001928E-02 0. -1.
    10030    2    1    2    0    0  0.00000000000E+00  0.00000000000E+00 -0.77970392829E+03  0.13457920559E+04  0.10969129600E+04 0.  0.
        3    1    3    3  502    0 -0.19070193391E+03 -0.33007326980E+03 -0.87364042013E+03  0.95318580818E+03  0.10100000352E+00 0. -1.
       -3    1    3    3    0  502  0.19070193391E+03  0.33007326980E+03  0.93936491834E+02  0.39260624770E+03  0.10100000352E+00 0.  1.
</event>
<event>
 5   0  0.1402775E-03  0.1098872E+04  0.7818609E-02  0.9206292E-01
        2   -1    0    0  501    0  0.00000000000E+00  0.00000000000E+00  0.48353114346E+03  0.48353114347E+03  0.25500000920E-02 0.  1.
       -2   -1    0    0    0  501  0.00000000000E+00  0.00000000000E+00 -0.62432371317E+03  0.62432371318E+03  0.25500000920E-02 0. -1.
    10030    2    1    2    0    0  0.00000000000E+00  0.00000000000E+00 -0.14079256971E+03  0.11078548566E+04  0.10988720743E+04 0.  0.
        5    1    3    3  502    0  0.32255863439E+03  0.36120085018E+03 -0.33203213335E+03  0.58717761739E+03  0.46999998093E+01 0. -1.
       -5    1    3    3    0  502 -0.32255863439E+03 -0.36120085018E+03  0.19123956364E+03  0.52067723926E+03  0.46999998093E+01 0.  1.
</event>
<event>
 5   0  0.1425432E-03  0.1104009E+04  0.7818609E-02  0.9201294E-01
       -2   -1    0    0    0  501  0.00000000000E+00  0.00000000000E+00  0.73878722074E+03  0.73878722074E+03  0.25500000920E-02 0.  1.
        2   -1    0    0  501    0  0.00000000000E+00  0.00000000000E+00 -0.41244455426E+03  0.41244455427E+03  0.25500000920E-02 0. -1.
    10030    2    1    2    0    0  0.00000000000E+00  0.00000000000E+00  0.32634266648E+03  0.11512317750E+04  0.11040086339E+04 0.  0.
        1    1    3    3  502    0  0.22611791758E+03 -0.24501787683E+03  0.62192764679E+03  0.70566073328E+03  0.50400001928E-02 0.  1.
       -1    1    3    3    0  502 -0.22611791758E+03  0.24501787683E+03 -0.29558498031E+03  0.44557104173E+03  0.50400001928E-02 0. -1.
</event>
<event>
 5   0  0.8009636E-04  0.1102847E+04  0.7818609E-02  0.9202421E-01
       -1   -1    0    0    0  501  0.00000000000E+00  0.00000000000E+00  0.39530817272E+03  0.39530817276E+03  0.50400001928E-02 0.  1.
        1   -1    0    0  501    0  0.00000000000E+00  0.00000000000E+00 -0.76919247764E+03  0.76919247765E+03  0.50400001928E-02 0. -1.
    10030    2    1    2    0    0  0.00000000000E+00  0.00000000000E+00 -0.37388430491E+03  0.11645006504E+04  0.11028473563E+04 0.  0.
        1    1    3    3  502    0  0.16546287215E+03 -0.38367120867E+03 -0.56690103274E+03  0.70424309678E+03  0.50400001928E-02 0. -1.
       -1    1    3    3    0  502 -0.16546287215E+03  0.38367120867E+03  0.19301672783E+03  0.46025755362E+03  0.50400001928E-02 0.  1.
</event>
<event>
 5   0  0.1396936E-03  0.1085640E+04  0.7818609E-02  0.9219303E-01
       -2   -1    0    0    0  501  0.00000000000E+00  0.00000000000E+00  0.29267077036E+03  0.29267077037E+03  0.25500000920E-02 0. -1.
        2   -1    0    0  501    0  0.00000000000E+00  0.00000000000E+00 -0.10067738928E+04  0.10067738928E+04  0.25500000920E-02 0.  1.
    10030    2    1    2    0    0  0.00000000000E+00  0.00000000000E+00 -0.71410312244E+03  0.12994446632E+04  0.10856395181E+04 0.  0.
        2    1    3    3  502    0  0.28061345473E+03  0.44883007519E+03 -0.50098790265E+03  0.72882180674E+03  0.25500000920E-02 0.  1.
       -2    1    3    3    0  502 -0.28061345473E+03 -0.44883007519E+03 -0.21311521978E+03  0.57062285643E+03  0.25500000920E-02 0. -1.
</event>
<event>
 5   0  0.1402775E-03  0.1098576E+04  0.7818609E-02  0.9206581E-01
       -2   -1    0    0    0  501  0.00000000000E+00  0.00000000000E+00  0.15970691366E+03  0.15970691368E+03  0.25500000920E-02 0. -1.
        2   -1    0    0  501    0  0.00000000000E+00  0.00000000000E+00 -0.18891951253E+04  0.18891951253E+04  0.25500000920E-02 0.  1.
    10030    2    1    2    0    0  0.00000000000E+00  0.00000000000E+00 -0.17294882116E+04  0.20489020389E+04  0.10985763929E+04 0.  0.
        5    1    3    3  502    0 -0.15182747915E+03  0.37625174703E+03 -0.15552629899E+04  0.16073213799E+04  0.46999998093E+01 0.  1.
       -5    1    3    3    0  502  0.15182747915E+03 -0.37625174703E+03 -0.17422522171E+03  0.44158065904E+03  0.46999998093E+01 0. -1.
</event>
<event>
 5   0  0.8341767E-04  0.1102877E+04  0.7818609E-02  0.9202393E-01
       -1   -1    0    0    0  501  0.00000000000E+00  0.00000000000E+00  0.17976448793E+03  0.17976448800E+03  0.50400001928E-02 0.  1.
        1   -1    0    0  501    0  0.00000000000E+00  0.00000000000E+00 -0.16915696249E+04  0.16915696249E+04  0.50400001928E-02 0. -1.
    10030    2    1    2    0    0  0.00000000000E+00  0.00000000000E+00 -0.15118051369E+04  0.18713341129E+04  0.11028765071E+04 0.  0.
        2    1    3    3  502    0 -0.37197982986E+03  0.36269360042E+03 -0.44225823697E+03  0.68228145936E+03  0.25500000920E-02 0. -1.
       -2    1    3    3    0  502  0.37197982986E+03 -0.36269360042E+03 -0.10695469000E+04  0.11890526535E+04  0.25500000920E-02 0.  1.
</event>
<event>
 5   0  0.1396936E-03  0.1091588E+04  0.7818609E-02  0.9213430E-01
       -2   -1    0    0    0  501  0.00000000000E+00  0.00000000000E+00  0.17950042997E+03  0.17950042999E+03  0.25500000920E-02 0. -1.
        2   -1    0    0  501    0  0.00000000000E+00  0.00000000000E+00 -0.16595553854E+04  0.16595553855E+04  0.25500000920E-02 0.  1.
    10030    2    1    2    0    0  0.00000000000E+00  0.00000000000E+00 -0.14800549555E+04  0.18390558154E+04  0.10915876607E+04 0.  0.
        2    1    3    3  502    0  0.54948983820E+02 -0.53950115381E+03 -0.63603548751E+03  0.83583612458E+03  0.25500000920E-02 0. -1.
       -2    1    3    3    0  502 -0.54948983820E+02  0.53950115381E+03 -0.84401946797E+03  0.10032196909E+04  0.25500000920E-02 0.  1.
</event>
<event>
 5   0  0.1429680E-03  0.1100929E+04  0.7818609E-02  0.9204286E-01
        2   -1    0    0  501    0  0.00000000000E+00  0.00000000000E+00  0.58192399240E+03  0.58192399241E+03  0.25500000920E-02 0.  1.
       -2   -1    0    0    0  501  0.00000000000E+00  0.00000000000E+00 -0.52070620662E+03  0.52070620663E+03  0.25500000920E-02 0. -1.
    10030    2    1    2    0    0  0.00000000000E+00  0.00000000000E+00  0.61217785782E+02  0.11026301990E+04  0.11009294884E+04 0.  0.
        3    1    3    3  502    0  0.29384779276E+03 -0.17732241707E+03  0.46164759254E+03  0.57524627318E+03  0.10100000352E+00 0.  1.
       -3    1    3    3    0  502 -0.29384779276E+03  0.17732241707E+03 -0.40042980676E+03  0.52738392586E+03  0.10100000352E+00 0. -1.
</event>
<event>
 5   0  0.8305271E-04  0.1101113E+04  0.7818609E-02  0.9204108E-01
       -1   -1    0    0    0  501  0.00000000000E+00  0.00000000000E+00  0.21723307701E+03  0.21723307707E+03  0.50400001928E-02 0.  1.
        1   -1    0    0  501    0  0.00000000000E+00  0.00000000000E+00 -0.13953331365E+04  0.13953331365E+04  0.50400001928E-02 0. -1.
    10030    2    1    2    0    0  0.00000000000E+00  0.00000000000E+00 -0.11781000595E+04  0.16125662136E+04  0.11011130928E+04 0.  0.
        5    1    3    3  502    0  0.46370723581E+03  0.14719478893E+03 -0.21167884522E+03  0.53058527113E+03  0.46999998093E+01 0.  1.
       -5    1    3    3    0  502 -0.46370723581E+03 -0.14719478893E+03 -0.96642121430E+03  0.10819809425E+04  0.46999998093E+01 0. -1.
</event>
<event>
 5   0  0.8305271E-04  0.1098635E+04  0.7818609E-02  0.9206523E-01
        1   -1    0    0  501    0  0.00000000000E+00  0.00000000000E+00  0.76627164666E+03  0.76627164668E+03  0.50400001928E-02 0. -1.
       -1   -1    0    0    0  501  0.00000000000E+00  0.00000000000E+00 -0.39378963807E+03  0.39378963811E+03  0.50400001928E-02 0.  1.
    10030    2    1    2    0    0  0.00000000000E+00  0.00000000000E+00  0.37248200859E+03  0.11600612848E+04  0.10986352160E+04 0.  0.
        5    1    3    3  502    0  0.43859648393E+03  0.31732561512E+03  0.28453337003E+03  0.61159116277E+03  0.46999998093E+01 0. -1.
       -5    1    3    3    0  502 -0.43859648393E+03 -0.31732561512E+03  0.87948638560E+02  0.54847012202E+03  0.46999998093E+01 0.  1.
</event>
<event>
 5   0  0.1425432E-03  0.1092474E+04  0.7818609E-02  0.9212558E-01
       -2   -1    0    0    0  501  0.00000000000E+00  0.00000000000E+00  0.91654262652E+03  0.91654262653E+03  0.25500000920E-02 0.  1.
        2   -1    0    0  501    0  0.00000000000E+00  0.00000000000E+00 -0.32554397040E+03  0.32554397041E+03  0.25500000920E-02 0. -1.
    10030    2    1    2    0    0  0.00000000000E+00  0.00000000000E+00  0.59099865613E+03  0.12420865969E+04  0.10924741199E+04 0.  0.
        1    1    3    3  502    0 -0.35903296400E+03 -0.87725792542E+02  0.75279350662E+03  0.83862896894E+03  0.50400001928E-02 0.  1.
       -1    1    3    3    0  502  0.35903296400E+03  0.87725792542E+02 -0.16179485049E+03  0.40345762800E+03  0.50400001928E-02 0. -1.
</event>
<event>
 5   0  0.7946038E-04  0.1154614E+04  0.7818609E-02  0.9153537E-01
       -1   -1    0    0    0  501  0.00000000000E+00  0.00000000000E+00  0.37101923606E+03  0.37101923609E+03  0.50400001928E-02 0. -1.
        1   -1    0    0  501    0  0.00000000000E+00  0.00000000000E+00 -0.89829155826E+03  0.89829155827E+03  0.50400001928E-02 0.  1.
    10030    2    1    2    0    0  0.00000000000E+00  0.00000000000E+00 -0.52727232220E+03  0.12693107944E+04  0.11546141308E+04 0.  0.
        4    1    3    3  502    0 -0.46405977157E+02  0.35192748918E+02 -0.89505210290E+03  0.89694588694E+03  0.12699999809E+01 0.  1.
       -4    1    3    3    0  502  0.46405977157E+02 -0.35192748918E+02  0.36777978070E+03  0.37236490743E+03  0.12699999809E+01 0. -1.
</event>
<event>
 5   0  0.8341767E-04  0.1099223E+04  0.7818609E-02  0.9205950E-01
        1   -1    0    0  501    0  0.00000000000E+00  0.00000000000E+00  0.45380194497E+03  0.45380194500E+03  0.50400001928E-02 0.  1.
       -1   -1    0    0    0  501  0.00000000000E+00  0.00000000000E+00 -0.66564864619E+03  0.66564864621E+03  0.50400001928E-02 0. -1.
    10030    2    1    2    0    0  0.00000000000E+00  0.00000000000E+00 -0.21184670122E+03  0.11194505912E+04  0.10992227260E+04 0.  0.
        2    1    3    3  502    0 -0.29854268193E+03 -0.29341836417E+03  0.25679160391E+03  0.49108451127E+03  0.25500000920E-02 0.  1.
       -2    1    3    3    0  502  0.29854268193E+03  0.29341836417E+03 -0.46863830513E+03  0.62836607993E+03  0.25500000920E-02 0. -1.
</event>
<event>
 5   0  0.1372794E-03  0.1101211E+04  0.7818609E-02  0.9204012E-01
       -2   -1    0    0    0  501  0.00000000000E+00  0.00000000000E+00  0.29491393240E+03  0.29491393241E+03  0.25500000920E-02 0.  1.
        2   -1    0    0  501    0  0.00000000000E+00  0.00000000000E+00 -0.10279825518E+04  0.10279825518E+04  0.25500000920E-02 0. -1.
    10030    2    1    2    0    0  0.00000000000E+00  0.00000000000E+00 -0.73306861940E+03  0.13228964842E+04  0.11012109277E+04 0.  0.
        4    1    3    3  502    0 -0.23003650291E+03  0.46050576233E+03 -0.13179434145E+03  0.53136965584E+03  0.12699999809E+01 0.  1.
       -4    1    3    3    0  502  0.23003650291E+03 -0.46050576233E+03 -0.60127427795E+03  0.79152682837E+03  0.12699999809E+01 0. -1.
</event>
<event>
 5   0  0.1396936E-03  0.1099028E+04  0.7818609E-02  0.9206140E-01
        2   -1    0    0  501    0  0.00000000000E+00  0.00000000000E+00  0.67431078903E+03  0.67431078904E+03  0.25500000920E-02 0. -1.
       -2   -1    0    0    0  501  0.00000000000E+00  0.00000000000E+00 -0.44781388156E+03  0.44781388157E+03  0.25500000920E-02 0.  1.
    10030    2    1    2    0    0  0.00000000000E+00  0.00000000000E+00  0.22649690747E+03  0.11221246706E+04  0.10990281740E+04 0.  0.
        2    1    3    3  502    0  0.49259877992E+03 -0.13836488066E+03  0.31787820983E+03  0.60236612992E+03  0.25500000920E-02 0.  1.
       -2    1    3    3    0  502 -0.49259877992E+03  0.13836488066E+03 -0.91381302362E+02  0.51975854068E+03  0.25500000920E-02 0. -1.
</event>
<event>
 5   0  0.1402775E-03  0.1102544E+04  0.7818609E-02  0.9202716E-01
       -2   -1    0    0    0  501  0.00000000000E+00  0.00000000000E+00  0.39384486362E+03  0.39384486363E+03  0.25500000920E-02 0. -1.
        2   -1    0    0  501    0  0.00000000000E+00  0.00000000000E+00 -0.77162525526E+03  0.77162525527E+03  0.25500000920E-02 0.  1.
    10030    2    1    2    0    0  0.00000000000E+00  0.00000000000E+00 -0.37778039164E+03  0.11654701189E+04  0.11025436834E+04 0.  0.
        5    1    3    3  502    0 -0.39621635414E+03 -0.32693407707E+03 -0.40031887899E+03  0.65126844305E+03  0.46999998093E+01 0.  1.
       -5    1    3    3    0  502  0.39621635414E+03  0.32693407707E+03  0.22538487354E+02  0.51420167585E+03  0.46999998093E+01 0. -1.
</event>
<event>
 5   0  0.5409500E-04  0.1102310E+04  0.7818609E-02  0.9202943E-01
       -4   -1    0    0    0  501  0.00000000000E+00  0.00000000000E+00  0.73582791161E+03  0.73582900758E+03  0.12699999809E+01 0.  1.
        4   -1    0    0  501    0  0.00000000000E+00  0.00000000000E+00 -0.41282752291E+03  0.41282947639E+03  0.12699999809E+01 0. -1.
    10030    2    1    2    0    0  0.00000000000E+00  0.00000000000E+00  0.32300038870E+03  0.11486584840E+04  0.11023098755E+04 0.  0.
        1    1    3    3  502    0 -0.35802518535E+03 -0.11123063504E+03  0.58248900955E+03  0.69271042564E+03  0.50400001928E-02 0.  1.
       -1    1    3    3    0  502  0.35802518535E+03  0.11123063504E+03 -0.25948862085E+03  0.45594805833E+03  0.50400001928E-02 0. -1.
</event>
<event>
 5   0  0.1372794E-03  0.1100600E+04  0.7818609E-02  0.9204607E-01
       -2   -1    0    0    0  501  0.00000000000E+00  0.00000000000E+00  0.10492858480E+04  0.10492858480E+04  0.25500000920E-02 0.  1.
        2   -1    0    0  501    0  0.00000000000E+00  0.00000000000E+00 -0.28860588961E+03  0.28860588962E+03  0.25500000920E-02 0. -1.
    10030    2    1    2    0    0  0.00000000000E+00  0.00000000000E+00  0.76067995842E+03  0.13378917377E+04  0.11005999739E+04 0.  0.
        4    1    3    3  502    0  0.16292944936E+03 -0.39428515484E+03  0.80287615537E+03  0.90918563701E+03  0.12699999809E+01 0.  1.
       -4    1    3    3    0  502 -0.16292944936E+03  0.39428515484E+03 -0.42196196945E+02  0.42870610065E+03  0.12699999809E+01 0. -1.
</event>
<event>
 5   0  0.1429680E-03  0.1099222E+04  0.7818609E-02  0.9205951E-01
       -2   -1    0    0    0  501  0.00000000000E+00  0.00000000000E+00  0.59115740533E+03  0.59115740533E+03  0.25500000920E-02 0.  1.
        2   -1    0    0  501    0  0.00000000000E+00  0.00000000000E+00 -0.51098430019E+03  0.51098430020E+03  0.25500000920E-02 0. -1.
    10030    2    1    2    0    0  0.00000000000E+00  0.00000000000E+00  0.80173105140E+02  0.11021417055E+04  0.10992218212E+04 0.  0.
        3    1    3    3  502    0 -0.43835538396E+03 -0.21491708571E+03 -0.21302677487E+03  0.53265862745E+03  0.10100000352E+00 0. -1.
       -3    1    3    3    0  502  0.43835538396E+03  0.21491708571E+03  0.29319988001E+03  0.56948307808E+03  0.10100000352E+00 0.  1.
</event>
<event>
 5   0  0.8150924E-04  0.1057397E+04  0.7818609E-02  0.9247740E-01
       -1   -1    0    0    0  501  0.00000000000E+00  0.00000000000E+00  0.18102029614E+03  0.18102029621E+03  0.50400001928E-02 0.  1.
        1   -1    0    0  501    0  0.00000000000E+00  0.00000000000E+00 -0.15441477582E+04  0.15441477582E+04  0.50400001928E-02 0. -1.
    10030    2    1    2    0    0  0.00000000000E+00  0.00000000000E+00 -0.13631274620E+04  0.17251680544E+04  0.10573969634E+04 0.  0.
        3    1    3    3  502    0 -0.19626158105E+03  0.30682596753E+03 -0.56323347713E+02  0.36855543985E+03  0.10100000352E+00 0.  1.
       -3    1    3    3    0  502  0.19626158105E+03 -0.30682596753E+03 -0.13068041143E+04  0.13566126145E+04  0.10100000352E+00 0. -1.
</event>
<event>
 5   0  0.1429680E-03  0.1107606E+04  0.7818609E-02  0.9197810E-01
       -2   -1    0    0    0  501  0.00000000000E+00  0.00000000000E+00  0.31447741545E+03  0.31447741546E+03  0.25500000920E-02 0. -1.
        2   -1    0    0  501    0  0.00000000000E+00  0.00000000000E+00 -0.97526218451E+03  0.97526218452E+03  0.25500000920E-02 0.  1.
    10030    2    1    2    0    0  0.00000000000E+00  0.00000000000E+00 -0.66078476906E+03  0.12897396000E+04  0.11076063040E+04 0.  0.
        3    1    3    3  502    0 -0.18843205679E+03 -0.45792457539E+03 -0.61915524531E+03  0.79281447058E+03  0.10100000352E+00 0.  1.
       -3    1    3    3    0  502  0.18843205679E+03  0.45792457539E+03 -0.41629523755E+02  0.49692512939E+03  0.10100000352E+00 0. -1.
</event>
<event>
 5   0  0.8341767E-04  0.1096845E+04  0.7818609E-02  0.9208272E-01
       -1   -1    0    0    0  501  0.00000000000E+00  0.00000000000E+00  0.68087413897E+03  0.68087413898E+03  0.50400001928E-02 0.  1.
        1   -1    0    0  501    0  0.00000000000E+00  0.00000000000E+00 -0.44173720813E+03  0.44173720815E+03  0.50400001928E-02 0. -1.
    10030    2    1    2    0    0  0.00000000000E+00  0.00000000000E+00  0.23913693084E+03  0.11226113471E+04  0.10968453697E+04 0.  0.
        2    1    3    3  502    0 -0.92404963562E+02  0.53409564128E+03  0.20501991050E+03  0.57950840808E+03  0.25500000920E-02 0.  1.
       -2    1    3    3    0  502  0.92404963562E+02 -0.53409564128E+03  0.34117020342E+02  0.54310293906E+03  0.25500000920E-02 0. -1.
</event>
<event>
 5   0  0.8009636E-04  0.1102703E+04  0.7818609E-02  0.9202562E-01
        1   -1    0    0  501    0  0.00000000000E+00  0.00000000000E+00  0.13656922018E+04  0.13656922018E+04  0.50400001928E-02 0.  1.
       -1   -1    0    0    0  501  0.00000000000E+00  0.00000000000E+00 -0.22258916252E+03  0.22258916257E+03  0.50400001928E-02 0. -1.
    10030    2    1    2    0    0  0.00000000000E+00  0.00000000000E+00  0.11431030393E+04  0.15882813644E+04  0.11027026499E+04 0.  0.
        1    1    3    3  502    0 -0.95145764111E+02 -0.19601250996E+02  0.13532684837E+04  0.13567507194E+04  0.50400001928E-02 0.  1.
       -1    1    3    3    0  502  0.95145764111E+02  0.19601250996E+02 -0.21016544449E+03  0.23153064495E+03  0.50400001928E-02 0. -1.
</event>
<event>
 5   0  0.1372794E-03  0.1100606E+04  0.7818609E-02  0.9204601E-01
        2   -1    0    0  501    0  0.00000000000E+00  0.00000000000E+00  0.99266887137E+03  0.99266887137E+03  0.25500000920E-02 0. -1.
       -2   -1    0    0    0  501  0.00000000000E+00  0.00000000000E+00 -0.30507005057E+03  0.30507005058E+03  0.25500000920E-02 0.  1.
    10030    2    1    2    0    0  0.00000000000E+00  0.00000000000E+00  0.68759882080E+03  0.12977389220E+04  0.11006062744E+04 0.  0.
        4    1    3    3  502    0 -0.10307876527E+03  0.43488058263E+03  0.72237647439E+03  0.84945614169E+03  0.12699999809E+01 0. -1.
       -4    1    3    3    0  502  0.10307876527E+03 -0.43488058263E+03 -0.34777653595E+02  0.44828278027E+03  0.12699999809E+01 0.  1.
</event>
<event>
 5   0  0.1372794E-03  0.1099455E+04  0.7818609E-02  0.9205723E-01
       -2   -1    0    0    0  501  0.00000000000E+00  0.00000000000E+00  0.33534701053E+03  0.33534701054E+03  0.25500000920E-02 0.  1.
        2   -1    0    0  501    0  0.00000000000E+00  0.00000000000E+00 -0.90115728129E+03  0.90115728129E+03  0.25500000920E-02 0. -1.
    10030    2    1    2    0    0  0.00000000000E+00  0.00000000000E+00 -0.56581027076E+03  0.12365042918E+04  0.10994551383E+04 0.  0.
        4    1    3    3  502    0 -0.36776537824E+03  0.35106265777E+03 -0.47795255635E+02  0.51066854463E+03  0.12699999809E+01 0. -1.
       -4    1    3    3    0  502  0.36776537824E+03 -0.35106265777E+03 -0.51801501512E+03  0.72583574720E+03  0.12699999809E+01 0.  1.
</event>
<event>
 5   0  0.1372794E-03  0.1106926E+04  0.7818609E-02  0.9198468E-01
        2   -1    0    0  501    0  0.00000000000E+00  0.00000000000E+00  0.14297871660E+04  0.14297871660E+04  0.25500000920E-02 0. -1.
       -2   -1    0    0    0  501  0.00000000000E+00  0.00000000000E+00 -0.21424248322E+03  0.21424248324E+03  0.25500000920E-02 0.  1.
    10030    2    1    2    0    0  0.00000000000E+00  0.00000000000E+00  0.12155446828E+04  0.16440296493E+04  0.11069257481E+04 0.  0.
        4    1    3    3  502    0 -0.54920540085E+03  0.60261098418E+01  0.50642132043E+03  0.74707901391E+03  0.12699999809E+01 0. -1.
       -4    1    3    3    0  502  0.54920540085E+03 -0.60261098418E+01  0.70912336239E+03  0.89695063538E+03  0.12699999809E+01 0.  1.
</event>
<event>
 5   0  0.5409500E-04  0.1091134E+04  0.7818609E-02  0.9213877E-01
        3   -1    0    0  501    0  0.00000000000E+00  0.00000000000E+00  0.66985379798E+03  0.66985380559E+03  0.10100000352E+00 0.  1.
       -3   -1    0    0    0  501  0.00000000000E+00  0.00000000000E+00 -0.44434058420E+03  0.44434059568E+03  0.10100000352E+00 0. -1.
    10030    2    1    2    0    0  0.00000000000E+00  0.00000000000E+00  0.22551321378E+03  0.11141944013E+04  0.10911337930E+04 0.  0.
        1    1    3    3  502    0 -0.70464703384E+01  0.26201685352E+03 -0.37583333255E+03  0.45820647983E+03  0.50400001928E-02 0. -1.
       -1    1    3    3    0  502  0.70464703384E+01 -0.26201685352E+03  0.60134654633E+03  0.65598792145E+03  0.50400001928E-02 0.  1.
</event>
<event>
 5   0  0.8009636E-04  0.1100395E+04  0.7818609E-02  0.9204807E-01
       -1   -1    0    0    0  501  0.00000000000E+00  0.00000000000E+00  0.65896412776E+03  0.65896412778E+03  0.50400001928E-02 0. -1.
        1   -1    0    0  501    0  0.00000000000E+00  0.00000000000E+00 -0.45938379361E+03  0.45938379364E+03  0.50400001928E-02 0.  1.
    10030    2    1    2    0    0  0.00000000000E+00  0.00000000000E+00  0.19958033415E+03  0.11183479214E+04  0.11003952760E+04 0.  0.
        1    1    3    3  502    0 -0.42828762008E+03  0.33653028862E+03  0.20840629655E+02  0.54508462879E+03  0.50400001928E-02 0.  1.
       -1    1    3    3    0  502  0.42828762008E+03 -0.33653028862E+03  0.17873970449E+03  0.57326329262E+03  0.50400001928E-02 0. -1.
</event>
<event>
 5   0  0.5409500E-04  0.1102195E+04  0.7818609E-02  0.9203055E-01
       -3   -1    0    0    0  501  0.00000000000E+00  0.00000000000E+00  0.92092308973E+03  0.92092309526E+03  0.10100000352E+00 0.  1.
        3   -1    0    0  501    0  0.00000000000E+00  0.00000000000E+00 -0.32978683869E+03  0.32978685416E+03  0.10100000352E+00 0. -1.
    10030    2    1    2    0    0  0.00000000000E+00  0.00000000000E+00  0.59113625104E+03  0.12507099494E+04  0.11021947697E+04 0.  0.
        1    1    3    3  502    0 -0.13730222538E+03  0.41290651617E+03  0.67931436592E+03  0.80672901272E+03  0.50400001928E-02 0.  1.
       -1    1    3    3    0  502  0.13730222538E+03 -0.41290651617E+03 -0.88178114884E+02  0.44398093670E+03  0.50400001928E-02 0. -1.
</event>
<event>
 5   0  0.1429680E-03  0.1102852E+04  0.7818609E-02  0.9202416E-01
        2   -1    0    0  501    0  0.00000000000E+00  0.00000000000E+00  0.13514973315E+04  0.13514973315E+04  0.25500000920E-02 0. -1.
       -2   -1    0    0    0  501  0.00000000000E+00  0.00000000000E+00 -0.22498812519E+03  0.22498812521E+03  0.25500000920E-02 0.  1.
    10030    2    1    2    0    0  0.00000000000E+00  0.00000000000E+00  0.11265092063E+04  0.15764854567E+04  0.11028523942E+04 0.  0.
        3    1    3    3  502    0  0.11231012794E+03  0.86487155515E+02 -0.19849870895E+03  0.24391666726E+03  0.10100000352E+00 0.  1.
       -3    1    3    3    0  502 -0.11231012794E+03 -0.86487155515E+02  0.13250079153E+04  0.13325687894E+04  0.10100000352E+00 0. -1.
</event>
<event>
 5   0  0.1425432E-03  0.1098523E+04  0.7818609E-02  0.9206633E-01
       -2   -1    0    0    0  501  0.00000000000E+00  0.00000000000E+00  0.68993101423E+03  0.68993101424E+03  0.25500000920E-02 0. -1.
        2   -1    0    0  501    0  0.00000000000E+00  0.00000000000E+00 -0.43727283670E+03  0.43727283670E+03  0.25500000920E-02 0.  1.
    10030    2    1    2    0    0  0.00000000000E+00  0.00000000000E+00  0.25265817754E+03  0.11272038509E+04  0.10985228113E+04 0.  0.
        1    1    3    3  502    0  0.10337585458E+03 -0.17770097361E+03  0.64896393959E+03  0.68074841039E+03  0.50400001928E-02 0. -1.
       -1    1    3    3    0  502 -0.10337585458E+03  0.17770097361E+03 -0.39630576206E+03  0.44645544055E+03  0.50400001928E-02 0.  1.
</event>
<event>
 5   0  0.5409500E-04  0.1104499E+04  0.7818609E-02  0.9200818E-01
        4   -1    0    0  501    0  0.00000000000E+00  0.00000000000E+00  0.16921146889E+03  0.16921623475E+03  0.12699999809E+01 0.  1.
       -4   -1    0    0    0  501  0.00000000000E+00  0.00000000000E+00 -0.18023267718E+04  0.18023272193E+04  0.12699999809E+01 0. -1.
    10030    2    1    2    0    0  0.00000000000E+00  0.00000000000E+00 -0.16331153029E+04  0.19715434540E+04  0.11044989807E+04 0.  0.
        3    1    3    3  502    0 -0.10506654249E+03 -0.73605297182E+02 -0.17753643990E+04  0.17799931116E+04  0.10100000352E+00 0. -1.
       -3    1    3    3    0  502  0.10506654249E+03  0.73605297182E+02  0.14224909607E+03  0.19155034236E+03  0.10100000352E+00 0.  1.
</event>
<event>
 5   0  0.8009636E-04  0.1096404E+04  0.7818609E-02  0.9208704E-01
       -1   -1    0    0    0  501  0.00000000000E+00  0.00000000000E+00  0.15127214308E+03  0.15127214317E+03  0.50400001928E-02 0. -1.
        1   -1    0    0  501    0  0.00000000000E+00  0.00000000000E+00 -0.19866539597E+04  0.19866539597E+04  0.50400001928E-02 0.  1.
    10030    2    1    2    0    0  0.00000000000E+00  0.00000000000E+00 -0.18353818166E+04  0.21379261029E+04  0.10964039441E+04 0.  0.
        1    1    3    3  502    0  0.18680538819E+03  0.25310375380E+03 -0.17931432424E+04  0.18205275200E+04  0.50400001928E-02 0.  1.
       -1    1    3    3    0  502 -0.18680538819E+03 -0.25310375380E+03 -0.42238574220E+02  0.31739858289E+03  0.50400001928E-02 0. -1.
</event>
<event>
 5   0  0.8341767E-04  0.1094604E+04  0.7818609E-02  0.9210467E-01
       -1   -1    0    0    0  501  0.00000000000E+00  0.00000000000E+00  0.52139064348E+03  0.52139064351E+03  0.50400001928E-02 0. -1.
        1   -1    0    0  501    0  0.00000000000E+00  0.00000000000E+00 -0.57450120790E+03  0.57450120792E+03  0.50400001928E-02 0.  1.
    10030    2    1    2    0    0  0.00000000000E+00  0.00000000000E+00 -0.53110564412E+02  0.10958918514E+04  0.10946041376E+04 0.  0.
        2    1    3    3  502    0  0.50057088324E+03  0.20902401113E+03 -0.99285826500E+02  0.55147068981E+03  0.25500000920E-02 0.  1.
       -2    1    3    3    0  502 -0.50057088324E+03 -0.20902401113E+03  0.46175262089E+02  0.54442116161E+03  0.25500000920E-02 0. -1.
</event>
<event>
 5   0  0.1429680E-03  0.1100041E+04  0.7818609E-02  0.9205152E-01
        2   -1    0    0  501    0  0.00000000000E+00  0.00000000000E+00  0.64851991186E+03  0.64851991187E+03  0.25500000920E-02 0. -1.
       -2   -1    0    0    0  501  0.00000000000E+00  0.00000000000E+00 -0.46648169601E+03  0.46648169602E+03  0.25500000920E-02 0.  1.
    10030    2    1    2    0    0  0.00000000000E+00  0.00000000000E+00  0.18203821585E+03  0.11150016079E+04  0.11000412145E+04 0.  0.
        3    1    3    3  502    0 -0.41302904283E+03  0.25237360053E+03  0.35579427033E+03  0.60072872203E+03  0.10100000352E+00 0. -1.
       -3    1    3    3    0  502  0.41302904283E+03 -0.25237360053E+03 -0.17375605448E+03  0.51427288587E+03  0.10100000352E+00 0.  1.
</event>
<event>
 5   0  0.8341767E-04  0.1094885E+04  0.7818609E-02  0.9210192E-01
       -1   -1    0    0    0  501  0.00000000000E+00  0.00000000000E+00  0.51530403701E+03  0.51530403703E+03  0.50400001928E-02 0.  1.
        1   -1    0    0  501    0  0.00000000000E+00  0.00000000000E+00 -0.58158526035E+03  0.58158526037E+03  0.50400001928E-02 0. -1.
    10030    2    1    2    0    0  0.00000000000E+00  0.00000000000E+00 -0.66281223342E+02  0.10968892974E+04  0.10948848936E+04 0.  0.
        2    1    3    3  502    0  0.29956060721E+03 -0.43386917475E+03  0.11448659271E+03  0.53952404775E+03  0.25500000920E-02 0.  1.
       -2    1    3    3    0  502 -0.29956060721E+03  0.43386917475E+03 -0.18076781605E+03  0.55736524965E+03  0.25500000920E-02 0. -1.
</event>
<event>
 5   0  0.1396936E-03  0.1096918E+04  0.7818609E-02  0.9208201E-01
        2   -1    0    0  501    0  0.00000000000E+00  0.00000000000E+00  0.97435778191E+03  0.97435778192E+03  0.25500000920E-02 0.  1.
       -2   -1    0    0    0  501  0.00000000000E+00  0.00000000000E+00 -0.30872335900E+03  0.30872335901E+03  0.25500000920E-02 0. -1.
    10030    2    1    2    0    0  0.00000000000E+00  0.00000000000E+00  0.66563442291E+03  0.12830811409E+04  0.10969175125E+04 0.  0.
        2    1    3    3  502    0 -0.35642099837E+03  0.41051091787E+03  0.24804823285E+03  0.59756427905E+03  0.25500000920E-02 0.  1.
       -2    1    3    3    0  502  0.35642099837E+03 -0.41051091787E+03  0.41758619006E+03  0.68551686187E+03  0.25500000920E-02 0. -1.
</event>
<event>
 5   0  0.8150924E-04  0.1094167E+04  0.7818609E-02  0.9210896E-01
        1   -1    0    0  501    0  0.00000000000E+00  0.00000000000E+00  0.60933359010E+03  0.60933359012E+03  0.50400001928E-02 0.  1.
       -1   -1    0    0    0  501  0.00000000000E+00  0.00000000000E+00 -0.49119276285E+03  0.49119276288E+03  0.50400001928E-02 0. -1.
    10030    2    1    2    0    0  0.00000000000E+00  0.00000000000E+00  0.11814082725E+03  0.11005263530E+04  0.10941668056E+04 0.  0.
        3    1    3    3  502    0 -0.34525363049E+03  0.31216924167E+03  0.34823143157E+03  0.58130443396E+03  0.10100000352E+00 0.  1.
       -3    1    3    3    0  502  0.34525363049E+03 -0.31216924167E+03 -0.23009060432E+03  0.51922191904E+03  0.10100000352E+00 0. -1.
</event>
<event>
 5   0  0.8009636E-04  0.1101258E+04  0.7818609E-02  0.9203967E-01
       -1   -1    0    0    0  501  0.00000000000E+00  0.00000000000E+00  0.75511849761E+03  0.75511849763E+03  0.50400001928E-02 0. -1.
        1   -1    0    0  501    0  0.00000000000E+00  0.00000000000E+00 -0.40151614766E+03  0.40151614769E+03  0.50400001928E-02 0.  1.
    10030    2    1    2    0    0  0.00000000000E+00  0.00000000000E+00  0.35360234995E+03  0.11566346453E+04  0.11012579538E+04 0.  0.
        1    1    3    3  502    0  0.12355596032E+03 -0.30095459158E+03  0.64338371859E+03  0.72095932680E+03  0.50400001928E-02 0. -1.
       -1    1    3    3    0  502 -0.12355596032E+03  0.30095459158E+03 -0.28978136864E+03  0.43567531851E+03  0.50400001928E-02 0.  1.
</event>
<event>
 5   0  0.1372794E-03  0.1100274E+04  0.7818609E-02  0.9204925E-01
        2   -1    0    0  501    0  0.00000000000E+00  0.00000000000E+00  0.16298476751E+04  0.16298476751E+04  0.25500000920E-02 0. -1.
       -2   -1    0    0    0  501  0.00000000000E+00  0.00000000000E+00 -0.18569250527E+03  0.18569250529E+03  0.25500000920E-02 0.  1.
    10030    2    1    2    0    0  0.00000000000E+00  0.00000000000E+00  0.14441551699E+04  0.18155401804E+04  0.11002735987E+04 0.  0.
        4    1    3    3  502    0  0.34399140431E+03 -0.13014607444E+03  0.46993312811E+02  0.37078035449E+03  0.12699999809E+01 0.  1.
       -4    1    3    3    0  502 -0.34399140431E+03  0.13014607444E+03  0.13971618571E+04  0.14447598259E+04  0.12699999809E+01 0. -1.
</event>
<event>
 5   0  0.1402775E-03  0.1103380E+04  0.7818609E-02  0.9201903E-01
       -2   -1    0    0    0  501  0.00000000000E+00  0.00000000000E+00  0.23043942637E+03  0.23043942639E+03  0.25500000920E-02 0. -1.
        2   -1    0    0  501    0  0.00000000000E+00  0.00000000000E+00 -0.13207896089E+04  0.13207896089E+04  0.25500000920E-02 0.  1.
    10030    2    1    2    0    0  0.00000000000E+00  0.00000000000E+00 -0.10903501826E+04  0.15512290353E+04  0.11033802606E+04 0.  0.
        5    1    3    3  502    0 -0.71475717776E+02  0.38806531315E+03 -0.10871926662E+04  0.11565956290E+04  0.46999998093E+01 0.  1.
       -5    1    3    3    0  502  0.71475717776E+02 -0.38806531315E+03 -0.31575163591E+01  0.39463340636E+03  0.46999998093E+01 0. -1.
</event>
<event>
 5   0  0.8341767E-04  0.1100647E+04  0.7818609E-02  0.9204562E-01
        1   -1    0    0  501    0  0.00000000000E+00  0.00000000000E+00  0.12087060668E+04  0.12087060668E+04  0.50400001928E-02 0.  1.
       -1   -1    0    0    0  501  0.00000000000E+00  0.00000000000E+00 -0.25056189357E+03  0.25056189362E+03  0.50400001928E-02 0. -1.
    10030    2    1    2    0    0  0.00000000000E+00  0.00000000000E+00  0.95814417322E+03  0.14592679604E+04  0.11006465026E+04 0.  0.
        2    1    3    3  502    0 -0.15408321400E+03 -0.33670129101E+03 -0.60698345045E+02  0.37522484633E+03  0.25500000920E-02 0. -1.
       -2    1    3    3    0  502  0.15408321400E+03  0.33670129101E+03  0.10188425183E+04  0.10840431141E+04  0.25500000920E-02 0.  1.
</event>
<event>
 5   0  0.8341767E-04  0.1099609E+04  0.7818609E-02  0.9205573E-01
       -1   -1    0    0    0  501  0.00000000000E+00  0.00000000000E+00  0.11053132353E+04  0.11053132353E+04  0.50400001928E-02 0.  1.
        1   -1    0    0  501    0  0.00000000000E+00  0.00000000000E+00 -0.27348377098E+03  0.27348377103E+03  0.50400001928E-02 0. -1.
    10030    2    1    2    0    0  0.00000000000E+00  0.00000000000E+00  0.83182946431E+03  0.13787970063E+04  0.10996094429E+04 0.  0.
        2    1    3    3  502    0 -0.25214532579E+03 -0.15813211176E+03 -0.16373597406E+03  0.33969471485E+03  0.25500000920E-02 0. -1.
       -2    1    3    3    0  502  0.25214532579E+03  0.15813211176E+03  0.99556543837E+03  0.10391022915E+04  0.25500000920E-02 0.  1.
</event>
<event>
 5   0  0.8009636E-04  0.1099662E+04  0.7818609E-02  0.9205521E-01
        1   -1    0    0  501    0  0.00000000000E+00  0.00000000000E+00  0.86256770481E+03  0.86256770482E+03  0.50400001928E-02 0. -1.
       -1   -1    0    0    0  501  0.00000000000E+00  0.00000000000E+00 -0.35048191054E+03  0.35048191058E+03  0.50400001928E-02 0.  1.
    10030    2    1    2    0    0  0.00000000000E+00  0.00000000000E+00  0.51208579426E+03  0.12130496154E+04  0.10996624522E+04 0.  0.
        1    1    3    3  502    0 -0.38686898621E+03 -0.79659216129E+01  0.68693911510E+03  0.78842654463E+03  0.50400001928E-02 0. -1.
       -1    1    3    3    0  502  0.38686898621E+03  0.79659216129E+01 -0.17485332084E+03  0.42462307077E+03  0.50400001928E-02 0.  1.
</event>
<event>
 5   0  0.8305271E-04  0.1098013E+04  0.7818609E-02  0.9207131E-01
       -1   -1    0    0    0  501  0.00000000000E+00  0.00000000000E+00  0.29591460222E+03  0.29591460227E+03  0.50400001928E-02 0. -1.
        1   -1    0    0  501    0  0.00000000000E+00  0.00000000000E+00 -0.10185639801E+04  0.10185639801E+04  0.50400001928E-02 0.  1.
    10030    2    1    2    0    0  0.00000000000E+00  0.00000000000E+00 -0.72264937787E+03  0.13144785824E+04  0.10980126685E+04 0.  0.
        5    1    3    3  502    0 -0.19361392178E+03 -0.50005447087E+03 -0.22046287433E+03  0.57979892506E+03  0.46999998093E+01 0. -1.
       -5    1    3    3    0  502  0.19361392178E+03  0.50005447087E+03 -0.50218650353E+03  0.73467965731E+03  0.46999998093E+01 0.  1.
</event>
<event>
 5   0  0.8150924E-04  0.1097737E+04  0.7818609E-02  0.9207400E-01
       -1   -1    0    0    0  501  0.00000000000E+00  0.00000000000E+00  0.33836780811E+03  0.33836780815E+03  0.50400001928E-02 0. -1.
        1   -1    0    0  501    0  0.00000000000E+00  0.00000000000E+00 -0.89032336684E+03  0.89032336685E+03  0.50400001928E-02 0.  1.
    10030    2    1    2    0    0  0.00000000000E+00  0.00000000000E+00 -0.55195555873E+03  0.12286911750E+04  0.10977372476E+04 0.  0.
        3    1    3    3  502    0 -0.14890161566E+03 -0.52696699490E+03 -0.23423468295E+03  0.59559365490E+03  0.10100000352E+00 0.  1.
       -3    1    3    3    0  502  0.14890161566E+03  0.52696699490E+03 -0.31772087578E+03  0.63309752010E+03  0.10100000352E+00 0. -1.
</event>
<event>
 5   0  0.1425432E-03  0.1102006E+04  0.7818609E-02  0.9203239E-01
       -2   -1    0    0    0  501  0.00000000000E+00  0.00000000000E+00  0.23463285507E+03  0.23463285509E+03  0.25500000920E-02 0. -1.
        2   -1    0    0  501    0  0.00000000000E+00  0.00000000000E+00 -0.12939554797E+04  0.12939554797E+04  0.25500000920E-02 0.  1.
    10030    2    1    2    0    0  0.00000000000E+00  0.00000000000E+00 -0.10593226247E+04  0.15285883348E+04  0.11020062950E+04 0.  0.
        1    1    3    3  502    0 -0.24092651080E+02  0.97067803412E+02  0.22193711497E+03  0.24343109358E+03  0.50400001928E-02 0. -1.
       -1    1    3    3    0  502  0.24092651080E+02 -0.97067803412E+02 -0.12812597396E+04  0.12851572413E+04  0.50400001928E-02 0.  1.
</event>
<event>
 5   0  0.8305271E-04  0.1100025E+04  0.7818609E-02  0.9205168E-01
        1   -1    0    0  501    0  0.00000000000E+00  0.00000000000E+00  0.82088195087E+03  0.82088195089E+03  0.50400001928E-02 0.  1.
       -1   -1    0    0    0  501  0.00000000000E+00  0.00000000000E+00 -0.36852263721E+03  0.36852263725E+03  0.50400001928E-02 0. -1.
    10030    2    1    2    0    0  0.00000000000E+00  0.00000000000E+00  0.45235931366E+03  0.11894045881E+04  0.11000246932E+04 0.  0.
        5    1    3    3  502    0  0.37952877725E+03 -0.53941732112E+02 -0.20025037934E+03  0.43252064418E+03  0.46999998093E+01 0. -1.
       -5    1    3    3    0  502 -0.37952877725E+03  0.53941732112E+02  0.65260969299E+03  0.75688394395E+03  0.46999998093E+01 0.  1.
</event>
<event>
 5   0  0.8009636E-04  0.1094165E+04  0.7818609E-02  0.9210898E-01
       -1   -1    0    0    0  501  0.00000000000E+00  0.00000000000E+00  0.16004629882E+03  0.16004629890E+03  0.50400001928E-02 0. -1.
        1   -1    0    0  501    0  0.00000000000E+00  0.00000000000E+00 -0.18700796307E+04  0.18700796307E+04  0.50400001928E-02 0.  1.
    10030    2    1    2    0    0  0.00000000000E+00  0.00000000000E+00 -0.17100333319E+04  0.20301259296E+04  0.10941651127E+04 0.  0.
        1    1    3    3  502    0  0.53514366357E+03 -0.11279274229E+02 -0.10648780043E+04  0.11918351928E+04  0.50400001928E-02 0.  1.
       -1    1    3    3    0  502 -0.53514366357E+03  0.11279274229E+02 -0.64515532755E+03  0.83829073678E+03  0.50400001928E-02 0. -1.
</event>
<event>
 5   0  0.8009636E-04  0.1101185E+04  0.7818609E-02  0.9204037E-01
        1   -1    0    0  501    0  0.00000000000E+00  0.00000000000E+00  0.29697308475E+03  0.29697308479E+03  0.50400001928E-02 0. -1.
       -1   -1    0    0    0  501  0.00000000000E+00  0.00000000000E+00 -0.10208073466E+04  0.10208073466E+04  0.50400001928E-02 0.  1.
    10030    2    1    2    0    0  0.00000000000E+00  0.00000000000E+00 -0.72383426187E+03  0.13177804314E+04  0.11011853735E+04 0.  0.
        1    1    3    3  502    0 -0.42778024293E+03 -0.33928984156E+03 -0.27697071639E+03  0.61223060246E+03  0.50400001928E-02 0. -1.
       -1    1    3    3    0  502  0.42778024293E+03  0.33928984156E+03 -0.44686354548E+03  0.70554982895E+03  0.50400001928E-02 0.  1.
</event>
<event>
 5   0  0.8341767E-04  0.1097194E+04  0.7818609E-02  0.9207931E-01
       -1   -1    0    0    0  501  0.00000000000E+00  0.00000000000E+00  0.36976111452E+03  0.36976111456E+03  0.50400001928E-02 0. -1.
        1   -1    0    0  501    0  0.00000000000E+00  0.00000000000E+00 -0.81392749223E+03  0.81392749224E+03  0.50400001928E-02 0.  1.
    10030    2    1    2    0    0  0.00000000000E+00  0.00000000000E+00 -0.44416637770E+03  0.11836886068E+04  0.10971941245E+04 0.  0.
        2    1    3    3  502    0  0.91884955523E+02 -0.45879771388E+03 -0.53105249044E+03  0.70778170004E+03  0.25500000920E-02 0.  1.
       -2    1    3    3    0  502 -0.91884955523E+02  0.45879771388E+03  0.86886112732E+02  0.47590690676E+03  0.25500000920E-02 0. -1.
</event>
<event>
 5   0  0.8150924E-04  0.1106200E+04  0.7818609E-02  0.9199170E-01
       -1   -1    0    0    0  501  0.00000000000E+00  0.00000000000E+00  0.10430279465E+04  0.10430279465E+04  0.50400001928E-02 0. -1.
        1   -1    0    0  501    0  0.00000000000E+00  0.00000000000E+00 -0.29329929828E+03  0.29329929833E+03  0.50400001928E-02 0.  1.
    10030    2    1    2    0    0  0.00000000000E+00  0.00000000000E+00  0.74972864821E+03  0.13363272448E+04  0.11061995567E+04 0.  0.
        3    1    3    3  502    0 -0.22782916846E+02  0.10892958808E+03  0.10293633751E+04  0.10353616203E+04  0.10100000352E+00 0. -1.
       -3    1    3    3    0  502  0.22782916846E+02 -0.10892958808E+03 -0.27963472693E+03  0.30096562456E+03  0.10100000352E+00 0.  1.
</event>
<event>
 5   0  0.1425432E-03  0.1098630E+04  0.7818609E-02  0.9206528E-01
        2   -1    0    0  501    0  0.00000000000E+00  0.00000000000E+00  0.83049730093E+03  0.83049730094E+03  0.25500000920E-02 0.  1.
       -2   -1    0    0    0  501  0.00000000000E+00  0.00000000000E+00 -0.36333272434E+03  0.36333272435E+03  0.25500000920E-02 0. -1.
    10030    2    1    2    0    0  0.00000000000E+00  0.00000000000E+00  0.46716457659E+03  0.11938300253E+04  0.10986297773E+04 0.  0.
        1    1    3    3  502    0  0.40891919064E+03  0.20702021669E+03 -0.95432620362E+02  0.46816627351E+03  0.50400001928E-02 0. -1.
       -1    1    3    3    0  502 -0.40891919064E+03 -0.20702021669E+03  0.56259719696E+03  0.72566375178E+03  0.50400001928E-02 0.  1.
</event>
<event>
 5   0  0.1429680E-03  0.1101920E+04  0.7818609E-02  0.9203323E-01
       -2   -1    0    0    0  501  0.00000000000E+00  0.00000000000E+00  0.24379905683E+03  0.24379905684E+03  0.25500000920E-02 0. -1.
        2   -1    0    0  501    0  0.00000000000E+00  0.00000000000E+00 -0.12451103746E+04  0.12451103746E+04  0.25500000920E-02 0.  1.
    10030    2    1    2    0    0  0.00000000000E+00  0.00000000000E+00 -0.10013113177E+04  0.14889094314E+04  0.11019196613E+04 0.  0.
        3    1    3    3  502    0 -0.42702968679E+03 -0.34092778266E+03 -0.59591850658E+03  0.80852024284E+03  0.10100000352E+00 0.  1.
       -3    1    3    3    0  502  0.42702968679E+03  0.34092778266E+03 -0.40539281115E+03  0.68038918857E+03  0.10100000352E+00 0. -1.
</event>
<event>
 5   0  0.8150924E-04  0.1100656E+04  0.7818609E-02  0.9204553E-01
        1   -1    0    0  501    0  0.00000000000E+00  0.00000000000E+00  0.63168383100E+03  0.63168383102E+03  0.50400001928E-02 0.  1.
       -1   -1    0    0    0  501  0.00000000000E+00  0.00000000000E+00 -0.47944995246E+03  0.47944995248E+03  0.50400001928E-02 0. -1.
    10030    2    1    2    0    0  0.00000000000E+00  0.00000000000E+00  0.15223387855E+03  0.11111337835E+04  0.11006557732E+04 0.  0.
        3    1    3    3  502    0  0.45163547518E+03 -0.31374911085E+03  0.97476468877E+02  0.55849331167E+03  0.10100000352E+00 0. -1.
       -3    1    3    3    0  502 -0.45163547518E+03  0.31374911085E+03  0.54757409670E+02  0.55264047184E+03  0.10100000352E+00 0.  1.
</event>
<event>
 5   0  0.5409500E-04  0.1084842E+04  0.7818609E-02  0.9220093E-01
       -4   -1    0    0    0  501  0.00000000000E+00  0.00000000000E+00  0.10373741182E+04  0.10373748956E+04  0.12699999809E+01 0. -1.
        4   -1    0    0  501    0  0.00000000000E+00  0.00000000000E+00 -0.28361823730E+03  0.28362108072E+03  0.12699999809E+01 0.  1.
    10030    2    1    2    0    0  0.00000000000E+00  0.00000000000E+00  0.75375588091E+03  0.13209959763E+04  0.10848421274E+04 0.  0.
        2    1    3    3  502    0  0.29469845675E+02 -0.53242307422E+03  0.49790019979E+03  0.72955288412E+03  0.25500000920E-02 0.  1.
       -2    1    3    3    0  502 -0.29469845675E+02  0.53242307422E+03  0.25585568112E+03  0.59144309222E+03  0.25500000920E-02 0. -1.
</event>
<event>
 5   0  0.7946038E-04  0.1101072E+04  0.7818609E-02  0.9204148E-01
       -1   -1    0    0    0  501  0.00000000000E+00  0.00000000000E+00  0.19161226273E+03  0.19161226280E+03  0.50400001928E-02 0.  1.
        1   -1    0    0  501    0  0.00000000000E+00  0.00000000000E+00 -0.15817872978E+04  0.15817872978E+04  0.50400001928E-02 0. -1.
    10030    2    1    2    0    0  0.00000000000E+00  0.00000000000E+00 -0.13901750351E+04  0.17733995606E+04  0.11010719202E+04 0.  0.
        4    1    3    3  502    0  0.21555519730E+03 -0.13818484692E+03 -0.14800508192E+04  0.15020356638E+04  0.12699999809E+01 0. -1.
       -4    1    3    3    0  502 -0.21555519730E+03  0.13818484692E+03  0.89875784161E+02  0.27136389678E+03  0.12699999809E+01 0.  1.
</event>
<event>
 5   0  0.8341767E-04  0.1100944E+04  0.7818609E-02  0.9204272E-01
       -1   -1    0    0    0  501  0.00000000000E+00  0.00000000000E+00  0.91038619560E+03  0.91038619561E+03  0.50400001928E-02 0. -1.
        1   -1    0    0  501    0  0.00000000000E+00  0.00000000000E+00 -0.33284703474E+03  0.33284703477E+03  0.50400001928E-02 0.  1.
    10030    2    1    2    0    0  0.00000000000E+00  0.00000000000E+00  0.57753916086E+03  0.12432332304E+04  0.11009438600E+04 0.  0.
        2    1    3    3  502    0  0.13736611678E+03 -0.15056045724E+02 -0.31294132849E+03  0.34209415318E+03  0.25500000920E-02 0.  1.
       -2    1    3    3    0  502 -0.13736611678E+03  0.15056045724E+02  0.89048048935E+03  0.90113907721E+03  0.25500000920E-02 0. -1.
</event>
<event>
 5   0  0.8009636E-04  0.1101772E+04  0.7818609E-02  0.9203467E-01
       -1   -1    0    0    0  501  0.00000000000E+00  0.00000000000E+00  0.33302467486E+03  0.33302467489E+03  0.50400001928E-02 0. -1.
        1   -1    0    0  501    0  0.00000000000E+00  0.00000000000E+00 -0.91126935390E+03  0.91126935391E+03  0.50400001928E-02 0.  1.
    10030    2    1    2    0    0  0.00000000000E+00  0.00000000000E+00 -0.57824467904E+03  0.12442940288E+04  0.11017716285E+04 0.  0.
        1    1    3    3  502    0 -0.18974788194E+03  0.10304776060E+03  0.28324253848E+03  0.35615928360E+03  0.50400001928E-02 0. -1.
       -1    1    3    3    0  502  0.18974788194E+03 -0.10304776060E+03 -0.86148721752E+03  0.88813474521E+03  0.50400001928E-02 0.  1.
</event>
<event>
 5   0  0.8305271E-04  0.1098054E+04  0.7818609E-02  0.9207091E-01
        1   -1    0    0  501    0  0.00000000000E+00  0.00000000000E+00  0.22362445745E+03  0.22362445750E+03  0.50400001928E-02 0. -1.
       -1   -1    0    0    0  501  0.00000000000E+00  0.00000000000E+00 -0.13479321409E+04  0.13479321410E+04  0.50400001928E-02 0.  1.
    10030    2    1    2    0    0  0.00000000000E+00  0.00000000000E+00 -0.11243076835E+04  0.15715565985E+04  0.10980539035E+04 0.  0.
        5    1    3    3  502    0 -0.54513019346E+03 -0.23670957862E+02 -0.64899082176E+03  0.84790236395E+03  0.46999998093E+01 0.  1.
       -5    1    3    3    0  502  0.54513019346E+03  0.23670957862E+02 -0.47531686174E+03  0.72365423451E+03  0.46999998093E+01 0. -1.
</event>
<event>
 5   0  0.1402775E-03  0.1100574E+04  0.7818609E-02  0.9204633E-01
       -2   -1    0    0    0  501  0.00000000000E+00  0.00000000000E+00  0.35499559862E+03  0.35499559863E+03  0.25500000920E-02 0.  1.
        2   -1    0    0  501    0  0.00000000000E+00  0.00000000000E+00 -0.85301263673E+03  0.85301263673E+03  0.25500000920E-02 0. -1.
    10030    2    1    2    0    0  0.00000000000E+00  0.00000000000E+00 -0.49801703811E+03  0.12080082354E+04  0.11005739078E+04 0.  0.
        5    1    3    3  502    0 -0.36050949414E+03 -0.25825266898E+03 -0.60658922057E+03  0.75142139237E+03  0.46999998093E+01 0. -1.
       -5    1    3    3    0  502  0.36050949414E+03  0.25825266898E+03  0.10857218246E+03  0.45658684300E+03  0.46999998093E+01 0.  1.
</event>
<event>
 5   0  0.1372794E-03  0.1099832E+04  0.7818609E-02  0.9205356E-01
       -2   -1    0    0    0  501  0.00000000000E+00  0.00000000000E+00  0.15839461945E+03  0.15839461947E+03  0.25500000920E-02 0.  1.
        2   -1    0    0  501    0  0.00000000000E+00  0.00000000000E+00 -0.19092028196E+04  0.19092028196E+04  0.25500000920E-02 0. -1.
    10030    2    1    2    0    0  0.00000000000E+00  0.00000000000E+00 -0.17508082002E+04  0.20675974391E+04  0.10998317218E+04 0.  0.
        4    1    3    3  502    0  0.83159273608E+02  0.17468779466E+03 -0.18431065181E+04  0.18532335364E+04  0.12699999809E+01 0. -1.
       -4    1    3    3    0  502 -0.83159273608E+02 -0.17468779466E+03  0.92298317930E+02  0.21436390271E+03  0.12699999809E+01 0.  1.
</event>
<event>
 5   0  0.8305271E-04  0.1099695E+04  0.7818609E-02  0.9205489E-01
        1   -1    0    0  501    0  0.00000000000E+00  0.00000000000E+00  0.16927816061E+04  0.16927816061E+04  0.50400001928E-02 0.  1.
       -1   -1    0    0    0  501  0.00000000000E+00  0.00000000000E+00 -0.17860088155E+03  0.17860088162E+03  0.50400001928E-02 0. -1.
    10030    2    1    2    0    0  0.00000000000E+00  0.00000000000E+00  0.15141807245E+04  0.18713824877E+04  0.10996950253E+04 0.  0.
        5    1    3    3  502    0 -0.32560363033E+03  0.18513704180E+03  0.72122402741E+02  0.38146714053E+03  0.46999998093E+01 0. -1.
       -5    1    3    3    0  502  0.32560363033E+03 -0.18513704180E+03  0.14420583218E+04  0.14899153472E+04  0.46999998093E+01 0.  1.
</event>
<event>
 5   0  0.5409500E-04  0.1098523E+04  0.7818609E-02  0.9206632E-01
        3   -1    0    0  501    0  0.00000000000E+00  0.00000000000E+00  0.31834680132E+03  0.31834681734E+03  0.10100000352E+00 0. -1.
       -3   -1    0    0    0  501  0.00000000000E+00  0.00000000000E+00 -0.94767205179E+03  0.94767205717E+03  0.10100000352E+00 0.  1.
    10030    2    1    2    0    0  0.00000000000E+00  0.00000000000E+00 -0.62932525047E+03  0.12660188745E+04  0.10985233360E+04 0.  0.
        2    1    3    3  502    0 -0.14220123556E+03  0.28071625786E+02  0.29590811325E+03  0.32950086352E+03  0.25500000920E-02 0. -1.
       -2    1    3    3    0  502  0.14220123556E+03 -0.28071625786E+02 -0.92523336372E+03  0.93651801099E+03  0.25500000920E-02 0.  1.
</event>
<event>
 5   0  0.1425432E-03  0.1101593E+04  0.7818609E-02  0.9203640E-01
       -2   -1    0    0    0  501  0.00000000000E+00  0.00000000000E+00  0.22743935227E+03  0.22743935229E+03  0.25500000920E-02 0.  1.
        2   -1    0    0  501    0  0.00000000000E+00  0.00000000000E+00 -0.13338810597E+04  0.13338810597E+04  0.25500000920E-02 0. -1.
    10030    2    1    2    0    0  0.00000000000E+00  0.00000000000E+00 -0.11064417074E+04  0.15613204120E+04  0.11015934717E+04 0.  0.
        1    1    3    3  502    0 -0.26218513135E+02 -0.40318330370E+03 -0.10837883893E+04  0.11566509671E+04  0.50400001928E-02 0. -1.
       -1    1    3    3    0  502  0.26218513135E+02  0.40318330370E+03 -0.22653318142E+02  0.40466944493E+03  0.50400001928E-02 0.  1.
</event>
<event>
 5   0  0.1372794E-03  0.1102142E+04  0.7818609E-02  0.9203107E-01
        2   -1    0    0  501    0  0.00000000000E+00  0.00000000000E+00  0.14268670016E+04  0.14268670016E+04  0.25500000920E-02 0. -1.
       -2   -1    0    0    0  501  0.00000000000E+00  0.00000000000E+00 -0.21282931878E+03  0.21282931879E+03  0.25500000920E-02 0.  1.
    10030    2    1    2    0    0  0.00000000000E+00  0.00000000000E+00  0.12140376828E+04  0.16396963204E+04  0.11021417911E+04 0.  0.
        4    1    3    3  502    0  0.69098169877E+02 -0.48212678932E+03  0.22349231567E+03  0.53588359382E+03  0.12699999809E+01 0.  1.
       -4    1    3    3    0  502 -0.69098169877E+02  0.48212678932E+03  0.99054536716E+03  0.11038127266E+04  0.12699999809E+01 0. -1.
</event>
<event>
 5   0  0.1372794E-03  0.1100353E+04  0.7818609E-02  0.9204848E-01
        2   -1    0    0  501    0  0.00000000000E+00  0.00000000000E+00  0.14355885161E+04  0.14355885161E+04  0.25500000920E-02 0.  1.
       -2   -1    0    0    0  501  0.00000000000E+00  0.00000000000E+00 -0.21085024355E+03  0.21085024357E+03  0.25500000920E-02 0. -1.
    10030    2    1    2    0    0  0.00000000000E+00  0.00000000000E+00  0.12247382725E+04  0.16464387597E+04  0.11003530129E+04 0.  0.
        4    1    3    3  502    0  0.45397512724E+03 -0.10720137851E+03  0.17585707730E+03  0.49851065810E+03  0.12699999809E+01 0. -1.
       -4    1    3    3    0  502 -0.45397512724E+03  0.10720137851E+03  0.10488811952E+04  0.11479281015E+04  0.12699999809E+01 0.  1.
</event>
<event>
 5   0  0.7946038E-04  0.1058821E+04  0.7818609E-02  0.9246284E-01
       -1   -1    0    0    0  501  0.00000000000E+00  0.00000000000E+00  0.42123848914E+03  0.42123848917E+03  0.50400001928E-02 0. -1.
        1   -1    0    0  501    0  0.00000000000E+00  0.00000000000E+00 -0.66536032258E+03  0.66536032260E+03  0.50400001928E-02 0.  1.
    10030    2    1    2    0    0  0.00000000000E+00  0.00000000000E+00 -0.24412183343E+03  0.10865988118E+04  0.10588208102E+04 0.  0.
        4    1    3    3  502    0  0.61020260470E+02 -0.38821466389E+03  0.24198447430E+03  0.46151077576E+03  0.12699999809E+01 0.  1.
       -4    1    3    3    0  502 -0.61020260470E+02  0.38821466389E+03 -0.48610630773E+03  0.62508803601E+03  0.12699999809E+01 0. -1.
</event>
<event>
 5   0  0.8150924E-04  0.1096746E+04  0.7818609E-02  0.9208370E-01
        1   -1    0    0  501    0  0.00000000000E+00  0.00000000000E+00  0.11054620330E+04  0.11054620330E+04  0.50400001928E-02 0.  1.
       -1   -1    0    0    0  501  0.00000000000E+00  0.00000000000E+00 -0.27202449577E+03  0.27202449581E+03  0.50400001928E-02 0. -1.
    10030    2    1    2    0    0  0.00000000000E+00  0.00000000000E+00  0.83343753722E+03  0.13774865288E+04  0.10967456444E+04 0.  0.
        3    1    3    3  502    0  0.93044236772E+02 -0.29335936336E+03  0.98676571096E+03  0.10336457442E+04  0.10100000352E+00 0.  1.
       -3    1    3    3    0  502 -0.93044236772E+02  0.29335936336E+03 -0.15332817374E+03  0.34384078457E+03  0.10100000352E+00 0. -1.
</event>
<event>
 5   0  0.8150924E-04  0.1102460E+04  0.7818609E-02  0.9202797E-01
        1   -1    0    0  501    0  0.00000000000E+00  0.00000000000E+00  0.14764625745E+04  0.14764625745E+04  0.50400001928E-02 0. -1.
       -1   -1    0    0    0  501  0.00000000000E+00  0.00000000000E+00 -0.20579904363E+03  0.20579904369E+03  0.50400001928E-02 0.  1.
    10030    2    1    2    0    0  0.00000000000E+00  0.00000000000E+00  0.12706635308E+04  0.16822616182E+04  0.11024601323E+04 0.  0.
        3    1    3    3  502    0  0.54716407633E+03 -0.14120185469E+02  0.53565931203E+03  0.76584516375E+03  0.10100000352E+00 0.  1.
       -3    1    3    3    0  502 -0.54716407633E+03  0.14120185469E+02  0.73500421881E+03  0.91641645442E+03  0.10100000352E+00 0. -1.
</event>
<event>
 5   0  0.1372794E-03  0.1127117E+04  0.7818609E-02  0.9179157E-01
       -2   -1    0    0    0  501  0.00000000000E+00  0.00000000000E+00  0.15736904807E+03  0.15736904809E+03  0.25500000920E-02 0. -1.
        2   -1    0    0  501    0  0.00000000000E+00  0.00000000000E+00 -0.20181759437E+04  0.20181759437E+04  0.25500000920E-02 0.  1.
    10030    2    1    2    0    0  0.00000000000E+00  0.00000000000E+00 -0.18608068956E+04  0.21755449917E+04  0.11271174333E+04 0.  0.
        4    1    3    3  502    0 -0.14263134326E+02  0.10132607717E+03  0.13928542705E+03  0.17283649501E+03  0.12699999809E+01 0. -1.
       -4    1    3    3    0  502  0.14263134326E+02 -0.10132607717E+03 -0.20000923226E+04  0.20027084967E+04  0.12699999809E+01 0.  1.
</event>
<event>
 5   0  0.7946038E-04  0.1109722E+04  0.7818609E-02  0.9195768E-01
        1   -1    0    0  501    0  0.00000000000E+00  0.00000000000E+00  0.74880265466E+03  0.74880265467E+03  0.50400001928E-02 0. -1.
       -1   -1    0    0    0  501  0.00000000000E+00  0.00000000000E+00 -0.41115041055E+03  0.41115041058E+03  0.50400001928E-02 0.  1.
    10030    2    1    2    0    0  0.00000000000E+00  0.00000000000E+00  0.33765224410E+03  0.11599530653E+04  0.11097216208E+04 0.  0.
        4    1    3    3  502    0  0.12578510160E+03 -0.50189560714E+03  0.37826500833E+03  0.64094237002E+03  0.12699999809E+01 0. -1.
       -4    1    3    3    0  502 -0.12578510160E+03  0.50189560714E+03 -0.40612764229E+02  0.51901069524E+03  0.12699999809E+01 0.  1.
</event>
<event>
 5   0  0.1425432E-03  0.1100166E+04  0.7818609E-02  0.9205030E-01
       -2   -1    0    0    0  501  0.00000000000E+00  0.00000000000E+00  0.27768042268E+03  0.27768042269E+03  0.25500000920E-02 0. -1.
        2   -1    0    0  501    0  0.00000000000E+00  0.00000000000E+00 -0.10897099456E+04  0.10897099456E+04  0.25500000920E-02 0.  1.
    10030    2    1    2    0    0  0.00000000000E+00  0.00000000000E+00 -0.81202952291E+03  0.13673903683E+04  0.11001656572E+04 0.  0.
        1    1    3    3  502    0 -0.54754216743E+02  0.40022863309E+03  0.58053221900E+02  0.40810679925E+03  0.50400001928E-02 0.  1.
       -1    1    3    3    0  502  0.54754216743E+02 -0.40022863309E+03 -0.87008274481E+03  0.95928356904E+03  0.50400001928E-02 0. -1.
</event>
<event>
 5   0  0.8305271E-04  0.1108404E+04  0.7818609E-02  0.9197040E-01
        1   -1    0    0  501    0  0.00000000000E+00  0.00000000000E+00  0.12167405627E+04  0.12167405627E+04  0.50400001928E-02 0.  1.
       -1   -1    0    0    0  501  0.00000000000E+00  0.00000000000E+00 -0.25242820246E+03  0.25242820251E+03  0.50400001928E-02 0. -1.
    10030    2    1    2    0    0  0.00000000000E+00  0.00000000000E+00  0.96431236028E+03  0.14691687653E+04  0.11084035964E+04 0.  0.
        5    1    3    3  502    0  0.21433581285E+03  0.23009887177E+03  0.10870062237E+04  0.11315873594E+04  0.46999998093E+01 0.  1.
       -5    1    3    3    0  502 -0.21433581285E+03 -0.23009887177E+03 -0.12269386347E+03  0.33758140587E+03  0.46999998093E+01 0. -1.
</event>
<event>
 5   0  0.1429680E-03  0.1090033E+04  0.7818609E-02  0.9214961E-01
       -2   -1    0    0    0  501  0.00000000000E+00  0.00000000000E+00  0.66197422678E+03  0.66197422678E+03  0.25500000920E-02 0.  1.
        2   -1    0    0  501    0  0.00000000000E+00  0.00000000000E+00 -0.44872284881E+03  0.44872284882E+03  0.25500000920E-02 0. -1.
    10030    2    1    2    0    0  0.00000000000E+00  0.00000000000E+00  0.21325137796E+03  0.11106970756E+04  0.10900329553E+04 0.  0.
        3    1    3    3  502    0  0.21461952808E+03 -0.16559494241E+03 -0.37515876517E+03  0.46284698991E+03  0.10100000352E+00 0. -1.
       -3    1    3    3    0  502 -0.21461952808E+03  0.16559494241E+03  0.58841014313E+03  0.64785008569E+03  0.10100000352E+00 0.  1.
</event>
<event>
 5   0  0.1425432E-03  0.1094077E+04  0.7818609E-02  0.9210985E-01
        2   -1    0    0  501    0  0.00000000000E+00  0.00000000000E+00  0.63283011856E+03  0.63283011856E+03  0.25500000920E-02 0.  1.
       -2   -1    0    0    0  501  0.00000000000E+00  0.00000000000E+00 -0.47287706374E+03  0.47287706375E+03  0.25500000920E-02 0. -1.
    10030    2    1    2    0    0  0.00000000000E+00  0.00000000000E+00  0.15995305482E+03  0.11057071823E+04  0.10940765025E+04 0.  0.
        1    1    3    3  502    0 -0.41404519752E+03 -0.34491228865E+03  0.17506680129E+03  0.56660947520E+03  0.50400001928E-02 0. -1.
       -1    1    3    3    0  502  0.41404519752E+03  0.34491228865E+03 -0.15113746469E+02  0.53909770711E+03  0.50400001928E-02 0.  1.
</event>
<event>
 5   0  0.8305271E-04  0.1100498E+04  0.7818609E-02  0.9204707E-01
        1   -1    0    0  501    0  0.00000000000E+00  0.00000000000E+00  0.87708103533E+03  0.87708103535E+03  0.50400001928E-02 0.  1.
       -1   -1    0    0    0  501  0.00000000000E+00  0.00000000000E+00 -0.34520606925E+03  0.34520606929E+03  0.50400001928E-02 0. -1.
    10030    2    1    2    0    0  0.00000000000E+00  0.00000000000E+00  0.53187496608E+03  0.12222871046E+04  0.11004975178E+04 0.  0.
        5    1    3    3  502    0  0.30150620494E+03  0.36904119245E+03  0.57143010251E+03  0.74407784902E+03  0.46999998093E+01 0.  1.
       -5    1    3    3    0  502 -0.30150620494E+03 -0.36904119245E+03 -0.39555136431E+02  0.47820925562E+03  0.46999998093E+01 0. -1.
</event>
<event>
 5   0  0.8341767E-04  0.1091459E+04  0.7818609E-02  0.9213556E-01
        1   -1    0    0  501    0  0.00000000000E+00  0.00000000000E+00  0.77629881147E+03  0.77629881149E+03  0.50400001928E-02 0.  1.
       -1   -1    0    0    0  501  0.00000000000E+00  0.00000000000E+00 -0.38364209045E+03  0.38364209048E+03  0.50400001928E-02 0. -1.
    10030    2    1    2    0    0  0.00000000000E+00  0.00000000000E+00  0.39265672102E+03  0.11599409020E+04  0.10914593879E+04 0.  0.
        2    1    3    3  502    0 -0.13968144611E+03  0.43260219244E+03 -0.12455200939E+03  0.47134781885E+03  0.25500000920E-02 0. -1.
       -2    1    3    3    0  502  0.13968144611E+03 -0.43260219244E+03  0.51720873041E+03  0.68859308311E+03  0.25500000920E-02 0.  1.
</event>
<event>
 5   0  0.1396936E-03  0.1060098E+04  0.7818609E-02  0.9244981E-01
        2   -1    0    0  501    0  0.00000000000E+00  0.00000000000E+00  0.95056169436E+03  0.95056169437E+03  0.25500000920E-02 0. -1.
       -2   -1    0    0    0  501  0.00000000000E+00  0.00000000000E+00 -0.29556385823E+03  0.29556385824E+03  0.25500000920E-02 0.  1.
    10030    2    1    2    0    0  0.00000000000E+00  0.00000000000E+00  0.65499783613E+03  0.12461255526E+04  0.10600975085E+04 0.  0.
        2    1    3    3  502    0  0.40995159494E+03  0.20560726895E+03  0.15127931515E+02  0.45887200128E+03  0.25500000920E-02 0.  1.
       -2    1    3    3    0  502 -0.40995159494E+03 -0.20560726895E+03  0.63986990461E+03  0.78725355133E+03  0.25500000920E-02 0. -1.
</event>
<event>
 5   0  0.1396936E-03  0.1101125E+04  0.7818609E-02  0.9204096E-01
       -2   -1    0    0    0  501  0.00000000000E+00  0.00000000000E+00  0.42607760093E+03  0.42607760094E+03  0.25500000920E-02 0. -1.
        2   -1    0    0  501    0  0.00000000000E+00  0.00000000000E+00 -0.71141746635E+03  0.71141746635E+03  0.25500000920E-02 0.  1.
    10030    2    1    2    0    0  0.00000000000E+00  0.00000000000E+00 -0.28533986542E+03  0.11374950673E+04  0.11011249654E+04 0.  0.
        2    1    3    3  502    0 -0.27236082032E+03  0.23065649810E+03 -0.57572541569E+03  0.67737920756E+03  0.25500000920E-02 0. -1.
       -2    1    3    3    0  502  0.27236082032E+03 -0.23065649810E+03  0.29038555027E+03  0.46011585973E+03  0.25500000920E-02 0.  1.
</event>
<event>
 5   0  0.8150924E-04  0.1102188E+04  0.7818609E-02  0.9203062E-01
       -1   -1    0    0    0  501  0.00000000000E+00  0.00000000000E+00  0.59274291941E+03  0.59274291943E+03  0.50400001928E-02 0. -1.
        1   -1    0    0  501    0  0.00000000000E+00  0.00000000000E+00 -0.51237141741E+03  0.51237141744E+03  0.50400001928E-02 0.  1.
    10030    2    1    2    0    0  0.00000000000E+00  0.00000000000E+00  0.80371502000E+02  0.11051143369E+04  0.11021878784E+04 0.  0.
        3    1    3    3  502    0 -0.51243175335E+03  0.19144720417E+03 -0.26821218188E+02  0.54768396158E+03  0.10100000352E+00 0.  1.
       -3    1    3    3    0  502  0.51243175335E+03 -0.19144720417E+03  0.10719272019E+03  0.55743037529E+03  0.10100000352E+00 0. -1.
</event>
<event>
 5   0  0.8341767E-04  0.1095306E+04  0.7818609E-02  0.9209779E-01
       -1   -1    0    0    0  501  0.00000000000E+00  0.00000000000E+00  0.23423060037E+03  0.23423060042E+03  0.50400001928E-02 0. -1.
        1   -1    0    0  501    0  0.00000000000E+00  0.00000000000E+00 -0.12804641113E+04  0.12804641113E+04  0.50400001928E-02 0.  1.
    10030    2    1    2    0    0  0.00000000000E+00  0.00000000000E+00 -0.10462335109E+04  0.15146947117E+04  0.10953061263E+04 0.  0.
        2    1    3    3  502    0 -0.51896439054E+03 -0.17484434509E+03 -0.53060152469E+03  0.76251725335E+03  0.25500000920E-02 0.  1.
       -2    1    3    3    0  502  0.51896439054E+03  0.17484434509E+03 -0.51563198625E+03  0.75217745839E+03  0.25500000920E-02 0. -1.
</event>
<event>
 5   0  0.1425432E-03  0.1096431E+04  0.7818609E-02  0.9208677E-01
       -2   -1    0    0    0  501  0.00000000000E+00  0.00000000000E+00  0.42737331422E+03  0.42737331423E+03  0.25500000920E-02 0. -1.
        2   -1    0    0  501    0  0.00000000000E+00  0.00000000000E+00 -0.70322652109E+03  0.70322652109E+03  0.25500000920E-02 0.  1.
    10030    2    1    2    0    0  0.00000000000E+00  0.00000000000E+00 -0.27585320686E+03  0.11305998353E+04  0.10964310265E+04 0.  0.
        1    1    3    3  502    0  0.79833398663E+02  0.31396459755E+03  0.31811490777E+03  0.45403109434E+03  0.50400001928E-02 0. -1.
       -1    1    3    3    0  502 -0.79833398663E+02 -0.31396459755E+03 -0.59396811463E+03  0.67656874099E+03  0.50400001928E-02 0.  1.
</event>
<event>
 5   0  0.7946038E-04  0.1094410E+04  0.7818609E-02  0.9210658E-01
        1   -1    0    0  501    0  0.00000000000E+00  0.00000000000E+00  0.55087099770E+03  0.55087099773E+03  0.50400001928E-02 0.  1.
       -1   -1    0    0    0  501  0.00000000000E+00  0.00000000000E+00 -0.54356293205E+03  0.54356293208E+03  0.50400001928E-02 0. -1.
    10030    2    1    2    0    0  0.00000000000E+00  0.00000000000E+00  0.73080656489E+01  0.10944339298E+04  0.10944095298E+04 0.  0.
        4    1    3    3  502    0 -0.43536380495E+03  0.21629179308E+03 -0.24756394708E+03  0.54553946072E+03  0.12699999809E+01 0. -1.
       -4    1    3    3    0  502  0.43536380495E+03 -0.21629179308E+03  0.25487201273E+03  0.54889446908E+03  0.12699999809E+01 0.  1.
</event>
<event>
 5   0  0.1425432E-03  0.1100706E+04  0.7818609E-02  0.9204504E-01
       -2   -1    0    0    0  501  0.00000000000E+00  0.00000000000E+00  0.43459709385E+03  0.43459709386E+03  0.25500000920E-02 0. -1.
        2   -1    0    0  501    0  0.00000000000E+00  0.00000000000E+00 -0.69694046202E+03  0.69694046202E+03  0.25500000920E-02 0.  1.
    10030    2    1    2    0    0  0.00000000000E+00  0.00000000000E+00 -0.26234336817E+03  0.11315375559E+04  0.11007057725E+04 0.  0.
        1    1    3    3  502    0  0.34482181492E+03 -0.22108869413E+03 -0.50903528102E+03  0.65337524598E+03  0.50400001928E-02 0.  1.
       -1    1    3    3    0  502 -0.34482181492E+03  0.22108869413E+03  0.24669191286E+03  0.47816230990E+03  0.50400001928E-02 0. -1.
</event>
<event>
 5   0  0.8009636E-04  0.1099366E+04  0.7818609E-02  0.9205810E-01
       -1   -1    0    0    0  501  0.00000000000E+00  0.00000000000E+00  0.18469279192E+03  0.18469279198E+03  0.50400001928E-02 0. -1.
        1   -1    0    0  501    0  0.00000000000E+00  0.00000000000E+00 -0.16359661778E+04  0.16359661778E+04  0.50400001928E-02 0.  1.
    10030    2    1    2    0    0  0.00000000000E+00  0.00000000000E+00 -0.14512733859E+04  0.18206589698E+04  0.10993655642E+04 0.  0.
        1    1    3    3  502    0 -0.54661200556E+02  0.28139701995E+03 -0.15023792821E+04  0.15294821467E+04  0.50400001928E-02 0.  1.
       -1    1    3    3    0  502  0.54661200556E+02 -0.28139701995E+03  0.51105896198E+02  0.29117682314E+03  0.50400001928E-02 0. -1.
</event>
<event>
 5   0  0.1372794E-03  0.1099301E+04  0.7818609E-02  0.9205874E-01
       -2   -1    0    0    0  501  0.00000000000E+00  0.00000000000E+00  0.58922684158E+03  0.58922684158E+03  0.25500000920E-02 0.  1.
        2   -1    0    0  501    0  0.00000000000E+00  0.00000000000E+00 -0.51273228990E+03  0.51273228991E+03  0.25500000920E-02 0. -1.
    10030    2    1    2    0    0  0.00000000000E+00  0.00000000000E+00  0.76494551678E+02  0.11019591315E+04  0.10993009192E+04 0.  0.
        4    1    3    3  502    0  0.18296495712E+03  0.34062704990E+02  0.55668020971E+03  0.58696755633E+03  0.12699999809E+01 0.  1.
       -4    1    3    3    0  502 -0.18296495712E+03 -0.34062704990E+02 -0.48018565803E+03  0.51499157516E+03  0.12699999809E+01 0. -1.
</event>
<event>
 5   0  0.5409500E-04  0.1099647E+04  0.7818609E-02  0.9205536E-01
        3   -1    0    0  501    0  0.00000000000E+00  0.00000000000E+00  0.33531766790E+03  0.33531768311E+03  0.10100000352E+00 0.  1.
       -3   -1    0    0    0  501  0.00000000000E+00  0.00000000000E+00 -0.90155104838E+03  0.90155105404E+03  0.10100000352E+00 0. -1.
    10030    2    1    2    0    0  0.00000000000E+00  0.00000000000E+00 -0.56623338048E+03  0.12368687372E+04  0.10996472306E+04 0.  0.
        2    1    3    3  502    0  0.20165389794E+03 -0.47772358659E+03 -0.48874633193E+03  0.71257076611E+03  0.25500000920E-02 0. -1.
       -2    1    3    3    0  502 -0.20165389794E+03  0.47772358659E+03 -0.77487048552E+02  0.52429797104E+03  0.25500000920E-02 0.  1.
</event>
<event>
 5   0  0.1429680E-03  0.1100561E+04  0.7818609E-02  0.9204645E-01
        2   -1    0    0  501    0  0.00000000000E+00  0.00000000000E+00  0.87141588213E+03  0.87141588213E+03  0.25500000920E-02 0. -1.
       -2   -1    0    0    0  501  0.00000000000E+00  0.00000000000E+00 -0.34749033910E+03  0.34749033911E+03  0.25500000920E-02 0.  1.
    10030    2    1    2    0    0  0.00000000000E+00  0.00000000000E+00  0.52392554302E+03  0.12189062212E+04  0.11005609486E+04 0.  0.
        3    1    3    3  502    0 -0.26766276629E+03 -0.21275863824E+03  0.73948623596E+03  0.81470822874E+03  0.10100000352E+00 0. -1.
       -3    1    3    3    0  502  0.26766276629E+03  0.21275863824E+03 -0.21556069293E+03  0.40419799250E+03  0.10100000352E+00 0.  1.
</event>
<event>
 5   0  0.1396936E-03  0.1127600E+04  0.7818609E-02  0.9178700E-01
        2   -1    0    0  501    0  0.00000000000E+00  0.00000000000E+00  0.98775170427E+03  0.98775170427E+03  0.25500000920E-02 0.  1.
       -2   -1    0    0    0  501  0.00000000000E+00  0.00000000000E+00 -0.32181236224E+03  0.32181236225E+03  0.25500000920E-02 0. -1.
    10030    2    1    2    0    0  0.00000000000E+00  0.00000000000E+00  0.66593934203E+03  0.13095640665E+04  0.11276004776E+04 0.  0.
        2    1    3    3  502    0  0.34379641084E+03  0.34021950950E+03 -0.34785736745E+01  0.48369141736E+03  0.25500000920E-02 0. -1.
       -2    1    3    3    0  502 -0.34379641084E+03 -0.34021950950E+03  0.66941791570E+03  0.82587264915E+03  0.25500000920E-02 0.  1.
</event>
<event>
 5   0  0.1425432E-03  0.1080480E+04  0.7818609E-02  0.9224429E-01
        2   -1    0    0  501    0  0.00000000000E+00  0.00000000000E+00  0.11101496415E+04  0.11101496415E+04  0.25500000920E-02 0.  1.
       -2   -1    0    0    0  501  0.00000000000E+00  0.00000000000E+00 -0.26290082424E+03  0.26290082425E+03  0.25500000920E-02 0. -1.
    10030    2    1    2    0    0  0.00000000000E+00  0.00000000000E+00  0.84724881729E+03  0.13730504658E+04  0.10804799967E+04 0.  0.
        1    1    3    3  502    0 -0.39109580962E+02  0.28465848231E+03 -0.15774690603E+03  0.32778666425E+03  0.50400001928E-02 0. -1.
       -1    1    3    3    0  502  0.39109580962E+02 -0.28465848231E+03  0.10049957233E+04  0.10452638015E+04  0.50400001928E-02 0.  1.
</event>
<event>
 5   0  0.8341767E-04  0.1103330E+04  0.7818609E-02  0.9201952E-01
        1   -1    0    0  501    0  0.00000000000E+00  0.00000000000E+00  0.59495213831E+03  0.59495213833E+03  0.50400001928E-02 0. -1.
       -1   -1    0    0    0  501  0.00000000000E+00  0.00000000000E+00 -0.51152756396E+03  0.51152756399E+03  0.50400001928E-02 0.  1.
    10030    2    1    2    0    0  0.00000000000E+00  0.00000000000E+00  0.83424574346E+02  0.11064797023E+04  0.11033302643E+04 0.  0.
        2    1    3    3  502    0  0.28453211150E+03  0.49391026295E+02 -0.42966817594E+03  0.51769946627E+03  0.25500000920E-02 0.  1.
       -2    1    3    3    0  502 -0.28453211150E+03 -0.49391026295E+02  0.51309275029E+03  0.58878023605E+03  0.25500000920E-02 0. -1.
</event>
<event>
 5   0  0.1396936E-03  0.1102781E+04  0.7818609E-02  0.9202486E-01
       -2   -1    0    0    0  501  0.00000000000E+00  0.00000000000E+00  0.25842451326E+03  0.25842451327E+03  0.25500000920E-02 0. -1.
        2   -1    0    0  501    0  0.00000000000E+00  0.00000000000E+00 -0.11764798627E+04  0.11764798627E+04  0.25500000920E-02 0.  1.
    10030    2    1    2    0    0  0.00000000000E+00  0.00000000000E+00 -0.91805534945E+03  0.14349043760E+04  0.11027805509E+04 0.  0.
        2    1    3    3  502    0  0.22786941528E+03  0.33433157757E+03  0.28397355549E+02  0.40559645461E+03  0.25500000920E-02 0. -1.
       -2    1    3    3    0  502 -0.22786941528E+03 -0.33433157757E+03 -0.94645270500E+03  0.10293079214E+04  0.25500000920E-02 0.  1.
</event>
<event>
 5   0  0.8150924E-04  0.1105043E+04  0.7818609E-02  0.9200291E-01
       -1   -1    0    0    0  501  0.00000000000E+00  0.00000000000E+00  0.41572272074E+03  0.41572272077E+03  0.50400001928E-02 0.  1.
        1   -1    0    0  501    0  0.00000000000E+00  0.00000000000E+00 -0.73433501181E+03  0.73433501183E+03  0.50400001928E-02 0. -1.
    10030    2    1    2    0    0  0.00000000000E+00  0.00000000000E+00 -0.31861229107E+03  0.11500577326E+04  0.11050425314E+04 0.  0.
        3    1    3    3  502    0 -0.30700812789E+02  0.25250803953E+03 -0.66977306239E+03  0.71644875270E+03  0.10100000352E+00 0. -1.
       -3    1    3    3    0  502  0.30700812789E+02 -0.25250803953E+03  0.35116077132E+03  0.43360897990E+03  0.10100000352E+00 0.  1.
</event>
<event>
 5   0  0.7946038E-04  0.1100628E+04  0.7818609E-02  0.9204580E-01
       -1   -1    0    0    0  501  0.00000000000E+00  0.00000000000E+00  0.82767127111E+03  0.82767127113E+03  0.50400001928E-02 0. -1.
        1   -1    0    0  501    0  0.00000000000E+00  0.00000000000E+00 -0.36590056888E+03  0.36590056891E+03  0.50400001928E-02 0.  1.
    10030    2    1    2    0    0  0.00000000000E+00  0.00000000000E+00  0.46177070224E+03  0.11935718400E+04  0.11006278008E+04 0.  0.
        4    1    3    3  502    0  0.50172068164E+02  0.41779807760E+03  0.61547613318E+03  0.74557692660E+03  0.12699999809E+01 0. -1.
       -4    1    3    3    0  502 -0.50172068164E+02 -0.41779807760E+03 -0.15370543094E+03  0.44799491344E+03  0.12699999809E+01 0.  1.
</event>
<event>
 5   0  0.8341767E-04  0.1101645E+04  0.7818609E-02  0.9203590E-01
       -1   -1    0    0    0  501  0.00000000000E+00  0.00000000000E+00  0.19157786093E+04  0.19157786093E+04  0.50400001928E-02 0. -1.
        1   -1    0    0  501    0  0.00000000000E+00  0.00000000000E+00 -0.15837184638E+03  0.15837184646E+03  0.50400001928E-02 0.  1.
    10030    2    1    2    0    0  0.00000000000E+00  0.00000000000E+00  0.17574067629E+04  0.20741504557E+04  0.11016449441E+04 0.  0.
        2    1    3    3  502    0 -0.72442343426E+02 -0.52457118403E+03  0.59327447210E+03  0.79523419160E+03  0.25500000920E-02 0.  1.
       -2    1    3    3    0  502  0.72442343426E+02  0.52457118403E+03  0.11641322908E+04  0.12789162641E+04  0.25500000920E-02 0. -1.
</event>
<event>
 5   0  0.8305271E-04  0.1096774E+04  0.7818609E-02  0.9208342E-01
       -1   -1    0    0    0  501  0.00000000000E+00  0.00000000000E+00  0.37157165359E+03  0.37157165363E+03  0.50400001928E-02 0.  1.
        1   -1    0    0  501    0  0.00000000000E+00  0.00000000000E+00 -0.80934139928E+03  0.80934139929E+03  0.50400001928E-02 0. -1.
    10030    2    1    2    0    0  0.00000000000E+00  0.00000000000E+00 -0.43776974568E+03  0.11809130529E+04  0.10967740370E+04 0.  0.
        5    1    3    3  502    0  0.13086624961E+03 -0.15702375267E+03  0.32899676588E+03  0.38735435475E+03  0.46999998093E+01 0.  1.
       -5    1    3    3    0  502 -0.13086624961E+03  0.15702375267E+03 -0.76676651156E+03  0.79355869817E+03  0.46999998093E+01 0. -1.
</event>
<event>
 5   0  0.1429680E-03  0.1106610E+04  0.7818609E-02  0.9198773E-01
       -2   -1    0    0    0  501  0.00000000000E+00  0.00000000000E+00  0.28124595174E+03  0.28124595175E+03  0.25500000920E-02 0.  1.
        2   -1    0    0  501    0  0.00000000000E+00  0.00000000000E+00 -0.10885369139E+04  0.10885369139E+04  0.25500000920E-02 0. -1.
    10030    2    1    2    0    0  0.00000000000E+00  0.00000000000E+00 -0.80729096218E+03  0.13697828657E+04  0.11066103205E+04 0.  0.
        3    1    3    3  502    0 -0.36328228580E+03 -0.35538687928E+03 -0.13281275437E+03  0.52527430079E+03  0.10100000352E+00 0.  1.
       -3    1    3    3    0  502  0.36328228580E+03  0.35538687928E+03 -0.67447820781E+03  0.84450856488E+03  0.10100000352E+00 0. -1.
</event>
<event>
 5   0  0.1372794E-03  0.1102139E+04  0.7818609E-02  0.9203110E-01
       -2   -1    0    0    0  501  0.00000000000E+00  0.00000000000E+00  0.20028129647E+03  0.20028129649E+03  0.25500000920E-02 0.  1.
        2   -1    0    0  501    0  0.00000000000E+00  0.00000000000E+00 -0.15162541628E+04  0.15162541628E+04  0.25500000920E-02 0. -1.
    10030    2    1    2    0    0  0.00000000000E+00  0.00000000000E+00 -0.13159728664E+04  0.17165354593E+04  0.11021385567E+04 0.  0.
        4    1    3    3  502    0  0.10899496181E+03  0.44901398003E+03 -0.19027585698E+03  0.49969988054E+03  0.12699999809E+01 0.  1.
       -4    1    3    3    0  502 -0.10899496181E+03 -0.44901398003E+03 -0.11256970094E+04  0.12168355788E+04  0.12699999809E+01 0. -1.
</event>
<event>
 5   0  0.1402775E-03  0.1094858E+04  0.7818609E-02  0.9210218E-01
       -2   -1    0    0    0  501  0.00000000000E+00  0.00000000000E+00  0.46341708993E+03  0.46341708994E+03  0.25500000920E-02 0.  1.
        2   -1    0    0  501    0  0.00000000000E+00  0.00000000000E+00 -0.64667142166E+03  0.64667142166E+03  0.25500000920E-02 0. -1.
    10030    2    1    2    0    0  0.00000000000E+00  0.00000000000E+00 -0.18325433173E+03  0.11100885116E+04  0.10948581431E+04 0.  0.
        5    1    3    3  502    0  0.20167750351E+03  0.29324571485E+03  0.33007884836E+03  0.48542867739E+03  0.46999998093E+01 0.  1.
       -5    1    3    3    0  502 -0.20167750351E+03 -0.29324571485E+03 -0.51333318009E+03  0.62465983421E+03  0.46999998093E+01 0. -1.
</event>
<event>
 5   0  0.8341767E-04  0.1113995E+04  0.7818609E-02  0.9191658E-01
        1   -1    0    0  501    0  0.00000000000E+00  0.00000000000E+00  0.33427198713E+03  0.33427198717E+03  0.50400001928E-02 0.  1.
       -1   -1    0    0    0  501  0.00000000000E+00  0.00000000000E+00 -0.92812528246E+03  0.92812528248E+03  0.50400001928E-02 0. -1.
    10030    2    1    2    0    0  0.00000000000E+00  0.00000000000E+00 -0.59385329533E+03  0.12623972696E+04  0.11139951212E+04 0.  0.
        2    1    3    3  502    0  0.40213224855E+03  0.28902076216E+02  0.13858913501E+03  0.42632455205E+03  0.25500000920E-02 0.  1.
       -2    1    3    3    0  502 -0.40213224855E+03 -0.28902076216E+02 -0.73244243034E+03  0.83607271759E+03  0.25500000920E-02 0. -1.
</event>
<event>
 5   0  0.5409500E-04  0.1099034E+04  0.7818609E-02  0.9206134E-01
       -4   -1    0    0    0  501  0.00000000000E+00  0.00000000000E+00  0.62465880720E+03  0.62466009822E+03  0.12699999809E+01 0. -1.
        4   -1    0    0  501    0  0.00000000000E+00  0.00000000000E+00 -0.48341190369E+03  0.48341357193E+03  0.12699999809E+01 0.  1.
    10030    2    1    2    0    0  0.00000000000E+00  0.00000000000E+00  0.14124690351E+03  0.11080736702E+04  0.10990343811E+04 0.  0.
        1    1    3    3  502    0  0.36542337459E+02  0.39932402277E+03  0.44944520449E+03  0.60232550125E+03  0.50400001928E-02 0. -1.
       -1    1    3    3    0  502 -0.36542337459E+02 -0.39932402277E+03 -0.30819830099E+03  0.50574816890E+03  0.50400001928E-02 0.  1.
</event>
<event>
 5   0  0.5409500E-04  0.1100265E+04  0.7818609E-02  0.9204933E-01
        3   -1    0    0  501    0  0.00000000000E+00  0.00000000000E+00  0.89513606415E+03  0.89513606984E+03  0.10100000352E+00 0.  1.
       -3   -1    0    0    0  501  0.00000000000E+00  0.00000000000E+00 -0.33810050937E+03  0.33810052446E+03  0.10100000352E+00 0. -1.
    10030    2    1    2    0    0  0.00000000000E+00  0.00000000000E+00  0.55703555478E+03  0.12332365943E+04  0.11002653717E+04 0.  0.
        4    1    3    3  502    0  0.54464792618E+03  0.37247132443E+02  0.20236859545E+03  0.58222278699E+03  0.12699999809E+01 0.  1.
       -4    1    3    3    0  502 -0.54464792618E+03 -0.37247132443E+02  0.35466695933E+03  0.65101380731E+03  0.12699999809E+01 0. -1.
</event>
<event>
 5   0  0.5409500E-04  0.1095795E+04  0.7818609E-02  0.9209300E-01
        3   -1    0    0  501    0  0.00000000000E+00  0.00000000000E+00  0.27225077357E+04  0.27225077376E+04  0.10100000352E+00 0.  1.
       -3   -1    0    0    0  501  0.00000000000E+00  0.00000000000E+00 -0.11026292020E+03  0.11026296646E+03  0.10100000352E+00 0. -1.
    10030    2    1    2    0    0  0.00000000000E+00  0.00000000000E+00  0.26122448155E+04  0.28327707040E+04  0.10957950929E+04 0.  0.
        2    1    3    3  502    0  0.38452188126E+03 -0.39029086642E+03  0.12989565209E+04  0.14097773160E+04  0.25500000920E-02 0.  1.
       -2    1    3    3    0  502 -0.38452188126E+03  0.39029086642E+03  0.13132882946E+04  0.14229933880E+04  0.25500000920E-02 0. -1.
</event>
<event>
 5   0  0.7946038E-04  0.1110156E+04  0.7818609E-02  0.9195349E-01
       -1   -1    0    0    0  501  0.00000000000E+00  0.00000000000E+00  0.35436133261E+03  0.35436133265E+03  0.50400001928E-02 0.  1.
        1   -1    0    0  501    0  0.00000000000E+00  0.00000000000E+00 -0.86948427709E+03  0.86948427710E+03  0.50400001928E-02 0. -1.
    10030    2    1    2    0    0  0.00000000000E+00  0.00000000000E+00 -0.51512294448E+03  0.12238456097E+04  0.11101560379E+04 0.  0.
        4    1    3    3  502    0  0.31751954189E+03  0.19888010046E+03  0.19393918982E+03  0.42188384194E+03  0.12699999809E+01 0.  1.
       -4    1    3    3    0  502 -0.31751954189E+03 -0.19888010046E+03 -0.70906213429E+03  0.80196176781E+03  0.12699999809E+01 0. -1.
</event>
<event>
 5   0  0.8009636E-04  0.1100177E+04  0.7818609E-02  0.9205019E-01
        1   -1    0    0  501    0  0.00000000000E+00  0.00000000000E+00  0.69906322460E+03  0.69906322462E+03  0.50400001928E-02 0.  1.
       -1   -1    0    0    0  501  0.00000000000E+00  0.00000000000E+00 -0.43286120331E+03  0.43286120334E+03  0.50400001928E-02 0. -1.
    10030    2    1    2    0    0  0.00000000000E+00  0.00000000000E+00  0.26620202129E+03  0.11319244280E+04  0.11001769833E+04 0.  0.
        1    1    3    3  502    0  0.11583279507E+03  0.33819961849E+02 -0.41907623522E+03  0.43610310384E+03  0.50400001928E-02 0. -1.
       -1    1    3    3    0  502 -0.11583279507E+03 -0.33819961849E+02  0.68527825651E+03  0.69582132412E+03  0.50400001928E-02 0.  1.
</event>
<event>
 5   0  0.1372794E-03  0.1104370E+04  0.7818609E-02  0.9200943E-01
        2   -1    0    0  501    0  0.00000000000E+00  0.00000000000E+00  0.68485456417E+03  0.68485456417E+03  0.25500000920E-02 0.  1.
       -2   -1    0    0    0  501  0.00000000000E+00  0.00000000000E+00 -0.44521604927E+03  0.44521604928E+03  0.25500000920E-02 0. -1.
    10030    2    1    2    0    0  0.00000000000E+00  0.00000000000E+00  0.23963851490E+03  0.11300706134E+04  0.11043699442E+04 0.  0.
        4    1    3    3  502    0  0.28276090247E+03  0.13260199045E+03 -0.34615675785E+03  0.46622218925E+03  0.12699999809E+01 0. -1.
       -4    1    3    3    0  502 -0.28276090247E+03 -0.13260199045E+03  0.58579527275E+03  0.66384842420E+03  0.12699999809E+01 0.  1.
</event>
<event>
 5   0  0.1402775E-03  0.1100480E+04  0.7818609E-02  0.9204725E-01
        2   -1    0    0  501    0  0.00000000000E+00  0.00000000000E+00  0.22617637750E+03  0.22617637751E+03  0.25500000920E-02 0. -1.
       -2   -1    0    0    0  501  0.00000000000E+00  0.00000000000E+00 -0.13386182364E+04  0.13386182364E+04  0.25500000920E-02 0.  1.
    10030    2    1    2    0    0  0.00000000000E+00  0.00000000000E+00 -0.11124418589E+04  0.15647946140E+04  0.11004795747E+04 0.  0.
        5    1    3    3  502    0 -0.22339473275E+03 -0.14123584408E+03 -0.12424195018E+04  0.12702287505E+04  0.46999998093E+01 0.  1.
       -5    1    3    3    0  502  0.22339473275E+03  0.14123584408E+03  0.12997764282E+03  0.29456586344E+03  0.46999998093E+01 0. -1.
</event>
<event>
 5   0  0.8305271E-04  0.1085387E+04  0.7818609E-02  0.9219553E-01
       -1   -1    0    0    0  501  0.00000000000E+00  0.00000000000E+00  0.25994688448E+03  0.25994688452E+03  0.50400001928E-02 0. -1.
        1   -1    0    0  501    0  0.00000000000E+00  0.00000000000E+00 -0.11329857798E+04  0.11329857798E+04  0.50400001928E-02 0.  1.
    10030    2    1    2    0    0  0.00000000000E+00  0.00000000000E+00 -0.87303889536E+03  0.13929326644E+04  0.10853867950E+04 0.  0.
        5    1    3    3  502    0  0.22141961258E+03 -0.29735624446E+03 -0.94510021339E+03  0.10152260262E+04  0.46999998093E+01 0.  1.
       -5    1    3    3    0  502 -0.22141961258E+03  0.29735624446E+03  0.72061318034E+02  0.37770663815E+03  0.46999998093E+01 0. -1.
</event>
<event>
 5   0  0.1425432E-03  0.1100419E+04  0.7818609E-02  0.9204784E-01
        2   -1    0    0  501    0  0.00000000000E+00  0.00000000000E+00  0.10956889353E+04  0.10956889353E+04  0.25500000920E-02 0. -1.
       -2   -1    0    0    0  501  0.00000000000E+00  0.00000000000E+00 -0.27629223280E+03  0.27629223281E+03  0.25500000920E-02 0.  1.
    10030    2    1    2    0    0  0.00000000000E+00  0.00000000000E+00  0.81939670251E+03  0.13719811681E+04  0.11004187247E+04 0.  0.
        1    1    3    3  502    0  0.34972847226E+03  0.30081423674E+03  0.35807179216E+02  0.46268927310E+03  0.50400001928E-02 0.  1.
       -1    1    3    3    0  502 -0.34972847226E+03 -0.30081423674E+03  0.78358952329E+03  0.90929189503E+03  0.50400001928E-02 0. -1.
</event>
<event>
 5   0  0.1396936E-03  0.1096712E+04  0.7818609E-02  0.9208403E-01
       -2   -1    0    0    0  501  0.00000000000E+00  0.00000000000E+00  0.63584685793E+03  0.63584685793E+03  0.25500000920E-02 0. -1.
        2   -1    0    0  501    0  0.00000000000E+00  0.00000000000E+00 -0.47290354276E+03  0.47290354276E+03  0.25500000920E-02 0.  1.
    10030    2    1    2    0    0  0.00000000000E+00  0.00000000000E+00  0.16294331517E+03  0.11087504007E+04  0.10967118706E+04 0.  0.
        2    1    3    3  502    0 -0.15326534898E+03 -0.43414306236E+03 -0.21966333841E+03  0.51012003297E+03  0.25500000920E-02 0.  1.
       -2    1    3    3    0  502  0.15326534898E+03  0.43414306236E+03  0.38260665357E+03  0.59863036772E+03  0.25500000920E-02 0. -1.
</event>
<event>
 5   0  0.1396936E-03  0.1099578E+04  0.7818609E-02  0.9205603E-01
        2   -1    0    0  501    0  0.00000000000E+00  0.00000000000E+00  0.89309615665E+03  0.89309615665E+03  0.25500000920E-02 0. -1.
       -2   -1    0    0    0  501  0.00000000000E+00  0.00000000000E+00 -0.33844955315E+03  0.33844955316E+03  0.25500000920E-02 0.  1.
    10030    2    1    2    0    0  0.00000000000E+00  0.00000000000E+00  0.55464660349E+03  0.12315457098E+04  0.10995780921E+04 0.  0.
        2    1    3    3  502    0 -0.43876455677E+03 -0.32903528152E+03  0.23409817149E+03  0.59630571577E+03  0.25500000920E-02 0.  1.
       -2    1    3    3    0  502  0.43876455677E+03  0.32903528152E+03  0.32054843200E+03  0.63523999404E+03  0.25500000920E-02 0. -1.
</event>
<event>
 5   0  0.7946038E-04  0.1099544E+04  0.7818609E-02  0.9205637E-01
       -1   -1    0    0    0  501  0.00000000000E+00  0.00000000000E+00  0.32509721537E+04  0.32509721537E+04  0.50400001928E-02 0. -1.
        1   -1    0    0  501    0  0.00000000000E+00  0.00000000000E+00 -0.92971936733E+02  0.92971936870E+02  0.50400001928E-02 0.  1.
    10030    2    1    2    0    0  0.00000000000E+00  0.00000000000E+00  0.31580002170E+04  0.33439440906E+04  0.10995438648E+04 0.  0.
        4    1    3    3  502    0  0.21935421233E+03  0.48138148765E+03  0.20341988631E+04  0.21018589473E+04  0.12699999809E+01 0. -1.
       -4    1    3    3    0  502 -0.21935421233E+03 -0.48138148765E+03  0.11238013539E+04  0.12420851433E+04  0.12699999809E+01 0.  1.
</event>
<event>
 5   0  0.8009636E-04  0.1093801E+04  0.7818609E-02  0.9211255E-01
       -1   -1    0    0    0  501  0.00000000000E+00  0.00000000000E+00  0.62455688284E+03  0.62455688286E+03  0.50400001928E-02 0.  1.
        1   -1    0    0  501    0  0.00000000000E+00  0.00000000000E+00 -0.47889987044E+03  0.47889987046E+03  0.50400001928E-02 0. -1.
    10030    2    1    2    0    0  0.00000000000E+00  0.00000000000E+00  0.14565701240E+03  0.11034567533E+04  0.10938010976E+04 0.  0.
        1    1    3    3  502    0  0.22886570379E+03  0.44099733221E+03  0.30341139688E+03  0.58216546889E+03  0.50400001928E-02 0.  1.
       -1    1    3    3    0  502 -0.22886570379E+03 -0.44099733221E+03 -0.15775438447E+03  0.52129128444E+03  0.50400001928E-02 0. -1.
</event>
<event>
 5   0  0.1402775E-03  0.1098042E+04  0.7818609E-02  0.9207102E-01
        2   -1    0    0  501    0  0.00000000000E+00  0.00000000000E+00  0.61046129297E+03  0.61046129297E+03  0.25500000920E-02 0.  1.
       -2   -1    0    0    0  501  0.00000000000E+00  0.00000000000E+00 -0.49376450252E+03  0.49376450253E+03  0.25500000920E-02 0. -1.
    10030    2    1    2    0    0  0.00000000000E+00  0.00000000000E+00  0.11669679044E+03  0.11042257955E+04  0.10980421060E+04 0.  0.
        5    1    3    3  502    0 -0.97130789047E+01 -0.10187323217E+03 -0.48406798349E+03  0.49478925006E+03  0.46999998093E+01 0. -1.
       -5    1    3    3    0  502  0.97130789047E+01  0.10187323217E+03  0.60076477393E+03  0.60943654545E+03  0.46999998093E+01 0.  1.
</event>
<event>
 5   0  0.8305271E-04  0.1086716E+04  0.7818609E-02  0.9218237E-01
        1   -1    0    0  501    0  0.00000000000E+00  0.00000000000E+00  0.14862764350E+04  0.14862764350E+04  0.50400001928E-02 0.  1.
       -1   -1    0    0    0  501  0.00000000000E+00  0.00000000000E+00 -0.19864271625E+03  0.19864271632E+03  0.50400001928E-02 0. -1.
    10030    2    1    2    0    0  0.00000000000E+00  0.00000000000E+00  0.12876337187E+04  0.16849191513E+04  0.10867161326E+04 0.  0.
        5    1    3    3  502    0  0.11936770113E+03  0.46105486267E+03  0.10493041407E+04  0.11523374090E+04  0.46999998093E+01 0.  1.
       -5    1    3    3    0  502 -0.11936770113E+03 -0.46105486267E+03  0.23832957799E+03  0.53258174228E+03  0.46999998093E+01 0. -1.
</event>
<event>
 5   0  0.1396936E-03  0.1097415E+04  0.7818609E-02  0.9207715E-01
        2   -1    0    0  501    0  0.00000000000E+00  0.00000000000E+00  0.15979600853E+04  0.15979600853E+04  0.25500000920E-02 0. -1.
       -2   -1    0    0    0  501  0.00000000000E+00  0.00000000000E+00 -0.18841511588E+03  0.18841511589E+03  0.25500000920E-02 0.  1.
    10030    2    1    2    0    0  0.00000000000E+00  0.00000000000E+00  0.14095449694E+04  0.17863752012E+04  0.10974148434E+04 0.  0.
        2    1    3    3  502    0 -0.26740701622E+03 -0.43713764453E+03  0.10241041352E+04  0.11451572435E+04  0.25500000920E-02 0.  1.
       -2    1    3    3    0  502  0.26740701622E+03  0.43713764453E+03  0.38544083424E+03  0.64121795771E+03  0.25500000920E-02 0. -1.
</event>
<event>
 5   0  0.1372794E-03  0.1100681E+04  0.7818609E-02  0.9204528E-01
        2   -1    0    0  501    0  0.00000000000E+00  0.00000000000E+00  0.34879320940E+03  0.34879320941E+03  0.25500000920E-02 0. -1.
       -2   -1    0    0    0  501  0.00000000000E+00  0.00000000000E+00 -0.86835042471E+03  0.86835042472E+03  0.25500000920E-02 0.  1.
    10030    2    1    2    0    0  0.00000000000E+00  0.00000000000E+00 -0.51955721531E+03  0.12171436341E+04  0.11006811192E+04 0.  0.
        4    1    3    3  502    0 -0.39279932868E+02 -0.54879011190E+03 -0.27374943231E+03  0.61453548688E+03  0.12699999809E+01 0.  1.
       -4    1    3    3    0  502  0.39279932868E+02  0.54879011190E+03 -0.24580778300E+03  0.60260814725E+03  0.12699999809E+01 0. -1.
</event>
<event>
 5   0  0.7946038E-04  0.1096688E+04  0.7818609E-02  0.9208426E-01
        1   -1    0    0  501    0  0.00000000000E+00  0.00000000000E+00  0.87408335460E+03  0.87408335461E+03  0.50400001928E-02 0. -1.
       -1   -1    0    0    0  501  0.00000000000E+00  0.00000000000E+00 -0.34399606368E+03  0.34399606372E+03  0.50400001928E-02 0.  1.
    10030    2    1    2    0    0  0.00000000000E+00  0.00000000000E+00  0.53008729091E+03  0.12180794183E+04  0.10966881660E+04 0.  0.
        4    1    3    3  502    0 -0.10080354557E+03 -0.53895926124E+03  0.27217115146E+03  0.61214147765E+03  0.12699999809E+01 0. -1.
       -4    1    3    3    0  502  0.10080354557E+03  0.53895926124E+03  0.25791613946E+03  0.60593794068E+03  0.12699999809E+01 0.  1.
</event>
<event>
 5   0  0.1402775E-03  0.1100394E+04  0.7818609E-02  0.9204808E-01
        2   -1    0    0  501    0  0.00000000000E+00  0.00000000000E+00  0.15121134310E+04  0.15121134310E+04  0.25500000920E-02 0. -1.
       -2   -1    0    0    0  501  0.00000000000E+00  0.00000000000E+00 -0.20019442888E+03  0.20019442890E+03  0.25500000920E-02 0.  1.
    10030    2    1    2    0    0  0.00000000000E+00  0.00000000000E+00  0.13119190021E+04  0.17123078599E+04  0.11003939017E+04 0.  0.
        5    1    3    3  502    0  0.51096662181E+03 -0.19036216442E+03  0.76998944134E+03  0.94352025523E+03  0.46999998093E+01 0. -1.
       -5    1    3    3    0  502 -0.51096662181E+03  0.19036216442E+03  0.54192956076E+03  0.76878760465E+03  0.46999998093E+01 0.  1.
</event>
<event>
 5   0  0.1429680E-03  0.1104772E+04  0.7818609E-02  0.9200553E-01
       -2   -1    0    0    0  501  0.00000000000E+00  0.00000000000E+00  0.42801533618E+03  0.42801533619E+03  0.25500000920E-02 0.  1.
        2   -1    0    0  501    0  0.00000000000E+00  0.00000000000E+00 -0.71289615740E+03  0.71289615740E+03  0.25500000920E-02 0. -1.
    10030    2    1    2    0    0  0.00000000000E+00  0.00000000000E+00 -0.28488082121E+03  0.11409114936E+04  0.11047723539E+04 0.  0.
        3    1    3    3  502    0  0.19883220496E+03 -0.10874472178E+02 -0.67454059372E+03  0.70331893380E+03  0.10100000352E+00 0. -1.
       -3    1    3    3    0  502 -0.19883220496E+03  0.10874472178E+02  0.38965977250E+03  0.43759255979E+03  0.10100000352E+00 0.  1.
</event>
<event>
 5   0  0.1372794E-03  0.1093439E+04  0.7818609E-02  0.9211610E-01
       -2   -1    0    0    0  501  0.00000000000E+00  0.00000000000E+00  0.76126414025E+03  0.76126414025E+03  0.25500000920E-02 0.  1.
        2   -1    0    0  501    0  0.00000000000E+00  0.00000000000E+00 -0.39263952963E+03  0.39263952964E+03  0.25500000920E-02 0. -1.
    10030    2    1    2    0    0  0.00000000000E+00  0.00000000000E+00  0.36862461062E+03  0.11539036699E+04  0.10934393334E+04 0.  0.
        4    1    3    3  502    0  0.40968129825E+03  0.21279994569E+02  0.56569563693E+03  0.69878807291E+03  0.12699999809E+01 0.  1.
       -4    1    3    3    0  502 -0.40968129825E+03 -0.21279994569E+02 -0.19707102631E+03  0.45511559698E+03  0.12699999809E+01 0. -1.
</event>
<event>
 5   0  0.8341767E-04  0.1122663E+04  0.7818609E-02  0.9183380E-01
       -1   -1    0    0    0  501  0.00000000000E+00  0.00000000000E+00  0.27700639824E+03  0.27700639828E+03  0.50400001928E-02 0.  1.
        1   -1    0    0  501    0  0.00000000000E+00  0.00000000000E+00 -0.11374944586E+04  0.11374944586E+04  0.50400001928E-02 0. -1.
    10030    2    1    2    0    0  0.00000000000E+00  0.00000000000E+00 -0.86048806034E+03  0.14145008569E+04  0.11226633387E+04 0.  0.
        2    1    3    3  502    0  0.10432267380E+03  0.47246902113E+03 -0.78879485859E+03  0.92536885896E+03  0.25500000920E-02 0. -1.
       -2    1    3    3    0  502 -0.10432267380E+03 -0.47246902113E+03 -0.71693201750E+02  0.48913199791E+03  0.25500000920E-02 0.  1.
</event>
<event>
 5   0  0.1402775E-03  0.1093143E+04  0.7818609E-02  0.9211901E-01
       -2   -1    0    0    0  501  0.00000000000E+00  0.00000000000E+00  0.12491987800E+03  0.12491987803E+03  0.25500000920E-02 0. -1.
        2   -1    0    0  501    0  0.00000000000E+00  0.00000000000E+00 -0.23914547853E+04  0.23914547853E+04  0.25500000920E-02 0.  1.
    10030    2    1    2    0    0  0.00000000000E+00  0.00000000000E+00 -0.22665349073E+04  0.25163746633E+04  0.10931426989E+04 0.  0.
        5    1    3    3  502    0 -0.48350416400E+03 -0.21697056016E+03 -0.14409535344E+04  0.15353246167E+04  0.46999998093E+01 0. -1.
       -5    1    3    3    0  502  0.48350416400E+03  0.21697056016E+03 -0.82558137295E+03  0.98105004660E+03  0.46999998093E+01 0.  1.
</event>
<event>
 5   0  0.8150924E-04  0.1102936E+04  0.7818609E-02  0.9202335E-01
       -1   -1    0    0    0  501  0.00000000000E+00  0.00000000000E+00  0.50667625873E+03  0.50667625875E+03  0.50400001928E-02 0. -1.
        1   -1    0    0  501    0  0.00000000000E+00  0.00000000000E+00 -0.60021958607E+03  0.60021958609E+03  0.50400001928E-02 0.  1.
    10030    2    1    2    0    0  0.00000000000E+00  0.00000000000E+00 -0.93543327338E+02  0.11068958448E+04  0.11029361075E+04 0.  0.
        3    1    3    3  502    0 -0.16943887661E+03 -0.33144212250E+03 -0.45511521799E+03  0.58795687369E+03  0.10100000352E+00 0.  1.
       -3    1    3    3    0  502  0.16943887661E+03  0.33144212250E+03  0.36157189065E+03  0.51893897115E+03  0.10100000352E+00 0. -1.
</event>
<event>
 5   0  0.1372794E-03  0.1100651E+04  0.7818609E-02  0.9204558E-01
       -2   -1    0    0    0  501  0.00000000000E+00  0.00000000000E+00  0.25049756433E+03  0.25049756434E+03  0.25500000920E-02 0.  1.
        2   -1    0    0  501    0  0.00000000000E+00  0.00000000000E+00 -0.12090256091E+04  0.12090256091E+04  0.25500000920E-02 0. -1.
    10030    2    1    2    0    0  0.00000000000E+00  0.00000000000E+00 -0.95852804478E+03  0.14595231734E+04  0.11006506627E+04 0.  0.
        4    1    3    3  502    0 -0.50514617962E+03 -0.12744581288E+03 -0.71439587316E+03  0.88418220661E+03  0.12699999809E+01 0. -1.
       -4    1    3    3    0  502  0.50514617962E+03  0.12744581288E+03 -0.24413217163E+03  0.57534096684E+03  0.12699999809E+01 0.  1.
</event>
<event>
 5   0  0.8009636E-04  0.1100147E+04  0.7818609E-02  0.9205049E-01
       -1   -1    0    0    0  501  0.00000000000E+00  0.00000000000E+00  0.72850711252E+03  0.72850711254E+03  0.50400001928E-02 0. -1.
        1   -1    0    0  501    0  0.00000000000E+00  0.00000000000E+00 -0.41534336634E+03  0.41534336637E+03  0.50400001928E-02 0.  1.
    10030    2    1    2    0    0  0.00000000000E+00  0.00000000000E+00  0.31316374618E+03  0.11438504789E+04  0.11001465294E+04 0.  0.
        1    1    3    3  502    0  0.43526269936E+03 -0.10399415302E+03 -0.17598763401E+03  0.48087425453E+03  0.50400001928E-02 0.  1.
       -1    1    3    3    0  502 -0.43526269936E+03  0.10399415302E+03  0.48915138019E+03  0.66297622438E+03  0.50400001928E-02 0. -1.
</event>
<event>
 5   0  0.1402775E-03  0.1096782E+04  0.7818609E-02  0.9208334E-01
        2   -1    0    0  501    0  0.00000000000E+00  0.00000000000E+00  0.12401998032E+03  0.12401998034E+03  0.25500000920E-02 0.  1.
       -2   -1    0    0    0  501  0.00000000000E+00  0.00000000000E+00 -0.24248707607E+04  0.24248707607E+04  0.25500000920E-02 0. -1.
    10030    2    1    2    0    0  0.00000000000E+00  0.00000000000E+00 -0.23008507803E+04  0.25488907410E+04  0.10967815171E+04 0.  0.
        5    1    3    3  502    0  0.47361654534E+03 -0.17492082344E+03 -0.65307121528E+03  0.82549017482E+03  0.46999998093E+01 0.  1.
       -5    1    3    3    0  502 -0.47361654534E+03  0.17492082344E+03 -0.16477795651E+04  0.17234005662E+04  0.46999998093E+01 0. -1.
</event>
<event>
 5   0  0.8305271E-04  0.1113251E+04  0.7818609E-02  0.9192372E-01
       -1   -1    0    0    0  501  0.00000000000E+00  0.00000000000E+00  0.28816909904E+03  0.28816909908E+03  0.50400001928E-02 0. -1.
        1   -1    0    0  501    0  0.00000000000E+00  0.00000000000E+00 -0.10751748704E+04  0.10751748704E+04  0.50400001928E-02 0.  1.
    10030    2    1    2    0    0  0.00000000000E+00  0.00000000000E+00 -0.78700577134E+03  0.13633439695E+04  0.11132514069E+04 0.  0.
        5    1    3    3  502    0 -0.29877401360E+03  0.21867787157E+03  0.11546307122E+03  0.38786561272E+03  0.46999998093E+01 0. -1.
       -5    1    3    3    0  502  0.29877401360E+03 -0.21867787157E+03 -0.90246884256E+03  0.97547835676E+03  0.46999998093E+01 0.  1.
</event>
<event>
 5   0  0.8305271E-04  0.1106751E+04  0.7818609E-02  0.9198637E-01
        1   -1    0    0  501    0  0.00000000000E+00  0.00000000000E+00  0.16631189514E+04  0.16631189514E+04  0.50400001928E-02 0.  1.
       -1   -1    0    0    0  501  0.00000000000E+00  0.00000000000E+00 -0.18412654759E+03  0.18412654766E+03  0.50400001928E-02 0. -1.
    10030    2    1    2    0    0  0.00000000000E+00  0.00000000000E+00  0.14789924038E+04  0.18472454990E+04  0.11067508316E+04 0.  0.
        5    1    3    3  502    0 -0.27043330852E+03 -0.91410310301E+02  0.15306995677E+04  0.15570977091E+04  0.46999998093E+01 0.  1.
       -5    1    3    3    0  502  0.27043330852E+03  0.91410310301E+02 -0.51707163940E+02  0.29014778990E+03  0.46999998093E+01 0. -1.
</event>
<event>
 5   0  0.1402775E-03  0.1105424E+04  0.7818609E-02  0.9199921E-01
       -2   -1    0    0    0  501  0.00000000000E+00  0.00000000000E+00  0.40967104352E+03  0.40967104353E+03  0.25500000920E-02 0.  1.
        2   -1    0    0  501    0  0.00000000000E+00  0.00000000000E+00 -0.74569760328E+03  0.74569760329E+03  0.25500000920E-02 0. -1.
    10030    2    1    2    0    0  0.00000000000E+00  0.00000000000E+00 -0.33602655976E+03  0.11553686468E+04  0.11054242901E+04 0.  0.
        5    1    3    3  502    0 -0.11267898076E+02  0.59284179640E+02 -0.74222314703E+03  0.74468709501E+03  0.46999998093E+01 0. -1.
       -5    1    3    3    0  502  0.11267898076E+02 -0.59284179640E+02  0.40619658727E+03  0.41068155181E+03  0.46999998093E+01 0.  1.
</event>
<event>
 5   0  0.7946038E-04  0.1099904E+04  0.7818609E-02  0.9205286E-01
       -1   -1    0    0    0  501  0.00000000000E+00  0.00000000000E+00  0.20624727940E+03  0.20624727946E+03  0.50400001928E-02 0. -1.
        1   -1    0    0  501    0  0.00000000000E+00  0.00000000000E+00 -0.14664293755E+04  0.14664293755E+04  0.50400001928E-02 0.  1.
    10030    2    1    2    0    0  0.00000000000E+00  0.00000000000E+00 -0.12601820961E+04  0.16726766550E+04  0.10999037580E+04 0.  0.
        4    1    3    3  502    0 -0.48918571818E+03  0.24062896765E+03 -0.74017987159E+03  0.91927842472E+03  0.12699999809E+01 0. -1.
       -4    1    3    3    0  502  0.48918571818E+03 -0.24062896765E+03 -0.52000222453E+03  0.75339823026E+03  0.12699999809E+01 0.  1.
</event>
<event>
 5   0  0.7946038E-04  0.1099243E+04  0.7818609E-02  0.9205930E-01
       -1   -1    0    0    0  501  0.00000000000E+00  0.00000000000E+00  0.53924657590E+03  0.53924657592E+03  0.50400001928E-02 0. -1.
        1   -1    0    0  501    0  0.00000000000E+00  0.00000000000E+00 -0.56019594062E+03  0.56019594064E+03  0.50400001928E-02 0.  1.
    10030    2    1    2    0    0  0.00000000000E+00  0.00000000000E+00 -0.20949364720E+02  0.10994425166E+04  0.10992429083E+04 0.  0.
        4    1    3    3  502    0 -0.19397269478E+02  0.47672362526E+03  0.26241265392E+03  0.54452151728E+03  0.12699999809E+01 0. -1.
       -4    1    3    3    0  502  0.19397269478E+02 -0.47672362526E+03 -0.28336201864E+03  0.55492099928E+03  0.12699999809E+01 0.  1.
</event>
<event>
 5   0  0.8305271E-04  0.1100218E+04  0.7818609E-02  0.9204979E-01
        1   -1    0    0  501    0  0.00000000000E+00  0.00000000000E+00  0.34877257924E+03  0.34877257927E+03  0.50400001928E-02 0.  1.
       -1   -1    0    0    0  501  0.00000000000E+00  0.00000000000E+00 -0.86767138805E+03  0.86767138806E+03  0.50400001928E-02 0. -1.
    10030    2    1    2    0    0  0.00000000000E+00  0.00000000000E+00 -0.51889880881E+03  0.12164439673E+04  0.11002181383E+04 0.  0.
        5    1    3    3  502    0 -0.22655935988E+03 -0.13070662163E+03 -0.79449699537E+03  0.83645736899E+03  0.46999998093E+01 0. -1.
       -5    1    3    3    0  502  0.22655935988E+03  0.13070662163E+03  0.27559818656E+03  0.37998659834E+03  0.46999998093E+01 0.  1.
</event>
<event>
 5   0  0.7946038E-04  0.1098925E+04  0.7818609E-02  0.9206240E-01
       -1   -1    0    0    0  501  0.00000000000E+00  0.00000000000E+00  0.18233787834E+03  0.18233787841E+03  0.50400001928E-02 0. -1.
        1   -1    0    0  501    0  0.00000000000E+00  0.00000000000E+00 -0.16557666915E+04  0.16557666915E+04  0.50400001928E-02 0.  1.
    10030    2    1    2    0    0  0.00000000000E+00  0.00000000000E+00 -0.14734288132E+04  0.18381045699E+04  0.10989249030E+04 0.  0.
        4    1    3    3  502    0 -0.27353203381E+03 -0.34935107055E+03 -0.12788182791E+04  0.13536039849E+04  0.12699999809E+01 0.  1.
       -4    1    3    3    0  502  0.27353203381E+03  0.34935107055E+03 -0.19461053402E+03  0.48450058500E+03  0.12699999809E+01 0. -1.
</event>
<event>
 5   0  0.7946038E-04  0.1100326E+04  0.7818609E-02  0.9204874E-01
       -1   -1    0    0    0  501  0.00000000000E+00  0.00000000000E+00  0.17042624467E+03  0.17042624475E+03  0.50400001928E-02 0. -1.
        1   -1    0    0  501    0  0.00000000000E+00  0.00000000000E+00 -0.17760134727E+04  0.17760134727E+04  0.50400001928E-02 0.  1.
    10030    2    1    2    0    0  0.00000000000E+00  0.00000000000E+00 -0.16055872280E+04  0.19464397174E+04  0.11003259639E+04 0.  0.
        4    1    3    3  502    0 -0.41248774591E+03  0.36008704491E+03 -0.89754275642E+03  0.10513769224E+04  0.12699999809E+01 0. -1.
       -4    1    3    3    0  502  0.41248774591E+03 -0.36008704491E+03 -0.70804447159E+03  0.89506279505E+03  0.12699999809E+01 0.  1.
</event>
<event>
 5   0  0.7946038E-04  0.1100849E+04  0.7818609E-02  0.9204365E-01
       -1   -1    0    0    0  501  0.00000000000E+00  0.00000000000E+00  0.22919178837E+03  0.22919178842E+03  0.50400001928E-02 0. -1.
        1   -1    0    0  501    0  0.00000000000E+00  0.00000000000E+00 -0.13218923054E+04  0.13218923054E+04  0.50400001928E-02 0.  1.
    10030    2    1    2    0    0  0.00000000000E+00  0.00000000000E+00 -0.10927005170E+04  0.15510840938E+04  0.11008485119E+04 0.  0.
        4    1    3    3  502    0 -0.33840127469E+03 -0.34627656713E+03 -0.91523214245E+03  0.10354102429E+04  0.12699999809E+01 0.  1.
       -4    1    3    3    0  502  0.33840127469E+03  0.34627656713E+03 -0.17746837460E+03  0.51567385093E+03  0.12699999809E+01 0. -1.
</event>
<event>
 5   0  0.8009636E-04  0.1099041E+04  0.7818609E-02  0.9206127E-01
        1   -1    0    0  501    0  0.00000000000E+00  0.00000000000E+00  0.41607770872E+03  0.41607770875E+03  0.50400001928E-02 0.  1.
       -1   -1    0    0    0  501  0.00000000000E+00  0.00000000000E+00 -0.72576109180E+03  0.72576109182E+03  0.50400001928E-02 0. -1.
    10030    2    1    2    0    0  0.00000000000E+00  0.00000000000E+00 -0.30968338308E+03  0.11418388006E+04  0.10990414227E+04 0.  0.
        1    1    3    3  502    0 -0.50529371762E+03 -0.19877415856E+03 -0.24263128417E+03  0.59472922181E+03  0.50400001928E-02 0. -1.
       -1    1    3    3    0  502  0.50529371762E+03  0.19877415856E+03 -0.67052098904E+02  0.54710957877E+03  0.50400001928E-02 0.  1.
</event>
<event>
 5   0  0.1396936E-03  0.1100955E+04  0.7818609E-02  0.9204261E-01
       -2   -1    0    0    0  501  0.00000000000E+00  0.00000000000E+00  0.12268811714E+03  0.12268811717E+03  0.25500000920E-02 0.  1.
        2   -1    0    0  501    0  0.00000000000E+00  0.00000000000E+00 -0.24698850841E+04  0.24698850841E+04  0.25500000920E-02 0. -1.
    10030    2    1    2    0    0  0.00000000000E+00  0.00000000000E+00 -0.23471969669E+04  0.25925732013E+04  0.11009551318E+04 0.  0.
        2    1    3    3  502    0 -0.33081282843E+03  0.22949079458E+03 -0.28960020305E+03  0.49595506840E+03  0.25500000920E-02 0.  1.
       -2    1    3    3    0  502  0.33081282843E+03 -0.22949079458E+03 -0.20575967639E+04  0.20966181329E+04  0.25500000920E-02 0. -1.
</event>
<event>
 5   0  0.8009636E-04  0.1104126E+04  0.7818609E-02  0.9201180E-01
       -1   -1    0    0    0  501  0.00000000000E+00  0.00000000000E+00  0.19453695043E+03  0.19453695050E+03  0.50400001928E-02 0.  1.
        1   -1    0    0  501    0  0.00000000000E+00  0.00000000000E+00 -0.15666608720E+04  0.15666608720E+04  0.50400001928E-02 0. -1.
    10030    2    1    2    0    0  0.00000000000E+00  0.00000000000E+00 -0.13721239216E+04  0.17611978225E+04  0.11041257690E+04 0.  0.
        1    1    3    3  502    0  0.23681959861E+03 -0.23066830567E+01 -0.14815140506E+04  0.15003242067E+04  0.50400001928E-02 0. -1.
       -1    1    3    3    0  502 -0.23681959861E+03  0.23066830567E+01  0.10939012903E+03  0.26087361581E+03  0.50400001928E-02 0.  1.
</event>
<event>
 5   0  0.7946038E-04  0.1102279E+04  0.7818609E-02  0.9202973E-01
       -1   -1    0    0    0  501  0.00000000000E+00  0.00000000000E+00  0.36019974271E+03  0.36019974275E+03  0.50400001928E-02 0. -1.
        1   -1    0    0  501    0  0.00000000000E+00  0.00000000000E+00 -0.84329597292E+03  0.84329597293E+03  0.50400001928E-02 0.  1.
    10030    2    1    2    0    0  0.00000000000E+00  0.00000000000E+00 -0.48309623021E+03  0.12034957157E+04  0.11022794428E+04 0.  0.
        4    1    3    3  502    0  0.23441201093E+03  0.41287978302E+03 -0.54713158599E+03  0.72441237660E+03  0.12699999809E+01 0.  1.
       -4    1    3    3    0  502 -0.23441201093E+03 -0.41287978302E+03  0.64035355778E+02  0.47908333908E+03  0.12699999809E+01 0. -1.
</event>
<event>
 5   0  0.1402775E-03  0.1098920E+04  0.7818609E-02  0.9206245E-01
        2   -1    0    0  501    0  0.00000000000E+00  0.00000000000E+00  0.58749305721E+03  0.58749305722E+03  0.25500000920E-02 0. -1.
       -2   -1    0    0    0  501  0.00000000000E+00  0.00000000000E+00 -0.51388906765E+03  0.51388906766E+03  0.25500000920E-02 0.  1.
    10030    2    1    2    0    0  0.00000000000E+00  0.00000000000E+00  0.73603989558E+02  0.11013821249E+04  0.10989199414E+04 0.  0.
        5    1    3    3  502    0  0.50658967163E+03 -0.21253877845E+03  0.27931079518E+02  0.55009823027E+03  0.46999998093E+01 0. -1.
       -5    1    3    3    0  502 -0.50658967163E+03  0.21253877845E+03  0.45672910040E+02  0.55128389461E+03  0.46999998093E+01 0.  1.
</event>
<event>
 5   0  0.5409500E-04  0.1101354E+04  0.7818609E-02  0.9203873E-01
       -4   -1    0    0    0  501  0.00000000000E+00  0.00000000000E+00  0.29016781023E+03  0.29017058947E+03  0.12699999809E+01 0. -1.
        4   -1    0    0  501    0  0.00000000000E+00  0.00000000000E+00 -0.10450597225E+04  0.10450604942E+04  0.12699999809E+01 0.  1.
    10030    2    1    2    0    0  0.00000000000E+00  0.00000000000E+00 -0.75489191225E+03  0.13352310836E+04  0.11013538249E+04 0.  0.
        4    1    3    3  502    0  0.27370125118E+03  0.24107306509E+03  0.12273631544E+03  0.38483036996E+03  0.12699999809E+01 0. -1.
       -4    1    3    3    0  502 -0.27370125118E+03 -0.24107306509E+03 -0.87762822770E+03  0.95040071368E+03  0.12699999809E+01 0.  1.
</event>
<event>
 5   0  0.8150924E-04  0.1101720E+04  0.7818609E-02  0.9203518E-01
        1   -1    0    0  501    0  0.00000000000E+00  0.00000000000E+00  0.11197393155E+04  0.11197393155E+04  0.50400001928E-02 0.  1.
       -1   -1    0    0    0  501  0.00000000000E+00  0.00000000000E+00 -0.27099743972E+03  0.27099743977E+03  0.50400001928E-02 0. -1.
    10030    2    1    2    0    0  0.00000000000E+00  0.00000000000E+00  0.84874187578E+03  0.13907367553E+04  0.11017195427E+04 0.  0.
        3    1    3    3  502    0 -0.15315621132E+03  0.31841641640E+03 -0.10910567197E+03  0.36979710269E+03  0.10100000352E+00 0. -1.
       -3    1    3    3    0  502  0.15315621132E+03 -0.31841641640E+03  0.95784754774E+03  0.10209396526E+04  0.10100000352E+00 0.  1.
</event>
<event>
 5   0  0.7946038E-04  0.1100939E+04  0.7818609E-02  0.9204277E-01
       -1   -1    0    0    0  501  0.00000000000E+00  0.00000000000E+00  0.35426724028E+03  0.35426724032E+03  0.50400001928E-02 0. -1.
        1   -1    0    0  501    0  0.00000000000E+00  0.00000000000E+00 -0.85533381828E+03  0.85533381829E+03  0.50400001928E-02 0.  1.
    10030    2    1    2    0    0  0.00000000000E+00  0.00000000000E+00 -0.50106657800E+03  0.12096010586E+04  0.11009391470E+04 0.  0.
        4    1    3    3  502    0  0.79872276863E+02 -0.77414942690E+01 -0.84887127099E+03  0.85265676503E+03  0.12699999809E+01 0.  1.
       -4    1    3    3    0  502 -0.79872276863E+02  0.77414942690E+01  0.34780469299E+03  0.35694429357E+03  0.12699999809E+01 0. -1.
</event>
<event>
 5   0  0.7946038E-04  0.1103012E+04  0.7818609E-02  0.9202261E-01
        1   -1    0    0  501    0  0.00000000000E+00  0.00000000000E+00  0.69920418118E+03  0.69920418120E+03  0.50400001928E-02 0. -1.
       -1   -1    0    0    0  501  0.00000000000E+00  0.00000000000E+00 -0.43500710517E+03  0.43500710519E+03  0.50400001928E-02 0.  1.
    10030    2    1    2    0    0  0.00000000000E+00  0.00000000000E+00  0.26419707602E+03  0.11342112864E+04  0.11030118527E+04 0.  0.
        4    1    3    3  502    0 -0.40607225361E+03  0.37304005066E+03  0.14256582731E+03  0.56954383726E+03  0.12699999809E+01 0.  1.
       -4    1    3    3    0  502  0.40607225361E+03 -0.37304005066E+03  0.12163124871E+03  0.56466744913E+03  0.12699999809E+01 0. -1.
</event>
<event>
 5   0  0.1372794E-03  0.1096373E+04  0.7818609E-02  0.9208734E-01
       -2   -1    0    0    0  501  0.00000000000E+00  0.00000000000E+00  0.32454440231E+03  0.32454440232E+03  0.25500000920E-02 0.  1.
        2   -1    0    0  501    0  0.00000000000E+00  0.00000000000E+00 -0.92593899167E+03  0.92593899167E+03  0.25500000920E-02 0. -1.
    10030    2    1    2    0    0  0.00000000000E+00  0.00000000000E+00 -0.60139458935E+03  0.12504833940E+04  0.10963727772E+04 0.  0.
        4    1    3    3  502    0 -0.40990952684E+03  0.29463615425E+03 -0.56951467907E+02  0.50801709241E+03  0.12699999809E+01 0.  1.
       -4    1    3    3    0  502  0.40990952684E+03 -0.29463615425E+03 -0.54444312145E+03  0.74246630158E+03  0.12699999809E+01 0. -1.
</event>
<event>
 5   0  0.5409500E-04  0.1097749E+04  0.7818609E-02  0.9207389E-01
       -3   -1    0    0    0  501  0.00000000000E+00  0.00000000000E+00  0.52385486259E+03  0.52385487233E+03  0.10100000352E+00 0.  1.
        3   -1    0    0  501    0  0.00000000000E+00  0.00000000000E+00 -0.57508861429E+03  0.57508862316E+03  0.10100000352E+00 0. -1.
    10030    2    1    2    0    0  0.00000000000E+00  0.00000000000E+00 -0.51233751699E+02  0.10989434955E+04  0.10977485636E+04 0.  0.
        2    1    3    3  502    0  0.35580611339E+03  0.25879409788E+03  0.30290280124E+03  0.53415585968E+03  0.25500000920E-02 0. -1.
       -2    1    3    3    0  502 -0.35580611339E+03 -0.25879409788E+03 -0.35413655294E+03  0.56478763580E+03  0.25500000920E-02 0.  1.
</event>
<event>
 5   0  0.8150924E-04  0.1098812E+04  0.7818609E-02  0.9206351E-01
        1   -1    0    0  501    0  0.00000000000E+00  0.00000000000E+00  0.57545355952E+03  0.57545355954E+03  0.50400001928E-02 0. -1.
       -1   -1    0    0    0  501  0.00000000000E+00  0.00000000000E+00 -0.52453720627E+03  0.52453720629E+03  0.50400001928E-02 0.  1.
    10030    2    1    2    0    0  0.00000000000E+00  0.00000000000E+00  0.50916353253E+02  0.10999907658E+04  0.10988117263E+04 0.  0.
        3    1    3    3  502    0  0.18236580857E+03 -0.43903879511E+03 -0.25021784800E+03  0.53723489593E+03  0.10100000352E+00 0.  1.
       -3    1    3    3    0  502 -0.18236580857E+03  0.43903879511E+03  0.30113420125E+03  0.56275586990E+03  0.10100000352E+00 0. -1.
</event>
<event>
 5   0  0.1396936E-03  0.1094255E+04  0.7818609E-02  0.9210810E-01
       -2   -1    0    0    0  501  0.00000000000E+00  0.00000000000E+00  0.12601356334E+03  0.12601356337E+03  0.25500000920E-02 0.  1.
        2   -1    0    0  501    0  0.00000000000E+00  0.00000000000E+00 -0.23755241988E+04  0.23755241988E+04  0.25500000920E-02 0. -1.
    10030    2    1    2    0    0  0.00000000000E+00  0.00000000000E+00 -0.22495106354E+04  0.25015377621E+04  0.10942545757E+04 0.  0.
        2    1    3    3  502    0  0.27806157193E+03  0.41304714363E+03 -0.16431535924E+04  0.17169391105E+04  0.25500000920E-02 0. -1.
       -2    1    3    3    0  502 -0.27806157193E+03 -0.41304714363E+03 -0.60635704298E+03  0.78459865168E+03  0.25500000920E-02 0.  1.
</event>
<event>
 5   0  0.1402775E-03  0.1097595E+04  0.7818609E-02  0.9207539E-01
        2   -1    0    0  501    0  0.00000000000E+00  0.00000000000E+00  0.54550970110E+03  0.54550970111E+03  0.25500000920E-02 0. -1.
       -2   -1    0    0    0  501  0.00000000000E+00  0.00000000000E+00 -0.55210557560E+03  0.55210557560E+03  0.25500000920E-02 0.  1.
    10030    2    1    2    0    0  0.00000000000E+00  0.00000000000E+00 -0.65958744979E+01  0.10976152767E+04  0.10975954583E+04 0.  0.
        5    1    3    3  502    0  0.19987402009E+03 -0.20379692738E+03  0.46540450465E+03  0.54599107544E+03  0.46999998093E+01 0. -1.
       -5    1    3    3    0  502 -0.19987402009E+03  0.20379692738E+03 -0.47200037915E+03  0.55162420127E+03  0.46999998093E+01 0.  1.
</event>
<event>
 5   0  0.1429680E-03  0.1096965E+04  0.7818609E-02  0.9208155E-01
       -2   -1    0    0    0  501  0.00000000000E+00  0.00000000000E+00  0.32805160287E+03  0.32805160288E+03  0.25500000920E-02 0. -1.
        2   -1    0    0  501    0  0.00000000000E+00  0.00000000000E+00 -0.91702994067E+03  0.91702994068E+03  0.25500000920E-02 0.  1.
    10030    2    1    2    0    0  0.00000000000E+00  0.00000000000E+00 -0.58897833781E+03  0.12450815436E+04  0.10969651625E+04 0.  0.
        3    1    3    3  502    0  0.26943541640E+03 -0.18715818286E+02 -0.83632175813E+03  0.87885142021E+03  0.10100000352E+00 0.  1.
       -3    1    3    3    0  502 -0.26943541640E+03  0.18715818286E+02  0.24734342033E+03  0.36623012335E+03  0.10100000352E+00 0. -1.
</event>
<event>
 5   0  0.8341767E-04  0.1102623E+04  0.7818609E-02  0.9202640E-01
        1   -1    0    0  501    0  0.00000000000E+00  0.00000000000E+00  0.76677310985E+03  0.76677310986E+03  0.50400001928E-02 0.  1.
       -1   -1    0    0    0  501  0.00000000000E+00  0.00000000000E+00 -0.39639381686E+03  0.39639381689E+03  0.50400001928E-02 0. -1.
    10030    2    1    2    0    0  0.00000000000E+00  0.00000000000E+00  0.37037929299E+03  0.11631669268E+04  0.11026225459E+04 0.  0.
        2    1    3    3  502    0 -0.52121934513E+03  0.72444926612E+02  0.11766107757E+02  0.52636139147E+03  0.25500000920E-02 0. -1.
       -2    1    3    3    0  502  0.52121934513E+03 -0.72444926612E+02  0.35861318523E+03  0.63680553528E+03  0.25500000920E-02 0.  1.
</event>
<event>
 5   0  0.1429680E-03  0.1109035E+04  0.7818609E-02  0.9196430E-01
        2   -1    0    0  501    0  0.00000000000E+00  0.00000000000E+00  0.11560952338E+04  0.11560952338E+04  0.25500000920E-02 0. -1.
       -2   -1    0    0    0  501  0.00000000000E+00  0.00000000000E+00 -0.26597272516E+03  0.26597272517E+03  0.25500000920E-02 0.  1.
    10030    2    1    2    0    0  0.00000000000E+00  0.00000000000E+00  0.89012250868E+03  0.14220679590E+04  0.11090352562E+04 0.  0.
        3    1    3    3  502    0 -0.54742857836E+02  0.10082839075E+03  0.11407096512E+04  0.11464648548E+04  0.10100000352E+00 0. -1.
       -3    1    3    3    0  502  0.54742857836E+02 -0.10082839075E+03 -0.25058714249E+03  0.27560310420E+03  0.10100000352E+00 0.  1.
</event>
<event>
 5   0  0.8305271E-04  0.1101175E+04  0.7818609E-02  0.9204047E-01
       -1   -1    0    0    0  501  0.00000000000E+00  0.00000000000E+00  0.33103576573E+03  0.33103576577E+03  0.50400001928E-02 0.  1.
        1   -1    0    0  501    0  0.00000000000E+00  0.00000000000E+00 -0.91575224603E+03  0.91575224604E+03  0.50400001928E-02 0. -1.
    10030    2    1    2    0    0  0.00000000000E+00  0.00000000000E+00 -0.58471648030E+03  0.12467880118E+04  0.11011752740E+04 0.  0.
        5    1    3    3  502    0 -0.23449375192E+03  0.16589803276E+03 -0.82416501016E+03  0.87279982294E+03  0.46999998093E+01 0. -1.
       -5    1    3    3    0  502  0.23449375192E+03 -0.16589803276E+03  0.23944852985E+03  0.37398818887E+03  0.46999998093E+01 0.  1.
</event>
<event>
 5   0  0.8150924E-04  0.1098547E+04  0.7818609E-02  0.9206610E-01
        1   -1    0    0  501    0  0.00000000000E+00  0.00000000000E+00  0.10309037404E+04  0.10309037404E+04  0.50400001928E-02 0.  1.
       -1   -1    0    0    0  501  0.00000000000E+00  0.00000000000E+00 -0.29265699135E+03  0.29265699139E+03  0.50400001928E-02 0. -1.
    10030    2    1    2    0    0  0.00000000000E+00  0.00000000000E+00  0.73824674903E+03  0.13235607318E+04  0.10985466528E+04 0.  0.
        3    1    3    3  502    0  0.12905834484E+03  0.13051497777E+03 -0.25461382594E+03  0.31387645078E+03  0.10100000352E+00 0. -1.
       -3    1    3    3    0  502 -0.12905834484E+03 -0.13051497777E+03  0.99286057497E+03  0.10096842810E+04  0.10100000352E+00 0.  1.
</event>
<event>
 5   0  0.7946038E-04  0.1099111E+04  0.7818609E-02  0.9206059E-01
       -1   -1    0    0    0  501  0.00000000000E+00  0.00000000000E+00  0.20406404519E+03  0.20406404525E+03  0.50400001928E-02 0.  1.
        1   -1    0    0  501    0  0.00000000000E+00  0.00000000000E+00 -0.14799828660E+04  0.14799828660E+04  0.50400001928E-02 0. -1.
    10030    2    1    2    0    0  0.00000000000E+00  0.00000000000E+00 -0.12759188208E+04  0.16840469113E+04  0.10991110781E+04 0.  0.
        4    1    3    3  502    0 -0.14069843280E+03  0.29680079093E+03 -0.13130328273E+04  0.13534931019E+04  0.12699999809E+01 0. -1.
       -4    1    3    3    0  502  0.14069843280E+03 -0.29680079093E+03  0.37114006487E+02  0.33055380934E+03  0.12699999809E+01 0.  1.
</event>
<event>
 5   0  0.1372794E-03  0.1096907E+04  0.7818609E-02  0.9208212E-01
       -2   -1    0    0    0  501  0.00000000000E+00  0.00000000000E+00  0.47669795954E+03  0.47669795955E+03  0.25500000920E-02 0. -1.
        2   -1    0    0  501    0  0.00000000000E+00  0.00000000000E+00 -0.63100986612E+03  0.63100986612E+03  0.25500000920E-02 0.  1.
    10030    2    1    2    0    0  0.00000000000E+00  0.00000000000E+00 -0.15431190658E+03  0.11077078257E+04  0.10969067702E+04 0.  0.
        4    1    3    3  502    0 -0.95938445840E+02  0.44691950946E+03  0.22890972869E+03  0.51121669585E+03  0.12699999809E+01 0. -1.
       -4    1    3    3    0  502  0.95938445840E+02 -0.44691950946E+03 -0.38322163526E+03  0.59649112983E+03  0.12699999809E+01 0.  1.
</event>
<event>
 5   0  0.7946038E-04  0.1085754E+04  0.7818609E-02  0.9219189E-01
       -1   -1    0    0    0  501  0.00000000000E+00  0.00000000000E+00  0.11106554628E+03  0.11106554639E+03  0.50400001928E-02 0.  1.
        1   -1    0    0  501    0  0.00000000000E+00  0.00000000000E+00 -0.26535292605E+04  0.26535292605E+04  0.50400001928E-02 0. -1.
    10030    2    1    2    0    0  0.00000000000E+00  0.00000000000E+00 -0.25424637142E+04  0.27645948069E+04  0.10857544419E+04 0.  0.
        4    1    3    3  502    0 -0.26404104716E+03 -0.39188235802E+03 -0.19517250777E+04  0.20081140030E+04  0.12699999809E+01 0. -1.
       -4    1    3    3    0  502  0.26404104716E+03  0.39188235802E+03 -0.59073863649E+03  0.75648080389E+03  0.12699999809E+01 0.  1.
</event>
<event>
 5   0  0.1402775E-03  0.1103766E+04  0.7818609E-02  0.9201529E-01
       -2   -1    0    0    0  501  0.00000000000E+00  0.00000000000E+00  0.17446017003E+03  0.17446017005E+03  0.25500000920E-02 0. -1.
        2   -1    0    0  501    0  0.00000000000E+00  0.00000000000E+00 -0.17458128513E+04  0.17458128513E+04  0.25500000920E-02 0.  1.
    10030    2    1    2    0    0  0.00000000000E+00  0.00000000000E+00 -0.15713526813E+04  0.19202730213E+04  0.11037659297E+04 0.  0.
        5    1    3    3  502    0  0.38597155109E+03 -0.13236418787E+03 -0.13925242650E+03  0.43117008798E+03  0.46999998093E+01 0. -1.
       -5    1    3    3    0  502 -0.38597155109E+03  0.13236418787E+03 -0.14321002548E+04  0.14891029334E+04  0.46999998093E+01 0.  1.
</event>
<event>
 5   0  0.8150924E-04  0.1100990E+04  0.7818609E-02  0.9204227E-01
       -1   -1    0    0    0  501  0.00000000000E+00  0.00000000000E+00  0.55373881612E+03  0.55373881614E+03  0.50400001928E-02 0.  1.
        1   -1    0    0  501    0  0.00000000000E+00  0.00000000000E+00 -0.54727032323E+03  0.54727032325E+03  0.50400001928E-02 0. -1.
    10030    2    1    2    0    0  0.00000000000E+00  0.00000000000E+00  0.64684928873E+01  0.11010091394E+04  0.11009901378E+04 0.  0.
        3    1    3    3  502    0 -0.96879233676E+02 -0.36219048164E+03  0.40632590861E+03  0.55287275671E+03  0.10100000352E+00 0.  1.
       -3    1    3    3    0  502  0.96879233676E+02  0.36219048164E+03 -0.39985741572E+03  0.54813638268E+03  0.10100000352E+00 0. -1.
</event>
<event>
 5   0  0.1396936E-03  0.1101287E+04  0.7818609E-02  0.9203939E-01
       -2   -1    0    0    0  501  0.00000000000E+00  0.00000000000E+00  0.27010406001E+03  0.27010406002E+03  0.25500000920E-02 0. -1.
        2   -1    0    0  501    0  0.00000000000E+00  0.00000000000E+00 -0.11225603061E+04  0.11225603061E+04  0.25500000920E-02 0.  1.
    10030    2    1    2    0    0  0.00000000000E+00  0.00000000000E+00 -0.85245624609E+03  0.13926643661E+04  0.11012866953E+04 0.  0.
        2    1    3    3  502    0  0.25027623761E+03  0.13388010979E+02 -0.10462469370E+04  0.10758485429E+04  0.25500000920E-02 0.  1.
       -2    1    3    3    0  502 -0.25027623761E+03 -0.13388010979E+02  0.19379069095E+03  0.31681582324E+03  0.25500000920E-02 0. -1.
</event>
<event>
 5   0  0.1372794E-03  0.1107441E+04  0.7818609E-02  0.9197970E-01
        2   -1    0    0  501    0  0.00000000000E+00  0.00000000000E+00  0.52984214201E+03  0.52984214202E+03  0.25500000920E-02 0.  1.
       -2   -1    0    0    0  501  0.00000000000E+00  0.00000000000E+00 -0.57867481719E+03  0.57867481719E+03  0.25500000920E-02 0. -1.
    10030    2    1    2    0    0  0.00000000000E+00  0.00000000000E+00 -0.48832675172E+02  0.11085169592E+04  0.11074408421E+04 0.  0.
        4    1    3    3  502    0 -0.14435338033E+03 -0.33535267376E+03  0.39228781184E+03  0.53590172087E+03  0.12699999809E+01 0.  1.
       -4    1    3    3    0  502  0.14435338033E+03  0.33535267376E+03 -0.44112048701E+03  0.57261523834E+03  0.12699999809E+01 0. -1.
</event>
<event>
 5   0  0.1396936E-03  0.1099143E+04  0.7818609E-02  0.9206027E-01
        2   -1    0    0  501    0  0.00000000000E+00  0.00000000000E+00  0.20607243550E+03  0.20607243552E+03  0.25500000920E-02 0. -1.
       -2   -1    0    0    0  501  0.00000000000E+00  0.00000000000E+00 -0.14656448879E+04  0.14656448879E+04  0.25500000920E-02 0.  1.
    10030    2    1    2    0    0  0.00000000000E+00  0.00000000000E+00 -0.12595724524E+04  0.16717173235E+04  0.10991433240E+04 0.  0.
        2    1    3    3  502    0 -0.37606100835E+03  0.29835875244E+03 -0.22284449898E+03  0.52924427054E+03  0.25500000920E-02 0. -1.
       -2    1    3    3    0  502  0.37606100835E+03 -0.29835875244E+03 -0.10367279534E+04  0.11424730529E+04  0.25500000920E-02 0.  1.
</event>
<event>
 5   0  0.7946038E-04  0.1099572E+04  0.7818609E-02  0.9205609E-01
        1   -1    0    0  501    0  0.00000000000E+00  0.00000000000E+00  0.93872376411E+03  0.93872376412E+03  0.50400001928E-02 0.  1.
       -1   -1    0    0    0  501  0.00000000000E+00  0.00000000000E+00 -0.32199553185E+03  0.32199553189E+03  0.50400001928E-02 0. -1.
    10030    2    1    2    0    0  0.00000000000E+00  0.00000000000E+00  0.61672823226E+03  0.12607192960E+04  0.10995723855E+04 0.  0.
        4    1    3    3  502    0 -0.41907708187E+03 -0.99079769006E+02  0.70024560072E+03  0.82206320645E+03  0.12699999809E+01 0.  1.
       -4    1    3    3    0  502  0.41907708187E+03  0.99079769006E+02 -0.83517368456E+02  0.43865608956E+03  0.12699999809E+01 0. -1.
</event>
<event>
 5   0  0.1402775E-03  0.1106297E+04  0.7818609E-02  0.9199076E-01
       -2   -1    0    0    0  501  0.00000000000E+00  0.00000000000E+00  0.26084427512E+03  0.26084427513E+03  0.25500000920E-02 0. -1.
        2   -1    0    0  501    0  0.00000000000E+00  0.00000000000E+00 -0.11730105189E+04  0.11730105189E+04  0.25500000920E-02 0.  1.
    10030    2    1    2    0    0  0.00000000000E+00  0.00000000000E+00 -0.91216624379E+03  0.14338547941E+04  0.11062966664E+04 0.  0.
        5    1    3    3  502    0  0.52968881379E+03 -0.99603564760E+02 -0.29493078275E+03  0.61440814299E+03  0.46999998093E+01 0. -1.
       -5    1    3    3    0  502 -0.52968881379E+03  0.99603564760E+02 -0.61723546104E+03  0.81944665106E+03  0.46999998093E+01 0.  1.
</event>
<event>
 5   0  0.8341767E-04  0.1098773E+04  0.7818609E-02  0.9206388E-01
        1   -1    0    0  501    0  0.00000000000E+00  0.00000000000E+00  0.11970282812E+04  0.11970282812E+04  0.50400001928E-02 0. -1.
       -1   -1    0    0    0  501  0.00000000000E+00  0.00000000000E+00 -0.25214577945E+03  0.25214577950E+03  0.50400001928E-02 0.  1.
    10030    2    1    2    0    0  0.00000000000E+00  0.00000000000E+00  0.94488250177E+03  0.14491740607E+04  0.10987731868E+04 0.  0.
        2    1    3    3  502    0  0.46883580971E+03 -0.28245571100E+03  0.53482662045E+03  0.76526319596E+03  0.25500000920E-02 0.  1.
       -2    1    3    3    0  502 -0.46883580971E+03  0.28245571100E+03  0.41005588132E+03  0.68391086477E+03  0.25500000920E-02 0. -1.
</event>
<event>
 5   0  0.8009636E-04  0.1102169E+04  0.7818609E-02  0.9203081E-01
       -1   -1    0    0    0  501  0.00000000000E+00  0.00000000000E+00  0.45828428051E+03  0.45828428054E+03  0.50400001928E-02 0. -1.
        1   -1    0    0  501    0  0.00000000000E+00  0.00000000000E+00 -0.66267580425E+03  0.66267580427E+03  0.50400001928E-02 0.  1.
    10030    2    1    2    0    0  0.00000000000E+00  0.00000000000E+00 -0.20439152373E+03  0.11209600848E+04  0.11021685972E+04 0.  0.
        1    1    3    3  502    0  0.18591258492E+03 -0.50653099044E+02  0.42290592871E+03  0.46473503229E+03  0.50400001928E-02 0. -1.
       -1    1    3    3    0  502 -0.18591258492E+03  0.50653099044E+02 -0.62729745245E+03  0.65622505251E+03  0.50400001928E-02 0.  1.
</event>
<event>
 5   0  0.8305271E-04  0.1095166E+04  0.7818609E-02  0.9209916E-01
       -1   -1    0    0    0  501  0.00000000000E+00  0.00000000000E+00  0.73031707188E+03  0.73031707190E+03  0.50400001928E-02 0. -1.
        1   -1    0    0  501    0  0.00000000000E+00  0.00000000000E+00 -0.41057139826E+03  0.41057139829E+03  0.50400001928E-02 0.  1.
    10030    2    1    2    0    0  0.00000000000E+00  0.00000000000E+00  0.31974567362E+03  0.11408884702E+04  0.10951662913E+04 0.  0.
        5    1    3    3  502    0 -0.29486086231E+03  0.46044235884E+03  0.12905541515E+03  0.56180733718E+03  0.46999998093E+01 0. -1.
       -5    1    3    3    0  502  0.29486086231E+03 -0.46044235884E+03  0.19069025847E+03  0.57908113301E+03  0.46999998093E+01 0.  1.
</event>
<event>
 5   0  0.7946038E-04  0.1061743E+04  0.7818609E-02  0.9243304E-01
       -1   -1    0    0    0  501  0.00000000000E+00  0.00000000000E+00  0.35458295005E+03  0.35458295008E+03  0.50400001928E-02 0. -1.
        1   -1    0    0  501    0  0.00000000000E+00  0.00000000000E+00 -0.79480505515E+03  0.79480505517E+03  0.50400001928E-02 0.  1.
    10030    2    1    2    0    0  0.00000000000E+00  0.00000000000E+00 -0.44022210510E+03  0.11493880052E+04  0.10617425699E+04 0.  0.
        4    1    3    3  502    0  0.30300440381E+03  0.25335211725E+03  0.16388674418E+03  0.42762067520E+03  0.12699999809E+01 0.  1.
       -4    1    3    3    0  502 -0.30300440381E+03 -0.25335211725E+03 -0.60410884928E+03  0.72176733005E+03  0.12699999809E+01 0. -1.
</event>
<event>
 5   0  0.1425432E-03  0.1104621E+04  0.7818609E-02  0.9200699E-01
        2   -1    0    0  501    0  0.00000000000E+00  0.00000000000E+00  0.62566166810E+03  0.62566166811E+03  0.25500000920E-02 0.  1.
       -2   -1    0    0    0  501  0.00000000000E+00  0.00000000000E+00 -0.48755909177E+03  0.48755909178E+03  0.25500000920E-02 0. -1.
    10030    2    1    2    0    0  0.00000000000E+00  0.00000000000E+00  0.13810257633E+03  0.11132207599E+04  0.11046212648E+04 0.  0.
        1    1    3    3  502    0 -0.61233379568E+02  0.54604089045E+03  0.12549493136E+03  0.56361259624E+03  0.50400001928E-02 0.  1.
       -1    1    3    3    0  502  0.61233379568E+02 -0.54604089045E+03  0.12607644970E+02  0.54960816365E+03  0.50400001928E-02 0. -1.
</event>
<event>
 5   0  0.8009636E-04  0.1100245E+04  0.7818609E-02  0.9204953E-01
        1   -1    0    0  501    0  0.00000000000E+00  0.00000000000E+00  0.40390874127E+03  0.40390874130E+03  0.50400001928E-02 0.  1.
       -1   -1    0    0    0  501  0.00000000000E+00  0.00000000000E+00 -0.74926543226E+03  0.74926543228E+03  0.50400001928E-02 0. -1.
    10030    2    1    2    0    0  0.00000000000E+00  0.00000000000E+00 -0.34535669099E+03  0.11531741736E+04  0.11002451684E+04 0.  0.
        1    1    3    3  502    0 -0.42083121318E+03  0.33189127574E+03 -0.30267790775E+03  0.61551981671E+03  0.50400001928E-02 0. -1.
       -1    1    3    3    0  502  0.42083121318E+03 -0.33189127574E+03 -0.42678783233E+02  0.53765435687E+03  0.50400001928E-02 0.  1.
</event>
<event>
 5   0  0.1429680E-03  0.1096244E+04  0.7818609E-02  0.9208861E-01
        2   -1    0    0  501    0  0.00000000000E+00  0.00000000000E+00  0.13108794687E+04  0.13108794687E+04  0.25500000920E-02 0.  1.
       -2   -1    0    0    0  501  0.00000000000E+00  0.00000000000E+00 -0.22918784245E+03  0.22918784247E+03  0.25500000920E-02 0. -1.
    10030    2    1    2    0    0  0.00000000000E+00  0.00000000000E+00  0.10816916262E+04  0.15400673111E+04  0.10962438363E+04 0.  0.
        3    1    3    3  502    0 -0.59940479689E+02  0.22624488229E+03 -0.15545677756E+03  0.28097406954E+03  0.10100000352E+00 0. -1.
       -3    1    3    3    0  502  0.59940479689E+02 -0.22624488229E+03  0.12371484038E+04  0.12590932416E+04  0.10100000352E+00 0.  1.
</event>
<event>
 5   0  0.1425432E-03  0.1100145E+04  0.7818609E-02  0.9205051E-01
       -2   -1    0    0    0  501  0.00000000000E+00  0.00000000000E+00  0.12443355779E+04  0.12443355779E+04  0.25500000920E-02 0. -1.
        2   -1    0    0  501    0  0.00000000000E+00  0.00000000000E+00 -0.24316556396E+03  0.24316556397E+03  0.25500000920E-02 0.  1.
    10030    2    1    2    0    0  0.00000000000E+00  0.00000000000E+00  0.10011700140E+04  0.14875011419E+04  0.11001446497E+04 0.  0.
        1    1    3    3  502    0 -0.38771194992E+03 -0.69881060735E+02  0.10196483678E+04  0.10931087379E+04  0.50400001928E-02 0. -1.
       -1    1    3    3    0  502  0.38771194992E+03  0.69881060735E+02 -0.18478353872E+02  0.39439240402E+03  0.50400001928E-02 0.  1.
</event>
<event>
 5   0  0.1425432E-03  0.1100298E+04  0.7818609E-02  0.9204902E-01
        2   -1    0    0  501    0  0.00000000000E+00  0.00000000000E+00  0.90264430759E+03  0.90264430760E+03  0.25500000920E-02 0. -1.
       -2   -1    0    0    0  501  0.00000000000E+00  0.00000000000E+00 -0.33530791106E+03  0.33530791107E+03  0.25500000920E-02 0.  1.
    10030    2    1    2    0    0  0.00000000000E+00  0.00000000000E+00  0.56733639653E+03  0.12379522187E+04  0.11002977365E+04 0.  0.
        1    1    3    3  502    0 -0.62234075836E+02  0.25364623148E+03 -0.26111380383E+03  0.36931004524E+03  0.50400001928E-02 0.  1.
       -1    1    3    3    0  502  0.62234075836E+02 -0.25364623148E+03  0.82845020036E+03  0.86864217342E+03  0.50400001928E-02 0. -1.
</event>
<event>
 5   0  0.1402775E-03  0.1098129E+04  0.7818609E-02  0.9207018E-01
        2   -1    0    0  501    0  0.00000000000E+00  0.00000000000E+00  0.72214464885E+03  0.72214464885E+03  0.25500000920E-02 0.  1.
       -2   -1    0    0    0  501  0.00000000000E+00  0.00000000000E+00 -0.41746709907E+03  0.41746709907E+03  0.25500000920E-02 0. -1.
    10030    2    1    2    0    0  0.00000000000E+00  0.00000000000E+00  0.30467754978E+03  0.11396117479E+04  0.10981286476E+04 0.  0.
        5    1    3    3  502    0  0.26853543185E+03  0.12307858300E+03  0.63262841227E+03  0.69821229849E+03  0.46999998093E+01 0.  1.
       -5    1    3    3    0  502 -0.26853543185E+03 -0.12307858300E+03 -0.32795086249E+03  0.44139944943E+03  0.46999998093E+01 0. -1.
</event>
<event>
 5   0  0.8305271E-04  0.1098427E+04  0.7818609E-02  0.9206726E-01
        1   -1    0    0  501    0  0.00000000000E+00  0.00000000000E+00  0.92738023845E+03  0.92738023847E+03  0.50400001928E-02 0. -1.
       -1   -1    0    0    0  501  0.00000000000E+00  0.00000000000E+00 -0.32525573003E+03  0.32525573007E+03  0.50400001928E-02 0.  1.
    10030    2    1    2    0    0  0.00000000000E+00  0.00000000000E+00  0.60212450842E+03  0.12526359685E+04  0.10984274878E+04 0.  0.
        5    1    3    3  502    0  0.19755998685E+03 -0.51040759410E+03  0.24920538653E+03  0.60139111665E+03  0.46999998093E+01 0.  1.
       -5    1    3    3    0  502 -0.19755998685E+03  0.51040759410E+03  0.35291912189E+03  0.65124485189E+03  0.46999998093E+01 0. -1.
</event>
<event>
 5   0  0.1429680E-03  0.1097079E+04  0.7818609E-02  0.9208043E-01
       -2   -1    0    0    0  501  0.00000000000E+00  0.00000000000E+00  0.81618961299E+03  0.81618961299E+03  0.25500000920E-02 0. -1.
        2   -1    0    0  501    0  0.00000000000E+00  0.00000000000E+00 -0.36865924588E+03  0.36865924588E+03  0.25500000920E-02 0.  1.
    10030    2    1    2    0    0  0.00000000000E+00  0.00000000000E+00  0.44753036711E+03  0.11848488589E+04  0.10970794816E+04 0.  0.
        3    1    3    3  502    0  0.29502953130E+03  0.29413780823E+03 -0.16162538457E+03  0.44685819865E+03  0.10100000352E+00 0.  1.
       -3    1    3    3    0  502 -0.29502953130E+03 -0.29413780823E+03  0.60915575168E+03  0.73799066022E+03  0.10100000352E+00 0. -1.
</event>
<event>
 5   0  0.8341767E-04  0.1102138E+04  0.7818609E-02  0.9203111E-01
        1   -1    0    0  501    0  0.00000000000E+00  0.00000000000E+00  0.12669068257E+04  0.12669068257E+04  0.50400001928E-02 0. -1.
       -1   -1    0    0    0  501  0.00000000000E+00  0.00000000000E+00 -0.23969939999E+03  0.23969940004E+03  0.50400001928E-02 0.  1.
    10030    2    1    2    0    0  0.00000000000E+00  0.00000000000E+00  0.10272074257E+04  0.15066062257E+04  0.11021375704E+04 0.  0.
        2    1    3    3  502    0 -0.48019753852E+03 -0.19456743471E+03  0.77018456168E+03  0.92824049777E+03  0.25500000920E-02 0. -1.
       -2    1    3    3    0  502  0.48019753852E+03  0.19456743471E+03  0.25702286402E+03  0.57836572796E+03  0.25500000920E-02 0.  1.
</event>
<event>
 5   0  0.8009636E-04  0.1103126E+04  0.7818609E-02  0.9202151E-01
        1   -1    0    0  501    0  0.00000000000E+00  0.00000000000E+00  0.76977315705E+03  0.76977315707E+03  0.50400001928E-02 0.  1.
       -1   -1    0    0    0  501  0.00000000000E+00  0.00000000000E+00 -0.39520936528E+03  0.39520936531E+03  0.50400001928E-02 0. -1.
    10030    2    1    2    0    0  0.00000000000E+00  0.00000000000E+00  0.37456379177E+03  0.11649825224E+04  0.11031256698E+04 0.  0.
        1    1    3    3  502    0 -0.43165408169E+03 -0.26200223535E+03  0.42165219655E+03  0.65784572086E+03  0.50400001928E-02 0.  1.
       -1    1    3    3    0  502  0.43165408169E+03  0.26200223535E+03 -0.47088404777E+02  0.50713680152E+03  0.50400001928E-02 0. -1.
</event>
<event>
 5   0  0.8150924E-04  0.1096982E+04  0.7818609E-02  0.9208139E-01
       -1   -1    0    0    0  501  0.00000000000E+00  0.00000000000E+00  0.14675714009E+04  0.14675714009E+04  0.50400001928E-02 0.  1.
        1   -1    0    0  501    0  0.00000000000E+00  0.00000000000E+00 -0.20499327610E+03  0.20499327616E+03  0.50400001928E-02 0. -1.
    10030    2    1    2    0    0  0.00000000000E+00  0.00000000000E+00  0.12625781248E+04  0.16725646770E+04  0.10969818037E+04 0.  0.
        3    1    3    3  502    0  0.18789751674E+03  0.49752276509E+03  0.83589338218E+03  0.99073313014E+03  0.10100000352E+00 0.  1.
       -3    1    3    3    0  502 -0.18789751674E+03 -0.49752276509E+03  0.42668474258E+03  0.68183154689E+03  0.10100000352E+00 0. -1.
</event>
<event>
 5   0  0.8150924E-04  0.1132458E+04  0.7818609E-02  0.9174122E-01
       -1   -1    0    0    0  501  0.00000000000E+00  0.00000000000E+00  0.34304807901E+03  0.34304807904E+03  0.50400001928E-02 0. -1.
        1   -1    0    0  501    0  0.00000000000E+00  0.00000000000E+00 -0.93460662471E+03  0.93460662473E+03  0.50400001928E-02 0.  1.
    10030    2    1    2    0    0  0.00000000000E+00  0.00000000000E+00 -0.59155854571E+03  0.12776547038E+04  0.11324575176E+04 0.  0.
        3    1    3    3  502    0  0.45190893027E+02 -0.39383450753E+03  0.16036984473E+03  0.42762873317E+03  0.10100000352E+00 0. -1.
       -3    1    3    3    0  502 -0.45190893027E+02  0.39383450753E+03 -0.75192839044E+03  0.85002597059E+03  0.10100000352E+00 0.  1.
</event>
<event>
 5   0  0.1396936E-03  0.1095271E+04  0.7818609E-02  0.9209813E-01
       -2   -1    0    0    0  501  0.00000000000E+00  0.00000000000E+00  0.12928432042E+03  0.12928432044E+03  0.25500000920E-02 0. -1.
        2   -1    0    0  501    0  0.00000000000E+00  0.00000000000E+00 -0.23197298334E+04  0.23197298334E+04  0.25500000920E-02 0.  1.
    10030    2    1    2    0    0  0.00000000000E+00  0.00000000000E+00 -0.21904455130E+04  0.24490141539E+04  0.10952710990E+04 0.  0.
        2    1    3    3  502    0 -0.75755403676E+02 -0.12393619465E+02  0.11719517766E+03  0.14009708299E+03  0.25500000920E-02 0. -1.
       -2    1    3    3    0  502  0.75755403676E+02  0.12393619465E+02 -0.23076406907E+04  0.23089170709E+04  0.25500000920E-02 0.  1.
</event>
<event>
 5   0  0.8305271E-04  0.1103491E+04  0.7818609E-02  0.9201796E-01
        1   -1    0    0  501    0  0.00000000000E+00  0.00000000000E+00  0.22376480317E+04  0.22376480317E+04  0.50400001928E-02 0. -1.
       -1   -1    0    0    0  501  0.00000000000E+00  0.00000000000E+00 -0.13604590174E+03  0.13604590184E+03  0.50400001928E-02 0.  1.
    10030    2    1    2    0    0  0.00000000000E+00  0.00000000000E+00  0.21016021300E+04  0.23736939335E+04  0.11034905425E+04 0.  0.
        5    1    3    3  502    0 -0.49709894747E+03  0.11080582158E+03  0.15071919415E+04  0.15909226669E+04  0.46999998093E+01 0. -1.
       -5    1    3    3    0  502  0.49709894747E+03 -0.11080582158E+03  0.59441018848E+03  0.78277126662E+03  0.46999998093E+01 0.  1.
</event>
<event>
 5   0  0.1402775E-03  0.1099710E+04  0.7818609E-02  0.9205475E-01
       -2   -1    0    0    0  501  0.00000000000E+00  0.00000000000E+00  0.59834299585E+03  0.59834299586E+03  0.25500000920E-02 0. -1.
        2   -1    0    0  501    0  0.00000000000E+00  0.00000000000E+00 -0.50529590694E+03  0.50529590694E+03  0.25500000920E-02 0.  1.
    10030    2    1    2    0    0  0.00000000000E+00  0.00000000000E+00  0.93047088918E+02  0.11036389028E+04  0.10997095376E+04 0.  0.
        5    1    3    3  502    0 -0.18083602906E+03 -0.39178651848E+03 -0.29545763612E+03  0.52298723714E+03  0.46999998093E+01 0.  1.
       -5    1    3    3    0  502  0.18083602906E+03  0.39178651848E+03  0.38850472504E+03  0.58065166567E+03  0.46999998093E+01 0. -1.
</event>
<event>
 5   0  0.8341767E-04  0.1101460E+04  0.7818609E-02  0.9203770E-01
       -1   -1    0    0    0  501  0.00000000000E+00  0.00000000000E+00  0.93567541956E+03  0.93567541957E+03  0.50400001928E-02 0. -1.
        1   -1    0    0  501    0  0.00000000000E+00  0.00000000000E+00 -0.32415481370E+03  0.32415481374E+03  0.50400001928E-02 0.  1.
    10030    2    1    2    0    0  0.00000000000E+00  0.00000000000E+00  0.61152060586E+03  0.12598302333E+04  0.11014602877E+04 0.  0.
        2    1    3    3  502    0 -0.26159670689E+02  0.47917879844E+03  0.61480803385E+03  0.77992664254E+03  0.25500000920E-02 0. -1.
       -2    1    3    3    0  502  0.26159670689E+02 -0.47917879844E+03 -0.32874279913E+01  0.47990359077E+03  0.25500000920E-02 0.  1.
</event>
<event>
 5   0  0.5409500E-04  0.1097175E+04  0.7818609E-02  0.9207949E-01
        4   -1    0    0  501    0  0.00000000000E+00  0.00000000000E+00  0.37646357829E+03  0.37646572046E+03  0.12699999809E+01 0.  1.
       -4   -1    0    0    0  501  0.00000000000E+00  0.00000000000E+00 -0.79940413221E+03  0.79940514102E+03  0.12699999809E+01 0. -1.
    10030    2    1    2    0    0  0.00000000000E+00  0.00000000000E+00 -0.42294055391E+03  0.11758708615E+04  0.10971752689E+04 0.  0.
        4    1    3    3  502    0 -0.25610684757E+03 -0.38438687068E+03  0.10573660630E+03  0.47384156269E+03  0.12699999809E+01 0.  1.
       -4    1    3    3    0  502  0.25610684757E+03  0.38438687068E+03 -0.52867716021E+03  0.70202929879E+03  0.12699999809E+01 0. -1.
</event>
<event>
 5   0  0.8009636E-04  0.1105585E+04  0.7818609E-02  0.9199766E-01
       -1   -1    0    0    0  501  0.00000000000E+00  0.00000000000E+00  0.27312591155E+03  0.27312591159E+03  0.50400001928E-02 0.  1.
        1   -1    0    0  501    0  0.00000000000E+00  0.00000000000E+00 -0.11188221190E+04  0.11188221190E+04  0.50400001928E-02 0. -1.
    10030    2    1    2    0    0  0.00000000000E+00  0.00000000000E+00 -0.84569620747E+03  0.13919480306E+04  0.11055845714E+04 0.  0.
        1    1    3    3  502    0  0.52086327623E+03 -0.17764480316E+03 -0.35714869639E+03  0.65605748222E+03  0.50400001928E-02 0.  1.
       -1    1    3    3    0  502 -0.52086327623E+03  0.17764480316E+03 -0.48854751108E+03  0.73589054840E+03  0.50400001928E-02 0. -1.
</event>
<event>
 5   0  0.8341767E-04  0.1099298E+04  0.7818609E-02  0.9205876E-01
       -1   -1    0    0    0  501  0.00000000000E+00  0.00000000000E+00  0.19517684931E+03  0.19517684938E+03  0.50400001928E-02 0. -1.
        1   -1    0    0  501    0  0.00000000000E+00  0.00000000000E+00 -0.15478990418E+04  0.15478990418E+04  0.50400001928E-02 0.  1.
    10030    2    1    2    0    0  0.00000000000E+00  0.00000000000E+00 -0.13527221925E+04  0.17430758912E+04  0.10992980635E+04 0.  0.
        2    1    3    3  502    0  0.36807203497E+03  0.11453701912E+03 -0.12976318626E+04  0.13536780277E+04  0.25500000920E-02 0.  1.
       -2    1    3    3    0  502 -0.36807203497E+03 -0.11453701912E+03 -0.55090329876E+02  0.38939786354E+03  0.25500000920E-02 0. -1.
</event>
<event>
 5   0  0.1425432E-03  0.1158202E+04  0.7818609E-02  0.9150250E-01
        2   -1    0    0  501    0  0.00000000000E+00  0.00000000000E+00  0.11689931525E+04  0.11689931525E+04  0.25500000920E-02 0.  1.
       -2   -1    0    0    0  501  0.00000000000E+00  0.00000000000E+00 -0.28687753045E+03  0.28687753046E+03  0.25500000920E-02 0. -1.
    10030    2    1    2    0    0  0.00000000000E+00  0.00000000000E+00  0.88211562203E+03  0.14558706829E+04  0.11582018282E+04 0.  0.
        1    1    3    3  502    0  0.53884596655E+02 -0.13360106411E+03  0.11461102452E+04  0.11551283428E+04  0.50400001928E-02 0.  1.
       -1    1    3    3    0  502 -0.53884596655E+02  0.13360106411E+03 -0.26399462317E+03  0.30074234018E+03  0.50400001928E-02 0. -1.
</event>
<event>
 5   0  0.1425432E-03  0.1100392E+04  0.7818609E-02  0.9204810E-01
       -2   -1    0    0    0  501  0.00000000000E+00  0.00000000000E+00  0.69995051850E+03  0.69995051851E+03  0.25500000920E-02 0.  1.
        2   -1    0    0  501    0  0.00000000000E+00  0.00000000000E+00 -0.43248120443E+03  0.43248120443E+03  0.25500000920E-02 0. -1.
    10030    2    1    2    0    0  0.00000000000E+00  0.00000000000E+00  0.26746931407E+03  0.11324317229E+04  0.11003916453E+04 0.  0.
        1    1    3    3  502    0  0.50810006324E+03 -0.20828375401E+03  0.16890045626E+03  0.57452167983E+03  0.50400001928E-02 0.  1.
       -1    1    3    3    0  502 -0.50810006324E+03  0.20828375401E+03  0.98568857814E+02  0.55791004311E+03  0.50400001928E-02 0. -1.
</event>
<event>
 5   0  0.5409500E-04  0.1096379E+04  0.7818609E-02  0.9208728E-01
        3   -1    0    0  501    0  0.00000000000E+00  0.00000000000E+00  0.32248242308E+03  0.32248243889E+03  0.10100000352E+00 0.  1.
       -3   -1    0    0    0  501  0.00000000000E+00  0.00000000000E+00 -0.93186981804E+03  0.93186982352E+03  0.10100000352E+00 0. -1.
    10030    2    1    2    0    0  0.00000000000E+00  0.00000000000E+00 -0.60938739497E+03  0.12543522624E+04  0.10963788584E+04 0.  0.
        4    1    3    3  502    0 -0.10487324234E+03 -0.28497923183E+03 -0.82685166983E+03  0.88085007597E+03  0.12699999809E+01 0. -1.
       -4    1    3    3    0  502  0.10487324234E+03  0.28497923183E+03  0.21746427487E+03  0.37350218644E+03  0.12699999809E+01 0.  1.
</event>
<event>
 5   0  0.7946038E-04  0.1098661E+04  0.7818609E-02  0.9206498E-01
       -1   -1    0    0    0  501  0.00000000000E+00  0.00000000000E+00  0.70837135888E+03  0.70837135890E+03  0.50400001928E-02 0. -1.
        1   -1    0    0  501    0  0.00000000000E+00  0.00000000000E+00 -0.42599668416E+03  0.42599668419E+03  0.50400001928E-02 0.  1.
    10030    2    1    2    0    0  0.00000000000E+00  0.00000000000E+00  0.28237467472E+03  0.11343680431E+04  0.10986607303E+04 0.  0.
        4    1    3    3  502    0 -0.41793151438E+03 -0.34369093036E+03  0.23898664053E+03  0.59152889496E+03  0.12699999809E+01 0.  1.
       -4    1    3    3    0  502  0.41793151438E+03  0.34369093036E+03  0.43388034190E+02  0.54283914812E+03  0.12699999809E+01 0. -1.
</event>
<event>
 5   0  0.1402775E-03  0.1103043E+04  0.7818609E-02  0.9202231E-01
        2   -1    0    0  501    0  0.00000000000E+00  0.00000000000E+00  0.16038409001E+04  0.16038409001E+04  0.25500000920E-02 0.  1.
       -2   -1    0    0    0  501  0.00000000000E+00  0.00000000000E+00 -0.18965477241E+03  0.18965477242E+03  0.25500000920E-02 0. -1.
    10030    2    1    2    0    0  0.00000000000E+00  0.00000000000E+00  0.14141861277E+04  0.17934956726E+04  0.11030432102E+04 0.  0.
        5    1    3    3  502    0 -0.10087387898E+03  0.17646429954E+03  0.15406831623E+04  0.15540405030E+04  0.46999998093E+01 0.  1.
       -5    1    3    3    0  502  0.10087387898E+03 -0.17646429954E+03 -0.12649703456E+03  0.23945516954E+03  0.46999998093E+01 0. -1.
</event>
<event>
 5   0  0.8305271E-04  0.1098405E+04  0.7818609E-02  0.9206748E-01
        1   -1    0    0  501    0  0.00000000000E+00  0.00000000000E+00  0.85825007454E+03  0.85825007456E+03  0.50400001928E-02 0.  1.
       -1   -1    0    0    0  501  0.00000000000E+00  0.00000000000E+00 -0.35143968760E+03  0.35143968764E+03  0.50400001928E-02 0. -1.
    10030    2    1    2    0    0  0.00000000000E+00  0.00000000000E+00  0.50681038694E+03  0.12096897622E+04  0.10984045486E+04 0.  0.
        5    1    3    3  502    0  0.36441087601E+03 -0.40424577575E+03  0.33426839914E+03  0.63872324714E+03  0.46999998093E+01 0.  1.
       -5    1    3    3    0  502 -0.36441087601E+03  0.40424577575E+03  0.17254198780E+03  0.57096651506E+03  0.46999998093E+01 0. -1.
</event>
<event>
 5   0  0.8341767E-04  0.1111812E+04  0.7818609E-02  0.9193755E-01
        1   -1    0    0  501    0  0.00000000000E+00  0.00000000000E+00  0.94672808288E+03  0.94672808289E+03  0.50400001928E-02 0. -1.
       -1   -1    0    0    0  501  0.00000000000E+00  0.00000000000E+00 -0.32642062645E+03  0.32642062649E+03  0.50400001928E-02 0.  1.
    10030    2    1    2    0    0  0.00000000000E+00  0.00000000000E+00  0.62030745642E+03  0.12731487094E+04  0.11118121675E+04 0.  0.
        2    1    3    3  502    0 -0.52132179965E+03 -0.18138197805E+03  0.23457869529E+03  0.59975245314E+03  0.25500000920E-02 0. -1.
       -2    1    3    3    0  502  0.52132179965E+03  0.18138197805E+03  0.38572876114E+03  0.67339625625E+03  0.25500000920E-02 0.  1.
</event>
<event>
 5   0  0.1402775E-03  0.1095459E+04  0.7818609E-02  0.9209630E-01
        2   -1    0    0  501    0  0.00000000000E+00  0.00000000000E+00  0.10109444920E+04  0.10109444920E+04  0.25500000920E-02 0.  1.
       -2   -1    0    0    0  501  0.00000000000E+00  0.00000000000E+00 -0.29675950302E+03  0.29675950303E+03  0.25500000920E-02 0. -1.
    10030    2    1    2    0    0  0.00000000000E+00  0.00000000000E+00  0.71418498896E+03  0.13077039950E+04  0.10954585981E+04 0.  0.
        5    1    3    3  502    0  0.28075634333E+03  0.35451972861E+03 -0.11768481766E+02  0.45240352503E+03  0.46999998093E+01 0. -1.
       -5    1    3    3    0  502 -0.28075634333E+03 -0.35451972861E+03  0.72595347073E+03  0.85530046999E+03  0.46999998093E+01 0.  1.
</event>
<event>
 5   0  0.1425432E-03  0.1099501E+04  0.7818609E-02  0.9205678E-01
        2   -1    0    0  501    0  0.00000000000E+00  0.00000000000E+00  0.18905414011E+04  0.18905414011E+04  0.25500000920E-02 0. -1.
       -2   -1    0    0    0  501  0.00000000000E+00  0.00000000000E+00 -0.15986206752E+03  0.15986206754E+03  0.25500000920E-02 0.  1.
    10030    2    1    2    0    0  0.00000000000E+00  0.00000000000E+00  0.17306793335E+04  0.20504034686E+04  0.10995014454E+04 0.  0.
        1    1    3    3  502    0 -0.34247295175E+03  0.41284499212E+03  0.64080428125E+03  0.83567866857E+03  0.50400001928E-02 0.  1.
       -1    1    3    3    0  502  0.34247295175E+03 -0.41284499212E+03  0.10898750523E+04  0.12147248000E+04  0.50400001928E-02 0. -1.
</event>
<event>
 5   0  0.8341767E-04  0.1100900E+04  0.7818609E-02  0.9204316E-01
        1   -1    0    0  501    0  0.00000000000E+00  0.00000000000E+00  0.48433473656E+03  0.48433473659E+03  0.50400001928E-02 0. -1.
       -1   -1    0    0    0  501  0.00000000000E+00  0.00000000000E+00 -0.62558994897E+03  0.62558994899E+03  0.50400001928E-02 0.  1.
    10030    2    1    2    0    0  0.00000000000E+00  0.00000000000E+00 -0.14125521241E+03  0.11099246856E+04  0.11008995289E+04 0.  0.
        2    1    3    3  502    0  0.55298348314E+02 -0.40718584257E+03  0.29862168873E+03  0.50796961593E+03  0.25500000920E-02 0. -1.
       -2    1    3    3    0  502 -0.55298348314E+02  0.40718584257E+03 -0.43987690114E+03  0.60195506965E+03  0.25500000920E-02 0.  1.
</event>
<event>
 5   0  0.8305271E-04  0.1091288E+04  0.7818609E-02  0.9213725E-01
       -1   -1    0    0    0  501  0.00000000000E+00  0.00000000000E+00  0.19240610868E+03  0.19240610874E+03  0.50400001928E-02 0. -1.
        1   -1    0    0  501    0  0.00000000000E+00  0.00000000000E+00 -0.15473902334E+04  0.15473902334E+04  0.50400001928E-02 0.  1.
    10030    2    1    2    0    0  0.00000000000E+00  0.00000000000E+00 -0.13549841247E+04  0.17397963421E+04  0.10912879244E+04 0.  0.
        5    1    3    3  502    0 -0.11259483926E+03  0.24279997320E+03  0.80537459791E+02  0.27953138865E+03  0.46999998093E+01 0. -1.
       -5    1    3    3    0  502  0.11259483926E+03 -0.24279997320E+03 -0.14355215845E+04  0.14602649535E+04  0.46999998093E+01 0.  1.
</event>
<event>
 5   0  0.8150924E-04  0.1100302E+04  0.7818609E-02  0.9204898E-01
       -1   -1    0    0    0  501  0.00000000000E+00  0.00000000000E+00  0.21194694290E+03  0.21194694296E+03  0.50400001928E-02 0.  1.
        1   -1    0    0  501    0  0.00000000000E+00  0.00000000000E+00 -0.14280266008E+04  0.14280266008E+04  0.50400001928E-02 0. -1.
    10030    2    1    2    0    0  0.00000000000E+00  0.00000000000E+00 -0.12160796579E+04  0.16399735438E+04  0.11003015450E+04 0.  0.
        3    1    3    3  502    0 -0.43355005400E+03 -0.13835435714E+03 -0.14729624922E+03  0.47833437332E+03  0.10100000352E+00 0.  1.
       -3    1    3    3    0  502  0.43355005400E+03  0.13835435714E+03 -0.10687834087E+04  0.11616391705E+04  0.10100000352E+00 0. -1.
</event>
<event>
 5   0  0.8150924E-04  0.1103006E+04  0.7818609E-02  0.9202267E-01
        1   -1    0    0  501    0  0.00000000000E+00  0.00000000000E+00  0.12751866047E+04  0.12751866047E+04  0.50400001928E-02 0. -1.
       -1   -1    0    0    0  501  0.00000000000E+00  0.00000000000E+00 -0.23851851725E+03  0.23851851730E+03  0.50400001928E-02 0.  1.
    10030    2    1    2    0    0  0.00000000000E+00  0.00000000000E+00  0.10366680875E+04  0.15137051220E+04  0.11030061074E+04 0.  0.
        3    1    3    3  502    0 -0.16921565078E+03  0.69163217368E+02  0.12323995730E+04  0.12458837044E+04  0.10100000352E+00 0. -1.
       -3    1    3    3    0  502  0.16921565078E+03 -0.69163217368E+02 -0.19573148555E+03  0.26782141764E+03  0.10100000352E+00 0.  1.
</event>
<event>
 5   0  0.8305271E-04  0.1087810E+04  0.7818609E-02  0.9217155E-01
        1   -1    0    0  501    0  0.00000000000E+00  0.00000000000E+00  0.50862171057E+03  0.50862171060E+03  0.50400001928E-02 0.  1.
       -1   -1    0    0    0  501  0.00000000000E+00  0.00000000000E+00 -0.58163631388E+03  0.58163631391E+03  0.50400001928E-02 0. -1.
    10030    2    1    2    0    0  0.00000000000E+00  0.00000000000E+00 -0.73014603311E+02  0.10902580245E+04  0.10878103822E+04 0.  0.
        5    1    3    3  502    0  0.16775663649E+03 -0.41783433422E+03  0.26927416164E+03  0.52465082109E+03  0.46999998093E+01 0.  1.
       -5    1    3    3    0  502 -0.16775663649E+03  0.41783433422E+03 -0.34228876495E+03  0.56560720341E+03  0.46999998093E+01 0. -1.
</event>
<event>
 5   0  0.7946038E-04  0.1092337E+04  0.7818609E-02  0.9212693E-01
        1   -1    0    0  501    0  0.00000000000E+00  0.00000000000E+00  0.82978251452E+03  0.82978251453E+03  0.50400001928E-02 0.  1.
       -1   -1    0    0    0  501  0.00000000000E+00  0.00000000000E+00 -0.35949171565E+03  0.35949171569E+03  0.50400001928E-02 0. -1.
    10030    2    1    2    0    0  0.00000000000E+00  0.00000000000E+00  0.47029079887E+03  0.11892742302E+04  0.10923368341E+04 0.  0.
        4    1    3    3  502    0  0.13803541825E+03  0.30408590709E+03  0.70567432542E+03  0.78070473423E+03  0.12699999809E+01 0.  1.
       -4    1    3    3    0  502 -0.13803541825E+03 -0.30408590709E+03 -0.23538352655E+03  0.40856949599E+03  0.12699999809E+01 0. -1.
</event>
<event>
 5   0  0.8305271E-04  0.1094375E+04  0.7818609E-02  0.9210692E-01
        1   -1    0    0  501    0  0.00000000000E+00  0.00000000000E+00  0.93338131980E+03  0.93338131982E+03  0.50400001928E-02 0. -1.
       -1   -1    0    0    0  501  0.00000000000E+00  0.00000000000E+00 -0.32078444554E+03  0.32078444558E+03  0.50400001928E-02 0.  1.
    10030    2    1    2    0    0  0.00000000000E+00  0.00000000000E+00  0.61259687426E+03  0.12541657654E+04  0.10943750896E+04 0.  0.
        5    1    3    3  502    0 -0.48525565754E+03  0.46995106154E+02  0.59098591635E+03  0.76613839252E+03  0.46999998093E+01 0. -1.
       -5    1    3    3    0  502  0.48525565754E+03 -0.46995106154E+02  0.21610957916E+02  0.48802737288E+03  0.46999998093E+01 0.  1.
</event>
<event>
 5   0  0.1372794E-03  0.1073097E+04  0.7818609E-02  0.9231818E-01
       -2   -1    0    0    0  501  0.00000000000E+00  0.00000000000E+00  0.50024985433E+03  0.50024985433E+03  0.25500000920E-02 0.  1.
        2   -1    0    0  501    0  0.00000000000E+00  0.00000000000E+00 -0.57548076441E+03  0.57548076442E+03  0.25500000920E-02 0. -1.
    10030    2    1    2    0    0  0.00000000000E+00  0.00000000000E+00 -0.75230910081E+02  0.10757306187E+04  0.10730967684E+04 0.  0.
        4    1    3    3  502    0  0.97588821462E+02 -0.47973288494E+02  0.48908591854E+03  0.50103060096E+03  0.12699999809E+01 0.  1.
       -4    1    3    3    0  502 -0.97588821462E+02  0.47973288494E+02 -0.56431682862E+03  0.57470001779E+03  0.12699999809E+01 0. -1.
</event>
<event>
 5   0  0.8150924E-04  0.1093638E+04  0.7818609E-02  0.9211415E-01
        1   -1    0    0  501    0  0.00000000000E+00  0.00000000000E+00  0.10605315473E+04  0.10605315473E+04  0.50400001928E-02 0.  1.
       -1   -1    0    0    0  501  0.00000000000E+00  0.00000000000E+00 -0.28194423482E+03  0.28194423486E+03  0.50400001928E-02 0. -1.
    10030    2    1    2    0    0  0.00000000000E+00  0.00000000000E+00  0.77858731246E+03  0.13424757822E+04  0.10936375188E+04 0.  0.
        3    1    3    3  502    0 -0.52544235547E+03  0.14706030621E+03  0.43345657048E+03  0.69685078121E+03  0.10100000352E+00 0. -1.
       -3    1    3    3    0  502  0.52544235547E+03 -0.14706030621E+03  0.34513074199E+03  0.64562500095E+03  0.10100000352E+00 0.  1.
</event>
<event>
 5   0  0.1429680E-03  0.1103400E+04  0.7818609E-02  0.9201884E-01
       -2   -1    0    0    0  501  0.00000000000E+00  0.00000000000E+00  0.79613170707E+03  0.79613170707E+03  0.25500000920E-02 0. -1.
        2   -1    0    0  501    0  0.00000000000E+00  0.00000000000E+00 -0.38231468242E+03  0.38231468243E+03  0.25500000920E-02 0.  1.
    10030    2    1    2    0    0  0.00000000000E+00  0.00000000000E+00  0.41381702464E+03  0.11784463895E+04  0.11033999108E+04 0.  0.
        3    1    3    3  502    0 -0.14343874866E+03  0.45098117076E+03 -0.95952308703E+02  0.48287218468E+03  0.10100000352E+00 0.  1.
       -3    1    3    3    0  502  0.14343874866E+03 -0.45098117076E+03  0.50976933334E+03  0.69557420482E+03  0.10100000352E+00 0. -1.
</event>
<event>
 5   0  0.1429680E-03  0.1118659E+04  0.7818609E-02  0.9187194E-01
        2   -1    0    0  501    0  0.00000000000E+00  0.00000000000E+00  0.11248096706E+04  0.11248096706E+04  0.25500000920E-02 0.  1.
       -2   -1    0    0    0  501  0.00000000000E+00  0.00000000000E+00 -0.27813533366E+03  0.27813533367E+03  0.25500000920E-02 0. -1.
    10030    2    1    2    0    0  0.00000000000E+00  0.00000000000E+00  0.84667433691E+03  0.14029450043E+04  0.11186586844E+04 0.  0.
        3    1    3    3  502    0 -0.27010814248E+03 -0.46117217023E+03  0.21645822670E+03  0.57662149920E+03  0.10100000352E+00 0. -1.
       -3    1    3    3    0  502  0.27010814248E+03  0.46117217023E+03  0.63021611022E+03  0.82632350505E+03  0.10100000352E+00 0.  1.
</event>
<event>
 5   0  0.5409500E-04  0.1100822E+04  0.7818609E-02  0.9204391E-01
        4   -1    0    0  501    0  0.00000000000E+00  0.00000000000E+00  0.51990075435E+03  0.51990230551E+03  0.12699999809E+01 0.  1.
       -4   -1    0    0    0  501  0.00000000000E+00  0.00000000000E+00 -0.58270836818E+03  0.58270975215E+03  0.12699999809E+01 0. -1.
    10030    2    1    2    0    0  0.00000000000E+00  0.00000000000E+00 -0.62807613829E+02  0.11026120577E+04  0.11008217628E+04 0.  0.
        4    1    3    3  502    0 -0.27845720424E+03  0.47390315576E+03 -0.60224023718E+02  0.55294770238E+03  0.12699999809E+01 0.  1.
       -4    1    3    3    0  502  0.27845720424E+03 -0.47390315576E+03 -0.25835901114E+01  0.54966435528E+03  0.12699999809E+01 0. -1.
</event>
<event>
 5   0  0.1402775E-03  0.1110006E+04  0.7818609E-02  0.9195494E-01
        2   -1    0    0  501    0  0.00000000000E+00  0.00000000000E+00  0.16171491076E+04  0.16171491076E+04  0.25500000920E-02 0.  1.
       -2   -1    0    0    0  501  0.00000000000E+00  0.00000000000E+00 -0.19047620183E+03  0.19047620184E+03  0.25500000920E-02 0. -1.
    10030    2    1    2    0    0  0.00000000000E+00  0.00000000000E+00  0.14266729058E+04  0.18076253095E+04  0.11100061618E+04 0.  0.
        5    1    3    3  502    0 -0.13650457134E+03 -0.25241256162E+03  0.14869267587E+04  0.15143707851E+04  0.46999998093E+01 0.  1.
       -5    1    3    3    0  502  0.13650457134E+03  0.25241256162E+03 -0.60253852857E+02  0.29325452434E+03  0.46999998093E+01 0. -1.
</event>
<event>
 5   0  0.8305271E-04  0.1103754E+04  0.7818609E-02  0.9201540E-01
        1   -1    0    0  501    0  0.00000000000E+00  0.00000000000E+00  0.28921745612E+03  0.28921745616E+03  0.50400001928E-02 0.  1.
       -1   -1    0    0    0  501  0.00000000000E+00  0.00000000000E+00 -0.10530776100E+04  0.10530776101E+04  0.50400001928E-02 0. -1.
    10030    2    1    2    0    0  0.00000000000E+00  0.00000000000E+00 -0.76386015392E+03  0.13422950662E+04  0.11037543703E+04 0.  0.
        5    1    3    3  502    0  0.36296885541E+03 -0.29513832250E+03 -0.73792928953E+03  0.87373608472E+03  0.46999998093E+01 0. -1.
       -5    1    3    3    0  502 -0.36296885541E+03  0.29513832250E+03 -0.25930864392E+02  0.46855898149E+03  0.46999998093E+01 0.  1.
</event>
<event>
 5   0  0.8341767E-04  0.1099600E+04  0.7818609E-02  0.9205581E-01
        1   -1    0    0  501    0  0.00000000000E+00  0.00000000000E+00  0.60887916451E+03  0.60887916453E+03  0.50400001928E-02 0.  1.
       -1   -1    0    0    0  501  0.00000000000E+00  0.00000000000E+00 -0.49645362982E+03  0.49645362985E+03  0.50400001928E-02 0. -1.
    10030    2    1    2    0    0  0.00000000000E+00  0.00000000000E+00  0.11242553468E+03  0.11053327944E+04  0.10996004208E+04 0.  0.
        2    1    3    3  502    0  0.29189207639E+03  0.20676970213E+03  0.47591252088E+03  0.59535487023E+03  0.25500000920E-02 0.  1.
       -2    1    3    3    0  502 -0.29189207639E+03 -0.20676970213E+03 -0.36348698619E+03  0.50997792414E+03  0.25500000920E-02 0. -1.
</event>
<event>
 5   0  0.1402775E-03  0.1096322E+04  0.7818609E-02  0.9208784E-01
        2   -1    0    0  501    0  0.00000000000E+00  0.00000000000E+00  0.68816982218E+03  0.68816982218E+03  0.25500000920E-02 0.  1.
       -2   -1    0    0    0  501  0.00000000000E+00  0.00000000000E+00 -0.43663693103E+03  0.43663693103E+03  0.25500000920E-02 0. -1.
    10030    2    1    2    0    0  0.00000000000E+00  0.00000000000E+00  0.25153289115E+03  0.11248067532E+04  0.10963217761E+04 0.  0.
        5    1    3    3  502    0  0.59058274762E+02 -0.16011704924E+03 -0.40866391098E+03  0.44289234743E+03  0.46999998093E+01 0. -1.
       -5    1    3    3    0  502 -0.59058274762E+02  0.16011704924E+03  0.66019680213E+03  0.68191440579E+03  0.46999998093E+01 0.  1.
</event>
<event>
 5   0  0.1425432E-03  0.1102647E+04  0.7818609E-02  0.9202616E-01
       -2   -1    0    0    0  501  0.00000000000E+00  0.00000000000E+00  0.27316603190E+03  0.27316603191E+03  0.25500000920E-02 0. -1.
        2   -1    0    0  501    0  0.00000000000E+00  0.00000000000E+00 -0.11127212197E+04  0.11127212197E+04  0.25500000920E-02 0.  1.
    10030    2    1    2    0    0  0.00000000000E+00  0.00000000000E+00 -0.83955518777E+03  0.13858872516E+04  0.11026470699E+04 0.  0.
        1    1    3    3  502    0 -0.21301652721E+03  0.47192139589E+03 -0.65782745312E+03  0.83715160089E+03  0.50400001928E-02 0. -1.
       -1    1    3    3    0  502  0.21301652721E+03 -0.47192139589E+03 -0.18172773464E+03  0.54873565068E+03  0.50400001928E-02 0.  1.
</event>
<event>
 5   0  0.8341767E-04  0.1112170E+04  0.7818609E-02  0.9193411E-01
        1   -1    0    0  501    0  0.00000000000E+00  0.00000000000E+00  0.33225399487E+03  0.33225399491E+03  0.50400001928E-02 0. -1.
       -1   -1    0    0    0  501  0.00000000000E+00  0.00000000000E+00 -0.93070550275E+03  0.93070550276E+03  0.50400001928E-02 0.  1.
    10030    2    1    2    0    0  0.00000000000E+00  0.00000000000E+00 -0.59845150788E+03  0.12629594977E+04  0.11121701693E+04 0.  0.
        2    1    3    3  502    0  0.51987593757E+03 -0.16895692648E+03 -0.41510616669E+03  0.68638951267E+03  0.25500000920E-02 0.  1.
       -2    1    3    3    0  502 -0.51987593757E+03  0.16895692648E+03 -0.18334534119E+03  0.57656998501E+03  0.25500000920E-02 0. -1.
</event>
<event>
 5   0  0.1425432E-03  0.1088633E+04  0.7818609E-02  0.9216342E-01
       -2   -1    0    0    0  501  0.00000000000E+00  0.00000000000E+00  0.29336788776E+03  0.29336788777E+03  0.25500000920E-02 0.  1.
        2   -1    0    0  501    0  0.00000000000E+00  0.00000000000E+00 -0.10099278091E+04  0.10099278091E+04  0.25500000920E-02 0. -1.
    10030    2    1    2    0    0  0.00000000000E+00  0.00000000000E+00 -0.71655992137E+03  0.13032956969E+04  0.10886328824E+04 0.  0.
        1    1    3    3  502    0 -0.19348461273E+03  0.35492446734E+03  0.78114689786E+02  0.41171540858E+03  0.50400001928E-02 0.  1.
       -1    1    3    3    0  502  0.19348461273E+03 -0.35492446734E+03 -0.79467461116E+03  0.89158028832E+03  0.50400001928E-02 0. -1.
</event>
<event>
 5   0  0.7946038E-04  0.1094336E+04  0.7818609E-02  0.9210730E-01
        1   -1    0    0  501    0  0.00000000000E+00  0.00000000000E+00  0.16499395158E+04  0.16499395158E+04  0.50400001928E-02 0.  1.
       -1   -1    0    0    0  501  0.00000000000E+00  0.00000000000E+00 -0.18145697676E+03  0.18145697683E+03  0.50400001928E-02 0. -1.
    10030    2    1    2    0    0  0.00000000000E+00  0.00000000000E+00  0.14684825390E+04  0.18313964926E+04  0.10943363951E+04 0.  0.
        4    1    3    3  502    0  0.18312359108E+03 -0.42652150549E+03  0.24939152837E+03  0.52692750126E+03  0.12699999809E+01 0. -1.
       -4    1    3    3    0  502 -0.18312359108E+03  0.42652150549E+03  0.12190910106E+04  0.13044689913E+04  0.12699999809E+01 0.  1.
</event>
<event>
 5   0  0.1429680E-03  0.1097094E+04  0.7818609E-02  0.9208029E-01
       -2   -1    0    0    0  501  0.00000000000E+00  0.00000000000E+00  0.52537002289E+03  0.52537002289E+03  0.25500000920E-02 0.  1.
        2   -1    0    0  501    0  0.00000000000E+00  0.00000000000E+00 -0.57274670132E+03  0.57274670133E+03  0.25500000920E-02 0. -1.
    10030    2    1    2    0    0  0.00000000000E+00  0.00000000000E+00 -0.47376678434E+02  0.10981167242E+04  0.10970942486E+04 0.  0.
        3    1    3    3  502    0  0.37253774606E+03 -0.29838391227E+03 -0.29428564298E+03  0.56073289648E+03  0.10100000352E+00 0. -1.
       -3    1    3    3    0  502 -0.37253774606E+03  0.29838391227E+03  0.24690896454E+03  0.53738382773E+03  0.10100000352E+00 0.  1.
</event>
<event>
 5   0  0.7946038E-04  0.1170680E+04  0.7818609E-02  0.9138915E-01
        1   -1    0    0  501    0  0.00000000000E+00  0.00000000000E+00  0.51313804962E+03  0.51313804964E+03  0.50400001928E-02 0.  1.
       -1   -1    0    0    0  501  0.00000000000E+00  0.00000000000E+00 -0.66770115520E+03  0.66770115522E+03  0.50400001928E-02 0. -1.
    10030    2    1    2    0    0  0.00000000000E+00  0.00000000000E+00 -0.15456310558E+03  0.11808392049E+04  0.11706799196E+04 0.  0.
        4    1    3    3  502    0  0.57269950526E+03 -0.10996602871E+03 -0.12815738909E+03  0.59707887257E+03  0.12699999809E+01 0.  1.
       -4    1    3    3    0  502 -0.57269950526E+03  0.10996602871E+03 -0.26405716487E+02  0.58376033229E+03  0.12699999809E+01 0. -1.
</event>
<event>
 5   0  0.1429680E-03  0.1101526E+04  0.7818609E-02  0.9203706E-01
        2   -1    0    0  501    0  0.00000000000E+00  0.00000000000E+00  0.55548319499E+03  0.55548319500E+03  0.25500000920E-02 0.  1.
       -2   -1    0    0    0  501  0.00000000000E+00  0.00000000000E+00 -0.54608251965E+03  0.54608251966E+03  0.25500000920E-02 0. -1.
    10030    2    1    2    0    0  0.00000000000E+00  0.00000000000E+00  0.94006753431E+01  0.11015657147E+04  0.11015256016E+04 0.  0.
        3    1    3    3  502    0  0.26773668496E+03  0.58766090130E+02  0.48242398947E+03  0.55485971348E+03  0.10100000352E+00 0.  1.
       -3    1    3    3    0  502 -0.26773668496E+03 -0.58766090130E+02 -0.47302331413E+03  0.54670600118E+03  0.10100000352E+00 0. -1.
</event>
<event>
 5   0  0.1372794E-03  0.1102981E+04  0.7818609E-02  0.9202291E-01
        2   -1    0    0  501    0  0.00000000000E+00  0.00000000000E+00  0.85363775233E+03  0.85363775234E+03  0.25500000920E-02 0. -1.
       -2   -1    0    0    0  501  0.00000000000E+00  0.00000000000E+00 -0.35628913679E+03  0.35628913680E+03  0.25500000920E-02 0.  1.
    10030    2    1    2    0    0  0.00000000000E+00  0.00000000000E+00  0.49734861554E+03  0.12099268891E+04  0.11029811565E+04 0.  0.
        4    1    3    3  502    0 -0.37696317083E+03 -0.37691555375E+03  0.93642768219E+02  0.54123668368E+03  0.12699999809E+01 0.  1.
       -4    1    3    3    0  502  0.37696317083E+03  0.37691555375E+03  0.40370584732E+03  0.66869020546E+03  0.12699999809E+01 0. -1.
</event>
<event>
 5   0  0.1396936E-03  0.1103841E+04  0.7818609E-02  0.9201456E-01
        2   -1    0    0  501    0  0.00000000000E+00  0.00000000000E+00  0.11967856495E+04  0.11967856495E+04  0.25500000920E-02 0.  1.
       -2   -1    0    0    0  501  0.00000000000E+00  0.00000000000E+00 -0.25452882700E+03  0.25452882701E+03  0.25500000920E-02 0. -1.
    10030    2    1    2    0    0  0.00000000000E+00  0.00000000000E+00  0.94225682247E+03  0.14513144765E+04  0.11038413791E+04 0.  0.
        2    1    3    3  502    0 -0.20913290764E+03  0.48657765169E+03  0.67533139512E+03  0.85823474494E+03  0.25500000920E-02 0.  1.
       -2    1    3    3    0  502  0.20913290764E+03 -0.48657765169E+03  0.26692542734E+03  0.59307973153E+03  0.25500000920E-02 0. -1.
</event>
<event>
 5   0  0.1396936E-03  0.1043434E+04  0.7818609E-02  0.9262149E-01
        2   -1    0    0  501    0  0.00000000000E+00  0.00000000000E+00  0.60245871839E+03  0.60245871839E+03  0.25500000920E-02 0. -1.
       -2   -1    0    0    0  501  0.00000000000E+00  0.00000000000E+00 -0.45179628788E+03  0.45179628789E+03  0.25500000920E-02 0.  1.
    10030    2    1    2    0    0  0.00000000000E+00  0.00000000000E+00  0.15066243051E+03  0.10542550063E+04  0.10434339703E+04 0.  0.
        2    1    3    3  502    0 -0.45754421821E+03  0.19905645551E+03 -0.78624959203E+02  0.50512579454E+03  0.25500000920E-02 0.  1.
       -2    1    3    3    0  502  0.45754421821E+03 -0.19905645551E+03  0.22928738971E+03  0.54912921174E+03  0.25500000920E-02 0. -1.
</event>
<event>
 5   0  0.7946038E-04  0.1100655E+04  0.7818609E-02  0.9204554E-01
        1   -1    0    0  501    0  0.00000000000E+00  0.00000000000E+00  0.91632062852E+03  0.91632062853E+03  0.50400001928E-02 0.  1.
       -1   -1    0    0    0  501  0.00000000000E+00  0.00000000000E+00 -0.33051767709E+03  0.33051767713E+03  0.50400001928E-02 0. -1.
    10030    2    1    2    0    0  0.00000000000E+00  0.00000000000E+00  0.58580295143E+03  0.12468383057E+04  0.11006546518E+04 0.  0.
        4    1    3    3  502    0 -0.41789887171E+03  0.34343043344E+03  0.40772794569E+03  0.67736815705E+03  0.12699999809E+01 0.  1.
       -4    1    3    3    0  502  0.41789887171E+03 -0.34343043344E+03  0.17807500574E+03  0.56947014861E+03  0.12699999809E+01 0. -1.
</event>
<event>
 5   0  0.1396936E-03  0.1101713E+04  0.7818609E-02  0.9203524E-01
       -2   -1    0    0    0  501  0.00000000000E+00  0.00000000000E+00  0.42773606211E+03  0.42773606212E+03  0.25500000920E-02 0.  1.
        2   -1    0    0  501    0  0.00000000000E+00  0.00000000000E+00 -0.70941653877E+03  0.70941653878E+03  0.25500000920E-02 0. -1.
    10030    2    1    2    0    0  0.00000000000E+00  0.00000000000E+00 -0.28168047666E+03  0.11371526009E+04  0.11017132779E+04 0.  0.
        2    1    3    3  502    0  0.26210527722E+03  0.48409599733E+03 -0.12032824460E+03  0.56349533931E+03  0.25500000920E-02 0.  1.
       -2    1    3    3    0  502 -0.26210527722E+03 -0.48409599733E+03 -0.16135223205E+03  0.57365726158E+03  0.25500000920E-02 0. -1.
</event>
<event>
 5   0  0.1402775E-03  0.1085044E+04  0.7818609E-02  0.9219893E-01
        2   -1    0    0  501    0  0.00000000000E+00  0.00000000000E+00  0.11697672278E+04  0.11697672278E+04  0.25500000920E-02 0.  1.
       -2   -1    0    0    0  501  0.00000000000E+00  0.00000000000E+00 -0.25161413268E+03  0.25161413269E+03  0.25500000920E-02 0. -1.
    10030    2    1    2    0    0  0.00000000000E+00  0.00000000000E+00  0.91815309515E+03  0.14213813605E+04  0.10850437161E+04 0.  0.
        5    1    3    3  502    0 -0.33654321618E+03  0.22400344719E+03 -0.14818057630E+02  0.40457452409E+03  0.46999998093E+01 0.  1.
       -5    1    3    3    0  502  0.33654321618E+03 -0.22400344719E+03  0.93297115278E+03  0.10168068364E+04  0.46999998093E+01 0. -1.
</event>
<event>
 5   0  0.1402775E-03  0.1099461E+04  0.7818609E-02  0.9205717E-01
       -2   -1    0    0    0  501  0.00000000000E+00  0.00000000000E+00  0.34440364016E+03  0.34440364017E+03  0.25500000920E-02 0. -1.
        2   -1    0    0  501    0  0.00000000000E+00  0.00000000000E+00 -0.87746969854E+03  0.87746969854E+03  0.25500000920E-02 0.  1.
    10030    2    1    2    0    0  0.00000000000E+00  0.00000000000E+00 -0.53306605838E+03  0.12218733387E+04  0.10994612468E+04 0.  0.
        5    1    3    3  502    0 -0.37328902070E+03 -0.38904021665E+03 -0.38563139695E+03  0.66289565352E+03  0.46999998093E+01 0.  1.
       -5    1    3    3    0  502  0.37328902070E+03  0.38904021665E+03 -0.14743466143E+03  0.55897768519E+03  0.46999998093E+01 0. -1.
</event>
<event>
 5   0  0.1429680E-03  0.1103803E+04  0.7818609E-02  0.9201493E-01
       -2   -1    0    0    0  501  0.00000000000E+00  0.00000000000E+00  0.89068245333E+03  0.89068245334E+03  0.25500000920E-02 0. -1.
        2   -1    0    0  501    0  0.00000000000E+00  0.00000000000E+00 -0.34197955762E+03  0.34197955763E+03  0.25500000920E-02 0.  1.
    10030    2    1    2    0    0  0.00000000000E+00  0.00000000000E+00  0.54870289571E+03  0.12326620110E+04  0.11038028653E+04 0.  0.
        3    1    3    3  502    0  0.38074863285E+03  0.39003533537E+03  0.17765110368E+03  0.57328614940E+03  0.10100000352E+00 0.  1.
       -3    1    3    3    0  502 -0.38074863285E+03 -0.39003533537E+03  0.37105179202E+03  0.65937586157E+03  0.10100000352E+00 0. -1.
</event>
<event>
 5   0  0.8305271E-04  0.1100486E+04  0.7818609E-02  0.9204719E-01
        1   -1    0    0  501    0  0.00000000000E+00  0.00000000000E+00  0.93206394582E+03  0.93206394583E+03  0.50400001928E-02 0.  1.
       -1   -1    0    0    0  501  0.00000000000E+00  0.00000000000E+00 -0.32483518273E+03  0.32483518277E+03  0.50400001928E-02 0. -1.
    10030    2    1    2    0    0  0.00000000000E+00  0.00000000000E+00  0.60722876309E+03  0.12568991286E+04  0.11004856422E+04 0.  0.
        5    1    3    3  502    0 -0.44265396554E+03  0.30542779148E+03  0.17083011680E+03  0.56429928922E+03  0.46999998093E+01 0.  1.
       -5    1    3    3    0  502  0.44265396554E+03 -0.30542779148E+03  0.43639864630E+03  0.69259983938E+03  0.46999998093E+01 0. -1.
</event>
<event>
 5   0  0.8009636E-04  0.1103171E+04  0.7818609E-02  0.9202107E-01
       -1   -1    0    0    0  501  0.00000000000E+00  0.00000000000E+00  0.15948845838E+04  0.15948845838E+04  0.50400001928E-02 0.  1.
        1   -1    0    0  501    0  0.00000000000E+00  0.00000000000E+00 -0.19076386516E+03  0.19076386523E+03  0.50400001928E-02 0. -1.
    10030    2    1    2    0    0  0.00000000000E+00  0.00000000000E+00  0.14041207187E+04  0.17856484491E+04  0.11031706083E+04 0.  0.
        1    1    3    3  502    0 -0.46727491469E+02 -0.52554378553E+03  0.96238969473E+03  0.10975307073E+04  0.50400001928E-02 0. -1.
       -1    1    3    3    0  502  0.46727491469E+02  0.52554378553E+03  0.44173102395E+03  0.68811774175E+03  0.50400001928E-02 0.  1.
</event>
<event>
 5   0  0.1429680E-03  0.1105384E+04  0.7818609E-02  0.9199960E-01
       -2   -1    0    0    0  501  0.00000000000E+00  0.00000000000E+00  0.13973049394E+03  0.13973049396E+03  0.25500000920E-02 0. -1.
        2   -1    0    0  501    0  0.00000000000E+00  0.00000000000E+00 -0.21861263327E+04  0.21861263327E+04  0.25500000920E-02 0.  1.
    10030    2    1    2    0    0  0.00000000000E+00  0.00000000000E+00 -0.20463958388E+04  0.23258568267E+04  0.11053841184E+04 0.  0.
        3    1    3    3  502    0  0.37193716483E+03 -0.15359855620E+03 -0.22602174920E+03  0.46153614416E+03  0.10100000352E+00 0. -1.
       -3    1    3    3    0  502 -0.37193716483E+03  0.15359855620E+03 -0.18203740896E+04  0.18643206825E+04  0.10100000352E+00 0.  1.
</event>
<event>
 5   0  0.5409500E-04  0.1098468E+04  0.7818609E-02  0.9206687E-01
       -4   -1    0    0    0  501  0.00000000000E+00  0.00000000000E+00  0.72645758760E+03  0.72645869771E+03  0.12699999809E+01 0. -1.
        4   -1    0    0  501    0  0.00000000000E+00  0.00000000000E+00 -0.41524248856E+03  0.41524443067E+03  0.12699999809E+01 0.  1.
    10030    2    1    2    0    0  0.00000000000E+00  0.00000000000E+00  0.31121509904E+03  0.11417031284E+04  0.10984676579E+04 0.  0.
        5    1    3    3  502    0 -0.26550582632E+03 -0.42039871240E+03 -0.86826968153E+02  0.50476671205E+03  0.46999998093E+01 0.  1.
       -5    1    3    3    0  502  0.26550582632E+03  0.42039871240E+03  0.39804206719E+03  0.63693641633E+03  0.46999998093E+01 0. -1.
</event>
<event>
 5   0  0.1372794E-03  0.1094903E+04  0.7818609E-02  0.9210174E-01
       -2   -1    0    0    0  501  0.00000000000E+00  0.00000000000E+00  0.26633339489E+03  0.26633339491E+03  0.25500000920E-02 0.  1.
        2   -1    0    0  501    0  0.00000000000E+00  0.00000000000E+00 -0.11252937351E+04  0.11252937351E+04  0.25500000920E-02 0. -1.
    10030    2    1    2    0    0  0.00000000000E+00  0.00000000000E+00 -0.85896034024E+03  0.13916271300E+04  0.10949032848E+04 0.  0.
        4    1    3    3  502    0 -0.45820376759E+03  0.16560427990E+03 -0.74678926061E+03  0.89166769753E+03  0.12699999809E+01 0. -1.
       -4    1    3    3    0  502  0.45820376759E+03 -0.16560427990E+03 -0.11217107964E+03  0.49995943252E+03  0.12699999809E+01 0.  1.
</event>
<event>
 5   0  0.5409500E-04  0.1102599E+04  0.7818609E-02  0.9202663E-01
       -3   -1    0    0    0  501  0.00000000000E+00  0.00000000000E+00  0.31903495873E+03  0.31903497471E+03  0.10100000352E+00 0. -1.
        3   -1    0    0  501    0  0.00000000000E+00  0.00000000000E+00 -0.95265732985E+03  0.95265733521E+03  0.10100000352E+00 0.  1.
    10030    2    1    2    0    0  0.00000000000E+00  0.00000000000E+00 -0.63362237112E+03  0.12716923099E+04  0.11025987584E+04 0.  0.
        3    1    3    3  502    0  0.36592102156E+03 -0.40893573736E+03 -0.37788875346E+03  0.66627813374E+03  0.10100000352E+00 0.  1.
       -3    1    3    3    0  502 -0.36592102156E+03  0.40893573736E+03 -0.25573361766E+03  0.60541417618E+03  0.10100000352E+00 0. -1.
</event>
<event>
 5   0  0.7946038E-04  0.1099305E+04  0.7818609E-02  0.9205870E-01
       -1   -1    0    0    0  501  0.00000000000E+00  0.00000000000E+00  0.18289899614E+03  0.18289899621E+03  0.50400001928E-02 0. -1.
        1   -1    0    0  501    0  0.00000000000E+00  0.00000000000E+00 -0.16518280186E+04  0.16518280186E+04  0.50400001928E-02 0.  1.
    10030    2    1    2    0    0  0.00000000000E+00  0.00000000000E+00 -0.14689290225E+04  0.18347270149E+04  0.10993046647E+04 0.  0.
        4    1    3    3  502    0 -0.32713908735E+03  0.49016053940E+02 -0.14670982880E+04  0.15039287070E+04  0.12699999809E+01 0.  1.
       -4    1    3    3    0  502  0.32713908735E+03 -0.49016053940E+02 -0.18307344716E+01  0.33079830789E+03  0.12699999809E+01 0. -1.
</event>
<event>
 5   0  0.1372794E-03  0.1103088E+04  0.7818609E-02  0.9202187E-01
        2   -1    0    0  501    0  0.00000000000E+00  0.00000000000E+00  0.22716750890E+03  0.22716750891E+03  0.25500000920E-02 0.  1.
       -2   -1    0    0    0  501  0.00000000000E+00  0.00000000000E+00 -0.13391041978E+04  0.13391041978E+04  0.25500000920E-02 0. -1.
    10030    2    1    2    0    0  0.00000000000E+00  0.00000000000E+00 -0.11119366889E+04  0.15662717067E+04  0.11030883279E+04 0.  0.
        4    1    3    3  502    0  0.46642648986E+03  0.13317048389E+03 -0.18323173823E+03  0.51852052130E+03  0.12699999809E+01 0.  1.
       -4    1    3    3    0  502 -0.46642648986E+03 -0.13317048389E+03 -0.92870495067E+03  0.10477511854E+04  0.12699999809E+01 0. -1.
</event>
<event>
 5   0  0.1425432E-03  0.1092359E+04  0.7818609E-02  0.9212672E-01
        2   -1    0    0  501    0  0.00000000000E+00  0.00000000000E+00  0.88985003439E+03  0.88985003440E+03  0.25500000920E-02 0.  1.
       -2   -1    0    0    0  501  0.00000000000E+00  0.00000000000E+00 -0.33523845741E+03  0.33523845742E+03  0.25500000920E-02 0. -1.
    10030    2    1    2    0    0  0.00000000000E+00  0.00000000000E+00  0.55461157699E+03  0.12250884918E+04  0.10923588291E+04 0.  0.
        1    1    3    3  502    0  0.15273598302E+03 -0.18087487411E+03 -0.27470824825E+03  0.36264117565E+03  0.50400001928E-02 0. -1.
       -1    1    3    3    0  502 -0.15273598302E+03  0.18087487411E+03  0.82931982524E+03  0.86244731616E+03  0.50400001928E-02 0.  1.
</event>
<event>
 5   0  0.1396936E-03  0.1103979E+04  0.7818609E-02  0.9201322E-01
       -2   -1    0    0    0  501  0.00000000000E+00  0.00000000000E+00  0.22406637769E+03  0.22406637770E+03  0.25500000920E-02 0. -1.
        2   -1    0    0  501    0  0.00000000000E+00  0.00000000000E+00 -0.13598312843E+04  0.13598312843E+04  0.25500000920E-02 0.  1.
    10030    2    1    2    0    0  0.00000000000E+00  0.00000000000E+00 -0.11357649066E+04  0.15838976620E+04  0.11039791124E+04 0.  0.
        2    1    3    3  502    0  0.11791605672E+03  0.52837170499E+03 -0.72248355225E+03  0.90280858345E+03  0.25500000920E-02 0. -1.
       -2    1    3    3    0  502 -0.11791605672E+03 -0.52837170499E+03 -0.41328135437E+03  0.68108907857E+03  0.25500000920E-02 0.  1.
</event>
<event>
 5   0  0.8150924E-04  0.1098920E+04  0.7818609E-02  0.9206245E-01
       -1   -1    0    0    0  501  0.00000000000E+00  0.00000000000E+00  0.12906692405E+03  0.12906692415E+03  0.50400001928E-02 0. -1.
        1   -1    0    0  501    0  0.00000000000E+00  0.00000000000E+00 -0.23391456701E+04  0.23391456701E+04  0.50400001928E-02 0.  1.
    10030    2    1    2    0    0  0.00000000000E+00  0.00000000000E+00 -0.22100787461E+04  0.24682125943E+04  0.10989200821E+04 0.  0.
        3    1    3    3  502    0 -0.54591095758E+03  0.23403963781E+02 -0.97523863479E+03  0.11178805500E+04  0.10100000352E+00 0.  1.
       -3    1    3    3    0  502  0.54591095758E+03 -0.23403963781E+02 -0.12348401113E+04  0.13503320442E+04  0.10100000352E+00 0. -1.
</event>
<event>
 5   0  0.5409500E-04  0.1099646E+04  0.7818609E-02  0.9205537E-01
        3   -1    0    0  501    0  0.00000000000E+00  0.00000000000E+00  0.14725049993E+04  0.14725050027E+04  0.10100000352E+00 0.  1.
       -3   -1    0    0    0  501  0.00000000000E+00  0.00000000000E+00 -0.20530003002E+03  0.20530005486E+03  0.10100000352E+00 0. -1.
    10030    2    1    2    0    0  0.00000000000E+00  0.00000000000E+00  0.12672049692E+04  0.16778050576E+04  0.10996460236E+04 0.  0.
        1    1    3    3  502    0 -0.21906590027E+03  0.46916885639E+03  0.35145471272E+03  0.62580324351E+03  0.50400001928E-02 0. -1.
       -1    1    3    3    0  502  0.21906590027E+03 -0.46916885639E+03  0.91575025651E+03  0.10520018141E+04  0.50400001928E-02 0.  1.
</event>
<event>
 5   0  0.8009636E-04  0.1101456E+04  0.7818609E-02  0.9203774E-01
        1   -1    0    0  501    0  0.00000000000E+00  0.00000000000E+00  0.63082348707E+03  0.63082348709E+03  0.50400001928E-02 0.  1.
       -1   -1    0    0    0  501  0.00000000000E+00  0.00000000000E+00 -0.48080197881E+03  0.48080197884E+03  0.50400001928E-02 0. -1.
    10030    2    1    2    0    0  0.00000000000E+00  0.00000000000E+00  0.15002150826E+03  0.11116254659E+04  0.11014557293E+04 0.  0.
        1    1    3    3  502    0  0.42957796044E+03 -0.22313090923E+03  0.34006953021E+03  0.59158423927E+03  0.50400001928E-02 0.  1.
       -1    1    3    3    0  502 -0.42957796044E+03  0.22313090923E+03 -0.19004802195E+03  0.52004122666E+03  0.50400001928E-02 0. -1.
</event>
<event>
 5   0  0.8341767E-04  0.1100347E+04  0.7818609E-02  0.9204853E-01
       -1   -1    0    0    0  501  0.00000000000E+00  0.00000000000E+00  0.16116231040E+03  0.16116231047E+03  0.50400001928E-02 0.  1.
        1   -1    0    0  501    0  0.00000000000E+00  0.00000000000E+00 -0.18781755743E+04  0.18781755743E+04  0.50400001928E-02 0. -1.
    10030    2    1    2    0    0  0.00000000000E+00  0.00000000000E+00 -0.17170132639E+04  0.20393378848E+04  0.11003474269E+04 0.  0.
        2    1    3    3  502    0 -0.26568126274E+03 -0.43459260542E+03 -0.47314248644E+03  0.69521297351E+03  0.25500000920E-02 0.  1.
       -2    1    3    3    0  502  0.26568126274E+03  0.43459260542E+03 -0.12438707775E+04  0.13441249113E+04  0.25500000920E-02 0. -1.
</event>
<event>
 5   0  0.1396936E-03  0.1067733E+04  0.7818609E-02  0.9237225E-01
        2   -1    0    0  501    0  0.00000000000E+00  0.00000000000E+00  0.66145410068E+03  0.66145410068E+03  0.25500000920E-02 0.  1.
       -2   -1    0    0    0  501  0.00000000000E+00  0.00000000000E+00 -0.43088894563E+03  0.43088894564E+03  0.25500000920E-02 0. -1.
    10030    2    1    2    0    0  0.00000000000E+00  0.00000000000E+00  0.23056515505E+03  0.10923430463E+04  0.10677326632E+04 0.  0.
        2    1    3    3  502    0 -0.36831321771E+03  0.37327260919E+03  0.21772139303E+03  0.56779368797E+03  0.25500000920E-02 0.  1.
       -2    1    3    3    0  502  0.36831321771E+03 -0.37327260919E+03  0.12843762021E+02  0.52454935835E+03  0.25500000920E-02 0. -1.
</event>
<event>
 5   0  0.1402775E-03  0.1103888E+04  0.7818609E-02  0.9201410E-01
        2   -1    0    0  501    0  0.00000000000E+00  0.00000000000E+00  0.19399017248E+04  0.19399017248E+04  0.25500000920E-02 0.  1.
       -2   -1    0    0    0  501  0.00000000000E+00  0.00000000000E+00 -0.15704013622E+03  0.15704013624E+03  0.25500000920E-02 0. -1.
    10030    2    1    2    0    0  0.00000000000E+00  0.00000000000E+00  0.17828615886E+04  0.20969418611E+04  0.11038884566E+04 0.  0.
        5    1    3    3  502    0 -0.31688122294E+02 -0.44317078829E+03  0.15134312562E+04  0.15773080682E+04  0.46999998093E+01 0.  1.
       -5    1    3    3    0  502  0.31688122294E+02  0.44317078829E+03  0.26943033238E+03  0.51963379287E+03  0.46999998093E+01 0. -1.
</event>
<event>
 5   0  0.8009636E-04  0.1088734E+04  0.7818609E-02  0.9216243E-01
        1   -1    0    0  501    0  0.00000000000E+00  0.00000000000E+00  0.79831604024E+03  0.79831604025E+03  0.50400001928E-02 0.  1.
       -1   -1    0    0    0  501  0.00000000000E+00  0.00000000000E+00 -0.37120040981E+03  0.37120040985E+03  0.50400001928E-02 0. -1.
    10030    2    1    2    0    0  0.00000000000E+00  0.00000000000E+00  0.42711563042E+03  0.11695164501E+04  0.10887336521E+04 0.  0.
        1    1    3    3  502    0 -0.40025306994E+03  0.36854252424E+03  0.23244445327E+03  0.59165575806E+03  0.50400001928E-02 0. -1.
       -1    1    3    3    0  502  0.40025306994E+03 -0.36854252424E+03  0.19467117715E+03  0.57786069204E+03  0.50400001928E-02 0.  1.
</event>
<event>
 5   0  0.1425432E-03  0.1118792E+04  0.7818609E-02  0.9187067E-01
       -2   -1    0    0    0  501  0.00000000000E+00  0.00000000000E+00  0.27175492439E+03  0.27175492440E+03  0.25500000920E-02 0. -1.
        2   -1    0    0  501    0  0.00000000000E+00  0.00000000000E+00 -0.11514930831E+04  0.11514930831E+04  0.25500000920E-02 0.  1.
    10030    2    1    2    0    0  0.00000000000E+00  0.00000000000E+00 -0.87973815867E+03  0.14232480075E+04  0.11187920553E+04 0.  0.
        1    1    3    3  502    0 -0.30208066021E+03  0.31063249523E+03 -0.88995593604E+03  0.98983172331E+03  0.50400001928E-02 0.  1.
       -1    1    3    3    0  502  0.30208066021E+03 -0.31063249523E+03  0.10217777369E+02  0.43341628415E+03  0.50400001928E-02 0. -1.
</event>
<event>
 5   0  0.8009636E-04  0.1106243E+04  0.7818609E-02  0.9199128E-01
       -1   -1    0    0    0  501  0.00000000000E+00  0.00000000000E+00  0.57259123499E+03  0.57259123502E+03  0.50400001928E-02 0. -1.
        1   -1    0    0  501    0  0.00000000000E+00  0.00000000000E+00 -0.53431367586E+03  0.53431367589E+03  0.50400001928E-02 0.  1.
    10030    2    1    2    0    0  0.00000000000E+00  0.00000000000E+00  0.38277559132E+02  0.11069049109E+04  0.11062428803E+04 0.  0.
        1    1    3    3  502    0 -0.28697781710E+02 -0.42282056228E+03 -0.33652089133E+03  0.54115349106E+03  0.50400001928E-02 0.  1.
       -1    1    3    3    0  502  0.28697781710E+02  0.42282056228E+03  0.37479845046E+03  0.56575141984E+03  0.50400001928E-02 0. -1.
</event>
<event>
 5   0  0.1402775E-03  0.1096499E+04  0.7818609E-02  0.9208611E-01
        2   -1    0    0  501    0  0.00000000000E+00  0.00000000000E+00  0.78732919718E+03  0.78732919718E+03  0.25500000920E-02 0.  1.
       -2   -1    0    0    0  501  0.00000000000E+00  0.00000000000E+00 -0.38176826026E+03  0.38176826027E+03  0.25500000920E-02 0. -1.
    10030    2    1    2    0    0  0.00000000000E+00  0.00000000000E+00  0.40556093691E+03  0.11690974575E+04  0.10964986053E+04 0.  0.
        5    1    3    3  502    0 -0.33573800829E+03  0.47054237461E+02  0.66214377280E+03  0.74390226329E+03  0.46999998093E+01 0.  1.
       -5    1    3    3    0  502  0.33573800829E+03 -0.47054237461E+02 -0.25658283588E+03  0.42519519416E+03  0.46999998093E+01 0. -1.
</event>
<event>
 5   0  0.1372794E-03  0.1098465E+04  0.7818609E-02  0.9206689E-01
       -2   -1    0    0    0  501  0.00000000000E+00  0.00000000000E+00  0.42068763355E+03  0.42068763356E+03  0.25500000920E-02 0. -1.
        2   -1    0    0  501    0  0.00000000000E+00  0.00000000000E+00 -0.71705598453E+03  0.71705598454E+03  0.25500000920E-02 0.  1.
    10030    2    1    2    0    0  0.00000000000E+00  0.00000000000E+00 -0.29636835099E+03  0.11377436181E+04  0.10984654483E+04 0.  0.
        4    1    3    3  502    0  0.91569068817E+02  0.53441081511E+03 -0.23892478433E+03  0.59250863212E+03  0.12699999809E+01 0.  1.
       -4    1    3    3    0  502 -0.91569068817E+02 -0.53441081511E+03 -0.57443566658E+02  0.54523498597E+03  0.12699999809E+01 0. -1.
</event>
<event>
 5   0  0.1402775E-03  0.1098908E+04  0.7818609E-02  0.9206257E-01
        2   -1    0    0  501    0  0.00000000000E+00  0.00000000000E+00  0.16249746557E+04  0.16249746557E+04  0.25500000920E-02 0.  1.
       -2   -1    0    0    0  501  0.00000000000E+00  0.00000000000E+00 -0.18578740244E+03  0.18578740246E+03  0.25500000920E-02 0. -1.
    10030    2    1    2    0    0  0.00000000000E+00  0.00000000000E+00  0.14391872533E+04  0.18107620582E+04  0.10989082224E+04 0.  0.
        5    1    3    3  502    0  0.45598637893E+03  0.17467166277E+03  0.11346385574E+04  0.12352572661E+04  0.46999998093E+01 0.  1.
       -5    1    3    3    0  502 -0.45598637893E+03 -0.17467166277E+03  0.30454869590E+03  0.57550479209E+03  0.46999998093E+01 0. -1.
</event>
<event>
 5   0  0.1402775E-03  0.1096408E+04  0.7818609E-02  0.9208700E-01
       -2   -1    0    0    0  501  0.00000000000E+00  0.00000000000E+00  0.61442203146E+03  0.61442203146E+03  0.25500000920E-02 0. -1.
        2   -1    0    0  501    0  0.00000000000E+00  0.00000000000E+00 -0.48912247219E+03  0.48912247220E+03  0.25500000920E-02 0.  1.
    10030    2    1    2    0    0  0.00000000000E+00  0.00000000000E+00  0.12529955927E+03  0.11035445037E+04  0.10964079952E+04 0.  0.
        5    1    3    3  502    0 -0.40984264348E+03 -0.13656179407E+03 -0.27701593838E+03  0.51320564702E+03  0.46999998093E+01 0.  1.
       -5    1    3    3    0  502  0.40984264348E+03  0.13656179407E+03  0.40231549765E+03  0.59033885664E+03  0.46999998093E+01 0. -1.
</event>
<event>
 5   0  0.5409500E-04  0.1102634E+04  0.7818609E-02  0.9202628E-01
        4   -1    0    0  501    0  0.00000000000E+00  0.00000000000E+00  0.37696894469E+03  0.37697108398E+03  0.12699999809E+01 0.  1.
       -4   -1    0    0    0  501  0.00000000000E+00  0.00000000000E+00 -0.80629667260E+03  0.80629767279E+03  0.12699999809E+01 0. -1.
    10030    2    1    2    0    0  0.00000000000E+00  0.00000000000E+00 -0.42932772791E+03  0.11832687568E+04  0.11026344148E+04 0.  0.
        4    1    3    3  502    0 -0.26414618328E+03 -0.33931537927E+03  0.15559033037E+03  0.45729432158E+03  0.12699999809E+01 0.  1.
       -4    1    3    3    0  502  0.26414618328E+03  0.33931537927E+03 -0.58491805829E+03  0.72597443520E+03  0.12699999809E+01 0. -1.
</event>
<event>
 5   0  0.1425432E-03  0.1101395E+04  0.7818609E-02  0.9203834E-01
       -2   -1    0    0    0  501  0.00000000000E+00  0.00000000000E+00  0.67977085932E+03  0.67977085933E+03  0.25500000920E-02 0.  1.
        2   -1    0    0  501    0  0.00000000000E+00  0.00000000000E+00 -0.44613204205E+03  0.44613204205E+03  0.25500000920E-02 0. -1.
    10030    2    1    2    0    0  0.00000000000E+00  0.00000000000E+00  0.23363881728E+03  0.11259029014E+04  0.11013946824E+04 0.  0.
        1    1    3    3  502    0 -0.52977399270E+03 -0.11287668381E+03  0.21835704106E+03  0.58402176885E+03  0.50400001928E-02 0.  1.
       -1    1    3    3    0  502  0.52977399270E+03  0.11287668381E+03  0.15281776216E+02  0.54188113253E+03  0.50400001928E-02 0. -1.
</event>
<event>
 5   0  0.8341767E-04  0.1103328E+04  0.7818609E-02  0.9201955E-01
        1   -1    0    0  501    0  0.00000000000E+00  0.00000000000E+00  0.24002405023E+03  0.24002405028E+03  0.50400001928E-02 0.  1.
       -1   -1    0    0    0  501  0.00000000000E+00  0.00000000000E+00 -0.12679271588E+04  0.12679271588E+04  0.50400001928E-02 0. -1.
    10030    2    1    2    0    0  0.00000000000E+00  0.00000000000E+00 -0.10279031086E+04  0.15079512091E+04  0.11033277158E+04 0.  0.
        2    1    3    3  502    0  0.42677127362E+03 -0.23986877960E+03 -0.16640882769E+03  0.51707122271E+03  0.25500000920E-02 0.  1.
       -2    1    3    3    0  502 -0.42677127362E+03  0.23986877960E+03 -0.86149428087E+03  0.99087998638E+03  0.25500000920E-02 0. -1.
</event>
<event>
 5   0  0.1372794E-03  0.1099128E+04  0.7818609E-02  0.9206043E-01
        2   -1    0    0  501    0  0.00000000000E+00  0.00000000000E+00  0.19209116233E+04  0.19209116233E+04  0.25500000920E-02 0. -1.
       -2   -1    0    0    0  501  0.00000000000E+00  0.00000000000E+00 -0.15722763227E+03  0.15722763229E+03  0.25500000920E-02 0.  1.
    10030    2    1    2    0    0  0.00000000000E+00  0.00000000000E+00  0.17636839910E+04  0.20781392556E+04  0.10991276293E+04 0.  0.
        4    1    3    3  502    0 -0.29781458421E+03  0.36521430183E+03  0.14164295059E+04  0.14927656115E+04  0.12699999809E+01 0. -1.
       -4    1    3    3    0  502  0.29781458421E+03 -0.36521430183E+03  0.34725448509E+03  0.58537364405E+03  0.12699999809E+01 0.  1.
</event>
<event>
 5   0  0.8150924E-04  0.1077849E+04  0.7818609E-02  0.9227054E-01
       -1   -1    0    0    0  501  0.00000000000E+00  0.00000000000E+00  0.55409969289E+03  0.55409969291E+03  0.50400001928E-02 0.  1.
        1   -1    0    0  501    0  0.00000000000E+00  0.00000000000E+00 -0.52416534057E+03  0.52416534059E+03  0.50400001928E-02 0. -1.
    10030    2    1    2    0    0  0.00000000000E+00  0.00000000000E+00  0.29934352318E+02  0.10782650335E+04  0.10778494408E+04 0.  0.
        3    1    3    3  502    0  0.31192185025E+03 -0.33707121394E+03  0.29708229413E+03  0.54696448113E+03  0.10100000352E+00 0.  1.
       -3    1    3    3    0  502 -0.31192185025E+03  0.33707121394E+03 -0.26714794182E+03  0.53130055237E+03  0.10100000352E+00 0. -1.
</event>
<event>
 5   0  0.1429680E-03  0.1101746E+04  0.7818609E-02  0.9203492E-01
       -2   -1    0    0    0  501  0.00000000000E+00  0.00000000000E+00  0.14504262471E+03  0.14504262473E+03  0.25500000920E-02 0.  1.
        2   -1    0    0  501    0  0.00000000000E+00  0.00000000000E+00 -0.20922189578E+04  0.20922189578E+04  0.25500000920E-02 0. -1.
    10030    2    1    2    0    0  0.00000000000E+00  0.00000000000E+00 -0.19471763331E+04  0.22372615825E+04  0.11017457586E+04 0.  0.
        3    1    3    3  502    0 -0.82302277598E+02 -0.54441168704E+03 -0.10089453621E+04  0.11494035426E+04  0.10100000352E+00 0.  1.
       -3    1    3    3    0  502  0.82302277598E+02  0.54441168704E+03 -0.93823097098E+03  0.10878580399E+04  0.10100000352E+00 0. -1.
</event>
<event>
 5   0  0.7946038E-04  0.1096794E+04  0.7818609E-02  0.9208322E-01
       -1   -1    0    0    0  501  0.00000000000E+00  0.00000000000E+00  0.46989115500E+03  0.46989115502E+03  0.50400001928E-02 0.  1.
        1   -1    0    0  501    0  0.00000000000E+00  0.00000000000E+00 -0.64001903337E+03  0.64001903339E+03  0.50400001928E-02 0. -1.
    10030    2    1    2    0    0  0.00000000000E+00  0.00000000000E+00 -0.17012787838E+03  0.11099101884E+04  0.10967940241E+04 0.  0.
        4    1    3    3  502    0  0.17332115073E+03  0.27589490946E+02 -0.61083101023E+03  0.63554507099E+03  0.12699999809E+01 0. -1.
       -4    1    3    3    0  502 -0.17332115073E+03 -0.27589490946E+02  0.44070313186E+03  0.47436511742E+03  0.12699999809E+01 0.  1.
</event>
<event>
 5   0  0.1425432E-03  0.1101534E+04  0.7818609E-02  0.9203698E-01
        2   -1    0    0  501    0  0.00000000000E+00  0.00000000000E+00  0.14180087991E+04  0.14180087991E+04  0.25500000920E-02 0. -1.
       -2   -1    0    0    0  501  0.00000000000E+00  0.00000000000E+00 -0.21392255448E+03  0.21392255450E+03  0.25500000920E-02 0.  1.
    10030    2    1    2    0    0  0.00000000000E+00  0.00000000000E+00  0.12040862447E+04  0.16319313536E+04  0.11015335939E+04 0.  0.
        1    1    3    3  502    0  0.95837149056E+02  0.41647197193E+03  0.87316669505E+02  0.43618558361E+03  0.50400001928E-02 0.  1.
       -1    1    3    3    0  502 -0.95837149056E+02 -0.41647197193E+03  0.11167695752E+04  0.11957457700E+04  0.50400001928E-02 0. -1.
</event>
<event>
 5   0  0.8305271E-04  0.1107707E+04  0.7818609E-02  0.9197713E-01
       -1   -1    0    0    0  501  0.00000000000E+00  0.00000000000E+00  0.31322793079E+03  0.31322793083E+03  0.50400001928E-02 0.  1.
        1   -1    0    0  501    0  0.00000000000E+00  0.00000000000E+00 -0.97933009284E+03  0.97933009285E+03  0.50400001928E-02 0. -1.
    10030    2    1    2    0    0  0.00000000000E+00  0.00000000000E+00 -0.66610216204E+03  0.12925580237E+04  0.11077067095E+04 0.  0.
        5    1    3    3  502    0 -0.36135996984E+03  0.25856214059E+03  0.52718052497E+02  0.44747814629E+03  0.46999998093E+01 0.  1.
       -5    1    3    3    0  502  0.36135996984E+03 -0.25856214059E+03 -0.71882021454E+03  0.84507987740E+03  0.46999998093E+01 0. -1.
</event>
<event>
 5   0  0.7946038E-04  0.1089839E+04  0.7818609E-02  0.9215152E-01
       -1   -1    0    0    0  501  0.00000000000E+00  0.00000000000E+00  0.28621318217E+03  0.28621318222E+03  0.50400001928E-02 0.  1.
        1   -1    0    0  501    0  0.00000000000E+00  0.00000000000E+00 -0.10374688601E+04  0.10374688601E+04  0.50400001928E-02 0. -1.
    10030    2    1    2    0    0  0.00000000000E+00  0.00000000000E+00 -0.75125567793E+03  0.13236820423E+04  0.10898390044E+04 0.  0.
        4    1    3    3  502    0  0.90251411980E+02 -0.26182553263E+02  0.27629558061E+03  0.29184191649E+03  0.12699999809E+01 0.  1.
       -4    1    3    3    0  502 -0.90251411980E+02  0.26182553263E+02 -0.10275512585E+04  0.10318401258E+04  0.12699999809E+01 0. -1.
</event>
<event>
 5   0  0.1429680E-03  0.1102921E+04  0.7818609E-02  0.9202350E-01
       -2   -1    0    0    0  501  0.00000000000E+00  0.00000000000E+00  0.35121183609E+03  0.35121183610E+03  0.25500000920E-02 0. -1.
        2   -1    0    0  501    0  0.00000000000E+00  0.00000000000E+00 -0.86588343784E+03  0.86588343784E+03  0.25500000920E-02 0.  1.
    10030    2    1    2    0    0  0.00000000000E+00  0.00000000000E+00 -0.51467160175E+03  0.12170952739E+04  0.11029206899E+04 0.  0.
        3    1    3    3  502    0 -0.21251000681E+03 -0.33282264722E+03  0.16745080536E+03  0.42891864020E+03  0.10100000352E+00 0. -1.
       -3    1    3    3    0  502  0.21251000681E+03  0.33282264722E+03 -0.68212240711E+03  0.78817663374E+03  0.10100000352E+00 0.  1.
</event>
<event>
 5   0  0.8305271E-04  0.1098768E+04  0.7818609E-02  0.9206393E-01
        1   -1    0    0  501    0  0.00000000000E+00  0.00000000000E+00  0.85498944761E+03  0.85498944762E+03  0.50400001928E-02 0.  1.
       -1   -1    0    0    0  501  0.00000000000E+00  0.00000000000E+00 -0.35301355447E+03  0.35301355450E+03  0.50400001928E-02 0. -1.
    10030    2    1    2    0    0  0.00000000000E+00  0.00000000000E+00  0.50197589314E+03  0.12080030021E+04  0.10987681538E+04 0.  0.
        5    1    3    3  502    0 -0.66004746112E+02 -0.49481645253E+03  0.50313751610E+03  0.70878021862E+03  0.46999998093E+01 0.  1.
       -5    1    3    3    0  502  0.66004746112E+02  0.49481645253E+03 -0.11616229622E+01  0.49922278350E+03  0.46999998093E+01 0. -1.
</event>
<event>
 5   0  0.8150924E-04  0.1096134E+04  0.7818609E-02  0.9208969E-01
       -1   -1    0    0    0  501  0.00000000000E+00  0.00000000000E+00  0.48032323411E+03  0.48032323414E+03  0.50400001928E-02 0. -1.
        1   -1    0    0  501    0  0.00000000000E+00  0.00000000000E+00 -0.62536463720E+03  0.62536463722E+03  0.50400001928E-02 0.  1.
    10030    2    1    2    0    0  0.00000000000E+00  0.00000000000E+00 -0.14504140309E+03  0.11056878714E+04  0.10961335048E+04 0.  0.
        3    1    3    3  502    0  0.35586401267E+03 -0.22494833223E+03  0.28144564977E+03  0.50641150427E+03  0.10100000352E+00 0. -1.
       -3    1    3    3    0  502 -0.35586401267E+03  0.22494833223E+03 -0.42648705286E+03  0.59927636708E+03  0.10100000352E+00 0.  1.
</event>
<event>
 5   0  0.8341767E-04  0.1097463E+04  0.7818609E-02  0.9207668E-01
       -1   -1    0    0    0  501  0.00000000000E+00  0.00000000000E+00  0.34812155539E+03  0.34812155543E+03  0.50400001928E-02 0.  1.
        1   -1    0    0  501    0  0.00000000000E+00  0.00000000000E+00 -0.86494519247E+03  0.86494519249E+03  0.50400001928E-02 0. -1.
    10030    2    1    2    0    0  0.00000000000E+00  0.00000000000E+00 -0.51682363708E+03  0.12130667479E+04  0.10974626477E+04 0.  0.
        2    1    3    3  502    0  0.43449803700E+03  0.92974691974E+02 -0.61431204256E+03  0.75816365195E+03  0.25500000920E-02 0. -1.
       -2    1    3    3    0  502 -0.43449803700E+03 -0.92974691974E+02  0.97488405475E+02  0.45490309596E+03  0.25500000920E-02 0.  1.
</event>
<event>
 5   0  0.1396936E-03  0.1089858E+04  0.7818609E-02  0.9215134E-01
       -2   -1    0    0    0  501  0.00000000000E+00  0.00000000000E+00  0.46383752779E+03  0.46383752780E+03  0.25500000920E-02 0.  1.
        2   -1    0    0  501    0  0.00000000000E+00  0.00000000000E+00 -0.64019714964E+03  0.64019714965E+03  0.25500000920E-02 0. -1.
    10030    2    1    2    0    0  0.00000000000E+00  0.00000000000E+00 -0.17635962185E+03  0.11040346774E+04  0.10898577213E+04 0.  0.
        2    1    3    3  502    0 -0.21285510054E+03  0.17851263874E+03  0.38671834137E+03  0.47615662504E+03  0.25500000920E-02 0.  1.
       -2    1    3    3    0  502  0.21285510054E+03 -0.17851263874E+03 -0.56307796322E+03  0.62787805240E+03  0.25500000920E-02 0. -1.
</event>
<event>
 5   0  0.8341767E-04  0.1096465E+04  0.7818609E-02  0.9208644E-01
        1   -1    0    0  501    0  0.00000000000E+00  0.00000000000E+00  0.78710793471E+03  0.78710793472E+03  0.50400001928E-02 0. -1.
       -1   -1    0    0    0  501  0.00000000000E+00  0.00000000000E+00 -0.38185234108E+03  0.38185234112E+03  0.50400001928E-02 0.  1.
    10030    2    1    2    0    0  0.00000000000E+00  0.00000000000E+00  0.40525559362E+03  0.11689602758E+04  0.10964652436E+04 0.  0.
        2    1    3    3  502    0 -0.42883980051E+03 -0.30681166555E+03  0.36262363922E+03  0.63994755750E+03  0.25500000920E-02 0. -1.
       -2    1    3    3    0  502  0.42883980051E+03  0.30681166555E+03  0.42631954401E+02  0.52901271834E+03  0.25500000920E-02 0.  1.
</event>
<event>
 5   0  0.8341767E-04  0.1100413E+04  0.7818609E-02  0.9204789E-01
       -1   -1    0    0    0  501  0.00000000000E+00  0.00000000000E+00  0.40489727991E+03  0.40489727994E+03  0.50400001928E-02 0. -1.
        1   -1    0    0  501    0  0.00000000000E+00  0.00000000000E+00 -0.74766468025E+03  0.74766468026E+03  0.50400001928E-02 0.  1.
    10030    2    1    2    0    0  0.00000000000E+00  0.00000000000E+00 -0.34276740033E+03  0.11525619602E+04  0.11004133684E+04 0.  0.
        2    1    3    3  502    0 -0.38274960117E+03 -0.37334844450E+03 -0.30730682695E+03  0.61670398418E+03  0.25500000920E-02 0.  1.
       -2    1    3    3    0  502  0.38274960117E+03  0.37334844450E+03 -0.35460573385E+02  0.53585797603E+03  0.25500000920E-02 0. -1.
</event>
<event>
 5   0  0.8150924E-04  0.1100108E+04  0.7818609E-02  0.9205087E-01
        1   -1    0    0  501    0  0.00000000000E+00  0.00000000000E+00  0.11905269403E+04  0.11905269403E+04  0.50400001928E-02 0. -1.
       -1   -1    0    0    0  501  0.00000000000E+00  0.00000000000E+00 -0.25413911117E+03  0.25413911122E+03  0.50400001928E-02 0.  1.
    10030    2    1    2    0    0  0.00000000000E+00  0.00000000000E+00  0.93638782913E+03  0.14446660515E+04  0.11001081010E+04 0.  0.
        3    1    3    3  502    0  0.49953197499E+03 -0.19147677227E+03  0.63618085177E+03  0.83121696008E+03  0.10100000352E+00 0.  1.
       -3    1    3    3    0  502 -0.49953197499E+03  0.19147677227E+03  0.30020697736E+03  0.61344909146E+03  0.10100000352E+00 0. -1.
</event>
<event>
 5   0  0.1425432E-03  0.1101653E+04  0.7818609E-02  0.9203582E-01
       -2   -1    0    0    0  501  0.00000000000E+00  0.00000000000E+00  0.32223354819E+03  0.32223354820E+03  0.25500000920E-02 0. -1.
        2   -1    0    0  501    0  0.00000000000E+00  0.00000000000E+00 -0.94158396227E+03  0.94158396227E+03  0.25500000920E-02 0.  1.
    10030    2    1    2    0    0  0.00000000000E+00  0.00000000000E+00 -0.61935041407E+03  0.12638175105E+04  0.11016531960E+04 0.  0.
        1    1    3    3  502    0  0.26521661717E+03 -0.35017042277E+03 -0.69093747581E+03  0.81875135085E+03  0.50400001928E-02 0.  1.
       -1    1    3    3    0  502 -0.26521661717E+03  0.35017042277E+03  0.71587061740E+02  0.44506615962E+03  0.50400001928E-02 0. -1.
</event>
<event>
 5   0  0.1372794E-03  0.1095350E+04  0.7818609E-02  0.9209736E-01
        2   -1    0    0  501    0  0.00000000000E+00  0.00000000000E+00  0.11478439122E+03  0.11478439125E+03  0.25500000920E-02 0.  1.
       -2   -1    0    0    0  501  0.00000000000E+00  0.00000000000E+00 -0.26131430603E+04  0.26131430603E+04  0.25500000920E-02 0. -1.
    10030    2    1    2    0    0  0.00000000000E+00  0.00000000000E+00 -0.24983586691E+04  0.27279274515E+04  0.10953502369E+04 0.  0.
        4    1    3    3  502    0 -0.33265020673E+03  0.14836849958E+03 -0.22677660110E+04  0.22968312227E+04  0.12699999809E+01 0. -1.
       -4    1    3    3    0  502  0.33265020673E+03 -0.14836849958E+03 -0.23059265803E+03  0.43109622887E+03  0.12699999809E+01 0.  1.
</event>
<event>
 5   0  0.8009636E-04  0.1098077E+04  0.7818609E-02  0.9207069E-01
       -1   -1    0    0    0  501  0.00000000000E+00  0.00000000000E+00  0.40515255738E+03  0.40515255741E+03  0.50400001928E-02 0.  1.
        1   -1    0    0  501    0  0.00000000000E+00  0.00000000000E+00 -0.74402348772E+03  0.74402348774E+03  0.50400001928E-02 0. -1.
    10030    2    1    2    0    0  0.00000000000E+00  0.00000000000E+00 -0.33887093035E+03  0.11491760451E+04  0.10980765344E+04 0.  0.
        1    1    3    3  502    0  0.24039091544E+03 -0.16045229308E+03 -0.65796724563E+03  0.71864708093E+03  0.50400001928E-02 0. -1.
       -1    1    3    3    0  502 -0.24039091544E+03  0.16045229308E+03  0.31909631528E+03  0.43052896422E+03  0.50400001928E-02 0.  1.
</event>
<event>
 5   0  0.1425432E-03  0.1098482E+04  0.7818609E-02  0.9206672E-01
       -2   -1    0    0    0  501  0.00000000000E+00  0.00000000000E+00  0.10773678715E+04  0.10773678715E+04  0.25500000920E-02 0.  1.
        2   -1    0    0  501    0  0.00000000000E+00  0.00000000000E+00 -0.28000260032E+03  0.28000260033E+03  0.25500000920E-02 0. -1.
    10030    2    1    2    0    0  0.00000000000E+00  0.00000000000E+00  0.79736527118E+03  0.13573704718E+04  0.10984822357E+04 0.  0.
        1    1    3    3  502    0  0.21957102827E+03 -0.67065608274E+02  0.10152310115E+04  0.10408665807E+04  0.50400001928E-02 0.  1.
       -1    1    3    3    0  502 -0.21957102827E+03  0.67065608274E+02 -0.21786574027E+03  0.31650389109E+03  0.50400001928E-02 0. -1.
</event>
<event>
 5   0  0.1372794E-03  0.1080905E+04  0.7818609E-02  0.9224005E-01
        2   -1    0    0  501    0  0.00000000000E+00  0.00000000000E+00  0.90907199977E+03  0.90907199978E+03  0.25500000920E-02 0. -1.
       -2   -1    0    0    0  501  0.00000000000E+00  0.00000000000E+00 -0.32130453102E+03  0.32130453103E+03  0.25500000920E-02 0.  1.
    10030    2    1    2    0    0  0.00000000000E+00  0.00000000000E+00  0.58776746875E+03  0.12303765308E+04  0.10809050885E+04 0.  0.
        4    1    3    3  502    0 -0.15517289419E+03 -0.39692142487E+02 -0.29366606918E+03  0.33450779715E+03  0.12699999809E+01 0.  1.
       -4    1    3    3    0  502  0.15517289419E+03  0.39692142487E+02  0.88143353793E+03  0.89586873366E+03  0.12699999809E+01 0. -1.
</event>
<event>
 5   0  0.1402775E-03  0.1083553E+04  0.7818609E-02  0.9221372E-01
       -2   -1    0    0    0  501  0.00000000000E+00  0.00000000000E+00  0.27324552420E+03  0.27324552421E+03  0.25500000920E-02 0. -1.
        2   -1    0    0  501    0  0.00000000000E+00  0.00000000000E+00 -0.10742061258E+04  0.10742061258E+04  0.25500000920E-02 0.  1.
    10030    2    1    2    0    0  0.00000000000E+00  0.00000000000E+00 -0.80096060159E+03  0.13474516500E+04  0.10835534430E+04 0.  0.
        5    1    3    3  502    0  0.24846280930E+03 -0.29220915909E+03 -0.87625755393E+03  0.95654030290E+03  0.46999998093E+01 0.  1.
       -5    1    3    3    0  502 -0.24846280930E+03  0.29220915909E+03  0.75296952343E+02  0.39091134710E+03  0.46999998093E+01 0. -1.
</event>
<event>
 5   0  0.1425432E-03  0.1099908E+04  0.7818609E-02  0.9205282E-01
       -2   -1    0    0    0  501  0.00000000000E+00  0.00000000000E+00  0.20300425478E+03  0.20300425480E+03  0.25500000920E-02 0.  1.
        2   -1    0    0  501    0  0.00000000000E+00  0.00000000000E+00 -0.14898668773E+04  0.14898668773E+04  0.25500000920E-02 0. -1.
    10030    2    1    2    0    0  0.00000000000E+00  0.00000000000E+00 -0.12868626225E+04  0.16928711321E+04  0.10999078419E+04 0.  0.
        1    1    3    3  502    0  0.53347020543E+03  0.12868467173E+03 -0.69890545633E+03  0.88860511012E+03  0.50400001928E-02 0.  1.
       -1    1    3    3    0  502 -0.53347020543E+03 -0.12868467173E+03 -0.58795716619E+03  0.80426602199E+03  0.50400001928E-02 0. -1.
</event>
<event>
 5   0  0.1402775E-03  0.1095090E+04  0.7818609E-02  0.9209991E-01
       -2   -1    0    0    0  501  0.00000000000E+00  0.00000000000E+00  0.17097764118E+03  0.17097764120E+03  0.25500000920E-02 0. -1.
        2   -1    0    0  501    0  0.00000000000E+00  0.00000000000E+00 -0.17534773914E+04  0.17534773914E+04  0.25500000920E-02 0.  1.
    10030    2    1    2    0    0  0.00000000000E+00  0.00000000000E+00 -0.15824997502E+04  0.19244550326E+04  0.10950898196E+04 0.  0.
        5    1    3    3  502    0  0.15053459106E+03 -0.10716693079E+03  0.11448911778E+03  0.21742875212E+03  0.46999998093E+01 0. -1.
       -5    1    3    3    0  502 -0.15053459106E+03  0.10716693079E+03 -0.16969888680E+04  0.17070262805E+04  0.46999998093E+01 0.  1.
</event>
<event>
 5   0  0.1425432E-03  0.1099473E+04  0.7818609E-02  0.9205706E-01
       -2   -1    0    0    0  501  0.00000000000E+00  0.00000000000E+00  0.22891482185E+03  0.22891482187E+03  0.25500000920E-02 0.  1.
        2   -1    0    0  501    0  0.00000000000E+00  0.00000000000E+00 -0.13201865322E+04  0.13201865322E+04  0.25500000920E-02 0. -1.
    10030    2    1    2    0    0  0.00000000000E+00  0.00000000000E+00 -0.10912717103E+04  0.15491013540E+04  0.10994730826E+04 0.  0.
        1    1    3    3  502    0 -0.48805826730E+03 -0.16167551164E+03 -0.27144983904E+03  0.58139905271E+03  0.50400001928E-02 0.  1.
       -1    1    3    3    0  502  0.48805826730E+03  0.16167551164E+03 -0.81982187126E+03  0.96770230131E+03  0.50400001928E-02 0. -1.
</event>
<event>
 5   0  0.7946038E-04  0.1095642E+04  0.7818609E-02  0.9209450E-01
       -1   -1    0    0    0  501  0.00000000000E+00  0.00000000000E+00  0.10238916483E+03  0.10238916495E+03  0.50400001928E-02 0. -1.
        1   -1    0    0  501    0  0.00000000000E+00  0.00000000000E+00 -0.29310485458E+04  0.29310485458E+04  0.50400001928E-02 0.  1.
    10030    2    1    2    0    0  0.00000000000E+00  0.00000000000E+00 -0.28286593810E+04  0.30334377108E+04  0.10956415707E+04 0.  0.
        4    1    3    3  502    0 -0.38933167095E+03 -0.38106665520E+03 -0.15737383467E+04  0.16653663088E+04  0.12699999809E+01 0.  1.
       -4    1    3    3    0  502  0.38933167095E+03  0.38106665520E+03 -0.12549210343E+04  0.13680714020E+04  0.12699999809E+01 0. -1.
</event>
<event>
 5   0  0.8150924E-04  0.1107340E+04  0.7818609E-02  0.9198067E-01
        1   -1    0    0  501    0  0.00000000000E+00  0.00000000000E+00  0.23382154162E+03  0.23382154168E+03  0.50400001928E-02 0. -1.
       -1   -1    0    0    0  501  0.00000000000E+00  0.00000000000E+00 -0.13110456804E+04  0.13110456805E+04  0.50400001928E-02 0.  1.
    10030    2    1    2    0    0  0.00000000000E+00  0.00000000000E+00 -0.10772241388E+04  0.15448672221E+04  0.11073404575E+04 0.  0.
        3    1    3    3  502    0  0.41148316108E+03  0.16783393541E+02 -0.10549000575E+04  0.11324372899E+04  0.10100000352E+00 0.  1.
       -3    1    3    3    0  502 -0.41148316108E+03 -0.16783393541E+02 -0.22324081318E+02  0.41242993218E+03  0.10100000352E+00 0. -1.
</event>
<event>
 5   0  0.1425432E-03  0.1100105E+04  0.7818609E-02  0.9205090E-01
       -2   -1    0    0    0  501  0.00000000000E+00  0.00000000000E+00  0.35622952383E+03  0.35622952384E+03  0.25500000920E-02 0.  1.
        2   -1    0    0  501    0  0.00000000000E+00  0.00000000000E+00 -0.84933346023E+03  0.84933346024E+03  0.25500000920E-02 0. -1.
    10030    2    1    2    0    0  0.00000000000E+00  0.00000000000E+00 -0.49310393641E+03  0.12055629841E+04  0.11001048207E+04 0.  0.
        1    1    3    3  502    0 -0.43602936822E+03 -0.14104591355E+03 -0.57992118840E+03  0.73913743273E+03  0.50400001928E-02 0. -1.
       -1    1    3    3    0  502  0.43602936822E+03  0.14104591355E+03  0.86817251994E+02  0.46642555134E+03  0.50400001928E-02 0.  1.
</event>
<event>
 5   0  0.8341767E-04  0.1096516E+04  0.7818609E-02  0.9208594E-01
        1   -1    0    0  501    0  0.00000000000E+00  0.00000000000E+00  0.75288412522E+03  0.75288412524E+03  0.50400001928E-02 0.  1.
       -1   -1    0    0    0  501  0.00000000000E+00  0.00000000000E+00 -0.39924746408E+03  0.39924746411E+03  0.50400001928E-02 0. -1.
    10030    2    1    2    0    0  0.00000000000E+00  0.00000000000E+00  0.35363666115E+03  0.11521315893E+04  0.10965164436E+04 0.  0.
        2    1    3    3  502    0  0.13594294944E+03 -0.38269084168E+03 -0.21017522857E+03  0.45728152436E+03  0.25500000920E-02 0. -1.
       -2    1    3    3    0  502 -0.13594294944E+03  0.38269084168E+03  0.56381188972E+03  0.69485006498E+03  0.25500000920E-02 0.  1.
</event>
<event>
 5   0  0.1396936E-03  0.1104401E+04  0.7818609E-02  0.9200913E-01
       -2   -1    0    0    0  501  0.00000000000E+00  0.00000000000E+00  0.40483837234E+03  0.40483837235E+03  0.25500000920E-02 0.  1.
        2   -1    0    0  501    0  0.00000000000E+00  0.00000000000E+00 -0.75320256046E+03  0.75320256046E+03  0.25500000920E-02 0. -1.
    10030    2    1    2    0    0  0.00000000000E+00  0.00000000000E+00 -0.34836418812E+03  0.11580409328E+04  0.11044008305E+04 0.  0.
        2    1    3    3  502    0 -0.52469956432E+03 -0.17132560772E+03 -0.19119356016E+03  0.58413788964E+03  0.25500000920E-02 0. -1.
       -2    1    3    3    0  502  0.52469956432E+03  0.17132560772E+03 -0.15717062795E+03  0.57390304317E+03  0.25500000920E-02 0.  1.
</event>
<event>
 5   0  0.7946038E-04  0.1101675E+04  0.7818609E-02  0.9203561E-01
       -1   -1    0    0    0  501  0.00000000000E+00  0.00000000000E+00  0.24037821238E+03  0.24037821243E+03  0.50400001928E-02 0. -1.
        1   -1    0    0  501    0  0.00000000000E+00  0.00000000000E+00 -0.12622686645E+04  0.12622686645E+04  0.50400001928E-02 0.  1.
    10030    2    1    2    0    0  0.00000000000E+00  0.00000000000E+00 -0.10218904521E+04  0.15026468769E+04  0.11016748797E+04 0.  0.
        4    1    3    3  502    0  0.49409316519E+03  0.10008818893E+03 -0.81371666951E+03  0.95722627032E+03  0.12699999809E+01 0.  1.
       -4    1    3    3    0  502 -0.49409316519E+03 -0.10008818893E+03 -0.20817378260E+03  0.54542060661E+03  0.12699999809E+01 0. -1.
</event>
<event>
 5   0  0.1402775E-03  0.1120594E+04  0.7818609E-02  0.9185349E-01
       -2   -1    0    0    0  501  0.00000000000E+00  0.00000000000E+00  0.38755456312E+03  0.38755456313E+03  0.25500000920E-02 0. -1.
        2   -1    0    0  501    0  0.00000000000E+00  0.00000000000E+00 -0.81003488467E+03  0.81003488467E+03  0.25500000920E-02 0.  1.
    10030    2    1    2    0    0  0.00000000000E+00  0.00000000000E+00 -0.42248032155E+03  0.11975894478E+04  0.11205939779E+04 0.  0.
        5    1    3    3  502    0  0.11415377411E+03 -0.42157988057E+03  0.16379914781E+03  0.46649001132E+03  0.46999998093E+01 0. -1.
       -5    1    3    3    0  502 -0.11415377411E+03  0.42157988057E+03 -0.58627946935E+03  0.73109943648E+03  0.46999998093E+01 0.  1.
</event>
<event>
 5   0  0.7946038E-04  0.1100396E+04  0.7818609E-02  0.9204806E-01
       -1   -1    0    0    0  501  0.00000000000E+00  0.00000000000E+00  0.32958825242E+03  0.32958825246E+03  0.50400001928E-02 0.  1.
        1   -1    0    0  501    0  0.00000000000E+00  0.00000000000E+00 -0.91847257194E+03  0.91847257195E+03  0.50400001928E-02 0. -1.
    10030    2    1    2    0    0  0.00000000000E+00  0.00000000000E+00 -0.58888431952E+03  0.12480608244E+04  0.11003958741E+04 0.  0.
        4    1    3    3  502    0  0.68632181840E+01 -0.61488296370E+02  0.32562854518E+03  0.33145659850E+03  0.12699999809E+01 0.  1.
       -4    1    3    3    0  502 -0.68632181840E+01  0.61488296370E+02 -0.91451286470E+03  0.91660422591E+03  0.12699999809E+01 0. -1.
</event>
<event>
 5   0  0.1425432E-03  0.1130332E+04  0.7818609E-02  0.9176122E-01
        2   -1    0    0  501    0  0.00000000000E+00  0.00000000000E+00  0.14732567810E+04  0.14732567810E+04  0.25500000920E-02 0. -1.
       -2   -1    0    0    0  501  0.00000000000E+00  0.00000000000E+00 -0.21680714373E+03  0.21680714374E+03  0.25500000920E-02 0.  1.
    10030    2    1    2    0    0  0.00000000000E+00  0.00000000000E+00  0.12564496372E+04  0.16900639247E+04  0.11303319772E+04 0.  0.
        1    1    3    3  502    0  0.48199979789E+03  0.15324023012E+03  0.10053164685E+04  0.11253744156E+04  0.50400001928E-02 0. -1.
       -1    1    3    3    0  502 -0.48199979789E+03 -0.15324023012E+03  0.25113316873E+03  0.56468950916E+03  0.50400001928E-02 0.  1.
</event>
<event>
 5   0  0.8341767E-04  0.1100244E+04  0.7818609E-02  0.9204954E-01
       -1   -1    0    0    0  501  0.00000000000E+00  0.00000000000E+00  0.48555834294E+03  0.48555834296E+03  0.50400001928E-02 0.  1.
        1   -1    0    0  501    0  0.00000000000E+00  0.00000000000E+00 -0.62327057009E+03  0.62327057011E+03  0.50400001928E-02 0. -1.
    10030    2    1    2    0    0  0.00000000000E+00  0.00000000000E+00 -0.13771222716E+03  0.11088289131E+04  0.11002440188E+04 0.  0.
        2    1    3    3  502    0 -0.40620794668E+03  0.24554483967E+03  0.21140920374E+03  0.51960659701E+03  0.25500000920E-02 0.  1.
       -2    1    3    3    0  502  0.40620794668E+03 -0.24554483967E+03 -0.34912143089E+03  0.58922231606E+03  0.25500000920E-02 0. -1.
</event>
<event>
 5   0  0.8341767E-04  0.1098240E+04  0.7818609E-02  0.9206909E-01
        1   -1    0    0  501    0  0.00000000000E+00  0.00000000000E+00  0.62792281170E+03  0.62792281172E+03  0.50400001928E-02 0.  1.
       -1   -1    0    0    0  501  0.00000000000E+00  0.00000000000E+00 -0.48020648059E+03  0.48020648062E+03  0.50400001928E-02 0. -1.
    10030    2    1    2    0    0  0.00000000000E+00  0.00000000000E+00  0.14771633110E+03  0.11081292923E+04  0.10982396888E+04 0.  0.
        2    1    3    3  502    0 -0.49537480463E+03  0.23379316801E+03  0.35078217519E+02  0.54889518473E+03  0.25500000920E-02 0. -1.
       -2    1    3    3    0  502  0.49537480463E+03 -0.23379316801E+03  0.11263811358E+03  0.55923410761E+03  0.25500000920E-02 0.  1.
</event>
<event>
 5   0  0.8150924E-04  0.1105659E+04  0.7818609E-02  0.9199693E-01
        1   -1    0    0  501    0  0.00000000000E+00  0.00000000000E+00  0.24536796378E+04  0.24536796378E+04  0.50400001928E-02 0. -1.
       -1   -1    0    0    0  501  0.00000000000E+00  0.00000000000E+00 -0.12455606863E+03  0.12455606873E+03  0.50400001928E-02 0.  1.
    10030    2    1    2    0    0  0.00000000000E+00  0.00000000000E+00  0.23291235691E+04  0.25782357065E+04  0.11056594222E+04 0.  0.
        3    1    3    3  502    0  0.32873181180E+03 -0.94133718915E+02  0.21774962527E+04  0.22041814131E+04  0.10100000352E+00 0. -1.
       -3    1    3    3    0  502 -0.32873181180E+03  0.94133718915E+02  0.15162731646E+03  0.37405429342E+03  0.10100000352E+00 0.  1.
</event>
<event>
 5   0  0.8305271E-04  0.1101432E+04  0.7818609E-02  0.9203798E-01
       -1   -1    0    0    0  501  0.00000000000E+00  0.00000000000E+00  0.45873315781E+03  0.45873315784E+03  0.50400001928E-02 0. -1.
        1   -1    0    0  501    0  0.00000000000E+00  0.00000000000E+00 -0.66114243327E+03  0.66114243329E+03  0.50400001928E-02 0.  1.
    10030    2    1    2    0    0  0.00000000000E+00  0.00000000000E+00 -0.20240927546E+03  0.11198755911E+04  0.11014317159E+04 0.  0.
        5    1    3    3  502    0  0.36164989115E+03 -0.40643984865E+03 -0.14441806120E+02  0.54425605197E+03  0.46999998093E+01 0. -1.
       -5    1    3    3    0  502 -0.36164989115E+03  0.40643984865E+03 -0.18796746934E+03  0.57561953916E+03  0.46999998093E+01 0.  1.
</event>
<event>
 5   0  0.7946038E-04  0.1100953E+04  0.7818609E-02  0.9204263E-01
        1   -1    0    0  501    0  0.00000000000E+00  0.00000000000E+00  0.48132376653E+03  0.48132376655E+03  0.50400001928E-02 0.  1.
       -1   -1    0    0    0  501  0.00000000000E+00  0.00000000000E+00 -0.62956496227E+03  0.62956496229E+03  0.50400001928E-02 0. -1.
    10030    2    1    2    0    0  0.00000000000E+00  0.00000000000E+00 -0.14824119574E+03  0.11108887288E+04  0.11009533667E+04 0.  0.
        4    1    3    3  502    0 -0.30286993311E+03  0.37079840092E+03 -0.34823615754E+03  0.59202338200E+03  0.12699999809E+01 0. -1.
       -4    1    3    3    0  502  0.30286993311E+03 -0.37079840092E+03  0.19999496180E+03  0.51886534684E+03  0.12699999809E+01 0.  1.
</event>
<event>
 5   0  0.1372794E-03  0.1107411E+04  0.7818609E-02  0.9197998E-01
        2   -1    0    0  501    0  0.00000000000E+00  0.00000000000E+00  0.12835445966E+04  0.12835445966E+04  0.25500000920E-02 0.  1.
       -2   -1    0    0    0  501  0.00000000000E+00  0.00000000000E+00 -0.23886190501E+03  0.23886190502E+03  0.25500000920E-02 0. -1.
    10030    2    1    2    0    0  0.00000000000E+00  0.00000000000E+00  0.10446826916E+04  0.15224065017E+04  0.11074112290E+04 0.  0.
        4    1    3    3  502    0  0.37960594754E+03  0.10191228825E+02  0.10763199621E+04  0.11413460520E+04  0.12699999809E+01 0.  1.
       -4    1    3    3    0  502 -0.37960594754E+03 -0.10191228825E+02 -0.31637270490E+02  0.38106044971E+03  0.12699999809E+01 0. -1.
</event>
<event>
 5   0  0.1425432E-03  0.1089322E+04  0.7818609E-02  0.9215662E-01
        2   -1    0    0  501    0  0.00000000000E+00  0.00000000000E+00  0.81242299144E+03  0.81242299145E+03  0.25500000920E-02 0. -1.
       -2   -1    0    0    0  501  0.00000000000E+00  0.00000000000E+00 -0.36514914469E+03  0.36514914470E+03  0.25500000920E-02 0.  1.
    10030    2    1    2    0    0  0.00000000000E+00  0.00000000000E+00  0.44727384675E+03  0.11775721361E+04  0.10893219184E+04 0.  0.
        1    1    3    3  502    0 -0.46930966028E+03  0.19083087154E+03  0.43980613995E+03  0.67089300155E+03  0.50400001928E-02 0. -1.
       -1    1    3    3    0  502  0.46930966028E+03 -0.19083087154E+03  0.74677068029E+01  0.50667913459E+03  0.50400001928E-02 0.  1.
</event>
<event>
 5   0  0.1402775E-03  0.1126618E+04  0.7818609E-02  0.9179629E-01
        2   -1    0    0  501    0  0.00000000000E+00  0.00000000000E+00  0.53165537823E+03  0.53165537823E+03  0.25500000920E-02 0.  1.
       -2   -1    0    0    0  501  0.00000000000E+00  0.00000000000E+00 -0.59684769736E+03  0.59684769736E+03  0.25500000920E-02 0. -1.
    10030    2    1    2    0    0  0.00000000000E+00  0.00000000000E+00 -0.65192319129E+02  0.11285030756E+04  0.11266184594E+04 0.  0.
        5    1    3    3  502    0  0.77337813458E+02 -0.33516178677E+03 -0.47941481084E+03  0.59006373516E+03  0.46999998093E+01 0. -1.
       -5    1    3    3    0  502 -0.77337813458E+02  0.33516178677E+03  0.41422249171E+03  0.53843934044E+03  0.46999998093E+01 0.  1.
</event>
<event>
 5   0  0.1396936E-03  0.1103383E+04  0.7818609E-02  0.9201901E-01
        2   -1    0    0  501    0  0.00000000000E+00  0.00000000000E+00  0.13366827885E+04  0.13366827885E+04  0.25500000920E-02 0.  1.
       -2   -1    0    0    0  501  0.00000000000E+00  0.00000000000E+00 -0.22770055282E+03  0.22770055284E+03  0.25500000920E-02 0. -1.
    10030    2    1    2    0    0  0.00000000000E+00  0.00000000000E+00  0.11089822357E+04  0.15643833414E+04  0.11033828164E+04 0.  0.
        2    1    3    3  502    0  0.28174868255E+03 -0.16861312086E+03 -0.74079779871E+02  0.33660142370E+03  0.25500000920E-02 0. -1.
       -2    1    3    3    0  502 -0.28174868255E+03  0.16861312086E+03  0.11830620156E+04  0.12277819177E+04  0.25500000920E-02 0.  1.
</event>
<event>
 5   0  0.8341767E-04  0.1100888E+04  0.7818609E-02  0.9204327E-01
       -1   -1    0    0    0  501  0.00000000000E+00  0.00000000000E+00  0.27580639125E+03  0.27580639129E+03  0.50400001928E-02 0. -1.
        1   -1    0    0  501    0  0.00000000000E+00  0.00000000000E+00 -0.10985551462E+04  0.10985551462E+04  0.50400001928E-02 0.  1.
    10030    2    1    2    0    0  0.00000000000E+00  0.00000000000E+00 -0.82274875499E+03  0.13743615375E+04  0.11008878790E+04 0.  0.
        2    1    3    3  502    0 -0.14885445594E+03  0.20314438639E+03  0.19966330149E+03  0.32138874396E+03  0.25500000920E-02 0. -1.
       -2    1    3    3    0  502  0.14885445594E+03 -0.20314438639E+03 -0.10224120565E+04  0.10529727936E+04  0.25500000920E-02 0.  1.
</event>
<event>
 5   0  0.8009636E-04  0.1099385E+04  0.7818609E-02  0.9205791E-01
       -1   -1    0    0    0  501  0.00000000000E+00  0.00000000000E+00  0.23958139841E+03  0.23958139846E+03  0.50400001928E-02 0.  1.
        1   -1    0    0  501    0  0.00000000000E+00  0.00000000000E+00 -0.12612082268E+04  0.12612082268E+04  0.50400001928E-02 0. -1.
    10030    2    1    2    0    0  0.00000000000E+00  0.00000000000E+00 -0.10216268284E+04  0.15007896252E+04  0.10993853386E+04 0.  0.
        1    1    3    3  502    0 -0.14860786295E+03 -0.49506667785E+03 -0.25547186936E+03  0.57657713145E+03  0.50400001928E-02 0.  1.
       -1    1    3    3    0  502  0.14860786295E+03  0.49506667785E+03 -0.76615495900E+03  0.92421249379E+03  0.50400001928E-02 0. -1.
</event>
<event>
 5   0  0.1402775E-03  0.1105221E+04  0.7818609E-02  0.9200118E-01
        2   -1    0    0  501    0  0.00000000000E+00  0.00000000000E+00  0.31384014735E+03  0.31384014736E+03  0.25500000920E-02 0. -1.
       -2   -1    0    0    0  501  0.00000000000E+00  0.00000000000E+00 -0.97303756773E+03  0.97303756773E+03  0.25500000920E-02 0.  1.
    10030    2    1    2    0    0  0.00000000000E+00  0.00000000000E+00 -0.65919742037E+03  0.12868777151E+04  0.11052207990E+04 0.  0.
        5    1    3    3  502    0 -0.33984186267E+03 -0.42002063544E+03 -0.46461626548E+03  0.71260100334E+03  0.46999998093E+01 0.  1.
       -5    1    3    3    0  502  0.33984186267E+03  0.42002063544E+03 -0.19458115490E+03  0.57427671175E+03  0.46999998093E+01 0. -1.
</event>
<event>
 5   0  0.1425432E-03  0.1099213E+04  0.7818609E-02  0.9205959E-01
        2   -1    0    0  501    0  0.00000000000E+00  0.00000000000E+00  0.13534964336E+04  0.13534964336E+04  0.25500000920E-02 0.  1.
       -2   -1    0    0    0  501  0.00000000000E+00  0.00000000000E+00 -0.22317564552E+03  0.22317564553E+03  0.25500000920E-02 0. -1.
    10030    2    1    2    0    0  0.00000000000E+00  0.00000000000E+00  0.11303207881E+04  0.15766720791E+04  0.10992132464E+04 0.  0.
        1    1    3    3  502    0 -0.82220031516E+02 -0.22715353179E+03 -0.14293999476E+03  0.28069681636E+03  0.50400001928E-02 0. -1.
       -1    1    3    3    0  502  0.82220031516E+02  0.22715353179E+03  0.12732607828E+04  0.12959752628E+04  0.50400001928E-02 0.  1.
</event>
<event>
 5   0  0.8305271E-04  0.1102373E+04  0.7818609E-02  0.9202882E-01
       -1   -1    0    0    0  501  0.00000000000E+00  0.00000000000E+00  0.86971775342E+03  0.86971775343E+03  0.50400001928E-02 0.  1.
        1   -1    0    0  501    0  0.00000000000E+00  0.00000000000E+00 -0.34931604350E+03  0.34931604353E+03  0.50400001928E-02 0. -1.
    10030    2    1    2    0    0  0.00000000000E+00  0.00000000000E+00  0.52040170992E+03  0.12190337970E+04  0.11023726495E+04 0.  0.
        5    1    3    3  502    0  0.24540676440E+02  0.41717424304E+03  0.65760338022E+03  0.77916679185E+03  0.46999998093E+01 0.  1.
       -5    1    3    3    0  502 -0.24540676440E+02 -0.41717424304E+03 -0.13720167029E+03  0.43986700511E+03  0.46999998093E+01 0. -1.
</event>
<event>
 5   0  0.8150924E-04  0.1101125E+04  0.7818609E-02  0.9204096E-01
        1   -1    0    0  501    0  0.00000000000E+00  0.00000000000E+00  0.77841776001E+03  0.77841776002E+03  0.50400001928E-02 0.  1.
       -1   -1    0    0    0  501  0.00000000000E+00  0.00000000000E+00 -0.38940391838E+03  0.38940391841E+03  0.50400001928E-02 0. -1.
    10030    2    1    2    0    0  0.00000000000E+00  0.00000000000E+00  0.38901384163E+03  0.11678216784E+04  0.11011247448E+04 0.  0.
        3    1    3    3  502    0 -0.33657116724E+03 -0.43396644371E+03  0.15326867086E+03  0.57017393885E+03  0.10100000352E+00 0. -1.
       -3    1    3    3    0  502  0.33657116724E+03  0.43396644371E+03  0.23574517077E+03  0.59764773958E+03  0.10100000352E+00 0.  1.
</event>
<event>
 5   0  0.1402775E-03  0.1099651E+04  0.7818609E-02  0.9205532E-01
       -2   -1    0    0    0  501  0.00000000000E+00  0.00000000000E+00  0.74793144878E+03  0.74793144878E+03  0.25500000920E-02 0.  1.
        2   -1    0    0  501    0  0.00000000000E+00  0.00000000000E+00 -0.40419196595E+03  0.40419196596E+03  0.25500000920E-02 0. -1.
    10030    2    1    2    0    0  0.00000000000E+00  0.00000000000E+00  0.34373948283E+03  0.11521234147E+04  0.10996506403E+04 0.  0.
        5    1    3    3  502    0 -0.31078374132E+03 -0.38718588177E+03 -0.75592106680E+02  0.50223072139E+03  0.46999998093E+01 0. -1.
       -5    1    3    3    0  502  0.31078374132E+03  0.38718588177E+03  0.41933158951E+03  0.64989269335E+03  0.46999998093E+01 0.  1.
</event>
<event>
 5   0  0.8150924E-04  0.1088095E+04  0.7818609E-02  0.9216873E-01
        1   -1    0    0  501    0  0.00000000000E+00  0.00000000000E+00  0.13438093053E+04  0.13438093053E+04  0.50400001928E-02 0.  1.
       -1   -1    0    0    0  501  0.00000000000E+00  0.00000000000E+00 -0.22026025555E+03  0.22026025561E+03  0.50400001928E-02 0. -1.
    10030    2    1    2    0    0  0.00000000000E+00  0.00000000000E+00  0.11235490498E+04  0.15640695609E+04  0.10880951816E+04 0.  0.
        3    1    3    3  502    0  0.21085536257E+03 -0.44678248658E+03  0.23426188705E+03  0.54676614394E+03  0.10100000352E+00 0. -1.
       -3    1    3    3    0  502 -0.21085536257E+03  0.44678248658E+03  0.88928716272E+03  0.10173034170E+04  0.10100000352E+00 0.  1.
</event>
<event>
 5   0  0.1402775E-03  0.1100476E+04  0.7818609E-02  0.9204728E-01
       -2   -1    0    0    0  501  0.00000000000E+00  0.00000000000E+00  0.22584296147E+03  0.22584296148E+03  0.25500000920E-02 0. -1.
        2   -1    0    0  501    0  0.00000000000E+00  0.00000000000E+00 -0.13405869046E+04  0.13405869046E+04  0.25500000920E-02 0.  1.
    10030    2    1    2    0    0  0.00000000000E+00  0.00000000000E+00 -0.11147439431E+04  0.15664298661E+04  0.11004764725E+04 0.  0.
        5    1    3    3  502    0 -0.15796067275E+03  0.25920585434E+03 -0.12105930316E+04  0.12480772521E+04  0.46999998093E+01 0.  1.
       -5    1    3    3    0  502  0.15796067275E+03 -0.25920585434E+03  0.95849088477E+02  0.31835261397E+03  0.46999998093E+01 0. -1.
</event>
<event>
 5   0  0.8341767E-04  0.1084624E+04  0.7818609E-02  0.9220309E-01
       -1   -1    0    0    0  501  0.00000000000E+00  0.00000000000E+00  0.41271814608E+03  0.41271814611E+03  0.50400001928E-02 0. -1.
        1   -1    0    0  501    0  0.00000000000E+00  0.00000000000E+00 -0.71259864435E+03  0.71259864436E+03  0.50400001928E-02 0.  1.
    10030    2    1    2    0    0  0.00000000000E+00  0.00000000000E+00 -0.29988049827E+03  0.11253167905E+04  0.10846241587E+04 0.  0.
        2    1    3    3  502    0  0.10299035732E+03 -0.52533574809E+03 -0.23989805883E+03  0.58663083839E+03  0.25500000920E-02 0.  1.
       -2    1    3    3    0  502 -0.10299035732E+03  0.52533574809E+03 -0.59982439442E+02  0.53868595208E+03  0.25500000920E-02 0. -1.
</event>
<event>
 5   0  0.1425432E-03  0.1095985E+04  0.7818609E-02  0.9209114E-01
       -2   -1    0    0    0  501  0.00000000000E+00  0.00000000000E+00  0.26354333623E+03  0.26354333624E+03  0.25500000920E-02 0. -1.
        2   -1    0    0  501    0  0.00000000000E+00  0.00000000000E+00 -0.11394551477E+04  0.11394551477E+04  0.25500000920E-02 0.  1.
    10030    2    1    2    0    0  0.00000000000E+00  0.00000000000E+00 -0.87591181142E+03  0.14029984839E+04  0.10959850567E+04 0.  0.
        1    1    3    3  502    0 -0.20273826483E+03 -0.49922859626E+03 -0.56573664978E+03  0.78127456907E+03  0.50400001928E-02 0. -1.
       -1    1    3    3    0  502  0.20273826483E+03  0.49922859626E+03 -0.31017516164E+03  0.62172391483E+03  0.50400001928E-02 0.  1.
</event>
<event>
 5   0  0.8341767E-04  0.1099903E+04  0.7818609E-02  0.9205286E-01
        1   -1    0    0  501    0  0.00000000000E+00  0.00000000000E+00  0.88560821846E+03  0.88560821847E+03  0.50400001928E-02 0. -1.
       -1   -1    0    0    0  501  0.00000000000E+00  0.00000000000E+00 -0.34151288983E+03  0.34151288987E+03  0.50400001928E-02 0.  1.
    10030    2    1    2    0    0  0.00000000000E+00  0.00000000000E+00  0.54409532862E+03  0.12271211083E+04  0.10999029448E+04 0.  0.
        2    1    3    3  502    0  0.54832565799E+03  0.11964954200E+02  0.22683322923E+03  0.59351284841E+03  0.25500000920E-02 0.  1.
       -2    1    3    3    0  502 -0.54832565799E+03 -0.11964954200E+02  0.31726209940E+03  0.63360825994E+03  0.25500000920E-02 0. -1.
</event>
<event>
 5   0  0.1372794E-03  0.1102763E+04  0.7818609E-02  0.9202503E-01
        2   -1    0    0  501    0  0.00000000000E+00  0.00000000000E+00  0.42597571650E+03  0.42597571651E+03  0.25500000920E-02 0.  1.
       -2   -1    0    0    0  501  0.00000000000E+00  0.00000000000E+00 -0.71370578246E+03  0.71370578247E+03  0.25500000920E-02 0. -1.
    10030    2    1    2    0    0  0.00000000000E+00  0.00000000000E+00 -0.28773006597E+03  0.11396814990E+04  0.11027625893E+04 0.  0.
        4    1    3    3  502    0 -0.39716527404E+02  0.42653090411E+03 -0.50263798328E+03  0.66041848085E+03  0.12699999809E+01 0. -1.
       -4    1    3    3    0  502  0.39716527404E+02 -0.42653090411E+03  0.21490791732E+03  0.47926301812E+03  0.12699999809E+01 0.  1.
</event>
<event>
 5   0  0.7946038E-04  0.1101380E+04  0.7818609E-02  0.9203847E-01
        1   -1    0    0  501    0  0.00000000000E+00  0.00000000000E+00  0.30916625749E+03  0.30916625753E+03  0.50400001928E-02 0. -1.
       -1   -1    0    0    0  501  0.00000000000E+00  0.00000000000E+00 -0.98089529994E+03  0.98089529995E+03  0.50400001928E-02 0.  1.
    10030    2    1    2    0    0  0.00000000000E+00  0.00000000000E+00 -0.67172904245E+03  0.12900615575E+04  0.11013804591E+04 0.  0.
        4    1    3    3  502    0 -0.44506293970E+03 -0.31486966730E+03 -0.24487686106E+03  0.59765392801E+03  0.12699999809E+01 0. -1.
       -4    1    3    3    0  502  0.44506293970E+03  0.31486966730E+03 -0.42685218139E+03  0.69240762946E+03  0.12699999809E+01 0.  1.
</event>
<event>
 5   0  0.5409500E-04  0.1093514E+04  0.7818609E-02  0.9211537E-01
       -4   -1    0    0    0  501  0.00000000000E+00  0.00000000000E+00  0.44959880973E+03  0.44960060343E+03  0.12699999809E+01 0.  1.
        4   -1    0    0  501    0  0.00000000000E+00  0.00000000000E+00 -0.66490717398E+03  0.66490838685E+03  0.12699999809E+01 0. -1.
    10030    2    1    2    0    0  0.00000000000E+00  0.00000000000E+00 -0.21530836425E+03  0.11145089903E+04  0.10935138763E+04 0.  0.
        1    1    3    3  502    0  0.10818441640E+03 -0.39173058927E+03 -0.48044508438E+03  0.62927275616E+03  0.50400001928E-02 0. -1.
       -1    1    3    3    0  502 -0.10818441640E+03  0.39173058927E+03  0.26513672013E+03  0.48523623412E+03  0.50400001928E-02 0.  1.
</event>
<event>
 5   0  0.8305271E-04  0.1101474E+04  0.7818609E-02  0.9203756E-01
        1   -1    0    0  501    0  0.00000000000E+00  0.00000000000E+00  0.12499189025E+04  0.12499189025E+04  0.50400001928E-02 0.  1.
       -1   -1    0    0    0  501  0.00000000000E+00  0.00000000000E+00 -0.24266494992E+03  0.24266494998E+03  0.50400001928E-02 0. -1.
    10030    2    1    2    0    0  0.00000000000E+00  0.00000000000E+00  0.10072539526E+04  0.14925838525E+04  0.11014744807E+04 0.  0.
        5    1    3    3  502    0  0.58756148934E+02  0.19483354636E+03 -0.18981958043E+03  0.27832707188E+03  0.46999998093E+01 0. -1.
       -5    1    3    3    0  502 -0.58756148934E+02 -0.19483354636E+03  0.11970735330E+04  0.12142567806E+04  0.46999998093E+01 0.  1.
</event>
<event>
 5   0  0.8341767E-04  0.1095472E+04  0.7818609E-02  0.9209616E-01
        1   -1    0    0  501    0  0.00000000000E+00  0.00000000000E+00  0.68029803543E+03  0.68029803545E+03  0.50400001928E-02 0.  1.
       -1   -1    0    0    0  501  0.00000000000E+00  0.00000000000E+00 -0.44100523612E+03  0.44100523615E+03  0.50400001928E-02 0. -1.
    10030    2    1    2    0    0  0.00000000000E+00  0.00000000000E+00  0.23929279931E+03  0.11213032716E+04  0.10954724931E+04 0.  0.
        2    1    3    3  502    0  0.39914209537E+03  0.20280874037E+03  0.44263271156E+03  0.62957883924E+03  0.25500000920E-02 0.  1.
       -2    1    3    3    0  502 -0.39914209537E+03 -0.20280874037E+03 -0.20333991224E+03  0.49172443237E+03  0.25500000920E-02 0. -1.
</event>
<event>
 5   0  0.8150924E-04  0.1100900E+04  0.7818609E-02  0.9204315E-01
        1   -1    0    0  501    0  0.00000000000E+00  0.00000000000E+00  0.61649725672E+03  0.61649725674E+03  0.50400001928E-02 0. -1.
       -1   -1    0    0    0  501  0.00000000000E+00  0.00000000000E+00 -0.49147848113E+03  0.49147848115E+03  0.50400001928E-02 0.  1.
    10030    2    1    2    0    0  0.00000000000E+00  0.00000000000E+00  0.12501877560E+03  0.11079757379E+04  0.11008998781E+04 0.  0.
        3    1    3    3  502    0  0.45926802638E+03  0.18135955083E+03  0.30733557322E+03  0.58161290521E+03  0.10100000352E+00 0. -1.
       -3    1    3    3    0  502 -0.45926802638E+03 -0.18135955083E+03 -0.18231679763E+03  0.52636283269E+03  0.10100000352E+00 0.  1.
</event>
<event>
 5   0  0.8305271E-04  0.1100797E+04  0.7818609E-02  0.9204416E-01
       -1   -1    0    0    0  501  0.00000000000E+00  0.00000000000E+00  0.44055800486E+03  0.44055800489E+03  0.50400001928E-02 0.  1.
        1   -1    0    0  501    0  0.00000000000E+00  0.00000000000E+00 -0.68762402738E+03  0.68762402740E+03  0.50400001928E-02 0. -1.
    10030    2    1    2    0    0  0.00000000000E+00  0.00000000000E+00 -0.24706602252E+03  0.11281820323E+04  0.11007965654E+04 0.  0.
        5    1    3    3  502    0 -0.39032438832E+03 -0.31303524795E+03  0.11145694518E+03  0.51262943263E+03  0.46999998093E+01 0.  1.
       -5    1    3    3    0  502  0.39032438832E+03  0.31303524795E+03 -0.35852296770E+03  0.61555259965E+03  0.46999998093E+01 0. -1.
</event>
<event>
 5   0  0.8305271E-04  0.1097632E+04  0.7818609E-02  0.9207503E-01
        1   -1    0    0  501    0  0.00000000000E+00  0.00000000000E+00  0.11541996370E+04  0.11541996370E+04  0.50400001928E-02 0. -1.
       -1   -1    0    0    0  501  0.00000000000E+00  0.00000000000E+00 -0.26095940062E+03  0.26095940066E+03  0.50400001928E-02 0.  1.
    10030    2    1    2    0    0  0.00000000000E+00  0.00000000000E+00  0.89324023639E+03  0.14151590377E+04  0.10976324440E+04 0.  0.
        5    1    3    3  502    0  0.44687056957E+03 -0.19510143277E+03  0.77130268378E+03  0.91251728478E+03  0.46999998093E+01 0.  1.
       -5    1    3    3    0  502 -0.44687056957E+03  0.19510143277E+03  0.12193755260E+03  0.50264175289E+03  0.46999998093E+01 0. -1.
</event>
<event>
 5   0  0.8305271E-04  0.1099750E+04  0.7818609E-02  0.9205435E-01
        1   -1    0    0  501    0  0.00000000000E+00  0.00000000000E+00  0.63547758321E+03  0.63547758323E+03  0.50400001928E-02 0.  1.
       -1   -1    0    0    0  501  0.00000000000E+00  0.00000000000E+00 -0.47580398787E+03  0.47580398790E+03  0.50400001928E-02 0. -1.
    10030    2    1    2    0    0  0.00000000000E+00  0.00000000000E+00  0.15967359533E+03  0.11112815711E+04  0.10997504596E+04 0.  0.
        5    1    3    3  502    0  0.26561848355E+02  0.30857415931E+03 -0.37925848771E+03  0.48967605014E+03  0.46999998093E+01 0. -1.
       -5    1    3    3    0  502 -0.26561848355E+02 -0.30857415931E+03  0.53893208305E+03  0.62160552098E+03  0.46999998093E+01 0.  1.
</event>
<event>
 5   0  0.1372794E-03  0.1097862E+04  0.7818609E-02  0.9207278E-01
       -2   -1    0    0    0  501  0.00000000000E+00  0.00000000000E+00  0.26281902603E+03  0.26281902604E+03  0.25500000920E-02 0.  1.
        2   -1    0    0  501    0  0.00000000000E+00  0.00000000000E+00 -0.11465130274E+04  0.11465130274E+04  0.25500000920E-02 0. -1.
    10030    2    1    2    0    0  0.00000000000E+00  0.00000000000E+00 -0.88369400139E+03  0.14093320535E+04  0.10978623542E+04 0.  0.
        4    1    3    3  502    0 -0.35589304815E+03  0.24363256511E+03 -0.59403166222E+01  0.43133929657E+03  0.12699999809E+01 0.  1.
       -4    1    3    3    0  502  0.35589304815E+03 -0.24363256511E+03 -0.87775368476E+03  0.97799275689E+03  0.12699999809E+01 0. -1.
</event>
<event>
 5   0  0.7946038E-04  0.1096495E+04  0.7818609E-02  0.9208615E-01
       -1   -1    0    0    0  501  0.00000000000E+00  0.00000000000E+00  0.94288557818E+03  0.94288557820E+03  0.50400001928E-02 0. -1.
        1   -1    0    0  501    0  0.00000000000E+00  0.00000000000E+00 -0.31878236059E+03  0.31878236063E+03  0.50400001928E-02 0.  1.
    10030    2    1    2    0    0  0.00000000000E+00  0.00000000000E+00  0.62410321760E+03  0.12616679388E+04  0.10964949437E+04 0.  0.
        4    1    3    3  502    0 -0.36679502397E+03 -0.20394723938E+03  0.71795202989E+03  0.83161878056E+03  0.12699999809E+01 0. -1.
       -4    1    3    3    0  502  0.36679502397E+03  0.20394723938E+03 -0.93848812295E+02  0.43004915827E+03  0.12699999809E+01 0.  1.
</event>
<event>
 5   0  0.1429680E-03  0.1105434E+04  0.7818609E-02  0.9199911E-01
       -2   -1    0    0    0  501  0.00000000000E+00  0.00000000000E+00  0.88533890245E+03  0.88533890245E+03  0.25500000920E-02 0.  1.
        2   -1    0    0  501    0  0.00000000000E+00  0.00000000000E+00 -0.34506128889E+03  0.34506128890E+03  0.25500000920E-02 0. -1.
    10030    2    1    2    0    0  0.00000000000E+00  0.00000000000E+00  0.54027761356E+03  0.12304001913E+04  0.11054341822E+04 0.  0.
        3    1    3    3  502    0  0.39238781365E+03  0.26712501842E+03 -0.45017065067E+02  0.47681287537E+03  0.10100000352E+00 0.  1.
       -3    1    3    3    0  502 -0.39238781365E+03 -0.26712501842E+03  0.58529467863E+03  0.75358731598E+03  0.10100000352E+00 0. -1.
</event>
<event>
 5   0  0.1425432E-03  0.1097186E+04  0.7818609E-02  0.9207939E-01
       -2   -1    0    0    0  501  0.00000000000E+00  0.00000000000E+00  0.20463316252E+03  0.20463316253E+03  0.25500000920E-02 0.  1.
        2   -1    0    0  501    0  0.00000000000E+00  0.00000000000E+00 -0.14707024324E+04  0.14707024324E+04  0.25500000920E-02 0. -1.
    10030    2    1    2    0    0  0.00000000000E+00  0.00000000000E+00 -0.12660692699E+04  0.16753355950E+04  0.10971863832E+04 0.  0.
        1    1    3    3  502    0  0.32784973891E+03 -0.42139115002E+03 -0.82556533545E+03  0.98316533490E+03  0.50400001928E-02 0. -1.
       -1    1    3    3    0  502 -0.32784973891E+03  0.42139115002E+03 -0.44050393447E+03  0.69217026008E+03  0.50400001928E-02 0.  1.
</event>
<event>
 5   0  0.7946038E-04  0.1105224E+04  0.7818609E-02  0.9200115E-01
        1   -1    0    0  501    0  0.00000000000E+00  0.00000000000E+00  0.46645701575E+03  0.46645701578E+03  0.50400001928E-02 0.  1.
       -1   -1    0    0    0  501  0.00000000000E+00  0.00000000000E+00 -0.65467962956E+03  0.65467962958E+03  0.50400001928E-02 0. -1.
    10030    2    1    2    0    0  0.00000000000E+00  0.00000000000E+00 -0.18822261381E+03  0.11211366454E+04  0.11052237896E+04 0.  0.
        4    1    3    3  502    0  0.49203350623E+03 -0.24344886136E+03 -0.15837942810E+03  0.57135800992E+03  0.12699999809E+01 0. -1.
       -4    1    3    3    0  502 -0.49203350623E+03  0.24344886136E+03 -0.29843185707E+02  0.54977863544E+03  0.12699999809E+01 0.  1.
</event>
<event>
 5   0  0.1425432E-03  0.1049780E+04  0.7818609E-02  0.9255572E-01
       -2   -1    0    0    0  501  0.00000000000E+00  0.00000000000E+00  0.48868519360E+03  0.48868519361E+03  0.25500000920E-02 0. -1.
        2   -1    0    0  501    0  0.00000000000E+00  0.00000000000E+00 -0.56377668104E+03  0.56377668104E+03  0.25500000920E-02 0.  1.
    10030    2    1    2    0    0  0.00000000000E+00  0.00000000000E+00 -0.75091487435E+02  0.10524618747E+04  0.10497796274E+04 0.  0.
        1    1    3    3  502    0  0.14505759150E+03  0.24512082290E+03 -0.47956156278E+03  0.55776806577E+03  0.50400001928E-02 0.  1.
       -1    1    3    3    0  502 -0.14505759150E+03 -0.24512082290E+03  0.40447007535E+03  0.49469380888E+03  0.50400001928E-02 0. -1.
</event>
<event>
 5   0  0.1429680E-03  0.1121557E+04  0.7818609E-02  0.9184432E-01
       -2   -1    0    0    0  501  0.00000000000E+00  0.00000000000E+00  0.21138166705E+03  0.21138166707E+03  0.25500000920E-02 0. -1.
        2   -1    0    0  501    0  0.00000000000E+00  0.00000000000E+00 -0.14877001873E+04  0.14877001873E+04  0.25500000920E-02 0.  1.
    10030    2    1    2    0    0  0.00000000000E+00  0.00000000000E+00 -0.12763185202E+04  0.16990818544E+04  0.11215570350E+04 0.  0.
        3    1    3    3  502    0 -0.16131280132E+03 -0.27377515561E+03  0.61827331649E+02  0.32372408751E+03  0.10100000352E+00 0. -1.
       -3    1    3    3    0  502  0.16131280132E+03  0.27377515561E+03 -0.13381458519E+04  0.13753577668E+04  0.10100000352E+00 0.  1.
</event>
<event>
 5   0  0.8341767E-04  0.1093462E+04  0.7818609E-02  0.9211588E-01
        1   -1    0    0  501    0  0.00000000000E+00  0.00000000000E+00  0.64257831137E+03  0.64257831139E+03  0.50400001928E-02 0.  1.
       -1   -1    0    0    0  501  0.00000000000E+00  0.00000000000E+00 -0.46518035047E+03  0.46518035050E+03  0.50400001928E-02 0. -1.
    10030    2    1    2    0    0  0.00000000000E+00  0.00000000000E+00  0.17739796090E+03  0.11077586619E+04  0.10934620325E+04 0.  0.
        2    1    3    3  502    0 -0.11814205435E+03 -0.45801456330E+03  0.36647347955E+03  0.59836251255E+03  0.25500000920E-02 0.  1.
       -2    1    3    3    0  502  0.11814205435E+03  0.45801456330E+03 -0.18907551865E+03  0.50939614934E+03  0.25500000920E-02 0. -1.
</event>
<event>
 5   0  0.1429680E-03  0.1101665E+04  0.7818609E-02  0.9203571E-01
        2   -1    0    0  501    0  0.00000000000E+00  0.00000000000E+00  0.50635598157E+03  0.50635598158E+03  0.25500000920E-02 0.  1.
       -2   -1    0    0    0  501  0.00000000000E+00  0.00000000000E+00 -0.59921522912E+03  0.59921522913E+03  0.25500000920E-02 0. -1.
    10030    2    1    2    0    0  0.00000000000E+00  0.00000000000E+00 -0.92859247556E+02  0.11055712107E+04  0.11016645869E+04 0.  0.
        3    1    3    3  502    0 -0.23466518466E+03  0.44421722512E+03  0.18024634872E+03  0.53374661443E+03  0.10100000352E+00 0.  1.
       -3    1    3    3    0  502  0.23466518466E+03 -0.44421722512E+03 -0.27310559628E+03  0.57182459628E+03  0.10100000352E+00 0. -1.
</event>
<event>
 5   0  0.7946038E-04  0.1086361E+04  0.7818609E-02  0.9218588E-01
        1   -1    0    0  501    0  0.00000000000E+00  0.00000000000E+00  0.30839624922E+03  0.30839624927E+03  0.50400001928E-02 0. -1.
       -1   -1    0    0    0  501  0.00000000000E+00  0.00000000000E+00 -0.95670721208E+03  0.95670721209E+03  0.50400001928E-02 0.  1.
    10030    2    1    2    0    0  0.00000000000E+00  0.00000000000E+00 -0.64831096285E+03  0.12651034614E+04  0.10863607427E+04 0.  0.
        4    1    3    3  502    0  0.50572071406E+03 -0.15198600154E+03 -0.47233117987E+03  0.70848538564E+03  0.12699999809E+01 0.  1.
       -4    1    3    3    0  502 -0.50572071406E+03  0.15198600154E+03 -0.17597978298E+03  0.55661807571E+03  0.12699999809E+01 0. -1.
</event>
<event>
 5   0  0.5409500E-04  0.1100071E+04  0.7818609E-02  0.9205123E-01
        4   -1    0    0  501    0  0.00000000000E+00  0.00000000000E+00  0.76466098573E+03  0.76466204038E+03  0.12699999809E+01 0. -1.
       -4   -1    0    0    0  501  0.00000000000E+00  0.00000000000E+00 -0.39564856624E+03  0.39565060453E+03  0.12699999809E+01 0.  1.
    10030    2    1    2    0    0  0.00000000000E+00  0.00000000000E+00  0.36901241949E+03  0.11603126449E+04  0.11000705742E+04 0.  0.
        5    1    3    3  502    0 -0.24752886747E+01 -0.11857989419E+03  0.75099236951E+03  0.76031503170E+03  0.46999998093E+01 0. -1.
       -5    1    3    3    0  502  0.24752886747E+01  0.11857989419E+03 -0.38197995003E+03  0.39999761322E+03  0.46999998093E+01 0.  1.
</event>
<event>
 5   0  0.7946038E-04  0.1093922E+04  0.7818609E-02  0.9211136E-01
        1   -1    0    0  501    0  0.00000000000E+00  0.00000000000E+00  0.18477257692E+04  0.18477257692E+04  0.50400001928E-02 0. -1.
       -1   -1    0    0    0  501  0.00000000000E+00  0.00000000000E+00 -0.16191052176E+03  0.16191052184E+03  0.50400001928E-02 0.  1.
    10030    2    1    2    0    0  0.00000000000E+00  0.00000000000E+00  0.16858152474E+04  0.20096362910E+04  0.10939218317E+04 0.  0.
        4    1    3    3  502    0  0.10275813089E+03  0.47599868833E+03  0.13004531637E+04  0.13886374720E+04  0.12699999809E+01 0. -1.
       -4    1    3    3    0  502 -0.10275813089E+03 -0.47599868833E+03  0.38536208368E+03  0.62099881900E+03  0.12699999809E+01 0.  1.
</event>
<event>
 5   0  0.1425432E-03  0.1105499E+04  0.7818609E-02  0.9199849E-01
        2   -1    0    0  501    0  0.00000000000E+00  0.00000000000E+00  0.31902643212E+03  0.31902643213E+03  0.25500000920E-02 0.  1.
       -2   -1    0    0    0  501  0.00000000000E+00  0.00000000000E+00 -0.95770043435E+03  0.95770043435E+03  0.25500000920E-02 0. -1.
    10030    2    1    2    0    0  0.00000000000E+00  0.00000000000E+00 -0.63867400223E+03  0.12767268665E+04  0.11054985348E+04 0.  0.
        1    1    3    3  502    0 -0.30319953748E+03  0.20547774036E+03  0.15876523097E+03  0.39919601689E+03  0.50400001928E-02 0.  1.
       -1    1    3    3    0  502  0.30319953748E+03 -0.20547774036E+03 -0.79743923320E+03  0.87753084959E+03  0.50400001928E-02 0. -1.
</event>
<event>
 5   0  0.8009636E-04  0.1097762E+04  0.7818609E-02  0.9207376E-01
       -1   -1    0    0    0  501  0.00000000000E+00  0.00000000000E+00  0.60599852001E+03  0.60599852003E+03  0.50400001928E-02 0. -1.
        1   -1    0    0  501    0  0.00000000000E+00  0.00000000000E+00 -0.49714728035E+03  0.49714728037E+03  0.50400001928E-02 0.  1.
    10030    2    1    2    0    0  0.00000000000E+00  0.00000000000E+00  0.10885123966E+03  0.11031458004E+04  0.10977622988E+04 0.  0.
        1    1    3    3  502    0  0.39897425321E+03 -0.36140181594E+03 -0.53238907437E+02  0.54094926617E+03  0.50400001928E-02 0.  1.
       -1    1    3    3    0  502 -0.39897425321E+03  0.36140181594E+03  0.16209014710E+03  0.56219653423E+03  0.50400001928E-02 0. -1.
</event>
<event>
 5   0  0.8341767E-04  0.1104779E+04  0.7818609E-02  0.9200546E-01
       -1   -1    0    0    0  501  0.00000000000E+00  0.00000000000E+00  0.37183878636E+03  0.37183878640E+03  0.50400001928E-02 0.  1.
        1   -1    0    0  501    0  0.00000000000E+00  0.00000000000E+00 -0.82060888004E+03  0.82060888006E+03  0.50400001928E-02 0. -1.
    10030    2    1    2    0    0  0.00000000000E+00  0.00000000000E+00 -0.44877009368E+03  0.11924476665E+04  0.11047790912E+04 0.  0.
        2    1    3    3  502    0  0.24799297488E+03 -0.30634090406E+03 -0.64212283479E+03  0.75343679234E+03  0.25500000920E-02 0. -1.
       -2    1    3    3    0  502 -0.24799297488E+03  0.30634090406E+03  0.19335274111E+03  0.43901087411E+03  0.25500000920E-02 0.  1.
</event>
<event>
 5   0  0.1396936E-03  0.1116609E+04  0.7818609E-02  0.9189153E-01
        2   -1    0    0  501    0  0.00000000000E+00  0.00000000000E+00  0.22134270980E+04  0.22134270980E+04  0.25500000920E-02 0.  1.
       -2   -1    0    0    0  501  0.00000000000E+00  0.00000000000E+00 -0.14082411061E+03  0.14082411063E+03  0.25500000920E-02 0. -1.
    10030    2    1    2    0    0  0.00000000000E+00  0.00000000000E+00  0.20726029874E+04  0.23542512086E+04  0.11166089781E+04 0.  0.
        2    1    3    3  502    0  0.83537758191E+02  0.54445579294E+03  0.12283069950E+04  0.13461607413E+04  0.25500000920E-02 0. -1.
       -2    1    3    3    0  502 -0.83537758191E+02 -0.54445579294E+03  0.84429599242E+03  0.10080904673E+04  0.25500000920E-02 0.  1.
</event>
<event>
 5   0  0.1396936E-03  0.1100445E+04  0.7818609E-02  0.9204758E-01
        2   -1    0    0  501    0  0.00000000000E+00  0.00000000000E+00  0.99117874160E+03  0.99117874160E+03  0.25500000920E-02 0.  1.
       -2   -1    0    0    0  501  0.00000000000E+00  0.00000000000E+00 -0.30543908741E+03  0.30543908742E+03  0.25500000920E-02 0. -1.
    10030    2    1    2    0    0  0.00000000000E+00  0.00000000000E+00  0.68573965419E+03  0.12966178290E+04  0.11004448742E+04 0.  0.
        2    1    3    3  502    0 -0.30272631407E+03  0.26111189993E+03 -0.10257443442E+03  0.41272770699E+03  0.25500000920E-02 0. -1.
       -2    1    3    3    0  502  0.30272631407E+03 -0.26111189993E+03  0.78831408861E+03  0.88389012203E+03  0.25500000920E-02 0.  1.
</event>
<event>
 5   0  0.5409500E-04  0.1104816E+04  0.7818609E-02  0.9200510E-01
        4   -1    0    0  501    0  0.00000000000E+00  0.00000000000E+00  0.58439907826E+03  0.58440045823E+03  0.12699999809E+01 0. -1.
       -4   -1    0    0    0  501  0.00000000000E+00  0.00000000000E+00 -0.52216548281E+03  0.52216702725E+03  0.12699999809E+01 0.  1.
    10030    2    1    2    0    0  0.00000000000E+00  0.00000000000E+00  0.62233595449E+02  0.11065674855E+04  0.11048160840E+04 0.  0.
        2    1    3    3  502    0 -0.19239842158E+03 -0.20068083576E+03  0.50922526726E+03  0.58017266679E+03  0.25500000920E-02 0. -1.
       -2    1    3    3    0  502  0.19239842158E+03  0.20068083576E+03 -0.44699167181E+03  0.52639481868E+03  0.25500000920E-02 0.  1.
</event>
<event>
 5   0  0.1425432E-03  0.1113140E+04  0.7818609E-02  0.9192479E-01
        2   -1    0    0  501    0  0.00000000000E+00  0.00000000000E+00  0.15837875653E+04  0.15837875653E+04  0.25500000920E-02 0. -1.
       -2   -1    0    0    0  501  0.00000000000E+00  0.00000000000E+00 -0.19558809484E+03  0.19558809485E+03  0.25500000920E-02 0.  1.
    10030    2    1    2    0    0  0.00000000000E+00  0.00000000000E+00  0.13881994705E+04  0.17793756602E+04  0.11131396903E+04 0.  0.
        1    1    3    3  502    0  0.33496175487E+03  0.18798662814E+02  0.14039886586E+04  0.14435154729E+04  0.50400001928E-02 0. -1.
       -1    1    3    3    0  502 -0.33496175487E+03 -0.18798662814E+02 -0.15789188078E+02  0.33586018733E+03  0.50400001928E-02 0.  1.
</event>
<event>
 5   0  0.8150924E-04  0.1098093E+04  0.7818609E-02  0.9207052E-01
       -1   -1    0    0    0  501  0.00000000000E+00  0.00000000000E+00  0.28783441033E+03  0.28783441038E+03  0.50400001928E-02 0. -1.
        1   -1    0    0  501    0  0.00000000000E+00  0.00000000000E+00 -0.10473109104E+04  0.10473109104E+04  0.50400001928E-02 0.  1.
    10030    2    1    2    0    0  0.00000000000E+00  0.00000000000E+00 -0.75947650010E+03  0.13351453208E+04  0.10980931079E+04 0.  0.
        3    1    3    3  502    0 -0.38189524726E+03  0.38394996521E+03 -0.26969941809E+03  0.60497879466E+03  0.10100000352E+00 0. -1.
       -3    1    3    3    0  502  0.38189524726E+03 -0.38394996521E+03 -0.48977708201E+03  0.73016652617E+03  0.10100000352E+00 0.  1.
</event>
<event>
 5   0  0.1372794E-03  0.1100079E+04  0.7818609E-02  0.9205115E-01
        2   -1    0    0  501    0  0.00000000000E+00  0.00000000000E+00  0.38671203957E+03  0.38671203958E+03  0.25500000920E-02 0.  1.
       -2   -1    0    0    0  501  0.00000000000E+00  0.00000000000E+00 -0.78234844811E+03  0.78234844812E+03  0.25500000920E-02 0. -1.
    10030    2    1    2    0    0  0.00000000000E+00  0.00000000000E+00 -0.39563640854E+03  0.11690604877E+04  0.11000792045E+04 0.  0.
        4    1    3    3  502    0 -0.34512117843E+03 -0.26289797310E+03 -0.55712902518E+03  0.70612912109E+03  0.12699999809E+01 0. -1.
       -4    1    3    3    0  502  0.34512117843E+03  0.26289797310E+03  0.16149261664E+03  0.46293136660E+03  0.12699999809E+01 0.  1.
</event>
<event>
 5   0  0.1402775E-03  0.1100221E+04  0.7818609E-02  0.9204976E-01
        2   -1    0    0  501    0  0.00000000000E+00  0.00000000000E+00  0.22163195143E+04  0.22163195143E+04  0.25500000920E-02 0. -1.
       -2   -1    0    0    0  501  0.00000000000E+00  0.00000000000E+00 -0.13654243555E+03  0.13654243558E+03  0.25500000920E-02 0.  1.
    10030    2    1    2    0    0  0.00000000000E+00  0.00000000000E+00  0.20797770788E+04  0.23528619499E+04  0.11002211859E+04 0.  0.
        5    1    3    3  502    0  0.80329787905E+02  0.14788339215E+03  0.21598711977E+04  0.21664228703E+04  0.46999998093E+01 0. -1.
       -5    1    3    3    0  502 -0.80329787905E+02 -0.14788339215E+03 -0.80094118932E+02  0.18643907955E+03  0.46999998093E+01 0.  1.
</event>
<event>
 5   0  0.1429680E-03  0.1099847E+04  0.7818609E-02  0.9205341E-01
        2   -1    0    0  501    0  0.00000000000E+00  0.00000000000E+00  0.75487116525E+03  0.75487116525E+03  0.25500000920E-02 0.  1.
       -2   -1    0    0    0  501  0.00000000000E+00  0.00000000000E+00 -0.40061918432E+03  0.40061918432E+03  0.25500000920E-02 0. -1.
    10030    2    1    2    0    0  0.00000000000E+00  0.00000000000E+00  0.35425198093E+03  0.11554903496E+04  0.10998470266E+04 0.  0.
        3    1    3    3  502    0 -0.31300786018E+03 -0.29208360115E+03  0.53973866970E+03  0.68891551903E+03  0.10100000352E+00 0.  1.
       -3    1    3    3    0  502  0.31300786018E+03  0.29208360115E+03 -0.18548668877E+03  0.46657483055E+03  0.10100000352E+00 0. -1.
</event>
<event>
 5   0  0.8009636E-04  0.1098350E+04  0.7818609E-02  0.9206801E-01
       -1   -1    0    0    0  501  0.00000000000E+00  0.00000000000E+00  0.23651748836E+03  0.23651748842E+03  0.50400001928E-02 0.  1.
        1   -1    0    0  501    0  0.00000000000E+00  0.00000000000E+00 -0.12751421657E+04  0.12751421658E+04  0.50400001928E-02 0. -1.
    10030    2    1    2    0    0  0.00000000000E+00  0.00000000000E+00 -0.10386246774E+04  0.15116596542E+04  0.10983504402E+04 0.  0.
        1    1    3    3  502    0  0.49845900147E+03 -0.12607157282E+03 -0.78489902177E+03  0.93830799423E+03  0.50400001928E-02 0. -1.
       -1    1    3    3    0  502 -0.49845900147E+03  0.12607157282E+03 -0.25372565561E+03  0.57335165995E+03  0.50400001928E-02 0.  1.
</event>
<event>
 5   0  0.5409500E-04  0.1097010E+04  0.7818609E-02  0.9208111E-01
        4   -1    0    0  501    0  0.00000000000E+00  0.00000000000E+00  0.17339913915E+03  0.17340378992E+03  0.12699999809E+01 0. -1.
       -4   -1    0    0    0  501  0.00000000000E+00  0.00000000000E+00 -0.17350313360E+04  0.17350318008E+04  0.12699999809E+01 0.  1.
    10030    2    1    2    0    0  0.00000000000E+00  0.00000000000E+00 -0.15616321969E+04  0.19084355908E+04  0.10970101575E+04 0.  0.
        1    1    3    3  502    0 -0.17409919189E+03  0.49524966728E+03 -0.10573911198E+04  0.11805332447E+04  0.50400001928E-02 0. -1.
       -1    1    3    3    0  502  0.17409919189E+03 -0.49524966728E+03 -0.50424107707E+03  0.72790234606E+03  0.50400001928E-02 0.  1.
</event>
<event>
 5   0  0.8341767E-04  0.1099825E+04  0.7818609E-02  0.9205362E-01
        1   -1    0    0  501    0  0.00000000000E+00  0.00000000000E+00  0.69788725641E+03  0.69788725643E+03  0.50400001928E-02 0. -1.
       -1   -1    0    0    0  501  0.00000000000E+00  0.00000000000E+00 -0.43331340494E+03  0.43331340497E+03  0.50400001928E-02 0.  1.
    10030    2    1    2    0    0  0.00000000000E+00  0.00000000000E+00  0.26457385146E+03  0.11312006614E+04  0.10998252650E+04 0.  0.
        2    1    3    3  502    0  0.36690139152E+03 -0.34986193558E+02 -0.28747740955E+03  0.46742264156E+03  0.25500000920E-02 0.  1.
       -2    1    3    3    0  502 -0.36690139152E+03  0.34986193558E+02  0.55205126101E+03  0.66377801984E+03  0.25500000920E-02 0. -1.
</event>
<event>
 5   0  0.1396936E-03  0.1103975E+04  0.7818609E-02  0.9201327E-01
        2   -1    0    0  501    0  0.00000000000E+00  0.00000000000E+00  0.27947842519E+04  0.27947842519E+04  0.25500000920E-02 0.  1.
       -2   -1    0    0    0  501  0.00000000000E+00  0.00000000000E+00 -0.10902092173E+03  0.10902092176E+03  0.25500000920E-02 0. -1.
    10030    2    1    2    0    0  0.00000000000E+00  0.00000000000E+00  0.26857633302E+04  0.29038051737E+04  0.11039745563E+04 0.  0.
        2    1    3    3  502    0  0.48636674539E+02 -0.21200974858E+02  0.27880616795E+04  0.27885664661E+04  0.25500000920E-02 0.  1.
       -2    1    3    3    0  502 -0.48636674539E+02  0.21200974858E+02 -0.10229834929E+03  0.11523870756E+03  0.25500000920E-02 0. -1.
</event>
<event>
 5   0  0.1372794E-03  0.1096264E+04  0.7818609E-02  0.9208841E-01
        2   -1    0    0  501    0  0.00000000000E+00  0.00000000000E+00  0.15830442942E+04  0.15830442942E+04  0.25500000920E-02 0.  1.
       -2   -1    0    0    0  501  0.00000000000E+00  0.00000000000E+00 -0.18979161265E+03  0.18979161266E+03  0.25500000920E-02 0. -1.
    10030    2    1    2    0    0  0.00000000000E+00  0.00000000000E+00  0.13932526815E+04  0.17728359068E+04  0.10962637082E+04 0.  0.
        4    1    3    3  502    0 -0.41473933348E+03 -0.35834648079E+03  0.68838015296E+03  0.87993736306E+03  0.12699999809E+01 0. -1.
       -4    1    3    3    0  502  0.41473933348E+03  0.35834648079E+03  0.70487252855E+03  0.89289854375E+03  0.12699999809E+01 0.  1.
</event>
<event>
 5   0  0.1402775E-03  0.1095497E+04  0.7818609E-02  0.9209591E-01
        2   -1    0    0  501    0  0.00000000000E+00  0.00000000000E+00  0.46966875501E+03  0.46966875502E+03  0.25500000920E-02 0. -1.
       -2   -1    0    0    0  501  0.00000000000E+00  0.00000000000E+00 -0.63880910174E+03  0.63880910175E+03  0.25500000920E-02 0.  1.
    10030    2    1    2    0    0  0.00000000000E+00  0.00000000000E+00 -0.16914034673E+03  0.11084778568E+04  0.10954974678E+04 0.  0.
        5    1    3    3  502    0 -0.33277987479E+03  0.42091379806E+03  0.26713490971E+02  0.53725838389E+03  0.46999998093E+01 0. -1.
       -5    1    3    3    0  502  0.33277987479E+03 -0.42091379806E+03 -0.19585383770E+03  0.57121947288E+03  0.46999998093E+01 0.  1.
</event>
<event>
 5   0  0.7946038E-04  0.1103639E+04  0.7818609E-02  0.9201652E-01
       -1   -1    0    0    0  501  0.00000000000E+00  0.00000000000E+00  0.16049594156E+03  0.16049594164E+03  0.50400001928E-02 0. -1.
        1   -1    0    0  501    0  0.00000000000E+00  0.00000000000E+00 -0.18972751285E+04  0.18972751285E+04  0.50400001928E-02 0.  1.
    10030    2    1    2    0    0  0.00000000000E+00  0.00000000000E+00 -0.17367791870E+04  0.20577710702E+04  0.11036393582E+04 0.  0.
        4    1    3    3  502    0 -0.11292395013E+02 -0.42752760594E+03 -0.21821577972E+03  0.48013238950E+03  0.12699999809E+01 0. -1.
       -4    1    3    3    0  502  0.11292395013E+02  0.42752760594E+03 -0.15185634072E+04  0.15776386807E+04  0.12699999809E+01 0.  1.
</event>
<event>
 5   0  0.7946038E-04  0.1101489E+04  0.7818609E-02  0.9203742E-01
        1   -1    0    0  501    0  0.00000000000E+00  0.00000000000E+00  0.52031371198E+03  0.52031371200E+03  0.50400001928E-02 0. -1.
       -1   -1    0    0    0  501  0.00000000000E+00  0.00000000000E+00 -0.58295463072E+03  0.58295463074E+03  0.50400001928E-02 0.  1.
    10030    2    1    2    0    0  0.00000000000E+00  0.00000000000E+00 -0.62640918742E+02  0.11032683427E+04  0.11014886070E+04 0.  0.
        4    1    3    3  502    0  0.18332714433E+03 -0.34705441069E+03  0.35564827408E+03  0.52966301889E+03  0.12699999809E+01 0. -1.
       -4    1    3    3    0  502 -0.18332714433E+03  0.34705441069E+03 -0.41828919282E+03  0.57360532386E+03  0.12699999809E+01 0.  1.
</event>
<event>
 5   0  0.1396936E-03  0.1101934E+04  0.7818609E-02  0.9203309E-01
       -2   -1    0    0    0  501  0.00000000000E+00  0.00000000000E+00  0.40855876300E+03  0.40855876301E+03  0.25500000920E-02 0. -1.
        2   -1    0    0  501    0  0.00000000000E+00  0.00000000000E+00 -0.74301380931E+03  0.74301380931E+03  0.25500000920E-02 0.  1.
    10030    2    1    2    0    0  0.00000000000E+00  0.00000000000E+00 -0.33445504630E+03  0.11515725723E+04  0.11019343045E+04 0.  0.
        2    1    3    3  502    0 -0.72762095014E+02  0.11404736586E+02  0.40339122022E+03  0.41005958962E+03  0.25500000920E-02 0. -1.
       -2    1    3    3    0  502  0.72762095014E+02 -0.11404736586E+02 -0.73784626652E+03  0.74151298270E+03  0.25500000920E-02 0.  1.
</event>
<event>
 5   0  0.1425432E-03  0.1102819E+04  0.7818609E-02  0.9202449E-01
        2   -1    0    0  501    0  0.00000000000E+00  0.00000000000E+00  0.10377706885E+04  0.10377706885E+04  0.25500000920E-02 0.  1.
       -2   -1    0    0    0  501  0.00000000000E+00  0.00000000000E+00 -0.29298618293E+03  0.29298618294E+03  0.25500000920E-02 0. -1.
    10030    2    1    2    0    0  0.00000000000E+00  0.00000000000E+00  0.74478450559E+03  0.13307568715E+04  0.11028190655E+04 0.  0.
        1    1    3    3  502    0  0.52387441393E+03 -0.17148928791E+03  0.35534867264E+03  0.65583965770E+03  0.50400001928E-02 0.  1.
       -1    1    3    3    0  502 -0.52387441393E+03  0.17148928791E+03  0.38943583295E+03  0.67491721377E+03  0.50400001928E-02 0. -1.
</event>
<event>
 5   0  0.1425432E-03  0.1095773E+04  0.7818609E-02  0.9209321E-01
       -2   -1    0    0    0  501  0.00000000000E+00  0.00000000000E+00  0.20713622498E+03  0.20713622499E+03  0.25500000920E-02 0. -1.
        2   -1    0    0  501    0  0.00000000000E+00  0.00000000000E+00 -0.14491900348E+04  0.14491900348E+04  0.25500000920E-02 0.  1.
    10030    2    1    2    0    0  0.00000000000E+00  0.00000000000E+00 -0.12420538098E+04  0.16563262598E+04  0.10957732486E+04 0.  0.
        1    1    3    3  502    0 -0.22465791893E+03 -0.46149005900E+03 -0.33131378750E+03  0.61091168012E+03  0.50400001928E-02 0. -1.
       -1    1    3    3    0  502  0.22465791893E+03  0.46149005900E+03 -0.91074002231E+03  0.10454145797E+04  0.50400001928E-02 0.  1.
</event>
<event>
 5   0  0.8341767E-04  0.1096347E+04  0.7818609E-02  0.9208760E-01
       -1   -1    0    0    0  501  0.00000000000E+00  0.00000000000E+00  0.66035380697E+03  0.66035380699E+03  0.50400001928E-02 0. -1.
        1   -1    0    0  501    0  0.00000000000E+00  0.00000000000E+00 -0.45504993540E+03  0.45504993543E+03  0.50400001928E-02 0.  1.
    10030    2    1    2    0    0  0.00000000000E+00  0.00000000000E+00  0.20530387157E+03  0.11154037424E+04  0.10963465825E+04 0.  0.
        2    1    3    3  502    0 -0.23740105976E+03  0.31395674902E+03  0.49081480209E+03  0.62914805363E+03  0.25500000920E-02 0. -1.
       -2    1    3    3    0  502  0.23740105976E+03 -0.31395674902E+03 -0.28551093052E+03  0.48625568879E+03  0.25500000920E-02 0.  1.
</event>
<event>
 5   0  0.1402775E-03  0.1097342E+04  0.7818609E-02  0.9207787E-01
       -2   -1    0    0    0  501  0.00000000000E+00  0.00000000000E+00  0.81914034615E+03  0.81914034615E+03  0.25500000920E-02 0.  1.
        2   -1    0    0  501    0  0.00000000000E+00  0.00000000000E+00 -0.36750681512E+03  0.36750681513E+03  0.25500000920E-02 0. -1.
    10030    2    1    2    0    0  0.00000000000E+00  0.00000000000E+00  0.45163353103E+03  0.11866471613E+04  0.10973416237E+04 0.  0.
        5    1    3    3  502    0 -0.43953613454E+03 -0.22777732843E+03  0.48158864918E+03  0.69066941580E+03  0.46999998093E+01 0. -1.
       -5    1    3    3    0  502  0.43953613454E+03  0.22777732843E+03 -0.29955118148E+02  0.49597774548E+03  0.46999998093E+01 0.  1.
</event>
<event>
 5   0  0.7946038E-04  0.1099857E+04  0.7818609E-02  0.9205331E-01
        1   -1    0    0  501    0  0.00000000000E+00  0.00000000000E+00  0.68814790917E+03  0.68814790919E+03  0.50400001928E-02 0.  1.
       -1   -1    0    0    0  501  0.00000000000E+00  0.00000000000E+00 -0.43947156624E+03  0.43947156627E+03  0.50400001928E-02 0. -1.
    10030    2    1    2    0    0  0.00000000000E+00  0.00000000000E+00  0.24867634294E+03  0.11276194755E+04  0.10998571534E+04 0.  0.
        4    1    3    3  502    0  0.28096890804E+03 -0.20843618962E+03  0.55934844537E+03  0.65974348702E+03  0.12699999809E+01 0.  1.
       -4    1    3    3    0  502 -0.28096890804E+03  0.20843618962E+03 -0.31067210243E+03  0.46787598844E+03  0.12699999809E+01 0. -1.
</event>
<event>
 5   0  0.8009636E-04  0.1100641E+04  0.7818609E-02  0.9204567E-01
       -1   -1    0    0    0  501  0.00000000000E+00  0.00000000000E+00  0.58533532677E+03  0.58533532679E+03  0.50400001928E-02 0. -1.
        1   -1    0    0  501    0  0.00000000000E+00  0.00000000000E+00 -0.51740072813E+03  0.51740072815E+03  0.50400001928E-02 0.  1.
    10030    2    1    2    0    0  0.00000000000E+00  0.00000000000E+00  0.67934598646E+02  0.11027360549E+04  0.11006414935E+04 0.  0.
        1    1    3    3  502    0  0.22440203270E+03  0.34172952885E+03  0.40306704703E+03  0.57410659951E+03  0.50400001928E-02 0. -1.
       -1    1    3    3    0  502 -0.22440203270E+03 -0.34172952885E+03 -0.33513244839E+03  0.52862945544E+03  0.50400001928E-02 0.  1.
</event>
<event>
 5   0  0.8009636E-04  0.1105713E+04  0.7818609E-02  0.9199642E-01
        1   -1    0    0  501    0  0.00000000000E+00  0.00000000000E+00  0.14228275678E+04  0.14228275678E+04  0.50400001928E-02 0.  1.
       -1   -1    0    0    0  501  0.00000000000E+00  0.00000000000E+00 -0.21481877162E+03  0.21481877167E+03  0.50400001928E-02 0. -1.
    10030    2    1    2    0    0  0.00000000000E+00  0.00000000000E+00  0.12080087962E+04  0.16376463395E+04  0.11057125673E+04 0.  0.
        1    1    3    3  502    0 -0.35083372317E+03  0.22347193457E+03  0.64627535478E+02  0.42095216500E+03  0.50400001928E-02 0. -1.
       -1    1    3    3    0  502  0.35083372317E+03 -0.22347193457E+03  0.11433812607E+04  0.12166941745E+04  0.50400001928E-02 0.  1.
</event>
<event>
 5   0  0.8341767E-04  0.1099059E+04  0.7818609E-02  0.9206110E-01
        1   -1    0    0  501    0  0.00000000000E+00  0.00000000000E+00  0.20158379118E+04  0.20158379118E+04  0.50400001928E-02 0.  1.
       -1   -1    0    0    0  501  0.00000000000E+00  0.00000000000E+00 -0.14980498965E+03  0.14980498973E+03  0.50400001928E-02 0. -1.
    10030    2    1    2    0    0  0.00000000000E+00  0.00000000000E+00  0.18660329222E+04  0.21656429016E+04  0.10990588294E+04 0.  0.
        2    1    3    3  502    0  0.12189606259E+03  0.24558359989E+03  0.18714413492E+04  0.18914181658E+04  0.25500000920E-02 0.  1.
       -2    1    3    3    0  502 -0.12189606259E+03 -0.24558359989E+03 -0.54084269806E+01  0.27422473575E+03  0.25500000920E-02 0. -1.
</event>
<event>
 5   0  0.8009636E-04  0.1095849E+04  0.7818609E-02  0.9209247E-01
        1   -1    0    0  501    0  0.00000000000E+00  0.00000000000E+00  0.52938485566E+03  0.52938485568E+03  0.50400001928E-02 0. -1.
       -1   -1    0    0    0  501  0.00000000000E+00  0.00000000000E+00 -0.56711339979E+03  0.56711339981E+03  0.50400001928E-02 0.  1.
    10030    2    1    2    0    0  0.00000000000E+00  0.00000000000E+00 -0.37728544130E+02  0.10964982555E+04  0.10958489774E+04 0.  0.
        1    1    3    3  502    0 -0.10846945779E+03  0.51064816559E+03 -0.18537823414E+03  0.55397857541E+03  0.50400001928E-02 0.  1.
       -1    1    3    3    0  502  0.10846945779E+03 -0.51064816559E+03  0.14764969001E+03  0.54251968009E+03  0.50400001928E-02 0. -1.
</event>
<event>
 5   0  0.1429680E-03  0.1100283E+04  0.7818609E-02  0.9204916E-01
        2   -1    0    0  501    0  0.00000000000E+00  0.00000000000E+00  0.67600337389E+03  0.67600337390E+03  0.25500000920E-02 0.  1.
       -2   -1    0    0    0  501  0.00000000000E+00  0.00000000000E+00 -0.44771306404E+03  0.44771306405E+03  0.25500000920E-02 0. -1.
    10030    2    1    2    0    0  0.00000000000E+00  0.00000000000E+00  0.22829030985E+03  0.11237164379E+04  0.11002827670E+04 0.  0.
        3    1    3    3  502    0 -0.17598667033E+00 -0.35934364601E+03 -0.31129331593E+03  0.47542762398E+03  0.10100000352E+00 0. -1.
       -3    1    3    3    0  502  0.17598667033E+00  0.35934364601E+03  0.53958362578E+03  0.64828881397E+03  0.10100000352E+00 0.  1.
</event>
<event>
 5   0  0.8150924E-04  0.1101764E+04  0.7818609E-02  0.9203474E-01
       -1   -1    0    0    0  501  0.00000000000E+00  0.00000000000E+00  0.56922182636E+03  0.56922182638E+03  0.50400001928E-02 0.  1.
        1   -1    0    0  501    0  0.00000000000E+00  0.00000000000E+00 -0.53313289145E+03  0.53313289147E+03  0.50400001928E-02 0. -1.
    10030    2    1    2    0    0  0.00000000000E+00  0.00000000000E+00  0.36088934912E+02  0.11023547179E+04  0.11017638190E+04 0.  0.
        3    1    3    3  502    0  0.34263037367E+03  0.42717009308E+03  0.78085038969E+02  0.55314296967E+03  0.10100000352E+00 0.  1.
       -3    1    3    3    0  502 -0.34263037367E+03 -0.42717009308E+03 -0.41996104057E+02  0.54921174818E+03  0.10100000352E+00 0. -1.
</event>
<event>
 5   0  0.1372794E-03  0.1102862E+04  0.7818609E-02  0.9202407E-01
        2   -1    0    0  501    0  0.00000000000E+00  0.00000000000E+00  0.14848341287E+03  0.14848341289E+03  0.25500000920E-02 0.  1.
       -2   -1    0    0    0  501  0.00000000000E+00  0.00000000000E+00 -0.20478780389E+04  0.20478780389E+04  0.25500000920E-02 0. -1.
    10030    2    1    2    0    0  0.00000000000E+00  0.00000000000E+00 -0.18993946261E+04  0.21963614518E+04  0.11028615877E+04 0.  0.
        4    1    3    3  502    0  0.46475038270E+03  0.20980384747E+03 -0.53165190740E+03  0.73665862933E+03  0.12699999809E+01 0.  1.
       -4    1    3    3    0  502 -0.46475038270E+03 -0.20980384747E+03 -0.13677427187E+04  0.14597028225E+04  0.12699999809E+01 0. -1.
</event>
<event>
 5   0  0.1429680E-03  0.1090253E+04  0.7818609E-02  0.9214744E-01
        2   -1    0    0  501    0  0.00000000000E+00  0.00000000000E+00  0.60515822213E+03  0.60515822214E+03  0.25500000920E-02 0. -1.
       -2   -1    0    0    0  501  0.00000000000E+00  0.00000000000E+00 -0.49105011647E+03  0.49105011648E+03  0.25500000920E-02 0.  1.
    10030    2    1    2    0    0  0.00000000000E+00  0.00000000000E+00  0.11410810566E+03  0.10962083386E+04  0.10902532100E+04 0.  0.
        3    1    3    3  502    0 -0.30469521680E+03 -0.31006550724E+03 -0.27365467894E+03  0.51367955714E+03  0.10100000352E+00 0.  1.
       -3    1    3    3    0  502  0.30469521680E+03  0.31006550724E+03  0.38776278460E+03  0.58252878147E+03  0.10100000352E+00 0. -1.
</event>
<event>
 5   0  0.1396936E-03  0.1101427E+04  0.7818609E-02  0.9203802E-01
       -2   -1    0    0    0  501  0.00000000000E+00  0.00000000000E+00  0.29694588665E+03  0.29694588666E+03  0.25500000920E-02 0. -1.
        2   -1    0    0  501    0  0.00000000000E+00  0.00000000000E+00 -0.10213491739E+04  0.10213491739E+04  0.25500000920E-02 0.  1.
    10030    2    1    2    0    0  0.00000000000E+00  0.00000000000E+00 -0.72440328725E+03  0.13182950606E+04  0.11014271397E+04 0.  0.
        2    1    3    3  502    0  0.52676359384E+02  0.10196235305E+03  0.28247425035E+03  0.30489805246E+03  0.25500000920E-02 0. -1.
       -2    1    3    3    0  502 -0.52676359384E+02 -0.10196235305E+03 -0.10068775376E+04  0.10133970081E+04  0.25500000920E-02 0.  1.
</event>
<event>
 5   0  0.8305271E-04  0.1104139E+04  0.7818609E-02  0.9201167E-01
        1   -1    0    0  501    0  0.00000000000E+00  0.00000000000E+00  0.15142778121E+04  0.15142778121E+04  0.50400001928E-02 0.  1.
       -1   -1    0    0    0  501  0.00000000000E+00  0.00000000000E+00 -0.20127127888E+03  0.20127127894E+03  0.50400001928E-02 0. -1.
    10030    2    1    2    0    0  0.00000000000E+00  0.00000000000E+00  0.13130065332E+04  0.17155490911E+04  0.11041388171E+04 0.  0.
        5    1    3    3  502    0 -0.93586854802E+02 -0.52065619054E+03  0.90176447412E+03  0.10454867885E+04  0.46999998093E+01 0.  1.
       -5    1    3    3    0  502  0.93586854802E+02  0.52065619054E+03  0.41124205912E+03  0.67006230257E+03  0.46999998093E+01 0. -1.
</event>
<event>
 5   0  0.8009636E-04  0.1034661E+04  0.7818609E-02  0.9271326E-01
        1   -1    0    0  501    0  0.00000000000E+00  0.00000000000E+00  0.13275365360E+04  0.13275365360E+04  0.50400001928E-02 0. -1.
       -1   -1    0    0    0  501  0.00000000000E+00  0.00000000000E+00 -0.20159952986E+03  0.20159952993E+03  0.50400001928E-02 0.  1.
    10030    2    1    2    0    0  0.00000000000E+00  0.00000000000E+00  0.11259370061E+04  0.15291360659E+04  0.10346607977E+04 0.  0.
        1    1    3    3  502    0  0.11574239532E+03 -0.18392778743E+03 -0.13087075155E+03  0.25367870762E+03  0.50400001928E-02 0.  1.
       -1    1    3    3    0  502 -0.11574239532E+03  0.18392778743E+03  0.12568077577E+04  0.12754573583E+04  0.50400001928E-02 0. -1.
</event>
<event>
 5   0  0.1372794E-03  0.1103023E+04  0.7818609E-02  0.9202250E-01
        2   -1    0    0  501    0  0.00000000000E+00  0.00000000000E+00  0.56033221590E+03  0.56033221590E+03  0.25500000920E-02 0.  1.
       -2   -1    0    0    0  501  0.00000000000E+00  0.00000000000E+00 -0.54283007909E+03  0.54283007909E+03  0.25500000920E-02 0. -1.
    10030    2    1    2    0    0  0.00000000000E+00  0.00000000000E+00  0.17502136813E+02  0.11031622950E+04  0.11030234469E+04 0.  0.
        4    1    3    3  502    0 -0.18431541710E+03  0.12178279210E+03  0.51414659678E+03  0.55959946150E+03  0.12699999809E+01 0.  1.
       -4    1    3    3    0  502  0.18431541710E+03 -0.12178279210E+03 -0.49664445997E+03  0.54356283349E+03  0.12699999809E+01 0. -1.
</event>
<event>
 5   0  0.1372794E-03  0.1094407E+04  0.7818609E-02  0.9210660E-01
        2   -1    0    0  501    0  0.00000000000E+00  0.00000000000E+00  0.93997475275E+03  0.93997475276E+03  0.25500000920E-02 0.  1.
       -2   -1    0    0    0  501  0.00000000000E+00  0.00000000000E+00 -0.31855316299E+03  0.31855316300E+03  0.25500000920E-02 0. -1.
    10030    2    1    2    0    0  0.00000000000E+00  0.00000000000E+00  0.62142158976E+03  0.12585279158E+04  0.10944074755E+04 0.  0.
        4    1    3    3  502    0 -0.18610192189E+03 -0.44560671107E+03  0.14763327931E+02  0.48313438610E+03  0.12699999809E+01 0. -1.
       -4    1    3    3    0  502  0.18610192189E+03  0.44560671107E+03  0.60665826183E+03  0.77539352966E+03  0.12699999809E+01 0.  1.
</event>
<event>
 5   0  0.1402775E-03  0.1100858E+04  0.7818609E-02  0.9204356E-01
       -2   -1    0    0    0  501  0.00000000000E+00  0.00000000000E+00  0.38013615664E+03  0.38013615664E+03  0.25500000920E-02 0.  1.
        2   -1    0    0  501    0  0.00000000000E+00  0.00000000000E+00 -0.79700975031E+03  0.79700975032E+03  0.25500000920E-02 0. -1.
    10030    2    1    2    0    0  0.00000000000E+00  0.00000000000E+00 -0.41687359368E+03  0.11771459070E+04  0.11008582530E+04 0.  0.
        5    1    3    3  502    0  0.11573208961E+03 -0.14671596469E+03 -0.76203046981E+03  0.78462221341E+03  0.46999998093E+01 0. -1.
       -5    1    3    3    0  502 -0.11573208961E+03  0.14671596469E+03  0.34515687613E+03  0.39252369355E+03  0.46999998093E+01 0.  1.
</event>
<event>
 5   0  0.1429680E-03  0.1100001E+04  0.7818609E-02  0.9205191E-01
       -2   -1    0    0    0  501  0.00000000000E+00  0.00000000000E+00  0.70951761258E+03  0.70951761258E+03  0.25500000920E-02 0. -1.
        2   -1    0    0  501    0  0.00000000000E+00  0.00000000000E+00 -0.42634693352E+03  0.42634693353E+03  0.25500000920E-02 0.  1.
    10030    2    1    2    0    0  0.00000000000E+00  0.00000000000E+00  0.28317067906E+03  0.11358645461E+04  0.11000011971E+04 0.  0.
        3    1    3    3  502    0 -0.25360300483E+03 -0.88793806943E+02 -0.35395849270E+03  0.44439334938E+03  0.10100000352E+00 0.  1.
       -3    1    3    3    0  502  0.25360300483E+03  0.88793806943E+02  0.63712917176E+03  0.69147119674E+03  0.10100000352E+00 0. -1.
</event>
<event>
 5   0  0.1372794E-03  0.1099067E+04  0.7818609E-02  0.9206102E-01
       -2   -1    0    0    0  501  0.00000000000E+00  0.00000000000E+00  0.25840559329E+03  0.25840559331E+03  0.25500000920E-02 0.  1.
        2   -1    0    0  501    0  0.00000000000E+00  0.00000000000E+00 -0.11686548843E+04  0.11686548843E+04  0.25500000920E-02 0. -1.
    10030    2    1    2    0    0  0.00000000000E+00  0.00000000000E+00 -0.91024929098E+03  0.14270604776E+04  0.10990668019E+04 0.  0.
        4    1    3    3  502    0 -0.33189979203E+03  0.39100889728E+03 -0.71134627836E+03  0.87696098564E+03  0.12699999809E+01 0.  1.
       -4    1    3    3    0  502  0.33189979203E+03 -0.39100889728E+03 -0.19890301262E+03  0.55009949194E+03  0.12699999809E+01 0. -1.
</event>
<event>
 5   0  0.8305271E-04  0.1102511E+04  0.7818609E-02  0.9202748E-01
        1   -1    0    0  501    0  0.00000000000E+00  0.00000000000E+00  0.49387676278E+03  0.49387676281E+03  0.50400001928E-02 0. -1.
       -1   -1    0    0    0  501  0.00000000000E+00  0.00000000000E+00 -0.61530030170E+03  0.61530030172E+03  0.50400001928E-02 0.  1.
    10030    2    1    2    0    0  0.00000000000E+00  0.00000000000E+00 -0.12142353891E+03  0.11091770645E+04  0.11025108093E+04 0.  0.
        5    1    3    3  502    0  0.19834452103E+03  0.30501562833E+03  0.35590000014E+03  0.50898131856E+03  0.46999998093E+01 0. -1.
       -5    1    3    3    0  502 -0.19834452103E+03 -0.30501562833E+03 -0.47732353905E+03  0.60019574597E+03  0.46999998093E+01 0.  1.
</event>
<event>
 5   0  0.8341767E-04  0.1105259E+04  0.7818609E-02  0.9200081E-01
       -1   -1    0    0    0  501  0.00000000000E+00  0.00000000000E+00  0.31256728036E+03  0.31256728040E+03  0.50400001928E-02 0. -1.
        1   -1    0    0  501    0  0.00000000000E+00  0.00000000000E+00 -0.97706738156E+03  0.97706738157E+03  0.50400001928E-02 0.  1.
    10030    2    1    2    0    0  0.00000000000E+00  0.00000000000E+00 -0.66450010120E+03  0.12896346620E+04  0.11052588732E+04 0.  0.
        2    1    3    3  502    0 -0.14827202165E+03  0.52743639404E+03 -0.41659688270E+03  0.68827807232E+03  0.25500000920E-02 0.  1.
       -2    1    3    3    0  502  0.14827202165E+03 -0.52743639404E+03 -0.24790321850E+03  0.60135658965E+03  0.25500000920E-02 0. -1.
</event>
<event>
 5   0  0.5409500E-04  0.1098609E+04  0.7818609E-02  0.9206549E-01
       -3   -1    0    0    0  501  0.00000000000E+00  0.00000000000E+00  0.17327173917E+04  0.17327173947E+04  0.10100000352E+00 0.  1.
        3   -1    0    0  501    0  0.00000000000E+00  0.00000000000E+00 -0.17413996327E+03  0.17413999256E+03  0.10100000352E+00 0. -1.
    10030    2    1    2    0    0  0.00000000000E+00  0.00000000000E+00  0.15585774285E+04  0.19068573872E+04  0.10986088907E+04 0.  0.
        5    1    3    3  502    0 -0.29513947644E+03  0.45154774364E+03  0.95892008082E+03  0.11002511017E+04  0.46999998093E+01 0.  1.
       -5    1    3    3    0  502  0.29513947644E+03 -0.45154774364E+03  0.59965734764E+03  0.80660628557E+03  0.46999998093E+01 0. -1.
</event>
<event>
 5   0  0.1372794E-03  0.1103067E+04  0.7818609E-02  0.9202208E-01
        2   -1    0    0  501    0  0.00000000000E+00  0.00000000000E+00  0.87060649709E+03  0.87060649709E+03  0.25500000920E-02 0. -1.
       -2   -1    0    0    0  501  0.00000000000E+00  0.00000000000E+00 -0.34939906316E+03  0.34939906317E+03  0.25500000920E-02 0.  1.
    10030    2    1    2    0    0  0.00000000000E+00  0.00000000000E+00  0.52120743393E+03  0.12200055603E+04  0.11030668057E+04 0.  0.
        4    1    3    3  502    0 -0.96533313704E+02  0.46436008429E+03 -0.50731431029E+02  0.47699503093E+03  0.12699999809E+01 0.  1.
       -4    1    3    3    0  502  0.96533313704E+02 -0.46436008429E+03  0.57193886496E+03  0.74301052933E+03  0.12699999809E+01 0. -1.
</event>
<event>
 5   0  0.1429680E-03  0.1106415E+04  0.7818609E-02  0.9198961E-01
        2   -1    0    0  501    0  0.00000000000E+00  0.00000000000E+00  0.20141146022E+03  0.20141146024E+03  0.25500000920E-02 0. -1.
       -2   -1    0    0    0  501  0.00000000000E+00  0.00000000000E+00 -0.15194703455E+04  0.15194703455E+04  0.25500000920E-02 0.  1.
    10030    2    1    2    0    0  0.00000000000E+00  0.00000000000E+00 -0.13180588853E+04  0.17208818057E+04  0.11064153670E+04 0.  0.
        3    1    3    3  502    0  0.29146825148E+03 -0.27084286699E+03 -0.12568432135E+04  0.13183188058E+04  0.10100000352E+00 0.  1.
       -3    1    3    3    0  502 -0.29146825148E+03  0.27084286699E+03 -0.61215671751E+02  0.40256299991E+03  0.10100000352E+00 0. -1.
</event>
<event>
 5   0  0.5409500E-04  0.1099514E+04  0.7818609E-02  0.9205666E-01
       -3   -1    0    0    0  501  0.00000000000E+00  0.00000000000E+00  0.11355502837E+04  0.11355502882E+04  0.10100000352E+00 0. -1.
        3   -1    0    0  501    0  0.00000000000E+00  0.00000000000E+00 -0.26615529908E+03  0.26615531824E+03  0.10100000352E+00 0.  1.
    10030    2    1    2    0    0  0.00000000000E+00  0.00000000000E+00  0.86939498459E+03  0.14017056064E+04  0.10995139689E+04 0.  0.
        2    1    3    3  502    0 -0.31977119734E+03  0.30647594459E+03  0.19538250714E+02  0.44335410962E+03  0.25500000920E-02 0.  1.
       -2    1    3    3    0  502  0.31977119734E+03 -0.30647594459E+03  0.84985673387E+03  0.95835149678E+03  0.25500000920E-02 0. -1.
</event>
<event>
 5   0  0.1396936E-03  0.1097448E+04  0.7818609E-02  0.9207683E-01
        2   -1    0    0  501    0  0.00000000000E+00  0.00000000000E+00  0.89828250032E+03  0.89828250032E+03  0.25500000920E-02 0.  1.
       -2   -1    0    0    0  501  0.00000000000E+00  0.00000000000E+00 -0.33519302668E+03  0.33519302669E+03  0.25500000920E-02 0. -1.
    10030    2    1    2    0    0  0.00000000000E+00  0.00000000000E+00  0.56308947364E+03  0.12334755270E+04  0.10974480035E+04 0.  0.
        2    1    3    3  502    0 -0.21817419825E+03 -0.49314747420E+03  0.39563312881E+03  0.66881984474E+03  0.25500000920E-02 0.  1.
       -2    1    3    3    0  502  0.21817419825E+03  0.49314747420E+03  0.16745634483E+03  0.56465568227E+03  0.25500000920E-02 0. -1.
</event>
<event>
 5   0  0.1372794E-03  0.1091262E+04  0.7818609E-02  0.9213750E-01
        2   -1    0    0  501    0  0.00000000000E+00  0.00000000000E+00  0.73714862167E+03  0.73714862168E+03  0.25500000920E-02 0.  1.
       -2   -1    0    0    0  501  0.00000000000E+00  0.00000000000E+00 -0.40387145834E+03  0.40387145834E+03  0.25500000920E-02 0. -1.
    10030    2    1    2    0    0  0.00000000000E+00  0.00000000000E+00  0.33327716334E+03  0.11410200800E+04  0.10912621845E+04 0.  0.
        4    1    3    3  502    0  0.27308769000E+03  0.14118197093E+02  0.66032793740E+03  0.71471029637E+03  0.12699999809E+01 0.  1.
       -4    1    3    3    0  502 -0.27308769000E+03 -0.14118197093E+02 -0.32705077407E+03  0.42630978365E+03  0.12699999809E+01 0. -1.
</event>
<event>
 5   0  0.8009636E-04  0.1099996E+04  0.7818609E-02  0.9205195E-01
        1   -1    0    0  501    0  0.00000000000E+00  0.00000000000E+00  0.70836963702E+03  0.70836963704E+03  0.50400001928E-02 0. -1.
       -1   -1    0    0    0  501  0.00000000000E+00  0.00000000000E+00 -0.42703416740E+03  0.42703416742E+03  0.50400001928E-02 0.  1.
    10030    2    1    2    0    0  0.00000000000E+00  0.00000000000E+00  0.28133546963E+03  0.11354038045E+04  0.10999964330E+04 0.  0.
        1    1    3    3  502    0 -0.12710460709E+03 -0.13489514741E+03 -0.39382835480E+03  0.43526205326E+03  0.50400001928E-02 0.  1.
       -1    1    3    3    0  502  0.12710460709E+03  0.13489514741E+03  0.67516382442E+03  0.70014175120E+03  0.50400001928E-02 0. -1.
</event>
<event>
 5   0  0.1396936E-03  0.1091042E+04  0.7818609E-02  0.9213967E-01
       -2   -1    0    0    0  501  0.00000000000E+00  0.00000000000E+00  0.31479990015E+03  0.31479990016E+03  0.25500000920E-02 0. -1.
        2   -1    0    0  501    0  0.00000000000E+00  0.00000000000E+00 -0.94534019737E+03  0.94534019738E+03  0.25500000920E-02 0.  1.
    10030    2    1    2    0    0  0.00000000000E+00  0.00000000000E+00 -0.63054029722E+03  0.12601400975E+04  0.10910417036E+04 0.  0.
        2    1    3    3  502    0  0.27031298721E+03 -0.47332695313E+03 -0.34071881334E+03  0.64280387785E+03  0.25500000920E-02 0. -1.
       -2    1    3    3    0  502 -0.27031298721E+03  0.47332695313E+03 -0.28982148388E+03  0.61733621969E+03  0.25500000920E-02 0.  1.
</event>
<event>
 5   0  0.8305271E-04  0.1101671E+04  0.7818609E-02  0.9203565E-01
       -1   -1    0    0    0  501  0.00000000000E+00  0.00000000000E+00  0.29235762389E+03  0.29235762394E+03  0.50400001928E-02 0.  1.
        1   -1    0    0  501    0  0.00000000000E+00  0.00000000000E+00 -0.10378367977E+04  0.10378367977E+04  0.50400001928E-02 0. -1.
    10030    2    1    2    0    0  0.00000000000E+00  0.00000000000E+00 -0.74547917380E+03  0.13301944216E+04  0.11016705500E+04 0.  0.
        5    1    3    3  502    0 -0.39115003743E+03  0.36959221045E+03 -0.23089484094E+03  0.58560333962E+03  0.46999998093E+01 0.  1.
       -5    1    3    3    0  502  0.39115003743E+03 -0.36959221045E+03 -0.51458433286E+03  0.74459108202E+03  0.46999998093E+01 0. -1.
</event>
<event>
 5   0  0.5409500E-04  0.1093487E+04  0.7818609E-02  0.9211563E-01
       -3   -1    0    0    0  501  0.00000000000E+00  0.00000000000E+00  0.61899799325E+03  0.61899800149E+03  0.10100000352E+00 0.  1.
        3   -1    0    0  501    0  0.00000000000E+00  0.00000000000E+00 -0.48292303013E+03  0.48292304069E+03  0.10100000352E+00 0. -1.
    10030    2    1    2    0    0  0.00000000000E+00  0.00000000000E+00  0.13607496311E+03  0.11019210422E+04  0.10934868941E+04 0.  0.
        3    1    3    3  502    0  0.30268750016E+03  0.45091804079E+03  0.44509905716E+01  0.54310829840E+03  0.10100000352E+00 0. -1.
       -3    1    3    3    0  502 -0.30268750016E+03 -0.45091804079E+03  0.13162397254E+03  0.55881274378E+03  0.10100000352E+00 0.  1.
</event>
<event>
 5   0  0.8009636E-04  0.1099821E+04  0.7818609E-02  0.9205366E-01
        1   -1    0    0  501    0  0.00000000000E+00  0.00000000000E+00  0.93174475586E+03  0.93174475588E+03  0.50400001928E-02 0.  1.
       -1   -1    0    0    0  501  0.00000000000E+00  0.00000000000E+00 -0.32455398948E+03  0.32455398952E+03  0.50400001928E-02 0. -1.
    10030    2    1    2    0    0  0.00000000000E+00  0.00000000000E+00  0.60719076639E+03  0.12562987454E+04  0.10998208540E+04 0.  0.
        1    1    3    3  502    0  0.42244648353E+02 -0.52780589984E+03  0.47316775294E+03  0.71010661219E+03  0.50400001928E-02 0.  1.
       -1    1    3    3    0  502 -0.42244648353E+02  0.52780589984E+03  0.13402301344E+03  0.54619213321E+03  0.50400001928E-02 0. -1.
</event>
<event>
 5   0  0.1402775E-03  0.1102479E+04  0.7818609E-02  0.9202779E-01
       -2   -1    0    0    0  501  0.00000000000E+00  0.00000000000E+00  0.14731693412E+03  0.14731693415E+03  0.25500000920E-02 0.  1.
        2   -1    0    0  501    0  0.00000000000E+00  0.00000000000E+00 -0.20626633085E+04  0.20626633085E+04  0.25500000920E-02 0. -1.
    10030    2    1    2    0    0  0.00000000000E+00  0.00000000000E+00 -0.19153463744E+04  0.22099802427E+04  0.11024794506E+04 0.  0.
        5    1    3    3  502    0  0.90397156151E+02  0.12373470966E+03 -0.20190677506E+04  0.20248798966E+04  0.46999998093E+01 0. -1.
       -5    1    3    3    0  502 -0.90397156151E+02 -0.12373470966E+03  0.10372137623E+03  0.18510034603E+03  0.46999998093E+01 0.  1.
</event>
<event>
 5   0  0.8305271E-04  0.1103062E+04  0.7818609E-02  0.9202213E-01
       -1   -1    0    0    0  501  0.00000000000E+00  0.00000000000E+00  0.46896624029E+03  0.46896624032E+03  0.50400001928E-02 0. -1.
        1   -1    0    0  501    0  0.00000000000E+00  0.00000000000E+00 -0.64863179429E+03  0.64863179431E+03  0.50400001928E-02 0.  1.
    10030    2    1    2    0    0  0.00000000000E+00  0.00000000000E+00 -0.17966555399E+03  0.11175980346E+04  0.11030619455E+04 0.  0.
        5    1    3    3  502    0  0.64282838133E+02  0.11539802084E+03 -0.63234707682E+03  0.64601385593E+03  0.46999998093E+01 0.  1.
       -5    1    3    3    0  502 -0.64282838133E+02 -0.11539802084E+03  0.45268152283E+03  0.47158417870E+03  0.46999998093E+01 0. -1.
</event>
<event>
 5   0  0.1429680E-03  0.1100646E+04  0.7818609E-02  0.9204563E-01
        2   -1    0    0  501    0  0.00000000000E+00  0.00000000000E+00  0.17010897414E+04  0.17010897414E+04  0.25500000920E-02 0.  1.
       -2   -1    0    0    0  501  0.00000000000E+00  0.00000000000E+00 -0.17803596222E+03  0.17803596223E+03  0.25500000920E-02 0. -1.
    10030    2    1    2    0    0  0.00000000000E+00  0.00000000000E+00  0.15230537792E+04  0.18791257036E+04  0.11006455359E+04 0.  0.
        3    1    3    3  502    0  0.37646464667E+03 -0.68556623210E+02  0.14367816932E+04  0.14868649182E+04  0.10100000352E+00 0.  1.
       -3    1    3    3    0  502 -0.37646464667E+03  0.68556623210E+02  0.86272085961E+02  0.39226078544E+03  0.10100000352E+00 0. -1.
</event>
<event>
 5   0  0.8009636E-04  0.1097888E+04  0.7818609E-02  0.9207253E-01
        1   -1    0    0  501    0  0.00000000000E+00  0.00000000000E+00  0.15752613201E+04  0.15752613201E+04  0.50400001928E-02 0.  1.
       -1   -1    0    0    0  501  0.00000000000E+00  0.00000000000E+00 -0.19129485821E+03  0.19129485828E+03  0.50400001928E-02 0. -1.
    10030    2    1    2    0    0  0.00000000000E+00  0.00000000000E+00  0.13839664619E+04  0.17665561784E+04  0.10978877738E+04 0.  0.
        1    1    3    3  502    0 -0.17998725064E+03 -0.50057886518E+03  0.47393007716E+03  0.71244952714E+03  0.50400001928E-02 0. -1.
       -1    1    3    3    0  502  0.17998725064E+03  0.50057886518E+03  0.91003638475E+03  0.10541066513E+04  0.50400001928E-02 0.  1.
</event>
<event>
 5   0  0.8150924E-04  0.1080287E+04  0.7818609E-02  0.9224622E-01
       -1   -1    0    0    0  501  0.00000000000E+00  0.00000000000E+00  0.29615556441E+03  0.29615556446E+03  0.50400001928E-02 0. -1.
        1   -1    0    0  501    0  0.00000000000E+00  0.00000000000E+00 -0.98514013969E+03  0.98514013970E+03  0.50400001928E-02 0.  1.
    10030    2    1    2    0    0  0.00000000000E+00  0.00000000000E+00 -0.68898457527E+03  0.12812957042E+04  0.10802865067E+04 0.  0.
        3    1    3    3  502    0  0.48387577798E+03  0.13779770863E+03 -0.11137366358E+03  0.51529416857E+03  0.10100000352E+00 0. -1.
       -3    1    3    3    0  502 -0.48387577798E+03 -0.13779770863E+03 -0.57761091169E+03  0.76600153559E+03  0.10100000352E+00 0.  1.
</event>
<event>
 5   0  0.1429680E-03  0.1098010E+04  0.7818609E-02  0.9207134E-01
       -2   -1    0    0    0  501  0.00000000000E+00  0.00000000000E+00  0.41841205548E+03  0.41841205548E+03  0.25500000920E-02 0.  1.
        2   -1    0    0  501    0  0.00000000000E+00  0.00000000000E+00 -0.72035788540E+03  0.72035788540E+03  0.25500000920E-02 0. -1.
    10030    2    1    2    0    0  0.00000000000E+00  0.00000000000E+00 -0.30194582992E+03  0.11387699409E+04  0.10980098789E+04 0.  0.
        3    1    3    3  502    0 -0.44992711164E+03 -0.48654324909E+02 -0.47332391348E+03  0.65485661514E+03  0.10100000352E+00 0. -1.
       -3    1    3    3    0  502  0.44992711164E+03  0.48654324909E+02  0.17137808355E+03  0.48391332575E+03  0.10100000352E+00 0.  1.
</event>
<event>
 5   0  0.1402775E-03  0.1101695E+04  0.7818609E-02  0.9203541E-01
       -2   -1    0    0    0  501  0.00000000000E+00  0.00000000000E+00  0.12605487329E+03  0.12605487331E+03  0.25500000920E-02 0. -1.
        2   -1    0    0  501    0  0.00000000000E+00  0.00000000000E+00 -0.24071505744E+04  0.24071505744E+04  0.25500000920E-02 0.  1.
    10030    2    1    2    0    0  0.00000000000E+00  0.00000000000E+00 -0.22810957011E+04  0.25332054477E+04  0.11016951678E+04 0.  0.
        5    1    3    3  502    0 -0.33669496063E+03  0.21553512854E+03 -0.26923480623E+03  0.48200452179E+03  0.46999998093E+01 0. -1.
       -5    1    3    3    0  502  0.33669496063E+03 -0.21553512854E+03 -0.20118608949E+04  0.20512009259E+04  0.46999998093E+01 0.  1.
</event>
<event>
 5   0  0.1402775E-03  0.1101072E+04  0.7818609E-02  0.9204148E-01
        2   -1    0    0  501    0  0.00000000000E+00  0.00000000000E+00  0.10300109722E+04  0.10300109722E+04  0.25500000920E-02 0.  1.
       -2   -1    0    0    0  501  0.00000000000E+00  0.00000000000E+00 -0.29425867718E+03  0.29425867719E+03  0.25500000920E-02 0. -1.
    10030    2    1    2    0    0  0.00000000000E+00  0.00000000000E+00  0.73575229499E+03  0.13242696494E+04  0.11010715983E+04 0.  0.
        5    1    3    3  502    0 -0.25924643921E+03  0.20490253435E+03  0.89744256853E+03  0.95635716061E+03  0.46999998093E+01 0.  1.
       -5    1    3    3    0  502  0.25924643921E+03 -0.20490253435E+03 -0.16169027354E+03  0.36791248876E+03  0.46999998093E+01 0. -1.
</event>
<event>
 5   0  0.7946038E-04  0.1100387E+04  0.7818609E-02  0.9204815E-01
        1   -1    0    0  501    0  0.00000000000E+00  0.00000000000E+00  0.12911879509E+04  0.12911879509E+04  0.50400001928E-02 0.  1.
       -1   -1    0    0    0  501  0.00000000000E+00  0.00000000000E+00 -0.23444525507E+03  0.23444525512E+03  0.50400001928E-02 0. -1.
    10030    2    1    2    0    0  0.00000000000E+00  0.00000000000E+00  0.10567426959E+04  0.15256332061E+04  0.11003870020E+04 0.  0.
        4    1    3    3  502    0  0.22381954944E+03 -0.50110891427E+03  0.47456808001E+03  0.72554931614E+03  0.12699999809E+01 0. -1.
       -4    1    3    3    0  502 -0.22381954944E+03  0.50110891427E+03  0.58217461584E+03  0.80008388992E+03  0.12699999809E+01 0.  1.
</event>
<event>
 5   0  0.8305271E-04  0.1099911E+04  0.7818609E-02  0.9205278E-01
        1   -1    0    0  501    0  0.00000000000E+00  0.00000000000E+00  0.50877188361E+03  0.50877188363E+03  0.50400001928E-02 0.  1.
       -1   -1    0    0    0  501  0.00000000000E+00  0.00000000000E+00 -0.59447321264E+03  0.59447321266E+03  0.50400001928E-02 0. -1.
    10030    2    1    2    0    0  0.00000000000E+00  0.00000000000E+00 -0.85701329036E+02  0.11032450963E+04  0.10999113713E+04 0.  0.
        5    1    3    3  502    0 -0.16353914971E+03  0.46888146063E+03 -0.27985964776E+03  0.57003367449E+03  0.46999998093E+01 0. -1.
       -5    1    3    3    0  502  0.16353914971E+03 -0.46888146063E+03  0.19415831872E+03  0.53321142180E+03  0.46999998093E+01 0.  1.
</event>
<event>
 5   0  0.7946038E-04  0.1144348E+04  0.7818609E-02  0.9163014E-01
       -1   -1    0    0    0  501  0.00000000000E+00  0.00000000000E+00  0.38330815068E+03  0.38330815071E+03  0.50400001928E-02 0. -1.
        1   -1    0    0  501    0  0.00000000000E+00  0.00000000000E+00 -0.85409833164E+03  0.85409833166E+03  0.50400001928E-02 0.  1.
    10030    2    1    2    0    0  0.00000000000E+00  0.00000000000E+00 -0.47079018097E+03  0.12374064824E+04  0.11443475906E+04 0.  0.
        4    1    3    3  502    0 -0.21399292236E+03 -0.30363819560E+03 -0.70597715818E+03  0.79774337066E+03  0.12699999809E+01 0.  1.
       -4    1    3    3    0  502  0.21399292236E+03  0.30363819560E+03  0.23518697722E+03  0.43966311171E+03  0.12699999809E+01 0. -1.
</event>
<event>
 5   0  0.8009636E-04  0.1099691E+04  0.7818609E-02  0.9205493E-01
       -1   -1    0    0    0  501  0.00000000000E+00  0.00000000000E+00  0.66033698007E+03  0.66033698009E+03  0.50400001928E-02 0. -1.
        1   -1    0    0  501    0  0.00000000000E+00  0.00000000000E+00 -0.45784212520E+03  0.45784212523E+03  0.50400001928E-02 0.  1.
    10030    2    1    2    0    0  0.00000000000E+00  0.00000000000E+00  0.20249485487E+03  0.11181791053E+04  0.10996910227E+04 0.  0.
        1    1    3    3  502    0  0.33420442797E+03 -0.47551190428E+02  0.54256772861E+03  0.63900974604E+03  0.50400001928E-02 0. -1.
       -1    1    3    3    0  502 -0.33420442797E+03  0.47551190428E+02 -0.34007287374E+03  0.47916935927E+03  0.50400001928E-02 0.  1.
</event>
<event>
 5   0  0.7946038E-04  0.1108811E+04  0.7818609E-02  0.9196647E-01
       -1   -1    0    0    0  501  0.00000000000E+00  0.00000000000E+00  0.31940808762E+03  0.31940808766E+03  0.50400001928E-02 0. -1.
        1   -1    0    0  501    0  0.00000000000E+00  0.00000000000E+00 -0.96229652236E+03  0.96229652237E+03  0.50400001928E-02 0.  1.
    10030    2    1    2    0    0  0.00000000000E+00  0.00000000000E+00 -0.64288843474E+03  0.12817046100E+04  0.11088106997E+04 0.  0.
        4    1    3    3  502    0  0.19865331878E+03 -0.43089022545E+03  0.10035260754E+02  0.47458597409E+03  0.12699999809E+01 0. -1.
       -4    1    3    3    0  502 -0.19865331878E+03  0.43089022545E+03 -0.65292369549E+03  0.80711863594E+03  0.12699999809E+01 0.  1.
</event>
<event>
 5   0  0.1429680E-03  0.1103623E+04  0.7818609E-02  0.9201668E-01
        2   -1    0    0  501    0  0.00000000000E+00  0.00000000000E+00  0.21006515014E+04  0.21006515014E+04  0.25500000920E-02 0.  1.
       -2   -1    0    0    0  501  0.00000000000E+00  0.00000000000E+00 -0.14495314703E+03  0.14495314705E+03  0.25500000920E-02 0. -1.
    10030    2    1    2    0    0  0.00000000000E+00  0.00000000000E+00  0.19556983544E+04  0.22456046484E+04  0.11036232074E+04 0.  0.
        3    1    3    3  502    0 -0.92042186252E+02  0.52586231948E+03  0.69376120432E+03  0.87538994849E+03  0.10100000352E+00 0. -1.
       -3    1    3    3    0  502  0.92042186252E+02 -0.52586231948E+03  0.12619371500E+04  0.13702147000E+04  0.10100000352E+00 0.  1.
</event>
<event>
 5   0  0.1402775E-03  0.1102470E+04  0.7818609E-02  0.9202787E-01
       -2   -1    0    0    0  501  0.00000000000E+00  0.00000000000E+00  0.42063966561E+03  0.42063966562E+03  0.25500000920E-02 0. -1.
        2   -1    0    0  501    0  0.00000000000E+00  0.00000000000E+00 -0.72237665873E+03  0.72237665874E+03  0.25500000920E-02 0.  1.
    10030    2    1    2    0    0  0.00000000000E+00  0.00000000000E+00 -0.30173699312E+03  0.11430163244E+04  0.11024704553E+04 0.  0.
        5    1    3    3  502    0  0.22198475209E+03 -0.30949410805E+03  0.26225095986E+03  0.46245160723E+03  0.46999998093E+01 0. -1.
       -5    1    3    3    0  502 -0.22198475209E+03  0.30949410805E+03 -0.56398795299E+03  0.68056471712E+03  0.46999998093E+01 0.  1.
</event>
<event>
 5   0  0.1402775E-03  0.1099956E+04  0.7818609E-02  0.9205235E-01
        2   -1    0    0  501    0  0.00000000000E+00  0.00000000000E+00  0.10542497367E+04  0.10542497367E+04  0.25500000920E-02 0. -1.
       -2   -1    0    0    0  501  0.00000000000E+00  0.00000000000E+00 -0.28691072129E+03  0.28691072130E+03  0.25500000920E-02 0.  1.
    10030    2    1    2    0    0  0.00000000000E+00  0.00000000000E+00  0.76733901537E+03  0.13411604580E+04  0.10999555489E+04 0.  0.
        5    1    3    3  502    0 -0.53779406235E+03  0.13273606385E+02  0.24435669722E+03  0.59087302156E+03  0.46999998093E+01 0.  1.
       -5    1    3    3    0  502  0.53779406235E+03 -0.13273606385E+02  0.52298231814E+03  0.75028743640E+03  0.46999998093E+01 0. -1.
</event>
<event>
 5   0  0.8009636E-04  0.1094257E+04  0.7818609E-02  0.9210807E-01
        1   -1    0    0  501    0  0.00000000000E+00  0.00000000000E+00  0.81226330920E+03  0.81226330921E+03  0.50400001928E-02 0.  1.
       -1   -1    0    0    0  501  0.00000000000E+00  0.00000000000E+00 -0.36853775126E+03  0.36853775130E+03  0.50400001928E-02 0. -1.
    10030    2    1    2    0    0  0.00000000000E+00  0.00000000000E+00  0.44372555793E+03  0.11808010605E+04  0.10942571790E+04 0.  0.
        1    1    3    3  502    0 -0.41261934994E+03 -0.24567768379E+03 -0.61050941824E+02  0.48408622143E+03  0.50400001928E-02 0. -1.
       -1    1    3    3    0  502  0.41261934994E+03  0.24567768379E+03  0.50477649976E+03  0.69671483908E+03  0.50400001928E-02 0.  1.
</event>
<event>
 5   0  0.1425432E-03  0.1098717E+04  0.7818609E-02  0.9206444E-01
        2   -1    0    0  501    0  0.00000000000E+00  0.00000000000E+00  0.76628829135E+03  0.76628829135E+03  0.25500000920E-02 0.  1.
       -2   -1    0    0    0  501  0.00000000000E+00  0.00000000000E+00 -0.39383937064E+03  0.39383937065E+03  0.25500000920E-02 0. -1.
    10030    2    1    2    0    0  0.00000000000E+00  0.00000000000E+00  0.37244892071E+03  0.11601276620E+04  0.10987165210E+04 0.  0.
        1    1    3    3  502    0  0.29220365798E+03  0.23541868111E+03 -0.23743703137E+03  0.44405098474E+03  0.50400001928E-02 0. -1.
       -1    1    3    3    0  502 -0.29220365798E+03 -0.23541868111E+03  0.60988595208E+03  0.71607667726E+03  0.50400001928E-02 0.  1.
</event>
<event>
 5   0  0.1425432E-03  0.1097108E+04  0.7818609E-02  0.9208016E-01
       -2   -1    0    0    0  501  0.00000000000E+00  0.00000000000E+00  0.20354671729E+03  0.20354671730E+03  0.25500000920E-02 0. -1.
        2   -1    0    0  501    0  0.00000000000E+00  0.00000000000E+00 -0.14783398577E+04  0.14783398577E+04  0.25500000920E-02 0.  1.
    10030    2    1    2    0    0  0.00000000000E+00  0.00000000000E+00 -0.12747931404E+04  0.16818865750E+04  0.10971075154E+04 0.  0.
        1    1    3    3  502    0 -0.17335012678E+03 -0.43132754524E+03 -0.10838644978E+04  0.11793455674E+04  0.50400001928E-02 0.  1.
       -1    1    3    3    0  502  0.17335012678E+03  0.43132754524E+03 -0.19092864263E+03  0.50254100762E+03  0.50400001928E-02 0. -1.
</event>
<event>
 5   0  0.8150924E-04  0.1099820E+04  0.7818609E-02  0.9205368E-01
       -1   -1    0    0    0  501  0.00000000000E+00  0.00000000000E+00  0.21447564471E+03  0.21447564476E+03  0.50400001928E-02 0.  1.
        1   -1    0    0  501    0  0.00000000000E+00  0.00000000000E+00 -0.14099541076E+04  0.14099541076E+04  0.50400001928E-02 0. -1.
    10030    2    1    2    0    0  0.00000000000E+00  0.00000000000E+00 -0.11954784629E+04  0.16244297524E+04  0.10998196512E+04 0.  0.
        3    1    3    3  502    0  0.42131170165E+03  0.18415141345E+03 -0.15222089402E+03  0.48434130920E+03  0.10100000352E+00 0.  1.
       -3    1    3    3    0  502 -0.42131170165E+03 -0.18415141345E+03 -0.10432575689E+04  0.11400884432E+04  0.10100000352E+00 0. -1.
</event>
<event>
 5   0  0.1372794E-03  0.1106913E+04  0.7818609E-02  0.9198480E-01
        2   -1    0    0  501    0  0.00000000000E+00  0.00000000000E+00  0.13157785469E+04  0.13157785469E+04  0.25500000920E-02 0. -1.
       -2   -1    0    0    0  501  0.00000000000E+00  0.00000000000E+00 -0.23280061184E+03  0.23280061186E+03  0.25500000920E-02 0.  1.
    10030    2    1    2    0    0  0.00000000000E+00  0.00000000000E+00  0.10829779351E+04  0.15485791588E+04  0.11069129158E+04 0.  0.
        4    1    3    3  502    0 -0.18762235847E+03  0.19768263767E+03 -0.13240841399E+03  0.30300854053E+03  0.12699999809E+01 0.  1.
       -4    1    3    3    0  502  0.18762235847E+03 -0.19768263767E+03  0.12153863491E+04  0.12455706183E+04  0.12699999809E+01 0. -1.
</event>
<event>
 5   0  0.8341767E-04  0.1102240E+04  0.7818609E-02  0.9203011E-01
       -1   -1    0    0    0  501  0.00000000000E+00  0.00000000000E+00  0.70846896228E+03  0.70846896229E+03  0.50400001928E-02 0.  1.
        1   -1    0    0  501    0  0.00000000000E+00  0.00000000000E+00 -0.42871771592E+03  0.42871771595E+03  0.50400001928E-02 0. -1.
    10030    2    1    2    0    0  0.00000000000E+00  0.00000000000E+00  0.27975124635E+03  0.11371866782E+04  0.11022398928E+04 0.  0.
        2    1    3    3  502    0  0.12458012149E+03 -0.50086215353E+03 -0.59513505343E+02  0.51954303078E+03  0.25500000920E-02 0. -1.
       -2    1    3    3    0  502 -0.12458012149E+03  0.50086215353E+03  0.33926475170E+03  0.61764364747E+03  0.25500000920E-02 0.  1.
</event>
<event>
 5   0  0.1396936E-03  0.1106334E+04  0.7818609E-02  0.9199040E-01
        2   -1    0    0  501    0  0.00000000000E+00  0.00000000000E+00  0.15602783012E+04  0.15602783012E+04  0.25500000920E-02 0.  1.
       -2   -1    0    0    0  501  0.00000000000E+00  0.00000000000E+00 -0.19611494517E+03  0.19611494519E+03  0.25500000920E-02 0. -1.
    10030    2    1    2    0    0  0.00000000000E+00  0.00000000000E+00  0.13641633561E+04  0.17563932464E+04  0.11063342958E+04 0.  0.
        2    1    3    3  502    0 -0.43889861306E+03  0.23081249699E+02  0.12153503298E+04  0.12923781029E+04  0.25500000920E-02 0.  1.
       -2    1    3    3    0  502  0.43889861306E+03 -0.23081249699E+02  0.14881302624E+03  0.46401514352E+03  0.25500000920E-02 0. -1.
</event>
<event>
 5   0  0.8009636E-04  0.1099504E+04  0.7818609E-02  0.9205675E-01
       -1   -1    0    0    0  501  0.00000000000E+00  0.00000000000E+00  0.18947107418E+03  0.18947107424E+03  0.50400001928E-02 0. -1.
        1   -1    0    0  501    0  0.00000000000E+00  0.00000000000E+00 -0.15951103308E+04  0.15951103308E+04  0.50400001928E-02 0.  1.
    10030    2    1    2    0    0  0.00000000000E+00  0.00000000000E+00 -0.14056392566E+04  0.17845814051E+04  0.10995040116E+04 0.  0.
        1    1    3    3  502    0  0.53552036345E+03 -0.11644362257E+03 -0.63233070777E+03  0.83676956262E+03  0.50400001928E-02 0.  1.
       -1    1    3    3    0  502 -0.53552036345E+03  0.11644362257E+03 -0.77330854888E+03  0.94781184246E+03  0.50400001928E-02 0. -1.
</event>
<event>
 5   0  0.1396936E-03  0.1083500E+04  0.7818609E-02  0.9221425E-01
        2   -1    0    0  501    0  0.00000000000E+00  0.00000000000E+00  0.12640839537E+04  0.12640839537E+04  0.25500000920E-02 0.  1.
       -2   -1    0    0    0  501  0.00000000000E+00  0.00000000000E+00 -0.23217838248E+03  0.23217838250E+03  0.25500000920E-02 0. -1.
    10030    2    1    2    0    0  0.00000000000E+00  0.00000000000E+00  0.10319055712E+04  0.14962623362E+04  0.10834998250E+04 0.  0.
        2    1    3    3  502    0 -0.28161283579E+03  0.45310362497E+03  0.64611655045E+03  0.83789932630E+03  0.25500000920E-02 0. -1.
       -2    1    3    3    0  502  0.28161283579E+03 -0.45310362497E+03  0.38578902074E+03  0.65836300987E+03  0.25500000920E-02 0.  1.
</event>
<event>
 5   0  0.1402775E-03  0.1098254E+04  0.7818609E-02  0.9206895E-01
        2   -1    0    0  501    0  0.00000000000E+00  0.00000000000E+00  0.42673960381E+03  0.42673960382E+03  0.25500000920E-02 0. -1.
       -2   -1    0    0    0  501  0.00000000000E+00  0.00000000000E+00 -0.70661468778E+03  0.70661468778E+03  0.25500000920E-02 0.  1.
    10030    2    1    2    0    0  0.00000000000E+00  0.00000000000E+00 -0.27987508397E+03  0.11333542916E+04  0.10982540178E+04 0.  0.
        5    1    3    3  502    0  0.15652529167E+03  0.52105548677E+02 -0.68041595286E+03  0.70014506642E+03  0.46999998093E+01 0.  1.
       -5    1    3    3    0  502 -0.15652529167E+03 -0.52105548677E+02  0.40054086889E+03  0.43320922518E+03  0.46999998093E+01 0. -1.
</event>
<event>
 5   0  0.1402775E-03  0.1103699E+04  0.7818609E-02  0.9201594E-01
       -2   -1    0    0    0  501  0.00000000000E+00  0.00000000000E+00  0.14783928661E+04  0.14783928661E+04  0.25500000920E-02 0. -1.
        2   -1    0    0  501    0  0.00000000000E+00  0.00000000000E+00 -0.20599252351E+03  0.20599252352E+03  0.25500000920E-02 0.  1.
    10030    2    1    2    0    0  0.00000000000E+00  0.00000000000E+00  0.12724003426E+04  0.16843853897E+04  0.11036990119E+04 0.  0.
        5    1    3    3  502    0 -0.26016082676E+03  0.76562582974E+02 -0.97247076667E+02  0.28813984246E+03  0.46999998093E+01 0.  1.
       -5    1    3    3    0  502  0.26016082676E+03 -0.76562582974E+02  0.13696474193E+04  0.13962455472E+04  0.46999998093E+01 0. -1.
</event>
<event>
 5   0  0.1402775E-03  0.1097898E+04  0.7818609E-02  0.9207243E-01
       -2   -1    0    0    0  501  0.00000000000E+00  0.00000000000E+00  0.25645379200E+03  0.25645379201E+03  0.25500000920E-02 0. -1.
        2   -1    0    0  501    0  0.00000000000E+00  0.00000000000E+00 -0.11750461467E+04  0.11750461467E+04  0.25500000920E-02 0.  1.
    10030    2    1    2    0    0  0.00000000000E+00  0.00000000000E+00 -0.91859235473E+03  0.14314999387E+04  0.10978980647E+04 0.  0.
        5    1    3    3  502    0 -0.15824036577E+03 -0.49497626790E+03 -0.22868910617E+03  0.56776959800E+03  0.46999998093E+01 0. -1.
       -5    1    3    3    0  502  0.15824036577E+03  0.49497626790E+03 -0.68990324856E+03  0.86373034074E+03  0.46999998093E+01 0.  1.
</event>
<event>
 5   0  0.8009636E-04  0.1104787E+04  0.7818609E-02  0.9200539E-01
        1   -1    0    0  501    0  0.00000000000E+00  0.00000000000E+00  0.79098024070E+03  0.79098024072E+03  0.50400001928E-02 0. -1.
       -1   -1    0    0    0  501  0.00000000000E+00  0.00000000000E+00 -0.38577244162E+03  0.38577244165E+03  0.50400001928E-02 0.  1.
    10030    2    1    2    0    0  0.00000000000E+00  0.00000000000E+00  0.40520779908E+03  0.11767526824E+04  0.11047866378E+04 0.  0.
        1    1    3    3  502    0  0.22553618582E+03  0.48665318522E+03  0.61938895756E+02  0.53993918235E+03  0.50400001928E-02 0.  1.
       -1    1    3    3    0  502 -0.22553618582E+03 -0.48665318522E+03  0.34326890333E+03  0.63681350003E+03  0.50400001928E-02 0. -1.
</event>
<event>
 5   0  0.8150924E-04  0.1096926E+04  0.7818609E-02  0.9208193E-01
        1   -1    0    0  501    0  0.00000000000E+00  0.00000000000E+00  0.43533822423E+03  0.43533822426E+03  0.50400001928E-02 0. -1.
       -1   -1    0    0    0  501  0.00000000000E+00  0.00000000000E+00 -0.69098399449E+03  0.69098399451E+03  0.50400001928E-02 0.  1.
    10030    2    1    2    0    0  0.00000000000E+00  0.00000000000E+00 -0.25564577026E+03  0.11263222188E+04  0.10969261510E+04 0.  0.
        3    1    3    3  502    0  0.78380561978E+01 -0.28930352054E+03  0.35055261663E+03  0.45458234606E+03  0.10100000352E+00 0. -1.
       -3    1    3    3    0  502 -0.78380561978E+01  0.28930352054E+03 -0.60619838689E+03  0.67173987271E+03  0.10100000352E+00 0.  1.
</event>
<event>
 5   0  0.8150924E-04  0.1130728E+04  0.7818609E-02  0.9175749E-01
       -1   -1    0    0    0  501  0.00000000000E+00  0.00000000000E+00  0.52371754931E+03  0.52371754933E+03  0.50400001928E-02 0. -1.
        1   -1    0    0  501    0  0.00000000000E+00  0.00000000000E+00 -0.61032218985E+03  0.61032218987E+03  0.50400001928E-02 0.  1.
    10030    2    1    2    0    0  0.00000000000E+00  0.00000000000E+00 -0.86604640539E+02  0.11340397392E+04  0.11307279807E+04 0.  0.
        3    1    3    3  502    0 -0.26184932536E+03  0.49634809001E+03  0.25527656797E+02  0.56176344409E+03  0.10100000352E+00 0.  1.
       -3    1    3    3    0  502  0.26184932536E+03 -0.49634809001E+03 -0.11213229734E+03  0.57227629512E+03  0.10100000352E+00 0. -1.
</event>
<event>
 5   0  0.1425432E-03  0.1101283E+04  0.7818609E-02  0.9203942E-01
        2   -1    0    0  501    0  0.00000000000E+00  0.00000000000E+00  0.77884459553E+03  0.77884459553E+03  0.25500000920E-02 0.  1.
       -2   -1    0    0    0  501  0.00000000000E+00  0.00000000000E+00 -0.38930259364E+03  0.38930259365E+03  0.25500000920E-02 0. -1.
    10030    2    1    2    0    0  0.00000000000E+00  0.00000000000E+00  0.38954200189E+03  0.11681471892E+04  0.11012832898E+04 0.  0.
        1    1    3    3  502    0 -0.11271302521E+02  0.18846534977E+03 -0.35389633369E+03  0.40110951790E+03  0.50400001928E-02 0. -1.
       -1    1    3    3    0  502  0.11271302521E+02 -0.18846534977E+03  0.74343833558E+03  0.76703767128E+03  0.50400001928E-02 0.  1.
</event>
<event>
 5   0  0.8305271E-04  0.1119833E+04  0.7818609E-02  0.9186074E-01
       -1   -1    0    0    0  501  0.00000000000E+00  0.00000000000E+00  0.37195753808E+03  0.37195753811E+03  0.50400001928E-02 0.  1.
        1   -1    0    0  501    0  0.00000000000E+00  0.00000000000E+00 -0.84285546988E+03  0.84285546990E+03  0.50400001928E-02 0. -1.
    10030    2    1    2    0    0  0.00000000000E+00  0.00000000000E+00 -0.47089793181E+03  0.12148130080E+04  0.11198329260E+04 0.  0.
        5    1    3    3  502    0 -0.21367881450E+03  0.51702025530E+03 -0.26008589159E+03  0.61695651481E+03  0.46999998093E+01 0. -1.
       -5    1    3    3    0  502  0.21367881450E+03 -0.51702025530E+03 -0.21081204022E+03  0.59785649320E+03  0.46999998093E+01 0.  1.
</event>
<event>
 5   0  0.1425432E-03  0.1103405E+04  0.7818609E-02  0.9201880E-01
        2   -1    0    0  501    0  0.00000000000E+00  0.00000000000E+00  0.15273910516E+04  0.15273910516E+04  0.25500000920E-02 0.  1.
       -2   -1    0    0    0  501  0.00000000000E+00  0.00000000000E+00 -0.19927806554E+03  0.19927806555E+03  0.25500000920E-02 0. -1.
    10030    2    1    2    0    0  0.00000000000E+00  0.00000000000E+00  0.13281129860E+04  0.17266691171E+04  0.11034047926E+04 0.  0.
        1    1    3    3  502    0  0.37117950256E+02 -0.17585505799E+03 -0.15218150942E+03  0.23550362096E+03  0.50400001928E-02 0. -1.
       -1    1    3    3    0  502 -0.37117950256E+02  0.17585505799E+03  0.14802944954E+04  0.14911654961E+04  0.50400001928E-02 0.  1.
</event>
<event>
 5   0  0.1429680E-03  0.1093662E+04  0.7818609E-02  0.9211391E-01
        2   -1    0    0  501    0  0.00000000000E+00  0.00000000000E+00  0.22393560615E+03  0.22393560617E+03  0.25500000920E-02 0.  1.
       -2   -1    0    0    0  501  0.00000000000E+00  0.00000000000E+00 -0.13353131101E+04  0.13353131101E+04  0.25500000920E-02 0. -1.
    10030    2    1    2    0    0  0.00000000000E+00  0.00000000000E+00 -0.11113775040E+04  0.15592487163E+04  0.10936620149E+04 0.  0.
        3    1    3    3  502    0  0.13872818744E+03 -0.40143846169E+03 -0.64643145975E+02  0.42962436504E+03  0.10100000352E+00 0.  1.
       -3    1    3    3    0  502 -0.13872818744E+03  0.40143846169E+03 -0.10467343580E+04  0.11296243512E+04  0.10100000352E+00 0. -1.
</event>
<event>
 5   0  0.1396936E-03  0.1096884E+04  0.7818609E-02  0.9208234E-01
        2   -1    0    0  501    0  0.00000000000E+00  0.00000000000E+00  0.75715569061E+03  0.75715569062E+03  0.25500000920E-02 0. -1.
       -2   -1    0    0    0  501  0.00000000000E+00  0.00000000000E+00 -0.39726119389E+03  0.39726119390E+03  0.25500000920E-02 0.  1.
    10030    2    1    2    0    0  0.00000000000E+00  0.00000000000E+00  0.35989449672E+03  0.11544168845E+04  0.10968839020E+04 0.  0.
        2    1    3    3  502    0  0.39366536964E+03 -0.17766653361E+03 -0.17579180353E+03  0.46630524190E+03  0.25500000920E-02 0. -1.
       -2    1    3    3    0  502 -0.39366536964E+03  0.17766653361E+03  0.53568630026E+03  0.68811164262E+03  0.25500000920E-02 0.  1.
</event>
<event>
 5   0  0.8341767E-04  0.1133526E+04  0.7818609E-02  0.9173117E-01
       -1   -1    0    0    0  501  0.00000000000E+00  0.00000000000E+00  0.56768469742E+03  0.56768469744E+03  0.50400001928E-02 0.  1.
        1   -1    0    0  501    0  0.00000000000E+00  0.00000000000E+00 -0.56584308850E+03  0.56584308852E+03  0.50400001928E-02 0. -1.
    10030    2    1    2    0    0  0.00000000000E+00  0.00000000000E+00  0.18416089190E+01  0.11335277860E+04  0.11335262900E+04 0.  0.
        2    1    3    3  502    0 -0.20571383829E+03  0.26446749780E+03  0.45804198468E+03  0.56750656418E+03  0.25500000920E-02 0.  1.
       -2    1    3    3    0  502  0.20571383829E+03 -0.26446749780E+03 -0.45620037576E+03  0.56602122178E+03  0.25500000920E-02 0. -1.
</event>
<event>
 5   0  0.1402775E-03  0.1086577E+04  0.7818609E-02  0.9218375E-01
        2   -1    0    0  501    0  0.00000000000E+00  0.00000000000E+00  0.18795867119E+03  0.18795867121E+03  0.25500000920E-02 0. -1.
       -2   -1    0    0    0  501  0.00000000000E+00  0.00000000000E+00 -0.15703565598E+04  0.15703565598E+04  0.25500000920E-02 0.  1.
    10030    2    1    2    0    0  0.00000000000E+00  0.00000000000E+00 -0.13823978886E+04  0.17583152310E+04  0.10865765178E+04 0.  0.
        5    1    3    3  502    0  0.44608643399E+03 -0.12838456601E+03 -0.11479382645E+04  0.12382487845E+04  0.46999998093E+01 0.  1.
       -5    1    3    3    0  502 -0.44608643399E+03  0.12838456601E+03 -0.23445962412E+03  0.52006644645E+03  0.46999998093E+01 0. -1.
</event>
<event>
 5   0  0.5409500E-04  0.1099310E+04  0.7818609E-02  0.9205864E-01
       -3   -1    0    0    0  501  0.00000000000E+00  0.00000000000E+00  0.22598961210E+04  0.22598961233E+04  0.10100000352E+00 0.  1.
        3   -1    0    0  501    0  0.00000000000E+00  0.00000000000E+00 -0.13368791972E+03  0.13368795787E+03  0.10100000352E+00 0. -1.
    10030    2    1    2    0    0  0.00000000000E+00  0.00000000000E+00  0.21262082013E+04  0.23935840812E+04  0.10993104376E+04 0.  0.
        4    1    3    3  502    0  0.16325766093E+03 -0.39207065374E+03  0.18228302724E+04  0.18716528194E+04  0.12699999809E+01 0.  1.
       -4    1    3    3    0  502 -0.16325766093E+03  0.39207065374E+03  0.30337792890E+03  0.52193126178E+03  0.12699999809E+01 0. -1.
</event>
<event>
 5   0  0.1402775E-03  0.1101531E+04  0.7818609E-02  0.9203701E-01
       -2   -1    0    0    0  501  0.00000000000E+00  0.00000000000E+00  0.49778409398E+03  0.49778409398E+03  0.25500000920E-02 0. -1.
        2   -1    0    0  501    0  0.00000000000E+00  0.00000000000E+00 -0.60938601822E+03  0.60938601822E+03  0.25500000920E-02 0.  1.
    10030    2    1    2    0    0  0.00000000000E+00  0.00000000000E+00 -0.11160192424E+03  0.11071701122E+04  0.11015310562E+04 0.  0.
        5    1    3    3  502    0 -0.81321619785E+01  0.14035106204E+03 -0.59102677057E+03  0.60753541971E+03  0.46999998093E+01 0.  1.
       -5    1    3    3    0  502  0.81321619785E+01 -0.14035106204E+03  0.47942484633E+03  0.49963469250E+03  0.46999998093E+01 0. -1.
</event>
<event>
 5   0  0.1425432E-03  0.1100650E+04  0.7818609E-02  0.9204558E-01
       -2   -1    0    0    0  501  0.00000000000E+00  0.00000000000E+00  0.40093364536E+03  0.40093364537E+03  0.25500000920E-02 0. -1.
        2   -1    0    0  501    0  0.00000000000E+00  0.00000000000E+00 -0.75538153639E+03  0.75538153640E+03  0.25500000920E-02 0.  1.
    10030    2    1    2    0    0  0.00000000000E+00  0.00000000000E+00 -0.35444789103E+03  0.11563151818E+04  0.11006504859E+04 0.  0.
        1    1    3    3  502    0 -0.45464285131E+03 -0.88396216408E+02  0.13503506756E+03  0.48244013392E+03  0.50400001928E-02 0. -1.
       -1    1    3    3    0  502  0.45464285131E+03  0.88396216408E+02 -0.48948295860E+03  0.67387504784E+03  0.50400001928E-02 0.  1.
</event>
<event>
 5   0  0.1372794E-03  0.1103646E+04  0.7818609E-02  0.9201645E-01
       -2   -1    0    0    0  501  0.00000000000E+00  0.00000000000E+00  0.19814575317E+03  0.19814575319E+03  0.25500000920E-02 0. -1.
        2   -1    0    0  501    0  0.00000000000E+00  0.00000000000E+00 -0.15367911693E+04  0.15367911693E+04  0.25500000920E-02 0.  1.
    10030    2    1    2    0    0  0.00000000000E+00  0.00000000000E+00 -0.13386454161E+04  0.17349369225E+04  0.11036460370E+04 0.  0.
        4    1    3    3  502    0  0.20775541152E+03 -0.39609731795E+03 -0.16126680501E+03  0.47546187187E+03  0.12699999809E+01 0. -1.
       -4    1    3    3    0  502 -0.20775541152E+03  0.39609731795E+03 -0.11773786111E+04  0.12594750506E+04  0.12699999809E+01 0.  1.
</event>
<event>
 5   0  0.8341767E-04  0.1106193E+04  0.7818609E-02  0.9199176E-01
        1   -1    0    0  501    0  0.00000000000E+00  0.00000000000E+00  0.52613693129E+03  0.52613693131E+03  0.50400001928E-02 0. -1.
       -1   -1    0    0    0  501  0.00000000000E+00  0.00000000000E+00 -0.58143773400E+03  0.58143773402E+03  0.50400001928E-02 0.  1.
    10030    2    1    2    0    0  0.00000000000E+00  0.00000000000E+00 -0.55300802711E+02  0.11075746653E+04  0.11061932293E+04 0.  0.
        2    1    3    3  502    0 -0.49754622912E+03  0.23556310740E+03  0.26022862321E+02  0.55110744601E+03  0.25500000920E-02 0. -1.
       -2    1    3    3    0  502  0.49754622912E+03 -0.23556310740E+03 -0.81323665031E+02  0.55646721932E+03  0.25500000920E-02 0.  1.
</event>
<event>
 5   0  0.8341767E-04  0.1097256E+04  0.7818609E-02  0.9207871E-01
        1   -1    0    0  501    0  0.00000000000E+00  0.00000000000E+00  0.74268081374E+03  0.74268081375E+03  0.50400001928E-02 0. -1.
       -1   -1    0    0    0  501  0.00000000000E+00  0.00000000000E+00 -0.40527862393E+03  0.40527862396E+03  0.50400001928E-02 0.  1.
    10030    2    1    2    0    0  0.00000000000E+00  0.00000000000E+00  0.33740218981E+03  0.11479594377E+04  0.10972559560E+04 0.  0.
        2    1    3    3  502    0 -0.24489750663E+03  0.42102891187E+03  0.43286123761E+03  0.65162027625E+03  0.25500000920E-02 0. -1.
       -2    1    3    3    0  502  0.24489750663E+03 -0.42102891187E+03 -0.95459047805E+02  0.49633916146E+03  0.25500000920E-02 0.  1.
</event>
<event>
 5   0  0.1402775E-03  0.1101212E+04  0.7818609E-02  0.9204011E-01
        2   -1    0    0  501    0  0.00000000000E+00  0.00000000000E+00  0.14637376095E+04  0.14637376095E+04  0.25500000920E-02 0. -1.
       -2   -1    0    0    0  501  0.00000000000E+00  0.00000000000E+00 -0.20711847915E+03  0.20711847916E+03  0.25500000920E-02 0.  1.
    10030    2    1    2    0    0  0.00000000000E+00  0.00000000000E+00  0.12566191303E+04  0.16708560886E+04  0.11012122548E+04 0.  0.
        5    1    3    3  502    0 -0.25393478470E+02  0.49179526234E+03  0.10019372450E+04  0.11164263262E+04  0.46999998093E+01 0. -1.
       -5    1    3    3    0  502  0.25393478470E+02 -0.49179526234E+03  0.25468188529E+03  0.55442976246E+03  0.46999998093E+01 0.  1.
</event>
<event>
 5   0  0.1429680E-03  0.1102271E+04  0.7818609E-02  0.9202982E-01
        2   -1    0    0  501    0  0.00000000000E+00  0.00000000000E+00  0.15472823392E+04  0.15472823392E+04  0.25500000920E-02 0.  1.
       -2   -1    0    0    0  501  0.00000000000E+00  0.00000000000E+00 -0.19631203569E+03  0.19631203571E+03  0.25500000920E-02 0. -1.
    10030    2    1    2    0    0  0.00000000000E+00  0.00000000000E+00  0.13509703035E+04  0.17435943749E+04  0.11022706488E+04 0.  0.
        3    1    3    3  502    0 -0.82707830380E+02 -0.36980390399E+03  0.13085190341E+04  0.13622839592E+04  0.10100000352E+00 0.  1.
       -3    1    3    3    0  502  0.82707830380E+02  0.36980390399E+03  0.42451269325E+02  0.38131041565E+03  0.10100000352E+00 0. -1.
</event>
<event>
 5   0  0.8341767E-04  0.1101136E+04  0.7818609E-02  0.9204085E-01
        1   -1    0    0  501    0  0.00000000000E+00  0.00000000000E+00  0.90403278108E+03  0.90403278109E+03  0.50400001928E-02 0. -1.
       -1   -1    0    0    0  501  0.00000000000E+00  0.00000000000E+00 -0.33530337521E+03  0.33530337525E+03  0.50400001928E-02 0.  1.
    10030    2    1    2    0    0  0.00000000000E+00  0.00000000000E+00  0.56872940586E+03  0.12393361563E+04  0.11011362183E+04 0.  0.
        2    1    3    3  502    0  0.22250178616E+03 -0.49683352656E+03  0.37700316558E+03  0.66217972245E+03  0.25500000920E-02 0. -1.
       -2    1    3    3    0  502 -0.22250178616E+03  0.49683352656E+03  0.19172624029E+03  0.57715643389E+03  0.25500000920E-02 0.  1.
</event>
<event>
 5   0  0.1372794E-03  0.1101954E+04  0.7818609E-02  0.9203290E-01
       -2   -1    0    0    0  501  0.00000000000E+00  0.00000000000E+00  0.37039530748E+03  0.37039530749E+03  0.25500000920E-02 0.  1.
        2   -1    0    0  501    0  0.00000000000E+00  0.00000000000E+00 -0.81959879907E+03  0.81959879907E+03  0.25500000920E-02 0. -1.
    10030    2    1    2    0    0  0.00000000000E+00  0.00000000000E+00 -0.44920349159E+03  0.11899941066E+04  0.11019538088E+04 0.  0.
        4    1    3    3  502    0 -0.54109617251E+03 -0.22397627419E+02 -0.11507244335E+03  0.55365151651E+03  0.12699999809E+01 0. -1.
       -4    1    3    3    0  502  0.54109617251E+03  0.22397627419E+02 -0.33413104823E+03  0.63634259005E+03  0.12699999809E+01 0.  1.
</event>
<event>
 5   0  0.8341767E-04  0.1108738E+04  0.7818609E-02  0.9196717E-01
        1   -1    0    0  501    0  0.00000000000E+00  0.00000000000E+00  0.71815391487E+03  0.71815391489E+03  0.50400001928E-02 0.  1.
       -1   -1    0    0    0  501  0.00000000000E+00  0.00000000000E+00 -0.42793752561E+03  0.42793752564E+03  0.50400001928E-02 0. -1.
    10030    2    1    2    0    0  0.00000000000E+00  0.00000000000E+00  0.29021638926E+03  0.11460914405E+04  0.11087380383E+04 0.  0.
        2    1    3    3  502    0 -0.48903308308E+03 -0.52586037555E+02 -0.11925458975E+03  0.50610305756E+03  0.25500000920E-02 0. -1.
       -2    1    3    3    0  502  0.48903308308E+03  0.52586037555E+02  0.40947097901E+03  0.63998838298E+03  0.25500000920E-02 0.  1.
</event>
<event>
 5   0  0.8150924E-04  0.1106463E+04  0.7818609E-02  0.9198916E-01
        1   -1    0    0  501    0  0.00000000000E+00  0.00000000000E+00  0.26443560217E+03  0.26443560222E+03  0.50400001928E-02 0.  1.
       -1   -1    0    0    0  501  0.00000000000E+00  0.00000000000E+00 -0.11574268947E+04  0.11574268947E+04  0.50400001928E-02 0. -1.
    10030    2    1    2    0    0  0.00000000000E+00  0.00000000000E+00 -0.89299129250E+03  0.14218624969E+04  0.11064626119E+04 0.  0.
        3    1    3    3  502    0 -0.16232727966E+03  0.26176856727E+03  0.14405823063E+03  0.34003781047E+03  0.10100000352E+00 0.  1.
       -3    1    3    3    0  502  0.16232727966E+03 -0.26176856727E+03 -0.10370495231E+04  0.10818246864E+04  0.10100000352E+00 0. -1.
</event>
<event>
 5   0  0.1425432E-03  0.1098060E+04  0.7818609E-02  0.9207084E-01
       -2   -1    0    0    0  501  0.00000000000E+00  0.00000000000E+00  0.67250385547E+03  0.67250385547E+03  0.25500000920E-02 0.  1.
        2   -1    0    0  501    0  0.00000000000E+00  0.00000000000E+00 -0.44822670936E+03  0.44822670937E+03  0.25500000920E-02 0. -1.
    10030    2    1    2    0    0  0.00000000000E+00  0.00000000000E+00  0.22427714611E+03  0.11207305648E+04  0.10980604540E+04 0.  0.
        1    1    3    3  502    0  0.29749919289E+03  0.41251354218E+03 -0.98917999479E+02  0.51812929168E+03  0.50400001928E-02 0. -1.
       -1    1    3    3    0  502 -0.29749919289E+03 -0.41251354218E+03  0.32319514559E+03  0.60260127316E+03  0.50400001928E-02 0.  1.
</event>
<event>
 5   0  0.8341767E-04  0.1106341E+04  0.7818609E-02  0.9199033E-01
       -1   -1    0    0    0  501  0.00000000000E+00  0.00000000000E+00  0.58827932919E+03  0.58827932921E+03  0.50400001928E-02 0. -1.
        1   -1    0    0  501    0  0.00000000000E+00  0.00000000000E+00 -0.52015738343E+03  0.52015738346E+03  0.50400001928E-02 0.  1.
    10030    2    1    2    0    0  0.00000000000E+00  0.00000000000E+00  0.68121945753E+02  0.11084367127E+04  0.11063414240E+04 0.  0.
        2    1    3    3  502    0  0.20053520282E+03 -0.49253129377E+03  0.18665304256E+03  0.56359631050E+03  0.25500000920E-02 0. -1.
       -2    1    3    3    0  502 -0.20053520282E+03  0.49253129377E+03 -0.11853109681E+03  0.54484040216E+03  0.25500000920E-02 0.  1.
</event>
<event>
 5   0  0.1425432E-03  0.1098292E+04  0.7818609E-02  0.9206858E-01
        2   -1    0    0  501    0  0.00000000000E+00  0.00000000000E+00  0.18231537214E+03  0.18231537215E+03  0.25500000920E-02 0. -1.
       -2   -1    0    0    0  501  0.00000000000E+00  0.00000000000E+00 -0.16540639059E+04  0.16540639059E+04  0.25500000920E-02 0.  1.
    10030    2    1    2    0    0  0.00000000000E+00  0.00000000000E+00 -0.14717485337E+04  0.18363792780E+04  0.10982919039E+04 0.  0.
        1    1    3    3  502    0 -0.13724133255E+03  0.34469125704E+03 -0.58930387443E+02  0.37565946897E+03  0.50400001928E-02 0. -1.
       -1    1    3    3    0  502  0.13724133255E+03 -0.34469125704E+03 -0.14128181463E+04  0.14607198090E+04  0.50400001928E-02 0.  1.
</event>
<event>
 5   0  0.1429680E-03  0.1094859E+04  0.7818609E-02  0.9210217E-01
       -2   -1    0    0    0  501  0.00000000000E+00  0.00000000000E+00  0.40990594064E+03  0.40990594064E+03  0.25500000920E-02 0.  1.
        2   -1    0    0  501    0  0.00000000000E+00  0.00000000000E+00 -0.73109219045E+03  0.73109219046E+03  0.25500000920E-02 0. -1.
    10030    2    1    2    0    0  0.00000000000E+00  0.00000000000E+00 -0.32118624982E+03  0.11409981311E+04  0.10948589535E+04 0.  0.
        3    1    3    3  502    0  0.46404857311E+03 -0.11771748772E+03  0.11607642275E+03  0.49261773338E+03  0.10100000352E+00 0.  1.
       -3    1    3    3    0  502 -0.46404857311E+03  0.11771748772E+03 -0.43726267257E+03  0.64838039772E+03  0.10100000352E+00 0. -1.
</event>
<event>
 5   0  0.8009636E-04  0.1100026E+04  0.7818609E-02  0.9205166E-01
       -1   -1    0    0    0  501  0.00000000000E+00  0.00000000000E+00  0.46778675718E+03  0.46778675721E+03  0.50400001928E-02 0.  1.
        1   -1    0    0  501    0  0.00000000000E+00  0.00000000000E+00 -0.64669294610E+03  0.64669294612E+03  0.50400001928E-02 0. -1.
    10030    2    1    2    0    0  0.00000000000E+00  0.00000000000E+00 -0.17890618892E+03  0.11144797033E+04  0.11000261746E+04 0.  0.
        1    1    3    3  502    0  0.20945371791E+02  0.49214346172E+03 -0.33735255939E+03  0.59703487743E+03  0.50400001928E-02 0. -1.
       -1    1    3    3    0  502 -0.20945371791E+02 -0.49214346172E+03  0.15844637046E+03  0.51744482590E+03  0.50400001928E-02 0.  1.
</event>
<event>
 5   0  0.8009636E-04  0.1127994E+04  0.7818609E-02  0.9178328E-01
       -1   -1    0    0    0  501  0.00000000000E+00  0.00000000000E+00  0.94364960478E+03  0.94364960480E+03  0.50400001928E-02 0.  1.
        1   -1    0    0  501    0  0.00000000000E+00  0.00000000000E+00 -0.33708775321E+03  0.33708775324E+03  0.50400001928E-02 0. -1.
    10030    2    1    2    0    0  0.00000000000E+00  0.00000000000E+00  0.60656185158E+03  0.12807373580E+04  0.11279941935E+04 0.  0.
        1    1    3    3  502    0 -0.30299551138E+03 -0.31192857366E+02 -0.23566696080E+03  0.38512100787E+03  0.50400001928E-02 0. -1.
       -1    1    3    3    0  502  0.30299551138E+03  0.31192857366E+02  0.84222881238E+03  0.89561635017E+03  0.50400001928E-02 0.  1.
</event>
<event>
 5   0  0.1425432E-03  0.1099360E+04  0.7818609E-02  0.9205816E-01
        2   -1    0    0  501    0  0.00000000000E+00  0.00000000000E+00  0.94384845861E+03  0.94384845861E+03  0.25500000920E-02 0.  1.
       -2   -1    0    0    0  501  0.00000000000E+00  0.00000000000E+00 -0.32012372401E+03  0.32012372402E+03  0.25500000920E-02 0. -1.
    10030    2    1    2    0    0  0.00000000000E+00  0.00000000000E+00  0.62372473460E+03  0.12639721826E+04  0.10993603294E+04 0.  0.
        1    1    3    3  502    0 -0.45053807353E+03  0.28322778601E+03  0.15360885984E+03  0.55389368683E+03  0.50400001928E-02 0. -1.
       -1    1    3    3    0  502  0.45053807353E+03 -0.28322778601E+03  0.47011587476E+03  0.71007849580E+03  0.50400001928E-02 0.  1.
</event>
<event>
 5   0  0.8341767E-04  0.1098651E+04  0.7818609E-02  0.9206508E-01
        1   -1    0    0  501    0  0.00000000000E+00  0.00000000000E+00  0.10820661631E+04  0.10820661631E+04  0.50400001928E-02 0. -1.
       -1   -1    0    0    0  501  0.00000000000E+00  0.00000000000E+00 -0.27887248518E+03  0.27887248522E+03  0.50400001928E-02 0.  1.
    10030    2    1    2    0    0  0.00000000000E+00  0.00000000000E+00  0.80319367795E+03  0.13609386484E+04  0.10986509547E+04 0.  0.
        2    1    3    3  502    0 -0.24361148264E+03 -0.28900381332E+03 -0.92173894699E+02  0.38905756060E+03  0.25500000920E-02 0.  1.
       -2    1    3    3    0  502  0.24361148264E+03  0.28900381332E+03  0.89536757265E+03  0.97188108776E+03  0.25500000920E-02 0. -1.
</event>
<event>
 5   0  0.8009636E-04  0.1099569E+04  0.7818609E-02  0.9205612E-01
       -1   -1    0    0    0  501  0.00000000000E+00  0.00000000000E+00  0.72494326619E+03  0.72494326620E+03  0.50400001928E-02 0.  1.
        1   -1    0    0  501    0  0.00000000000E+00  0.00000000000E+00 -0.41694697118E+03  0.41694697121E+03  0.50400001928E-02 0. -1.
    10030    2    1    2    0    0  0.00000000000E+00  0.00000000000E+00  0.30799629501E+03  0.11418902374E+04  0.10995688230E+04 0.  0.
        1    1    3    3  502    0 -0.50077863682E+03  0.91484268498E+02  0.36962981176E+03  0.62910636004E+03  0.50400001928E-02 0.  1.
       -1    1    3    3    0  502  0.50077863682E+03 -0.91484268498E+02 -0.61633516754E+02  0.51278387737E+03  0.50400001928E-02 0. -1.
</event>
<event>
 5   0  0.1429680E-03  0.1112977E+04  0.7818609E-02  0.9192635E-01
       -2   -1    0    0    0  501  0.00000000000E+00  0.00000000000E+00  0.18610003084E+03  0.18610003086E+03  0.25500000920E-02 0. -1.
        2   -1    0    0  501    0  0.00000000000E+00  0.00000000000E+00 -0.16640498487E+04  0.16640498487E+04  0.25500000920E-02 0.  1.
    10030    2    1    2    0    0  0.00000000000E+00  0.00000000000E+00 -0.14779498179E+04  0.18501498796E+04  0.11129774987E+04 0.  0.
        3    1    3    3  502    0 -0.37132026408E+03  0.41129634595E+03 -0.82432766562E+03  0.99325703281E+03  0.10100000352E+00 0.  1.
       -3    1    3    3    0  502  0.37132026408E+03 -0.41129634595E+03 -0.65362215225E+03  0.85689284676E+03  0.10100000352E+00 0. -1.
</event>
<event>
 5   0  0.7946038E-04  0.1115034E+04  0.7818609E-02  0.9190662E-01
       -1   -1    0    0    0  501  0.00000000000E+00  0.00000000000E+00  0.45378115772E+03  0.45378115775E+03  0.50400001928E-02 0.  1.
        1   -1    0    0  501    0  0.00000000000E+00  0.00000000000E+00 -0.68496672085E+03  0.68496672087E+03  0.50400001928E-02 0. -1.
    10030    2    1    2    0    0  0.00000000000E+00  0.00000000000E+00 -0.23118556313E+03  0.11387478786E+04  0.11150336167E+04 0.  0.
        4    1    3    3  502    0  0.46147466102E+03 -0.93133534063E+02  0.18940684716E+03  0.50745372655E+03  0.12699999809E+01 0.  1.
       -4    1    3    3    0  502 -0.46147466102E+03  0.93133534063E+02 -0.42059241030E+03  0.63129415207E+03  0.12699999809E+01 0. -1.
</event>
<event>
 5   0  0.7946038E-04  0.1121571E+04  0.7818609E-02  0.9184419E-01
        1   -1    0    0  501    0  0.00000000000E+00  0.00000000000E+00  0.13688797466E+04  0.13688797466E+04  0.50400001928E-02 0. -1.
       -1   -1    0    0    0  501  0.00000000000E+00  0.00000000000E+00 -0.22973546026E+03  0.22973546032E+03  0.50400001928E-02 0.  1.
    10030    2    1    2    0    0  0.00000000000E+00  0.00000000000E+00  0.11391442863E+04  0.15986152069E+04  0.11215707177E+04 0.  0.
        4    1    3    3  502    0 -0.39456047484E+03 -0.39378176723E+03  0.48244507517E+03  0.73722243045E+03  0.12699999809E+01 0.  1.
       -4    1    3    3    0  502  0.39456047484E+03  0.39378176723E+03  0.65669921115E+03  0.86139277646E+03  0.12699999809E+01 0. -1.
</event>
<event>
 5   0  0.7946038E-04  0.1096586E+04  0.7818609E-02  0.9208526E-01
        1   -1    0    0  501    0  0.00000000000E+00  0.00000000000E+00  0.23476918842E+03  0.23476918847E+03  0.50400001928E-02 0. -1.
       -1   -1    0    0    0  501  0.00000000000E+00  0.00000000000E+00 -0.12805143616E+04  0.12805143616E+04  0.50400001928E-02 0.  1.
    10030    2    1    2    0    0  0.00000000000E+00  0.00000000000E+00 -0.10457451732E+04  0.15152835501E+04  0.10965861890E+04 0.  0.
        4    1    3    3  502    0 -0.45691109146E+01  0.17272382820E+03  0.19616377541E+03  0.26141200678E+03  0.12699999809E+01 0. -1.
       -4    1    3    3    0  502  0.45691109146E+01 -0.17272382820E+03 -0.12419089486E+04  0.12538715433E+04  0.12699999809E+01 0.  1.
</event>
<event>
 5   0  0.1396936E-03  0.1101540E+04  0.7818609E-02  0.9203692E-01
        2   -1    0    0  501    0  0.00000000000E+00  0.00000000000E+00  0.13351979634E+04  0.13351979634E+04  0.25500000920E-02 0. -1.
       -2   -1    0    0    0  501  0.00000000000E+00  0.00000000000E+00 -0.22719310494E+03  0.22719310495E+03  0.25500000920E-02 0.  1.
    10030    2    1    2    0    0  0.00000000000E+00  0.00000000000E+00  0.11080048584E+04  0.15623910683E+04  0.11015403234E+04 0.  0.
        2    1    3    3  502    0 -0.42871154629E+03  0.17941590350E+03  0.97323584143E+03  0.10785043623E+04  0.25500000920E-02 0. -1.
       -2    1    3    3    0  502  0.42871154629E+03 -0.17941590350E+03  0.13476901699E+03  0.48388670606E+03  0.25500000920E-02 0.  1.
</event>
<event>
 5   0  0.1372794E-03  0.1091401E+04  0.7818609E-02  0.9213614E-01
        2   -1    0    0  501    0  0.00000000000E+00  0.00000000000E+00  0.18661816646E+04  0.18661816646E+04  0.25500000920E-02 0.  1.
       -2   -1    0    0    0  501  0.00000000000E+00  0.00000000000E+00 -0.15957133398E+03  0.15957133400E+03  0.25500000920E-02 0. -1.
    10030    2    1    2    0    0  0.00000000000E+00  0.00000000000E+00  0.17066103306E+04  0.20257529986E+04  0.10914011136E+04 0.  0.
        4    1    3    3  502    0  0.49202794719E+02 -0.48893431547E+02  0.18579628767E+04  0.18592576870E+04  0.12699999809E+01 0.  1.
       -4    1    3    3    0  502 -0.49202794719E+02  0.48893431547E+02 -0.15135254610E+03  0.16649531155E+03  0.12699999809E+01 0. -1.
</event>
<event>
 5   0  0.1429680E-03  0.1099695E+04  0.7818609E-02  0.9205489E-01
       -2   -1    0    0    0  501  0.00000000000E+00  0.00000000000E+00  0.71837862914E+03  0.71837862914E+03  0.25500000920E-02 0.  1.
        2   -1    0    0  501    0  0.00000000000E+00  0.00000000000E+00 -0.42085353032E+03  0.42085353033E+03  0.25500000920E-02 0. -1.
    10030    2    1    2    0    0  0.00000000000E+00  0.00000000000E+00  0.29752509882E+03  0.11392321595E+04  0.10996948344E+04 0.  0.
        3    1    3    3  502    0 -0.14944245322E+03  0.52836427424E+03  0.17861379822E+03  0.57741211646E+03  0.10100000352E+00 0.  1.
       -3    1    3    3    0  502  0.14944245322E+03 -0.52836427424E+03  0.11891130060E+03  0.56182004301E+03  0.10100000352E+00 0. -1.
</event>
<event>
 5   0  0.8150924E-04  0.1099827E+04  0.7818609E-02  0.9205360E-01
       -1   -1    0    0    0  501  0.00000000000E+00  0.00000000000E+00  0.18483289078E+03  0.18483289085E+03  0.50400001928E-02 0.  1.
        1   -1    0    0  501    0  0.00000000000E+00  0.00000000000E+00 -0.16361000023E+04  0.16361000023E+04  0.50400001928E-02 0. -1.
    10030    2    1    2    0    0  0.00000000000E+00  0.00000000000E+00 -0.14512671115E+04  0.18209328932E+04  0.10998274285E+04 0.  0.
        3    1    3    3  502    0 -0.49128798392E+03 -0.24671090258E+03 -0.70373568313E+03  0.89301403937E+03  0.10100000352E+00 0. -1.
       -3    1    3    3    0  502  0.49128798392E+03  0.24671090258E+03 -0.74753142842E+03  0.92791885381E+03  0.10100000352E+00 0.  1.
</event>
<event>
 5   0  0.1402775E-03  0.1101033E+04  0.7818609E-02  0.9204185E-01
        2   -1    0    0  501    0  0.00000000000E+00  0.00000000000E+00  0.95901452640E+03  0.95901452640E+03  0.25500000920E-02 0.  1.
       -2   -1    0    0    0  501  0.00000000000E+00  0.00000000000E+00 -0.31602093342E+03  0.31602093343E+03  0.25500000920E-02 0. -1.
    10030    2    1    2    0    0  0.00000000000E+00  0.00000000000E+00  0.64299359298E+03  0.12750354598E+04  0.11010334524E+04 0.  0.
        5    1    3    3  502    0 -0.26084355980E+03 -0.21960622906E+03  0.82197746048E+03  0.88990746376E+03  0.46999998093E+01 0.  1.
       -5    1    3    3    0  502  0.26084355980E+03  0.21960622906E+03 -0.17898386749E+03  0.38512799607E+03  0.46999998093E+01 0. -1.
</event>
<event>
 5   0  0.1396936E-03  0.1101015E+04  0.7818609E-02  0.9204203E-01
       -2   -1    0    0    0  501  0.00000000000E+00  0.00000000000E+00  0.59508128401E+03  0.59508128402E+03  0.25500000920E-02 0.  1.
        2   -1    0    0  501    0  0.00000000000E+00  0.00000000000E+00 -0.50927255135E+03  0.50927255136E+03  0.25500000920E-02 0. -1.
    10030    2    1    2    0    0  0.00000000000E+00  0.00000000000E+00  0.85808732662E+02  0.11043538354E+04  0.11010151021E+04 0.  0.
        2    1    3    3  502    0  0.34657150359E+03  0.24435668154E+02 -0.38541473290E+03  0.51889635316E+03  0.25500000920E-02 0. -1.
       -2    1    3    3    0  502 -0.34657150359E+03 -0.24435668154E+02  0.47122346556E+03  0.58545748222E+03  0.25500000920E-02 0.  1.
</event>
<event>
 5   0  0.8150924E-04  0.1102971E+04  0.7818609E-02  0.9202301E-01
        1   -1    0    0  501    0  0.00000000000E+00  0.00000000000E+00  0.67409396923E+03  0.67409396925E+03  0.50400001928E-02 0. -1.
       -1   -1    0    0    0  501  0.00000000000E+00  0.00000000000E+00 -0.45117763114E+03  0.45117763117E+03  0.50400001928E-02 0.  1.
    10030    2    1    2    0    0  0.00000000000E+00  0.00000000000E+00  0.22291633810E+03  0.11252716004E+04  0.11029707525E+04 0.  0.
        3    1    3    3  502    0 -0.32268623532E+03 -0.28235304979E+03  0.46529393677E+03  0.63273067650E+03  0.10100000352E+00 0. -1.
       -3    1    3    3    0  502  0.32268623532E+03  0.28235304979E+03 -0.24237759867E+03  0.49254092392E+03  0.10100000352E+00 0.  1.
</event>
<event>
 5   0  0.1402775E-03  0.1100722E+04  0.7818609E-02  0.9204488E-01
       -2   -1    0    0    0  501  0.00000000000E+00  0.00000000000E+00  0.54938796472E+03  0.54938796473E+03  0.25500000920E-02 0.  1.
        2   -1    0    0  501    0  0.00000000000E+00  0.00000000000E+00 -0.55133614854E+03  0.55133614855E+03  0.25500000920E-02 0. -1.
    10030    2    1    2    0    0  0.00000000000E+00  0.00000000000E+00 -0.19481838236E+01  0.11007241133E+04  0.11007223892E+04 0.  0.
        5    1    3    3  502    0 -0.10004718786E+03  0.38299562317E+02 -0.54078884819E+03  0.55131748076E+03  0.46999998093E+01 0. -1.
       -5    1    3    3    0  502  0.10004718786E+03 -0.38299562317E+02  0.53884066437E+03  0.54940663251E+03  0.46999998093E+01 0.  1.
</event>
<event>
 5   0  0.8305271E-04  0.1098048E+04  0.7818609E-02  0.9207096E-01
        1   -1    0    0  501    0  0.00000000000E+00  0.00000000000E+00  0.11209277540E+04  0.11209277540E+04  0.50400001928E-02 0. -1.
       -1   -1    0    0    0  501  0.00000000000E+00  0.00000000000E+00 -0.26890891426E+03  0.26890891431E+03  0.50400001928E-02 0.  1.
    10030    2    1    2    0    0  0.00000000000E+00  0.00000000000E+00  0.85201883976E+03  0.13898366683E+04  0.10980482054E+04 0.  0.
        5    1    3    3  502    0  0.49527317805E+03 -0.23313739638E+03  0.37295707130E+03  0.66239537553E+03  0.46999998093E+01 0. -1.
       -5    1    3    3    0  502 -0.49527317805E+03  0.23313739638E+03  0.47906176846E+03  0.72744129281E+03  0.46999998093E+01 0.  1.
</event>
<event>
 5   0  0.1402775E-03  0.1063309E+04  0.7818609E-02  0.9241710E-01
        2   -1    0    0  501    0  0.00000000000E+00  0.00000000000E+00  0.17938360042E+04  0.17938360042E+04  0.25500000920E-02 0. -1.
       -2   -1    0    0    0  501  0.00000000000E+00  0.00000000000E+00 -0.15757098081E+03  0.15757098083E+03  0.25500000920E-02 0.  1.
    10030    2    1    2    0    0  0.00000000000E+00  0.00000000000E+00  0.16362650234E+04  0.19514069851E+04  0.10633089835E+04 0.  0.
        5    1    3    3  502    0 -0.86482627494E+02 -0.47724598698E+03  0.41861273112E+03  0.64070405462E+03  0.46999998093E+01 0.  1.
       -5    1    3    3    0  502  0.86482627494E+02  0.47724598698E+03  0.12176522923E+04  0.13107029305E+04  0.46999998093E+01 0. -1.
</event>
<event>
 5   0  0.1425432E-03  0.1102012E+04  0.7818609E-02  0.9203233E-01
        2   -1    0    0  501    0  0.00000000000E+00  0.00000000000E+00  0.61796089375E+03  0.61796089376E+03  0.25500000920E-02 0. -1.
       -2   -1    0    0    0  501  0.00000000000E+00  0.00000000000E+00 -0.49130560539E+03  0.49130560540E+03  0.25500000920E-02 0.  1.
    10030    2    1    2    0    0  0.00000000000E+00  0.00000000000E+00  0.12665528836E+03  0.11092664992E+04  0.11020120707E+04 0.  0.
        1    1    3    3  502    0  0.48496279417E+03  0.26101196015E+03  0.46142001067E+02  0.55267100463E+03  0.50400001928E-02 0. -1.
       -1    1    3    3    0  502 -0.48496279417E+03 -0.26101196015E+03  0.80513287291E+02  0.55659549453E+03  0.50400001928E-02 0.  1.
</event>
<event>
 5   0  0.1372794E-03  0.1098915E+04  0.7818609E-02  0.9206250E-01
        2   -1    0    0  501    0  0.00000000000E+00  0.00000000000E+00  0.15199624786E+04  0.15199624786E+04  0.25500000920E-02 0.  1.
       -2   -1    0    0    0  501  0.00000000000E+00  0.00000000000E+00 -0.19862581843E+03  0.19862581845E+03  0.25500000920E-02 0. -1.
    10030    2    1    2    0    0  0.00000000000E+00  0.00000000000E+00  0.13213366602E+04  0.17185882971E+04  0.10989154495E+04 0.  0.
        4    1    3    3  502    0 -0.37632547946E+03 -0.38918857213E+03  0.51384893440E+03  0.74641205205E+03  0.12699999809E+01 0. -1.
       -4    1    3    3    0  502  0.37632547946E+03  0.38918857213E+03  0.80748772577E+03  0.97217624500E+03  0.12699999809E+01 0.  1.
</event>
<event>
 5   0  0.8150924E-04  0.1090779E+04  0.7818609E-02  0.9214226E-01
       -1   -1    0    0    0  501  0.00000000000E+00  0.00000000000E+00  0.75176689133E+03  0.75176689135E+03  0.50400001928E-02 0.  1.
        1   -1    0    0  501    0  0.00000000000E+00  0.00000000000E+00 -0.39566755361E+03  0.39566755364E+03  0.50400001928E-02 0. -1.
    10030    2    1    2    0    0  0.00000000000E+00  0.00000000000E+00  0.35609933772E+03  0.11474344450E+04  0.10907791102E+04 0.  0.
        3    1    3    3  502    0 -0.15746309591E+03  0.87585836541E+01  0.72725760413E+03  0.74416058235E+03  0.10100000352E+00 0.  1.
       -3    1    3    3    0  502  0.15746309591E+03 -0.87585836541E+01 -0.37115826640E+03  0.40327386263E+03  0.10100000352E+00 0. -1.
</event>
<event>
 5   0  0.7946038E-04  0.1096412E+04  0.7818609E-02  0.9208697E-01
        1   -1    0    0  501    0  0.00000000000E+00  0.00000000000E+00  0.73242113254E+03  0.73242113256E+03  0.50400001928E-02 0. -1.
       -1   -1    0    0    0  501  0.00000000000E+00  0.00000000000E+00 -0.41032342091E+03  0.41032342094E+03  0.50400001928E-02 0.  1.
    10030    2    1    2    0    0  0.00000000000E+00  0.00000000000E+00  0.32209771163E+03  0.11427445535E+04  0.10964115006E+04 0.  0.
        4    1    3    3  502    0 -0.30599543326E+03 -0.39238242340E+03 -0.78740358271E+02  0.50378450580E+03  0.12699999809E+01 0.  1.
       -4    1    3    3    0  502  0.30599543326E+03  0.39238242340E+03  0.40083806990E+03  0.63896004770E+03  0.12699999809E+01 0. -1.
</event>
<event>
 5   0  0.1425432E-03  0.1102969E+04  0.7818609E-02  0.9202303E-01
       -2   -1    0    0    0  501  0.00000000000E+00  0.00000000000E+00  0.83802404476E+03  0.83802404477E+03  0.25500000920E-02 0.  1.
        2   -1    0    0  501    0  0.00000000000E+00  0.00000000000E+00 -0.36291956121E+03  0.36291956122E+03  0.25500000920E-02 0. -1.
    10030    2    1    2    0    0  0.00000000000E+00  0.00000000000E+00  0.47510448355E+03  0.12009436060E+04  0.11029692990E+04 0.  0.
        1    1    3    3  502    0 -0.36791072038E+03  0.16029758754E+03  0.64941378436E+03  0.76340806787E+03  0.50400001928E-02 0.  1.
       -1    1    3    3    0  502  0.36791072038E+03 -0.16029758754E+03 -0.17430930081E+03  0.43753553812E+03  0.50400001928E-02 0. -1.
</event>
<event>
 5   0  0.8009636E-04  0.1098543E+04  0.7818609E-02  0.9206613E-01
        1   -1    0    0  501    0  0.00000000000E+00  0.00000000000E+00  0.38364191460E+03  0.38364191463E+03  0.50400001928E-02 0.  1.
       -1   -1    0    0    0  501  0.00000000000E+00  0.00000000000E+00 -0.78640816823E+03  0.78640816824E+03  0.50400001928E-02 0. -1.
    10030    2    1    2    0    0  0.00000000000E+00  0.00000000000E+00 -0.40276625363E+03  0.11700500829E+04  0.10985429174E+04 0.  0.
        1    1    3    3  502    0  0.68494282586E+02  0.49313285945E+03  0.45726769965E+02  0.49996241992E+03  0.50400001928E-02 0.  1.
       -1    1    3    3    0  502 -0.68494282586E+02 -0.49313285945E+03 -0.44849302359E+03  0.67008766296E+03  0.50400001928E-02 0. -1.
</event>
<event>
 5   0  0.1372794E-03  0.1102464E+04  0.7818609E-02  0.9202793E-01
       -2   -1    0    0    0  501  0.00000000000E+00  0.00000000000E+00  0.54728890508E+03  0.54728890508E+03  0.25500000920E-02 0. -1.
        2   -1    0    0  501    0  0.00000000000E+00  0.00000000000E+00 -0.55520399785E+03  0.55520399786E+03  0.25500000920E-02 0.  1.
    10030    2    1    2    0    0  0.00000000000E+00  0.00000000000E+00 -0.79150927729E+01  0.11024929029E+04  0.11024644903E+04 0.  0.
        4    1    3    3  502    0  0.43566234846E+03 -0.25250476865E+03 -0.22822887216E+03  0.55285655558E+03  0.12699999809E+01 0.  1.
       -4    1    3    3    0  502 -0.43566234846E+03  0.25250476865E+03  0.22031377939E+03  0.54963634736E+03  0.12699999809E+01 0. -1.
</event>
<event>
 5   0  0.1402775E-03  0.1100594E+04  0.7818609E-02  0.9204613E-01
       -2   -1    0    0    0  501  0.00000000000E+00  0.00000000000E+00  0.26027767467E+03  0.26027767469E+03  0.25500000920E-02 0. -1.
        2   -1    0    0  501    0  0.00000000000E+00  0.00000000000E+00 -0.11634753938E+04  0.11634753938E+04  0.25500000920E-02 0.  1.
    10030    2    1    2    0    0  0.00000000000E+00  0.00000000000E+00 -0.90319771909E+03  0.14237530685E+04  0.11005937853E+04 0.  0.
        5    1    3    3  502    0 -0.41175657697E+03 -0.11415914905E+03 -0.30478327348E+01  0.42732560100E+03  0.46999998093E+01 0. -1.
       -5    1    3    3    0  502  0.41175657697E+03  0.11415914905E+03 -0.90014988635E+03  0.99642746745E+03  0.46999998093E+01 0.  1.
</event>
<event>
 5   0  0.1402775E-03  0.1102737E+04  0.7818609E-02  0.9202529E-01
        2   -1    0    0  501    0  0.00000000000E+00  0.00000000000E+00  0.18184122943E+04  0.18184122943E+04  0.25500000920E-02 0. -1.
       -2   -1    0    0    0  501  0.00000000000E+00  0.00000000000E+00 -0.16718267073E+03  0.16718267075E+03  0.25500000920E-02 0.  1.
    10030    2    1    2    0    0  0.00000000000E+00  0.00000000000E+00  0.16512296236E+04  0.19855949651E+04  0.11027366392E+04 0.  0.
        5    1    3    3  502    0  0.45160664821E+03  0.30567871411E+03  0.67936726990E+03  0.87117737480E+03  0.46999998093E+01 0.  1.
       -5    1    3    3    0  502 -0.45160664821E+03 -0.30567871411E+03  0.97186235371E+03  0.11144175903E+04  0.46999998093E+01 0. -1.
</event>
<event>
 5   0  0.7946038E-04  0.1099700E+04  0.7818609E-02  0.9205484E-01
       -1   -1    0    0    0  501  0.00000000000E+00  0.00000000000E+00  0.22230795456E+03  0.22230795462E+03  0.50400001928E-02 0. -1.
        1   -1    0    0  501    0  0.00000000000E+00  0.00000000000E+00 -0.13599833440E+04  0.13599833440E+04  0.50400001928E-02 0.  1.
    10030    2    1    2    0    0  0.00000000000E+00  0.00000000000E+00 -0.11376753895E+04  0.15822912987E+04  0.10997001691E+04 0.  0.
        4    1    3    3  502    0  0.29498578627E+03 -0.29905100101E+03 -0.58332920268E+02  0.42409015290E+03  0.12699999809E+01 0.  1.
       -4    1    3    3    0  502 -0.29498578627E+03  0.29905100101E+03 -0.10793424692E+04  0.11582011458E+04  0.12699999809E+01 0. -1.
</event>
<event>
 5   0  0.7946038E-04  0.1100126E+04  0.7818609E-02  0.9205069E-01
       -1   -1    0    0    0  501  0.00000000000E+00  0.00000000000E+00  0.44562155285E+03  0.44562155287E+03  0.50400001928E-02 0. -1.
        1   -1    0    0  501    0  0.00000000000E+00  0.00000000000E+00 -0.67898265578E+03  0.67898265580E+03  0.50400001928E-02 0.  1.
    10030    2    1    2    0    0  0.00000000000E+00  0.00000000000E+00 -0.23336110294E+03  0.11246042087E+04  0.11001260027E+04 0.  0.
        4    1    3    3  502    0 -0.45843736668E+02  0.54147206215E+03 -0.20386628455E+03  0.58039358815E+03  0.12699999809E+01 0.  1.
       -4    1    3    3    0  502  0.45843736668E+02 -0.54147206215E+03 -0.29494818382E+02  0.54421062053E+03  0.12699999809E+01 0. -1.
</event>
<event>
 5   0  0.5409500E-04  0.1101054E+04  0.7818609E-02  0.9204166E-01
        3   -1    0    0  501    0  0.00000000000E+00  0.00000000000E+00  0.10326578005E+04  0.10326578055E+04  0.10100000352E+00 0.  1.
       -3   -1    0    0    0  501  0.00000000000E+00  0.00000000000E+00 -0.29349486196E+03  0.29349487934E+03  0.10100000352E+00 0. -1.
    10030    2    1    2    0    0  0.00000000000E+00  0.00000000000E+00  0.73916293855E+03  0.13261526848E+04  0.11010536289E+04 0.  0.
        5    1    3    3  502    0 -0.54838267114E+01  0.26079677122E+03 -0.21430805140E+03  0.33763154344E+03  0.46999998093E+01 0. -1.
       -5    1    3    3    0  502  0.54838267114E+01 -0.26079677122E+03  0.95347098995E+03  0.98852114135E+03  0.46999998093E+01 0.  1.
</event>
<event>
 5   0  0.8009636E-04  0.1098503E+04  0.7818609E-02  0.9206652E-01
        1   -1    0    0  501    0  0.00000000000E+00  0.00000000000E+00  0.11542312124E+04  0.11542312124E+04  0.50400001928E-02 0. -1.
       -1   -1    0    0    0  501  0.00000000000E+00  0.00000000000E+00 -0.26136645931E+03  0.26136645936E+03  0.50400001928E-02 0.  1.
    10030    2    1    2    0    0  0.00000000000E+00  0.00000000000E+00  0.89286475311E+03  0.14155976718E+04  0.10985032094E+04 0.  0.
        1    1    3    3  502    0  0.13127319190E+03 -0.10209931343E+03 -0.22814218716E+03  0.28232211798E+03  0.50400001928E-02 0.  1.
       -1    1    3    3    0  502 -0.13127319190E+03  0.10209931343E+03  0.11210069403E+04  0.11332755538E+04  0.50400001928E-02 0. -1.
</event>
<event>
 5   0  0.1402775E-03  0.1079647E+04  0.7818609E-02  0.9225259E-01
       -2   -1    0    0    0  501  0.00000000000E+00  0.00000000000E+00  0.27480172925E+03  0.27480172926E+03  0.25500000920E-02 0. -1.
        2   -1    0    0  501    0  0.00000000000E+00  0.00000000000E+00 -0.10604361136E+04  0.10604361136E+04  0.25500000920E-02 0.  1.
    10030    2    1    2    0    0  0.00000000000E+00  0.00000000000E+00 -0.78563438433E+03  0.13352378429E+04  0.10796474939E+04 0.  0.
        5    1    3    3  502    0 -0.16282456669E+03 -0.49510843386E+03 -0.56659226555E+03  0.76986562865E+03  0.46999998093E+01 0.  1.
       -5    1    3    3    0  502  0.16282456669E+03  0.49510843386E+03 -0.21904211878E+03  0.56537221420E+03  0.46999998093E+01 0. -1.
</event>
<event>
 5   0  0.1372794E-03  0.1102042E+04  0.7818609E-02  0.9203203E-01
       -2   -1    0    0    0  501  0.00000000000E+00  0.00000000000E+00  0.35731333774E+03  0.35731333774E+03  0.25500000920E-02 0.  1.
        2   -1    0    0  501    0  0.00000000000E+00  0.00000000000E+00 -0.84974264001E+03  0.84974264002E+03  0.25500000920E-02 0. -1.
    10030    2    1    2    0    0  0.00000000000E+00  0.00000000000E+00 -0.49242930228E+03  0.12070559778E+04  0.11020424292E+04 0.  0.
        4    1    3    3  502    0  0.19535619701E+03 -0.23161227934E+03  0.25787399182E+03  0.39788050996E+03  0.12699999809E+01 0.  1.
       -4    1    3    3    0  502 -0.19535619701E+03  0.23161227934E+03 -0.75030329410E+03  0.80917546780E+03  0.12699999809E+01 0. -1.
</event>
<event>
 5   0  0.1425432E-03  0.1097837E+04  0.7818609E-02  0.9207303E-01
        2   -1    0    0  501    0  0.00000000000E+00  0.00000000000E+00  0.58880755968E+03  0.58880755968E+03  0.25500000920E-02 0. -1.
       -2   -1    0    0    0  501  0.00000000000E+00  0.00000000000E+00 -0.51173152614E+03  0.51173152614E+03  0.25500000920E-02 0.  1.
    10030    2    1    2    0    0  0.00000000000E+00  0.00000000000E+00  0.77076033539E+02  0.11005390858E+04  0.10978367659E+04 0.  0.
        1    1    3    3  502    0  0.45091897557E+02  0.40287199711E+03  0.40954665397E+03  0.57625305820E+03  0.50400001928E-02 0. -1.
       -1    1    3    3    0  502 -0.45091897557E+02 -0.40287199711E+03 -0.33247062043E+03  0.52428602762E+03  0.50400001928E-02 0.  1.
</event>
<event>
 5   0  0.1425432E-03  0.1099933E+04  0.7818609E-02  0.9205257E-01
       -2   -1    0    0    0  501  0.00000000000E+00  0.00000000000E+00  0.16599977700E+03  0.16599977702E+03  0.25500000920E-02 0.  1.
        2   -1    0    0  501    0  0.00000000000E+00  0.00000000000E+00 -0.18220699430E+04  0.18220699430E+04  0.25500000920E-02 0. -1.
    10030    2    1    2    0    0  0.00000000000E+00  0.00000000000E+00 -0.16560701660E+04  0.19880697200E+04  0.10999330966E+04 0.  0.
        1    1    3    3  502    0 -0.19998648177E+03  0.50567253640E+03 -0.97668471604E+03  0.11178606092E+04  0.50400001928E-02 0. -1.
       -1    1    3    3    0  502  0.19998648177E+03 -0.50567253640E+03 -0.67938544991E+03  0.87020911081E+03  0.50400001928E-02 0.  1.
</event>
<event>
 5   0  0.8341767E-04  0.1094889E+04  0.7818609E-02  0.9210187E-01
        1   -1    0    0  501    0  0.00000000000E+00  0.00000000000E+00  0.10873342067E+04  0.10873342067E+04  0.50400001928E-02 0.  1.
       -1   -1    0    0    0  501  0.00000000000E+00  0.00000000000E+00 -0.27562420494E+03  0.27562420499E+03  0.50400001928E-02 0. -1.
    10030    2    1    2    0    0  0.00000000000E+00  0.00000000000E+00  0.81171000172E+03  0.13629584117E+04  0.10948892661E+04 0.  0.
        2    1    3    3  502    0 -0.85636554322E+01  0.33862191337E+03  0.94121801886E+03  0.10003146982E+04  0.25500000920E-02 0.  1.
       -2    1    3    3    0  502  0.85636554322E+01 -0.33862191337E+03 -0.12950801713E+03  0.36264371346E+03  0.25500000920E-02 0. -1.
</event>
<event>
 5   0  0.8305271E-04  0.1099207E+04  0.7818609E-02  0.9205965E-01
       -1   -1    0    0    0  501  0.00000000000E+00  0.00000000000E+00  0.11055824557E+04  0.11055824557E+04  0.50400001928E-02 0. -1.
        1   -1    0    0  501    0  0.00000000000E+00  0.00000000000E+00 -0.27321695003E+03  0.27321695008E+03  0.50400001928E-02 0.  1.
    10030    2    1    2    0    0  0.00000000000E+00  0.00000000000E+00  0.83236550567E+03  0.13787994058E+04  0.10992067441E+04 0.  0.
        5    1    3    3  502    0  0.46546683963E+03 -0.29048198077E+03  0.45590091634E+03  0.71337710607E+03  0.46999998093E+01 0. -1.
       -5    1    3    3    0  502 -0.46546683963E+03  0.29048198077E+03  0.37646458933E+03  0.66542229972E+03  0.46999998093E+01 0.  1.
</event>
<event>
 5   0  0.1402775E-03  0.1097586E+04  0.7818609E-02  0.9207548E-01
        2   -1    0    0  501    0  0.00000000000E+00  0.00000000000E+00  0.45730265614E+03  0.45730265615E+03  0.25500000920E-02 0.  1.
       -2   -1    0    0    0  501  0.00000000000E+00  0.00000000000E+00 -0.65858753405E+03  0.65858753405E+03  0.25500000920E-02 0. -1.
    10030    2    1    2    0    0  0.00000000000E+00  0.00000000000E+00 -0.20128487791E+03  0.11158901902E+04  0.10975861308E+04 0.  0.
        5    1    3    3  502    0  0.10937229675E+03 -0.24894945454E+03  0.38397609396E+03  0.47052934122E+03  0.46999998093E+01 0.  1.
       -5    1    3    3    0  502 -0.10937229675E+03  0.24894945454E+03 -0.58526097187E+03  0.64536084899E+03  0.46999998093E+01 0. -1.
</event>
<event>
 5   0  0.7946038E-04  0.1098487E+04  0.7818609E-02  0.9206668E-01
        1   -1    0    0  501    0  0.00000000000E+00  0.00000000000E+00  0.18176581819E+04  0.18176581820E+04  0.50400001928E-02 0. -1.
       -1   -1    0    0    0  501  0.00000000000E+00  0.00000000000E+00 -0.16596536348E+03  0.16596536355E+03  0.50400001928E-02 0.  1.
    10030    2    1    2    0    0  0.00000000000E+00  0.00000000000E+00  0.16516928185E+04  0.19836235455E+04  0.10984867790E+04 0.  0.
        4    1    3    3  502    0 -0.12444826471E+02  0.79802257455E+02 -0.15518060984E+03  0.17494544456E+03  0.12699999809E+01 0.  1.
       -4    1    3    3    0  502  0.12444826471E+02 -0.79802257455E+02  0.18068734283E+04  0.18086781009E+04  0.12699999809E+01 0. -1.
</event>
<event>
 5   0  0.1396936E-03  0.1098366E+04  0.7818609E-02  0.9206786E-01
        2   -1    0    0  501    0  0.00000000000E+00  0.00000000000E+00  0.29153056291E+03  0.29153056292E+03  0.25500000920E-02 0. -1.
       -2   -1    0    0    0  501  0.00000000000E+00  0.00000000000E+00 -0.10345465397E+04  0.10345465397E+04  0.25500000920E-02 0.  1.
    10030    2    1    2    0    0  0.00000000000E+00  0.00000000000E+00 -0.74301597682E+03  0.13260771027E+04  0.10983659410E+04 0.  0.
        2    1    3    3  502    0 -0.15560178554E+03 -0.99062844082E+02 -0.99602714099E+03  0.10129636856E+04  0.25500000920E-02 0.  1.
       -2    1    3    3    0  502  0.15560178554E+03  0.99062844082E+02  0.25301116417E+03  0.31311341706E+03  0.25500000920E-02 0. -1.
</event>
<event>
 5   0  0.8009636E-04  0.1108439E+04  0.7818609E-02  0.9197005E-01
        1   -1    0    0  501    0  0.00000000000E+00  0.00000000000E+00  0.74752770357E+03  0.74752770359E+03  0.50400001928E-02 0.  1.
       -1   -1    0    0    0  501  0.00000000000E+00  0.00000000000E+00 -0.41090030901E+03  0.41090030904E+03  0.50400001928E-02 0. -1.
    10030    2    1    2    0    0  0.00000000000E+00  0.00000000000E+00  0.33662739456E+03  0.11584280126E+04  0.11084391989E+04 0.  0.
        1    1    3    3  502    0 -0.51937962256E+03 -0.41907158908E+02  0.36563525206E+03  0.63655364258E+03  0.50400001928E-02 0.  1.
       -1    1    3    3    0  502  0.51937962256E+03  0.41907158908E+02 -0.29007857499E+02  0.52187437006E+03  0.50400001928E-02 0. -1.
</event>
<event>
 5   0  0.1429680E-03  0.1103307E+04  0.7818609E-02  0.9201975E-01
       -2   -1    0    0    0  501  0.00000000000E+00  0.00000000000E+00  0.86535684100E+03  0.86535684101E+03  0.25500000920E-02 0.  1.
        2   -1    0    0  501    0  0.00000000000E+00  0.00000000000E+00 -0.35167152863E+03  0.35167152864E+03  0.25500000920E-02 0. -1.
    10030    2    1    2    0    0  0.00000000000E+00  0.00000000000E+00  0.51368531238E+03  0.12170283696E+04  0.11033065994E+04 0.  0.
        3    1    3    3  502    0 -0.17340271087E+03  0.10151514355E+03  0.82355580067E+03  0.84771338996E+03  0.10100000352E+00 0.  1.
       -3    1    3    3    0  502  0.17340271087E+03 -0.10151514355E+03 -0.30987048829E+03  0.36931497969E+03  0.10100000352E+00 0. -1.
</event>
<event>
 5   0  0.1402775E-03  0.1095156E+04  0.7818609E-02  0.9209926E-01
        2   -1    0    0  501    0  0.00000000000E+00  0.00000000000E+00  0.69656088673E+03  0.69656088674E+03  0.25500000920E-02 0. -1.
       -2   -1    0    0    0  501  0.00000000000E+00  0.00000000000E+00 -0.43046038605E+03  0.43046038606E+03  0.25500000920E-02 0.  1.
    10030    2    1    2    0    0  0.00000000000E+00  0.00000000000E+00  0.26610050068E+03  0.11270212728E+04  0.10951563691E+04 0.  0.
        5    1    3    3  502    0  0.49392994260E+03 -0.18512322834E+03  0.28423418756E+03  0.59920660981E+03  0.46999998093E+01 0. -1.
       -5    1    3    3    0  502 -0.49392994260E+03  0.18512322834E+03 -0.18133686880E+02  0.52781466299E+03  0.46999998093E+01 0.  1.
</event>
<event>
 5   0  0.8009636E-04  0.1098607E+04  0.7818609E-02  0.9206551E-01
        1   -1    0    0  501    0  0.00000000000E+00  0.00000000000E+00  0.22589674320E+03  0.22589674325E+03  0.50400001928E-02 0.  1.
       -1   -1    0    0    0  501  0.00000000000E+00  0.00000000000E+00 -0.13357167593E+04  0.13357167593E+04  0.50400001928E-02 0. -1.
    10030    2    1    2    0    0  0.00000000000E+00  0.00000000000E+00 -0.11098200161E+04  0.15616135025E+04  0.10986065097E+04 0.  0.
        1    1    3    3  502    0  0.25373960088E+03 -0.86769524354E+02  0.12652831593E+03  0.29651669458E+03  0.50400001928E-02 0.  1.
       -1    1    3    3    0  502 -0.25373960088E+03  0.86769524354E+02 -0.12363483320E+04  0.12650968079E+04  0.50400001928E-02 0. -1.
</event>
<event>
 5   0  0.7946038E-04  0.1098669E+04  0.7818609E-02  0.9206490E-01
        1   -1    0    0  501    0  0.00000000000E+00  0.00000000000E+00  0.13822079080E+04  0.13822079081E+04  0.50400001928E-02 0. -1.
       -1   -1    0    0    0  501  0.00000000000E+00  0.00000000000E+00 -0.21832348352E+03  0.21832348358E+03  0.50400001928E-02 0.  1.
    10030    2    1    2    0    0  0.00000000000E+00  0.00000000000E+00  0.11638844245E+04  0.16005313916E+04  0.10986690958E+04 0.  0.
        4    1    3    3  502    0 -0.23019889671E+03 -0.12282762847E+02 -0.14444667583E+03  0.27204568251E+03  0.12699999809E+01 0.  1.
       -4    1    3    3    0  502  0.23019889671E+03  0.12282762847E+02  0.13083311004E+04  0.13284857091E+04  0.12699999809E+01 0. -1.
</event>
<event>
 5   0  0.8305271E-04  0.1101672E+04  0.7818609E-02  0.9203563E-01
       -1   -1    0    0    0  501  0.00000000000E+00  0.00000000000E+00  0.90371040763E+03  0.90371040764E+03  0.50400001928E-02 0. -1.
        1   -1    0    0  501    0  0.00000000000E+00  0.00000000000E+00 -0.33574969206E+03  0.33574969210E+03  0.50400001928E-02 0.  1.
    10030    2    1    2    0    0  0.00000000000E+00  0.00000000000E+00  0.56796071557E+03  0.12394600997E+04  0.11016723489E+04 0.  0.
        5    1    3    3  502    0  0.31594309614E+03 -0.44982252980E+03  0.32356709280E+03  0.63786997253E+03  0.46999998093E+01 0.  1.
       -5    1    3    3    0  502 -0.31594309614E+03  0.44982252980E+03  0.24439362277E+03  0.60159012722E+03  0.46999998093E+01 0. -1.
</event>
<event>
 5   0  0.8305271E-04  0.1098170E+04  0.7818609E-02  0.9206978E-01
        1   -1    0    0  501    0  0.00000000000E+00  0.00000000000E+00  0.53306945488E+03  0.53306945490E+03  0.50400001928E-02 0. -1.
       -1   -1    0    0    0  501  0.00000000000E+00  0.00000000000E+00 -0.56558142262E+03  0.56558142264E+03  0.50400001928E-02 0.  1.
    10030    2    1    2    0    0  0.00000000000E+00  0.00000000000E+00 -0.32511967741E+02  0.10986508775E+04  0.10981697149E+04 0.  0.
        5    1    3    3  502    0 -0.24533745051E+03 -0.90780788592E+02  0.46669818829E+03  0.53503355517E+03  0.46999998093E+01 0. -1.
       -5    1    3    3    0  502  0.24533745051E+03  0.90780788592E+02 -0.49921015603E+03  0.56361732238E+03  0.46999998093E+01 0.  1.
</event>
<event>
 5   0  0.1402775E-03  0.1099068E+04  0.7818609E-02  0.9206101E-01
       -2   -1    0    0    0  501  0.00000000000E+00  0.00000000000E+00  0.35304195736E+03  0.35304195737E+03  0.25500000920E-02 0. -1.
        2   -1    0    0  501    0  0.00000000000E+00  0.00000000000E+00 -0.85538730848E+03  0.85538730848E+03  0.25500000920E-02 0.  1.
    10030    2    1    2    0    0  0.00000000000E+00  0.00000000000E+00 -0.50234535112E+03  0.12084292658E+04  0.10990679864E+04 0.  0.
        5    1    3    3  502    0 -0.10363362821E+03  0.29374246334E+03 -0.74892243117E+03  0.81112974398E+03  0.46999998093E+01 0.  1.
       -5    1    3    3    0  502  0.10363362821E+03 -0.29374246334E+03  0.24657708005E+03  0.39729952186E+03  0.46999998093E+01 0. -1.
</event>
<event>
 5   0  0.1402775E-03  0.1099548E+04  0.7818609E-02  0.9205633E-01
        2   -1    0    0  501    0  0.00000000000E+00  0.00000000000E+00  0.64855937163E+03  0.64855937164E+03  0.25500000920E-02 0.  1.
       -2   -1    0    0    0  501  0.00000000000E+00  0.00000000000E+00 -0.46603506291E+03  0.46603506292E+03  0.25500000920E-02 0. -1.
    10030    2    1    2    0    0  0.00000000000E+00  0.00000000000E+00  0.18252430872E+03  0.11145944346E+04  0.10995479209E+04 0.  0.
        5    1    3    3  502    0 -0.55913168335E+02  0.33269173408E+03  0.53127498282E+03  0.62935305647E+03  0.46999998093E+01 0.  1.
       -5    1    3    3    0  502  0.55913168335E+02 -0.33269173408E+03 -0.34875067410E+03  0.48524137808E+03  0.46999998093E+01 0. -1.
</event>
<event>
 5   0  0.1429680E-03  0.1094704E+04  0.7818609E-02  0.9210369E-01
        2   -1    0    0  501    0  0.00000000000E+00  0.00000000000E+00  0.64635727847E+03  0.64635727847E+03  0.25500000920E-02 0.  1.
       -2   -1    0    0    0  501  0.00000000000E+00  0.00000000000E+00 -0.46351183660E+03  0.46351183660E+03  0.25500000920E-02 0. -1.
    10030    2    1    2    0    0  0.00000000000E+00  0.00000000000E+00  0.18284544187E+03  0.11098691151E+04  0.10947040682E+04 0.  0.
        3    1    3    3  502    0 -0.23963390920E+03 -0.43729143725E+03 -0.13741636116E+03  0.51723445172E+03  0.10100000352E+00 0. -1.
       -3    1    3    3    0  502  0.23963390920E+03  0.43729143725E+03  0.32026180304E+03  0.59263466336E+03  0.10100000352E+00 0.  1.
</event>
<event>
 5   0  0.1402775E-03  0.1101120E+04  0.7818609E-02  0.9204101E-01
       -2   -1    0    0    0  501  0.00000000000E+00  0.00000000000E+00  0.19531954885E+03  0.19531954886E+03  0.25500000920E-02 0. -1.
        2   -1    0    0  501    0  0.00000000000E+00  0.00000000000E+00 -0.15518986050E+04  0.15518986050E+04  0.25500000920E-02 0.  1.
    10030    2    1    2    0    0  0.00000000000E+00  0.00000000000E+00 -0.13565790562E+04  0.17472181539E+04  0.11011196763E+04 0.  0.
        5    1    3    3  502    0  0.21851162361E+03  0.48940907446E+03 -0.87790351454E+03  0.10285938181E+04  0.46999998093E+01 0.  1.
       -5    1    3    3    0  502 -0.21851162361E+03 -0.48940907446E+03 -0.47867554164E+03  0.71862433578E+03  0.46999998093E+01 0. -1.
</event>
<event>
 5   0  0.8341767E-04  0.1098901E+04  0.7818609E-02  0.9206264E-01
        1   -1    0    0  501    0  0.00000000000E+00  0.00000000000E+00  0.77553543383E+03  0.77553543385E+03  0.50400001928E-02 0. -1.
       -1   -1    0    0    0  501  0.00000000000E+00  0.00000000000E+00 -0.38927418285E+03  0.38927418289E+03  0.50400001928E-02 0.  1.
    10030    2    1    2    0    0  0.00000000000E+00  0.00000000000E+00  0.38626125098E+03  0.11648096167E+04  0.10989011281E+04 0.  0.
        2    1    3    3  502    0  0.84696203120E+02 -0.16964140514E+03  0.73975833920E+03  0.76367143038E+03  0.25500000920E-02 0. -1.
       -2    1    3    3    0  502 -0.84696203120E+02  0.16964140514E+03 -0.35349708822E+03  0.40113818635E+03  0.25500000920E-02 0.  1.
</event>
<event>
 5   0  0.1429680E-03  0.1098990E+04  0.7818609E-02  0.9206176E-01
       -2   -1    0    0    0  501  0.00000000000E+00  0.00000000000E+00  0.17514575116E+03  0.17514575118E+03  0.25500000920E-02 0. -1.
        2   -1    0    0  501    0  0.00000000000E+00  0.00000000000E+00 -0.17239642824E+04  0.17239642824E+04  0.25500000920E-02 0.  1.
    10030    2    1    2    0    0  0.00000000000E+00  0.00000000000E+00 -0.15488185313E+04  0.18991100336E+04  0.10989904808E+04 0.  0.
        3    1    3    3  502    0  0.47441427542E+03  0.10323487359E+03 -0.12190880490E+04  0.13122126448E+04  0.10100000352E+00 0.  1.
       -3    1    3    3    0  502 -0.47441427542E+03 -0.10323487359E+03 -0.32973048233E+03  0.58689738883E+03  0.10100000352E+00 0. -1.
</event>
<event>
 5   0  0.1372794E-03  0.1101140E+04  0.7818609E-02  0.9204081E-01
       -2   -1    0    0    0  501  0.00000000000E+00  0.00000000000E+00  0.28607272575E+03  0.28607272576E+03  0.25500000920E-02 0. -1.
        2   -1    0    0  501    0  0.00000000000E+00  0.00000000000E+00 -0.10596169688E+04  0.10596169688E+04  0.25500000920E-02 0.  1.
    10030    2    1    2    0    0  0.00000000000E+00  0.00000000000E+00 -0.77354424306E+03  0.13456896946E+04  0.11011403444E+04 0.  0.
        4    1    3    3  502    0 -0.12886797949E+02 -0.32555486575E+03 -0.92915572365E+03  0.98462379205E+03  0.12699999809E+01 0.  1.
       -4    1    3    3    0  502  0.12886797949E+02  0.32555486575E+03  0.15561148059E+03  0.36106590252E+03  0.12699999809E+01 0. -1.
</event>
<event>
 5   0  0.1429680E-03  0.1101742E+04  0.7818609E-02  0.9203495E-01
       -2   -1    0    0    0  501  0.00000000000E+00  0.00000000000E+00  0.13559220165E+03  0.13559220167E+03  0.25500000920E-02 0. -1.
        2   -1    0    0  501    0  0.00000000000E+00  0.00000000000E+00 -0.22380278162E+04  0.22380278162E+04  0.25500000920E-02 0.  1.
    10030    2    1    2    0    0  0.00000000000E+00  0.00000000000E+00 -0.21024356146E+04  0.23736200179E+04  0.11017424726E+04 0.  0.
        3    1    3    3  502    0  0.22399313301E+03 -0.38701424101E+03 -0.35808858757E+03  0.57287031092E+03  0.10100000352E+00 0. -1.
       -3    1    3    3    0  502 -0.22399313301E+03  0.38701424101E+03 -0.17443470270E+04  0.18007497070E+04  0.10100000352E+00 0.  1.
</event>
<event>
 5   0  0.8341767E-04  0.1130206E+04  0.7818609E-02  0.9176241E-01
       -1   -1    0    0    0  501  0.00000000000E+00  0.00000000000E+00  0.45780253178E+03  0.45780253181E+03  0.50400001928E-02 0. -1.
        1   -1    0    0  501    0  0.00000000000E+00  0.00000000000E+00 -0.69755228517E+03  0.69755228519E+03  0.50400001928E-02 0.  1.
    10030    2    1    2    0    0  0.00000000000E+00  0.00000000000E+00 -0.23974975339E+03  0.11553548170E+04  0.11302056490E+04 0.  0.
        2    1    3    3  502    0  0.20603553133E+03  0.25596279289E+03 -0.58985911003E+03  0.67520468097E+03  0.25500000920E-02 0.  1.
       -2    1    3    3    0  502 -0.20603553133E+03 -0.25596279289E+03  0.35010935664E+03  0.48015013603E+03  0.25500000920E-02 0. -1.
</event>
<event>
 5   0  0.1396936E-03  0.1100883E+04  0.7818609E-02  0.9204332E-01
        2   -1    0    0  501    0  0.00000000000E+00  0.00000000000E+00  0.54551654736E+03  0.54551654737E+03  0.25500000920E-02 0. -1.
       -2   -1    0    0    0  501  0.00000000000E+00  0.00000000000E+00 -0.55541054433E+03  0.55541054433E+03  0.25500000920E-02 0.  1.
    10030    2    1    2    0    0  0.00000000000E+00  0.00000000000E+00 -0.98939969668E+01  0.11009270917E+04  0.11008826323E+04 0.  0.
        2    1    3    3  502    0  0.26665891060E+03  0.22559362929E+03  0.42049489057E+03  0.54664011304E+03  0.25500000920E-02 0. -1.
       -2    1    3    3    0  502 -0.26665891060E+03 -0.22559362929E+03 -0.43038888754E+03  0.55428697865E+03  0.25500000920E-02 0.  1.
</event>
<event>
 5   0  0.7946038E-04  0.1105894E+04  0.7818609E-02  0.9199466E-01
        1   -1    0    0  501    0  0.00000000000E+00  0.00000000000E+00  0.86403522446E+03  0.86403522448E+03  0.50400001928E-02 0. -1.
       -1   -1    0    0    0  501  0.00000000000E+00  0.00000000000E+00 -0.35386353021E+03  0.35386353025E+03  0.50400001928E-02 0.  1.
    10030    2    1    2    0    0  0.00000000000E+00  0.00000000000E+00  0.51017169425E+03  0.12178987547E+04  0.11058943074E+04 0.  0.
        4    1    3    3  502    0 -0.74291354535E+02 -0.52331637135E+03  0.76251778507E+02  0.53403668087E+03  0.12699999809E+01 0.  1.
       -4    1    3    3    0  502  0.74291354535E+02  0.52331637135E+03  0.43391991574E+03  0.68386207386E+03  0.12699999809E+01 0. -1.
</event>
<event>
 5   0  0.7946038E-04  0.1098361E+04  0.7818609E-02  0.9206790E-01
        1   -1    0    0  501    0  0.00000000000E+00  0.00000000000E+00  0.51803318551E+03  0.51803318554E+03  0.50400001928E-02 0.  1.
       -1   -1    0    0    0  501  0.00000000000E+00  0.00000000000E+00 -0.58220095081E+03  0.58220095083E+03  0.50400001928E-02 0. -1.
    10030    2    1    2    0    0  0.00000000000E+00  0.00000000000E+00 -0.64167765298E+02  0.11002341364E+04  0.10983613489E+04 0.  0.
        4    1    3    3  502    0  0.42913971269E+03 -0.12780685775E+03 -0.35059193937E+03  0.56869306901E+03  0.12699999809E+01 0. -1.
       -4    1    3    3    0  502 -0.42913971269E+03  0.12780685775E+03  0.28642417407E+03  0.53154106736E+03  0.12699999809E+01 0.  1.
</event>
<event>
 5   0  0.1372794E-03  0.1096571E+04  0.7818609E-02  0.9208540E-01
       -2   -1    0    0    0  501  0.00000000000E+00  0.00000000000E+00  0.94567972580E+03  0.94567972580E+03  0.25500000920E-02 0.  1.
        2   -1    0    0  501    0  0.00000000000E+00  0.00000000000E+00 -0.31788460689E+03  0.31788460690E+03  0.25500000920E-02 0. -1.
    10030    2    1    2    0    0  0.00000000000E+00  0.00000000000E+00  0.62779511890E+03  0.12635643327E+04  0.10965710700E+04 0.  0.
        4    1    3    3  502    0 -0.13005805259E+03  0.52630940624E+03  0.21958778442E+03  0.58492486364E+03  0.12699999809E+01 0.  1.
       -4    1    3    3    0  502  0.13005805259E+03 -0.52630940624E+03  0.40820733448E+03  0.67863946906E+03  0.12699999809E+01 0. -1.
</event>
<event>
 5   0  0.8150924E-04  0.1076339E+04  0.7818609E-02  0.9228565E-01
       -1   -1    0    0    0  501  0.00000000000E+00  0.00000000000E+00  0.28500998209E+03  0.28500998213E+03  0.50400001928E-02 0.  1.
        1   -1    0    0  501    0  0.00000000000E+00  0.00000000000E+00 -0.10161978020E+04  0.10161978020E+04  0.50400001928E-02 0. -1.
    10030    2    1    2    0    0  0.00000000000E+00  0.00000000000E+00 -0.73118781990E+03  0.13012077841E+04  0.10763391982E+04 0.  0.
        3    1    3    3  502    0 -0.28768509471E+03  0.20902973280E+03  0.12274141083E+03  0.37619357656E+03  0.10100000352E+00 0.  1.
       -3    1    3    3    0  502  0.28768509471E+03 -0.20902973280E+03 -0.85392923073E+03  0.92501420757E+03  0.10100000352E+00 0. -1.
</event>
<event>
 5   0  0.5409500E-04  0.1101487E+04  0.7818609E-02  0.9203744E-01
       -4   -1    0    0    0  501  0.00000000000E+00  0.00000000000E+00  0.99927137020E+03  0.99927217723E+03  0.12699999809E+01 0. -1.
        4   -1    0    0  501    0  0.00000000000E+00  0.00000000000E+00 -0.30353716293E+03  0.30353981976E+03  0.12699999809E+01 0.  1.
    10030    2    1    2    0    0  0.00000000000E+00  0.00000000000E+00  0.69573420727E+03  0.13028119970E+04  0.11014867282E+04 0.  0.
        3    1    3    3  502    0  0.17534531253E+03 -0.43520441781E+03  0.68896905957E+03  0.83356297852E+03  0.10100000352E+00 0. -1.
       -3    1    3    3    0  502 -0.17534531253E+03  0.43520441781E+03  0.67651476961E+01  0.46924901847E+03  0.10100000352E+00 0.  1.
</event>
<event>
 5   0  0.1429680E-03  0.1091231E+04  0.7818609E-02  0.9213781E-01
        2   -1    0    0  501    0  0.00000000000E+00  0.00000000000E+00  0.74359575878E+03  0.74359575878E+03  0.25500000920E-02 0. -1.
       -2   -1    0    0    0  501  0.00000000000E+00  0.00000000000E+00 -0.40034719965E+03  0.40034719966E+03  0.25500000920E-02 0.  1.
    10030    2    1    2    0    0  0.00000000000E+00  0.00000000000E+00  0.34324855912E+03  0.11439429584E+04  0.10912313773E+04 0.  0.
        3    1    3    3  502    0 -0.96576380114E+02 -0.26564517976E+02  0.73387514127E+03  0.74067901549E+03  0.10100000352E+00 0. -1.
       -3    1    3    3    0  502  0.96576380114E+02  0.26564517976E+02 -0.39062658214E+03  0.40326394296E+03  0.10100000352E+00 0.  1.
</event>
<event>
 5   0  0.1429680E-03  0.1099903E+04  0.7818609E-02  0.9205286E-01
       -2   -1    0    0    0  501  0.00000000000E+00  0.00000000000E+00  0.62804642271E+03  0.62804642272E+03  0.25500000920E-02 0.  1.
        2   -1    0    0  501    0  0.00000000000E+00  0.00000000000E+00 -0.48156756409E+03  0.48156756410E+03  0.25500000920E-02 0. -1.
    10030    2    1    2    0    0  0.00000000000E+00  0.00000000000E+00  0.14647885862E+03  0.11096139868E+04  0.10999032429E+04 0.  0.
        3    1    3    3  502    0  0.26796631967E+03 -0.48023010001E+03  0.68741558172E+02  0.55421323464E+03  0.10100000352E+00 0. -1.
       -3    1    3    3    0  502 -0.26796631967E+03  0.48023010001E+03  0.77737300453E+02  0.55540075217E+03  0.10100000352E+00 0.  1.
</event>
<event>
 5   0  0.1372794E-03  0.1097364E+04  0.7818609E-02  0.9207765E-01
       -2   -1    0    0    0  501  0.00000000000E+00  0.00000000000E+00  0.10394156706E+04  0.10394156707E+04  0.25500000920E-02 0.  1.
        2   -1    0    0  501    0  0.00000000000E+00  0.00000000000E+00 -0.28963557855E+03  0.28963557856E+03  0.25500000920E-02 0. -1.
    10030    2    1    2    0    0  0.00000000000E+00  0.00000000000E+00  0.74978009210E+03  0.13290512492E+04  0.10973636756E+04 0.  0.
        4    1    3    3  502    0 -0.13419512031E+02  0.34800096318E+02 -0.28809666337E+03  0.29050375273E+03  0.12699999809E+01 0. -1.
       -4    1    3    3    0  502  0.13419512031E+02 -0.34800096318E+02  0.10378767555E+04  0.10385474965E+04  0.12699999809E+01 0.  1.
</event>
<event>
 5   0  0.8009636E-04  0.1095574E+04  0.7818609E-02  0.9209517E-01
        1   -1    0    0  501    0  0.00000000000E+00  0.00000000000E+00  0.32173394563E+03  0.32173394567E+03  0.50400001928E-02 0.  1.
       -1   -1    0    0    0  501  0.00000000000E+00  0.00000000000E+00 -0.93266618089E+03  0.93266618090E+03  0.50400001928E-02 0. -1.
    10030    2    1    2    0    0  0.00000000000E+00  0.00000000000E+00 -0.61093223526E+03  0.12544001266E+04  0.10955735856E+04 0.  0.
        1    1    3    3  502    0 -0.47146477964E+03 -0.49725256518E+02 -0.61969495083E+03  0.78023936820E+03  0.50400001928E-02 0. -1.
       -1    1    3    3    0  502  0.47146477964E+03  0.49725256518E+02  0.87627155685E+01  0.47416075838E+03  0.50400001928E-02 0.  1.
</event>
<event>
 5   0  0.1372794E-03  0.1100498E+04  0.7818609E-02  0.9204707E-01
       -2   -1    0    0    0  501  0.00000000000E+00  0.00000000000E+00  0.27192575908E+03  0.27192575909E+03  0.25500000920E-02 0.  1.
        2   -1    0    0  501    0  0.00000000000E+00  0.00000000000E+00 -0.11134427574E+04  0.11134427574E+04  0.25500000920E-02 0. -1.
    10030    2    1    2    0    0  0.00000000000E+00  0.00000000000E+00 -0.84151699828E+03  0.13853685164E+04  0.11004976456E+04 0.  0.
        4    1    3    3  502    0 -0.54112578384E+03  0.75613492167E+02 -0.50270647361E+03  0.74246207017E+03  0.12699999809E+01 0. -1.
       -4    1    3    3    0  502  0.54112578384E+03 -0.75613492167E+02 -0.33881052466E+03  0.64290644627E+03  0.12699999809E+01 0.  1.
</event>
<event>
 5   0  0.8150924E-04  0.1100407E+04  0.7818609E-02  0.9204795E-01
        1   -1    0    0  501    0  0.00000000000E+00  0.00000000000E+00  0.27929789545E+03  0.27929789549E+03  0.50400001928E-02 0.  1.
       -1   -1    0    0    0  501  0.00000000000E+00  0.00000000000E+00 -0.10838754863E+04  0.10838754863E+04  0.50400001928E-02 0. -1.
    10030    2    1    2    0    0  0.00000000000E+00  0.00000000000E+00 -0.80457759084E+03  0.13631733818E+04  0.11004074560E+04 0.  0.
        3    1    3    3  502    0  0.23967298822E+03 -0.49225443590E+03 -0.46976089496E+03  0.72141034064E+03  0.10100000352E+00 0. -1.
       -3    1    3    3    0  502 -0.23967298822E+03  0.49225443590E+03 -0.33481669588E+03  0.64176304115E+03  0.10100000352E+00 0.  1.
</event>
<event>
 5   0  0.1429680E-03  0.1105790E+04  0.7818609E-02  0.9199566E-01
        2   -1    0    0  501    0  0.00000000000E+00  0.00000000000E+00  0.83343744218E+03  0.83343744219E+03  0.25500000920E-02 0.  1.
       -2   -1    0    0    0  501  0.00000000000E+00  0.00000000000E+00 -0.36678594002E+03  0.36678594002E+03  0.25500000920E-02 0. -1.
    10030    2    1    2    0    0  0.00000000000E+00  0.00000000000E+00  0.46665150217E+03  0.12002233822E+04  0.11057904606E+04 0.  0.
        3    1    3    3  502    0  0.32637914463E+03  0.21742982478E+03 -0.18969300733E+03  0.43564035853E+03  0.10100000352E+00 0. -1.
       -3    1    3    3    0  502 -0.32637914463E+03 -0.21742982478E+03  0.65634450950E+03  0.76458302368E+03  0.10100000352E+00 0.  1.
</event>
<event>
 5   0  0.1429680E-03  0.1094853E+04  0.7818609E-02  0.9210223E-01
       -2   -1    0    0    0  501  0.00000000000E+00  0.00000000000E+00  0.52136926660E+03  0.52136926661E+03  0.25500000920E-02 0. -1.
        2   -1    0    0  501    0  0.00000000000E+00  0.00000000000E+00 -0.57478612144E+03  0.57478612144E+03  0.25500000920E-02 0.  1.
    10030    2    1    2    0    0  0.00000000000E+00  0.00000000000E+00 -0.53416854834E+02  0.10961553881E+04  0.10948530835E+04 0.  0.
        3    1    3    3  502    0  0.34228909495E+03  0.40129708396E+03  0.12000814256E+03  0.54092803459E+03  0.10100000352E+00 0. -1.
       -3    1    3    3    0  502 -0.34228909495E+03 -0.40129708396E+03 -0.17342499739E+03  0.55522735347E+03  0.10100000352E+00 0.  1.
</event>
<event>
 5   0  0.7946038E-04  0.1105859E+04  0.7818609E-02  0.9199500E-01
        1   -1    0    0  501    0  0.00000000000E+00  0.00000000000E+00  0.11598413635E+04  0.11598413635E+04  0.50400001928E-02 0. -1.
       -1   -1    0    0    0  501  0.00000000000E+00  0.00000000000E+00 -0.26359744799E+03  0.26359744804E+03  0.50400001928E-02 0.  1.
    10030    2    1    2    0    0  0.00000000000E+00  0.00000000000E+00  0.89624391549E+03  0.14234388115E+04  0.11058593464E+04 0.  0.
        4    1    3    3  502    0  0.25221275215E+03 -0.31638655043E+03  0.93319868269E+03  0.10171396737E+04  0.12699999809E+01 0. -1.
       -4    1    3    3    0  502 -0.25221275215E+03  0.31638655043E+03 -0.36954767202E+02  0.40629913778E+03  0.12699999809E+01 0.  1.
</event>
<event>
 5   0  0.8009636E-04  0.1094602E+04  0.7818609E-02  0.9210469E-01
       -1   -1    0    0    0  501  0.00000000000E+00  0.00000000000E+00  0.32123396129E+03  0.32123396133E+03  0.50400001928E-02 0. -1.
        1   -1    0    0  501    0  0.00000000000E+00  0.00000000000E+00 -0.93246135271E+03  0.93246135273E+03  0.50400001928E-02 0.  1.
    10030    2    1    2    0    0  0.00000000000E+00  0.00000000000E+00 -0.61122739143E+03  0.12536953141E+04  0.10946017616E+04 0.  0.
        1    1    3    3  502    0  0.37445641711E+03  0.39913056032E+03 -0.30111297664E+03  0.62465337366E+03  0.50400001928E-02 0.  1.
       -1    1    3    3    0  502 -0.37445641711E+03 -0.39913056032E+03 -0.31011441479E+03  0.62904194040E+03  0.50400001928E-02 0. -1.
</event>
<event>
 5   0  0.1425432E-03  0.1099499E+04  0.7818609E-02  0.9205681E-01
       -2   -1    0    0    0  501  0.00000000000E+00  0.00000000000E+00  0.39506085751E+03  0.39506085752E+03  0.25500000920E-02 0.  1.
        2   -1    0    0  501    0  0.00000000000E+00  0.00000000000E+00 -0.76500704521E+03  0.76500704521E+03  0.25500000920E-02 0. -1.
    10030    2    1    2    0    0  0.00000000000E+00  0.00000000000E+00 -0.36994618770E+03  0.11600679027E+04  0.10994986845E+04 0.  0.
        1    1    3    3  502    0  0.47408688798E+03 -0.54689566323E+02  0.10296159611E+03  0.48821144632E+03  0.50400001928E-02 0.  1.
       -1    1    3    3    0  502 -0.47408688798E+03  0.54689566323E+02 -0.47290778381E+03  0.67185645642E+03  0.50400001928E-02 0. -1.
</event>
<event>
 5   0  0.7946038E-04  0.1099930E+04  0.7818609E-02  0.9205260E-01
        1   -1    0    0  501    0  0.00000000000E+00  0.00000000000E+00  0.94836602765E+03  0.94836602767E+03  0.50400001928E-02 0.  1.
       -1   -1    0    0    0  501  0.00000000000E+00  0.00000000000E+00 -0.31892907462E+03  0.31892907466E+03  0.50400001928E-02 0. -1.
    10030    2    1    2    0    0  0.00000000000E+00  0.00000000000E+00  0.62943695304E+03  0.12672951023E+04  0.10999299971E+04 0.  0.
        4    1    3    3  502    0  0.13789588024E+03  0.45637647397E+03 -0.11606350858E+01  0.47675750624E+03  0.12699999809E+01 0. -1.
       -4    1    3    3    0  502 -0.13789588024E+03 -0.45637647397E+03  0.63059758812E+03  0.79053759609E+03  0.12699999809E+01 0.  1.
</event>
<event>
 5   0  0.1402775E-03  0.1099130E+04  0.7818609E-02  0.9206040E-01
       -2   -1    0    0    0  501  0.00000000000E+00  0.00000000000E+00  0.23273899857E+03  0.23273899858E+03  0.25500000920E-02 0. -1.
        2   -1    0    0  501    0  0.00000000000E+00  0.00000000000E+00 -0.12976837545E+04  0.12976837545E+04  0.25500000920E-02 0.  1.
    10030    2    1    2    0    0  0.00000000000E+00  0.00000000000E+00 -0.10649447560E+04  0.15304227531E+04  0.10991298695E+04 0.  0.
        5    1    3    3  502    0  0.34607041206E+03  0.37570722832E+03 -0.81468191059E+03  0.96158689517E+03  0.46999998093E+01 0.  1.
       -5    1    3    3    0  502 -0.34607041206E+03 -0.37570722832E+03 -0.25026284538E+03  0.56883585795E+03  0.46999998093E+01 0. -1.
</event>
<event>
 5   0  0.8341767E-04  0.1108815E+04  0.7818609E-02  0.9196642E-01
       -1   -1    0    0    0  501  0.00000000000E+00  0.00000000000E+00  0.28461435357E+03  0.28461435362E+03  0.50400001928E-02 0.  1.
        1   -1    0    0  501    0  0.00000000000E+00  0.00000000000E+00 -0.10799452110E+04  0.10799452110E+04  0.50400001928E-02 0. -1.
    10030    2    1    2    0    0  0.00000000000E+00  0.00000000000E+00 -0.79533085746E+03  0.13645595647E+04  0.11088154187E+04 0.  0.
        2    1    3    3  502    0 -0.30811484852E+03  0.45850748697E+03 -0.33989012255E+03  0.64860555880E+03  0.25500000920E-02 0.  1.
       -2    1    3    3    0  502  0.30811484852E+03 -0.45850748697E+03 -0.45544073492E+03  0.71595400587E+03  0.25500000920E-02 0. -1.
</event>
<event>
 5   0  0.8305271E-04  0.1119676E+04  0.7818609E-02  0.9186224E-01
        1   -1    0    0  501    0  0.00000000000E+00  0.00000000000E+00  0.10206150688E+04  0.10206150688E+04  0.50400001928E-02 0.  1.
       -1   -1    0    0    0  501  0.00000000000E+00  0.00000000000E+00 -0.30708789467E+03  0.30708789471E+03  0.50400001928E-02 0. -1.
    10030    2    1    2    0    0  0.00000000000E+00  0.00000000000E+00  0.71352717409E+03  0.13277029635E+04  0.11196759045E+04 0.  0.
        5    1    3    3  502    0 -0.13657329567E+03 -0.44448744551E+03 -0.12882458675E+02  0.46519823951E+03  0.46999998093E+01 0. -1.
       -5    1    3    3    0  502  0.13657329567E+03  0.44448744551E+03  0.72640963276E+03  0.86250472397E+03  0.46999998093E+01 0.  1.
</event>
<event>
 5   0  0.8009636E-04  0.1097983E+04  0.7818609E-02  0.9207160E-01
        1   -1    0    0  501    0  0.00000000000E+00  0.00000000000E+00  0.82158045566E+03  0.82158045567E+03  0.50400001928E-02 0.  1.
       -1   -1    0    0    0  501  0.00000000000E+00  0.00000000000E+00 -0.36684370993E+03  0.36684370996E+03  0.50400001928E-02 0. -1.
    10030    2    1    2    0    0  0.00000000000E+00  0.00000000000E+00  0.45473674573E+03  0.11884241656E+04  0.10979829186E+04 0.  0.
        1    1    3    3  502    0 -0.35910477758E+03  0.39957616214E+03  0.10503527728E+03  0.54740274034E+03  0.50400001928E-02 0.  1.
       -1    1    3    3    0  502  0.35910477758E+03 -0.39957616214E+03  0.34970146845E+03  0.64102142530E+03  0.50400001928E-02 0. -1.
</event>
<event>
 5   0  0.1402775E-03  0.1088201E+04  0.7818609E-02  0.9216768E-01
       -2   -1    0    0    0  501  0.00000000000E+00  0.00000000000E+00  0.41250014121E+03  0.41250014121E+03  0.25500000920E-02 0.  1.
        2   -1    0    0  501    0  0.00000000000E+00  0.00000000000E+00 -0.71768594562E+03  0.71768594563E+03  0.25500000920E-02 0. -1.
    10030    2    1    2    0    0  0.00000000000E+00  0.00000000000E+00 -0.30518580441E+03  0.11301860868E+04  0.10882013672E+04 0.  0.
        5    1    3    3  502    0  0.51437627830E+03 -0.96242938967E+02  0.20749195067E+01  0.52332786498E+03  0.46999998093E+01 0.  1.
       -5    1    3    3    0  502 -0.51437627830E+03  0.96242938967E+02 -0.30726072392E+03  0.60685822186E+03  0.46999998093E+01 0. -1.
</event>
<event>
 5   0  0.8341767E-04  0.1086380E+04  0.7818609E-02  0.9218569E-01
        1   -1    0    0  501    0  0.00000000000E+00  0.00000000000E+00  0.27707826466E+03  0.27707826471E+03  0.50400001928E-02 0. -1.
       -1   -1    0    0    0  501  0.00000000000E+00  0.00000000000E+00 -0.10648819319E+04  0.10648819319E+04  0.50400001928E-02 0.  1.
    10030    2    1    2    0    0  0.00000000000E+00  0.00000000000E+00 -0.78780366720E+03  0.13419601966E+04  0.10863804818E+04 0.  0.
        2    1    3    3  502    0 -0.42421428431E+03 -0.25878159809E+03 -0.12290423323E+03  0.51188975871E+03  0.25500000920E-02 0. -1.
       -2    1    3    3    0  502  0.42421428431E+03  0.25878159809E+03 -0.66489943397E+03  0.83007043787E+03  0.25500000920E-02 0.  1.
</event>
<event>
 5   0  0.8150924E-04  0.1100077E+04  0.7818609E-02  0.9205117E-01
       -1   -1    0    0    0  501  0.00000000000E+00  0.00000000000E+00  0.56916323165E+03  0.56916323167E+03  0.50400001928E-02 0.  1.
        1   -1    0    0  501    0  0.00000000000E+00  0.00000000000E+00 -0.53155603828E+03  0.53155603830E+03  0.50400001928E-02 0. -1.
    10030    2    1    2    0    0  0.00000000000E+00  0.00000000000E+00  0.37607193374E+02  0.11007192700E+04  0.11000766384E+04 0.  0.
        3    1    3    3  502    0  0.48159899314E+03  0.26162175019E+03  0.65291603078E+02  0.55194794501E+03  0.10100000352E+00 0. -1.
       -3    1    3    3    0  502 -0.48159899314E+03 -0.26162175019E+03 -0.27684409703E+02  0.54877132497E+03  0.10100000352E+00 0.  1.
</event>
<event>
 5   0  0.1429680E-03  0.1022220E+04  0.7818609E-02  0.9284505E-01
        2   -1    0    0  501    0  0.00000000000E+00  0.00000000000E+00  0.79474789125E+03  0.79474789125E+03  0.25500000920E-02 0. -1.
       -2   -1    0    0    0  501  0.00000000000E+00  0.00000000000E+00 -0.32869969379E+03  0.32869969380E+03  0.25500000920E-02 0.  1.
    10030    2    1    2    0    0  0.00000000000E+00  0.00000000000E+00  0.46604819746E+03  0.11234475850E+04  0.10222199147E+04 0.  0.
        3    1    3    3  502    0  0.36408957078E+03  0.10305103162E+03 -0.14458838486E+03  0.40507597054E+03  0.10100000352E+00 0.  1.
       -3    1    3    3    0  502 -0.36408957078E+03 -0.10305103162E+03  0.61063658232E+03  0.71837161451E+03  0.10100000352E+00 0. -1.
</event>
<event>
 5   0  0.1402775E-03  0.1096648E+04  0.7818609E-02  0.9208465E-01
        2   -1    0    0  501    0  0.00000000000E+00  0.00000000000E+00  0.17206242999E+04  0.17206242999E+04  0.25500000920E-02 0.  1.
       -2   -1    0    0    0  501  0.00000000000E+00  0.00000000000E+00 -0.17473845845E+03  0.17473845847E+03  0.25500000920E-02 0. -1.
    10030    2    1    2    0    0  0.00000000000E+00  0.00000000000E+00  0.15458858415E+04  0.18953627584E+04  0.10966480525E+04 0.  0.
        5    1    3    3  502    0  0.10752903240E+03 -0.48371792556E+03  0.11786082171E+04  0.12785479825E+04  0.46999998093E+01 0.  1.
       -5    1    3    3    0  502 -0.10752903240E+03  0.48371792556E+03  0.36727762440E+03  0.61681477585E+03  0.46999998093E+01 0. -1.
</event>
<event>
 5   0  0.1425432E-03  0.1097588E+04  0.7818609E-02  0.9207546E-01
        2   -1    0    0  501    0  0.00000000000E+00  0.00000000000E+00  0.17234275477E+04  0.17234275477E+04  0.25500000920E-02 0.  1.
       -2   -1    0    0    0  501  0.00000000000E+00  0.00000000000E+00 -0.17475354600E+03  0.17475354602E+03  0.25500000920E-02 0. -1.
    10030    2    1    2    0    0  0.00000000000E+00  0.00000000000E+00  0.15486740017E+04  0.18981810937E+04  0.10975884024E+04 0.  0.
        1    1    3    3  502    0 -0.81725628874E+02 -0.93404897762E+02  0.16988384746E+04  0.17033659960E+04  0.50400001928E-02 0.  1.
       -1    1    3    3    0  502  0.81725628874E+02  0.93404897762E+02 -0.15016447295E+03  0.19481509773E+03  0.50400001928E-02 0. -1.
</event>
<event>
 5   0  0.7946038E-04  0.1102383E+04  0.7818609E-02  0.9202873E-01
        1   -1    0    0  501    0  0.00000000000E+00  0.00000000000E+00  0.77840319536E+03  0.77840319538E+03  0.50400001928E-02 0.  1.
       -1   -1    0    0    0  501  0.00000000000E+00  0.00000000000E+00 -0.39030141751E+03  0.39030141754E+03  0.50400001928E-02 0. -1.
    10030    2    1    2    0    0  0.00000000000E+00  0.00000000000E+00  0.38810177785E+03  0.11687046129E+04  0.11023826388E+04 0.  0.
        4    1    3    3  502    0  0.13244756861E+03 -0.13349671628E+03  0.74334037622E+03  0.76675958390E+03  0.12699999809E+01 0.  1.
       -4    1    3    3    0  502 -0.13244756861E+03  0.13349671628E+03 -0.35523859836E+03  0.40194502902E+03  0.12699999809E+01 0. -1.
</event>
<event>
 5   0  0.8150924E-04  0.1093767E+04  0.7818609E-02  0.9211288E-01
        1   -1    0    0  501    0  0.00000000000E+00  0.00000000000E+00  0.12233395921E+04  0.12233395921E+04  0.50400001928E-02 0. -1.
       -1   -1    0    0    0  501  0.00000000000E+00  0.00000000000E+00 -0.24447980458E+03  0.24447980464E+03  0.50400001928E-02 0.  1.
    10030    2    1    2    0    0  0.00000000000E+00  0.00000000000E+00  0.97885978752E+03  0.14678193967E+04  0.10937674789E+04 0.  0.
        3    1    3    3  502    0 -0.22330312604E+03 -0.49002605014E+03  0.36146899252E+03  0.64857509871E+03  0.10100000352E+00 0.  1.
       -3    1    3    3    0  502  0.22330312604E+03  0.49002605014E+03  0.61739079499E+03  0.81924429803E+03  0.10100000352E+00 0. -1.
</event>
<event>
 5   0  0.8009636E-04  0.1108913E+04  0.7818609E-02  0.9196548E-01
        1   -1    0    0  501    0  0.00000000000E+00  0.00000000000E+00  0.20615203602E+03  0.20615203608E+03  0.50400001928E-02 0.  1.
       -1   -1    0    0    0  501  0.00000000000E+00  0.00000000000E+00 -0.14912395993E+04  0.14912395993E+04  0.50400001928E-02 0. -1.
    10030    2    1    2    0    0  0.00000000000E+00  0.00000000000E+00 -0.12850875632E+04  0.16973916354E+04  0.11089131249E+04 0.  0.
        1    1    3    3  502    0  0.41398969118E+03  0.16936675650E+03 -0.11440595372E+04  0.12283911377E+04  0.50400001928E-02 0. -1.
       -1    1    3    3    0  502 -0.41398969118E+03 -0.16936675650E+03 -0.14102802604E+03  0.46900049761E+03  0.50400001928E-02 0.  1.
</event>
<event>
 5   0  0.1396936E-03  0.1100197E+04  0.7818609E-02  0.9204999E-01
       -2   -1    0    0    0  501  0.00000000000E+00  0.00000000000E+00  0.89577377700E+03  0.89577377700E+03  0.25500000920E-02 0. -1.
        2   -1    0    0  501    0  0.00000000000E+00  0.00000000000E+00 -0.33781813528E+03  0.33781813529E+03  0.25500000920E-02 0.  1.
    10030    2    1    2    0    0  0.00000000000E+00  0.00000000000E+00  0.55795564172E+03  0.12335919123E+04  0.11001974859E+04 0.  0.
        2    1    3    3  502    0  0.35472530860E+03 -0.38026920411E+03  0.48009669032E+03  0.70776235010E+03  0.25500000920E-02 0. -1.
       -2    1    3    3    0  502 -0.35472530860E+03  0.38026920411E+03  0.77858951404E+02  0.52582956219E+03  0.25500000920E-02 0.  1.
</event>
<event>
 5   0  0.8009636E-04  0.1089241E+04  0.7818609E-02  0.9215742E-01
        1   -1    0    0  501    0  0.00000000000E+00  0.00000000000E+00  0.25676794518E+03  0.25676794523E+03  0.50400001928E-02 0. -1.
       -1   -1    0    0    0  501  0.00000000000E+00  0.00000000000E+00 -0.11551733413E+04  0.11551733413E+04  0.50400001928E-02 0.  1.
    10030    2    1    2    0    0  0.00000000000E+00  0.00000000000E+00 -0.89840539612E+03  0.14119412865E+04  0.10892409930E+04 0.  0.
        1    1    3    3  502    0  0.53483513343E+03  0.99560202271E+02 -0.41613833540E+03  0.68493209009E+03  0.50400001928E-02 0. -1.
       -1    1    3    3    0  502 -0.53483513343E+03 -0.99560202271E+02 -0.48226706072E+03  0.72700919644E+03  0.50400001928E-02 0.  1.
</event>
<event>
 5   0  0.5409500E-04  0.1098610E+04  0.7818609E-02  0.9206547E-01
        4   -1    0    0  501    0  0.00000000000E+00  0.00000000000E+00  0.64381439530E+03  0.64381564791E+03  0.12699999809E+01 0. -1.
       -4   -1    0    0    0  501  0.00000000000E+00  0.00000000000E+00 -0.46866690114E+03  0.46866862187E+03  0.12699999809E+01 0.  1.
    10030    2    1    2    0    0  0.00000000000E+00  0.00000000000E+00  0.17514749416E+03  0.11124842698E+04  0.10986103066E+04 0.  0.
        1    1    3    3  502    0  0.13754653381E+03  0.38982285158E+03  0.45388122145E+03  0.61391291548E+03  0.50400001928E-02 0. -1.
       -1    1    3    3    0  502 -0.13754653381E+03 -0.38982285158E+03 -0.27873372729E+03  0.49857135431E+03  0.50400001928E-02 0.  1.
</event>
<event>
 5   0  0.7946038E-04  0.1098431E+04  0.7818609E-02  0.9206722E-01
        1   -1    0    0  501    0  0.00000000000E+00  0.00000000000E+00  0.10605197197E+04  0.10605197197E+04  0.50400001928E-02 0.  1.
       -1   -1    0    0    0  501  0.00000000000E+00  0.00000000000E+00 -0.28442457117E+03  0.28442457121E+03  0.50400001928E-02 0. -1.
    10030    2    1    2    0    0  0.00000000000E+00  0.00000000000E+00  0.77609514854E+03  0.13449442909E+04  0.10984313661E+04 0.  0.
        4    1    3    3  502    0 -0.31648537467E+03  0.44767978667E+03  0.34825723040E+03  0.64951127412E+03  0.12699999809E+01 0.  1.
       -4    1    3    3    0  502  0.31648537467E+03 -0.44767978667E+03  0.42783791814E+03  0.69543301681E+03  0.12699999809E+01 0. -1.
</event>
<event>
 5   0  0.1425432E-03  0.1101400E+04  0.7818609E-02  0.9203828E-01
       -2   -1    0    0    0  501  0.00000000000E+00  0.00000000000E+00  0.93342373435E+03  0.93342373435E+03  0.25500000920E-02 0.  1.
        2   -1    0    0  501    0  0.00000000000E+00  0.00000000000E+00 -0.32490145334E+03  0.32490145335E+03  0.25500000920E-02 0. -1.
    10030    2    1    2    0    0  0.00000000000E+00  0.00000000000E+00  0.60852228101E+03  0.12583251877E+04  0.11014004320E+04 0.  0.
        1    1    3    3  502    0 -0.20970398562E+02  0.24153373930E+03  0.86917255451E+03  0.90235205678E+03  0.50400001928E-02 0.  1.
       -1    1    3    3    0  502  0.20970398562E+02 -0.24153373930E+03 -0.26065027350E+03  0.35597313093E+03  0.50400001928E-02 0. -1.
</event>
<event>
 5   0  0.1429680E-03  0.1135052E+04  0.7818609E-02  0.9171686E-01
       -2   -1    0    0    0  501  0.00000000000E+00  0.00000000000E+00  0.16469320505E+03  0.16469320507E+03  0.25500000920E-02 0.  1.
        2   -1    0    0  501    0  0.00000000000E+00  0.00000000000E+00 -0.19556704432E+04  0.19556704432E+04  0.25500000920E-02 0. -1.
    10030    2    1    2    0    0  0.00000000000E+00  0.00000000000E+00 -0.17909772381E+04  0.21203636482E+04  0.11350517756E+04 0.  0.
        3    1    3    3  502    0 -0.31565393045E+02 -0.70358788591E+02 -0.19458376513E+04  0.19473651195E+04  0.10100000352E+00 0. -1.
       -3    1    3    3    0  502  0.31565393045E+02  0.70358788591E+02  0.15486041319E+03  0.17299852874E+03  0.10100000352E+00 0.  1.
</event>
<event>
 5   0  0.8341767E-04  0.1103626E+04  0.7818609E-02  0.9201665E-01
        1   -1    0    0  501    0  0.00000000000E+00  0.00000000000E+00  0.10378151289E+04  0.10378151289E+04  0.50400001928E-02 0. -1.
       -1   -1    0    0    0  501  0.00000000000E+00  0.00000000000E+00 -0.29340254764E+03  0.29340254768E+03  0.50400001928E-02 0.  1.
    10030    2    1    2    0    0  0.00000000000E+00  0.00000000000E+00  0.74441258122E+03  0.13312176765E+04  0.11036260287E+04 0.  0.
        2    1    3    3  502    0  0.46167709466E+01 -0.47365846498E+03  0.71364150295E+03  0.85653829498E+03  0.25500000920E-02 0. -1.
       -2    1    3    3    0  502 -0.46167709466E+01  0.47365846498E+03  0.30771078269E+02  0.47467938157E+03  0.25500000920E-02 0.  1.
</event>
<event>
 5   0  0.5409500E-04  0.1099249E+04  0.7818609E-02  0.9205925E-01
       -3   -1    0    0    0  501  0.00000000000E+00  0.00000000000E+00  0.55670541276E+03  0.55670542192E+03  0.10100000352E+00 0. -1.
        3   -1    0    0  501    0  0.00000000000E+00  0.00000000000E+00 -0.54263324400E+03  0.54263325340E+03  0.10100000352E+00 0.  1.
    10030    2    1    2    0    0  0.00000000000E+00  0.00000000000E+00  0.14072168760E+02  0.10993386753E+04  0.10992486057E+04 0.  0.
        1    1    3    3  502    0  0.25893374436E+03  0.24440232255E+03  0.42576800903E+03  0.55502934768E+03  0.50400001928E-02 0. -1.
       -1    1    3    3    0  502 -0.25893374436E+03 -0.24440232255E+03 -0.41169584027E+03  0.54430932765E+03  0.50400001928E-02 0.  1.
</event>
<event>
 5   0  0.8305271E-04  0.1101261E+04  0.7818609E-02  0.9203964E-01
        1   -1    0    0  501    0  0.00000000000E+00  0.00000000000E+00  0.11479379075E+04  0.11479379075E+04  0.50400001928E-02 0. -1.
       -1   -1    0    0    0  501  0.00000000000E+00  0.00000000000E+00 -0.26412048377E+03  0.26412048381E+03  0.50400001928E-02 0.  1.
    10030    2    1    2    0    0  0.00000000000E+00  0.00000000000E+00  0.88381742371E+03  0.14120583913E+04  0.11012609418E+04 0.  0.
        5    1    3    3  502    0  0.56341161012E+02  0.44071583451E+03  0.24907209235E+02  0.44502497939E+03  0.46999998093E+01 0.  1.
       -5    1    3    3    0  502 -0.56341161012E+02 -0.44071583451E+03  0.85891021448E+03  0.96703341191E+03  0.46999998093E+01 0. -1.
</event>
<event>
 5   0  0.1402775E-03  0.1101971E+04  0.7818609E-02  0.9203273E-01
        2   -1    0    0  501    0  0.00000000000E+00  0.00000000000E+00  0.12021715171E+04  0.12021715171E+04  0.25500000920E-02 0.  1.
       -2   -1    0    0    0  501  0.00000000000E+00  0.00000000000E+00 -0.25253049404E+03  0.25253049406E+03  0.25500000920E-02 0. -1.
    10030    2    1    2    0    0  0.00000000000E+00  0.00000000000E+00  0.94964102303E+03  0.14547020111E+04  0.11019709019E+04 0.  0.
        5    1    3    3  502    0  0.44685203449E+03 -0.30660442227E+03  0.60603428043E+03  0.81300839574E+03  0.46999998093E+01 0. -1.
       -5    1    3    3    0  502 -0.44685203449E+03  0.30660442227E+03  0.34360674260E+03  0.64169361540E+03  0.46999998093E+01 0.  1.
</event>
<event>
 5   0  0.1425432E-03  0.1091134E+04  0.7818609E-02  0.9213877E-01
       -2   -1    0    0    0  501  0.00000000000E+00  0.00000000000E+00  0.20271790474E+03  0.20271790475E+03  0.25500000920E-02 0.  1.
        2   -1    0    0  501    0  0.00000000000E+00  0.00000000000E+00 -0.14682628985E+04  0.14682628985E+04  0.25500000920E-02 0. -1.
    10030    2    1    2    0    0  0.00000000000E+00  0.00000000000E+00 -0.12655449938E+04  0.16709808033E+04  0.10911336828E+04 0.  0.
        1    1    3    3  502    0  0.47750718923E+02 -0.79957646111E+02 -0.14559997577E+04  0.14589752057E+04  0.50400001928E-02 0. -1.
       -1    1    3    3    0  502 -0.47750718923E+02  0.79957646111E+02  0.19045476387E+03  0.21200559765E+03  0.50400001928E-02 0.  1.
</event>
<event>
 5   0  0.8305271E-04  0.1102703E+04  0.7818609E-02  0.9202561E-01
       -1   -1    0    0    0  501  0.00000000000E+00  0.00000000000E+00  0.54733245242E+03  0.54733245245E+03  0.50400001928E-02 0.  1.
        1   -1    0    0  501    0  0.00000000000E+00  0.00000000000E+00 -0.55540042587E+03  0.55540042590E+03  0.50400001928E-02 0. -1.
    10030    2    1    2    0    0  0.00000000000E+00  0.00000000000E+00 -0.80679734526E+01  0.11027328783E+04  0.11027033639E+04 0.  0.
        5    1    3    3  502    0 -0.23186467021E+02 -0.48525930317E+02 -0.55275096848E+03  0.55538104155E+03  0.46999998093E+01 0. -1.
       -5    1    3    3    0  502  0.23186467021E+02  0.48525930317E+02  0.54468299503E+03  0.54735183679E+03  0.46999998093E+01 0.  1.
</event>
<event>
 5   0  0.7946038E-04  0.1102058E+04  0.7818609E-02  0.9203188E-01
        1   -1    0    0  501    0  0.00000000000E+00  0.00000000000E+00  0.58006933648E+03  0.58006933651E+03  0.50400001928E-02 0.  1.
       -1   -1    0    0    0  501  0.00000000000E+00  0.00000000000E+00 -0.52344294812E+03  0.52344294814E+03  0.50400001928E-02 0. -1.
    10030    2    1    2    0    0  0.00000000000E+00  0.00000000000E+00  0.56626388368E+02  0.11035122846E+04  0.11020584442E+04 0.  0.
        4    1    3    3  502    0  0.50387650279E+02  0.20438778462E+03  0.53821803624E+03  0.57792175010E+03  0.12699999809E+01 0.  1.
       -4    1    3    3    0  502 -0.50387650279E+02 -0.20438778462E+03 -0.48159164787E+03  0.52559053455E+03  0.12699999809E+01 0. -1.
</event>
<event>
 5   0  0.1372794E-03  0.1110893E+04  0.7818609E-02  0.9194639E-01
       -2   -1    0    0    0  501  0.00000000000E+00  0.00000000000E+00  0.54739244204E+03  0.54739244205E+03  0.25500000920E-02 0.  1.
        2   -1    0    0  501    0  0.00000000000E+00  0.00000000000E+00 -0.56361949400E+03  0.56361949400E+03  0.25500000920E-02 0. -1.
    10030    2    1    2    0    0  0.00000000000E+00  0.00000000000E+00 -0.16227051951E+02  0.11110119361E+04  0.11108934264E+04 0.  0.
        4    1    3    3  502    0 -0.37971651907E+03  0.24669638902E+03 -0.32982422484E+03  0.56020476203E+03  0.12699999809E+01 0.  1.
       -4    1    3    3    0  502  0.37971651907E+03 -0.24669638902E+03  0.31359717289E+03  0.55080717402E+03  0.12699999809E+01 0. -1.
</event>
<event>
 5   0  0.1429680E-03  0.1096481E+04  0.7818609E-02  0.9208629E-01
       -2   -1    0    0    0  501  0.00000000000E+00  0.00000000000E+00  0.19389026375E+03  0.19389026377E+03  0.25500000920E-02 0.  1.
        2   -1    0    0  501    0  0.00000000000E+00  0.00000000000E+00 -0.15501939864E+04  0.15501939864E+04  0.25500000920E-02 0. -1.
    10030    2    1    2    0    0  0.00000000000E+00  0.00000000000E+00 -0.13563037226E+04  0.17440842502E+04  0.10964807721E+04 0.  0.
        3    1    3    3  502    0  0.27493923843E+03  0.40980817256E+03 -0.29828600235E+03  0.57663582313E+03  0.10100000352E+00 0. -1.
       -3    1    3    3    0  502 -0.27493923843E+03 -0.40980817256E+03 -0.10580177203E+04  0.11674484270E+04  0.10100000352E+00 0.  1.
</event>
<event>
 5   0  0.1402775E-03  0.1098100E+04  0.7818609E-02  0.9207046E-01
       -2   -1    0    0    0  501  0.00000000000E+00  0.00000000000E+00  0.76782456705E+03  0.76782456706E+03  0.25500000920E-02 0.  1.
        2   -1    0    0  501    0  0.00000000000E+00  0.00000000000E+00 -0.39261026713E+03  0.39261026714E+03  0.25500000920E-02 0. -1.
    10030    2    1    2    0    0  0.00000000000E+00  0.00000000000E+00  0.37521429992E+03  0.11604348342E+04  0.10980998286E+04 0.  0.
        5    1    3    3  502    0  0.43664601203E+03  0.31309617353E+03  0.30690835872E+03  0.61879219804E+03  0.46999998093E+01 0.  1.
       -5    1    3    3    0  502 -0.43664601203E+03 -0.31309617353E+03  0.68305941204E+02  0.54164263616E+03  0.46999998093E+01 0. -1.
</event>
<event>
 5   0  0.1402775E-03  0.1113443E+04  0.7818609E-02  0.9192187E-01
        2   -1    0    0  501    0  0.00000000000E+00  0.00000000000E+00  0.27713515245E+04  0.27713515245E+04  0.25500000920E-02 0. -1.
       -2   -1    0    0    0  501  0.00000000000E+00  0.00000000000E+00 -0.11183673613E+03  0.11183673616E+03  0.25500000920E-02 0.  1.
    10030    2    1    2    0    0  0.00000000000E+00  0.00000000000E+00  0.26595147883E+04  0.28831882606E+04  0.11134431449E+04 0.  0.
        5    1    3    3  502    0 -0.50011174319E+03 -0.20521952978E+03  0.16741620165E+04  0.17592803525E+04  0.46999998093E+01 0.  1.
       -5    1    3    3    0  502  0.50011174319E+03  0.20521952978E+03  0.98535277180E+03  0.11239079081E+04  0.46999998093E+01 0. -1.
</event>
<event>
 5   0  0.1402775E-03  0.1092310E+04  0.7818609E-02  0.9212720E-01
        2   -1    0    0  501    0  0.00000000000E+00  0.00000000000E+00  0.86440563408E+03  0.86440563409E+03  0.25500000920E-02 0.  1.
       -2   -1    0    0    0  501  0.00000000000E+00  0.00000000000E+00 -0.34507560938E+03  0.34507560939E+03  0.25500000920E-02 0. -1.
    10030    2    1    2    0    0  0.00000000000E+00  0.00000000000E+00  0.51933002470E+03  0.12094812435E+04  0.10923100310E+04 0.  0.
        5    1    3    3  502    0 -0.22531582193E+03 -0.48272647788E+03  0.39286511872E+03  0.66193441032E+03  0.46999998093E+01 0.  1.
       -5    1    3    3    0  502  0.22531582193E+03  0.48272647788E+03  0.12646490598E+03  0.54754683316E+03  0.46999998093E+01 0. -1.
</event>
<event>
 5   0  0.8305271E-04  0.1125922E+04  0.7818609E-02  0.9180288E-01
        1   -1    0    0  501    0  0.00000000000E+00  0.00000000000E+00  0.69945596533E+03  0.69945596535E+03  0.50400001928E-02 0.  1.
       -1   -1    0    0    0  501  0.00000000000E+00  0.00000000000E+00 -0.45310232750E+03  0.45310232753E+03  0.50400001928E-02 0. -1.
    10030    2    1    2    0    0  0.00000000000E+00  0.00000000000E+00  0.24635363783E+03  0.11525582929E+04  0.11259220682E+04 0.  0.
        5    1    3    3  502    0 -0.34002089942E+03 -0.37128809198E+03  0.38099618565E+03  0.63138676164E+03  0.46999998093E+01 0.  1.
       -5    1    3    3    0  502  0.34002089942E+03  0.37128809198E+03 -0.13464254782E+03  0.52117153124E+03  0.46999998093E+01 0. -1.
</event>
<event>
 5   0  0.1425432E-03  0.1110247E+04  0.7818609E-02  0.9195261E-01
       -2   -1    0    0    0  501  0.00000000000E+00  0.00000000000E+00  0.49570241852E+03  0.49570241853E+03  0.25500000920E-02 0. -1.
        2   -1    0    0  501    0  0.00000000000E+00  0.00000000000E+00 -0.62166789487E+03  0.62166789487E+03  0.25500000920E-02 0.  1.
    10030    2    1    2    0    0  0.00000000000E+00  0.00000000000E+00 -0.12596547635E+03  0.11173703134E+04  0.11102473220E+04 0.  0.
        1    1    3    3  502    0  0.21223770075E+03  0.15193395127E+03  0.43009265988E+03  0.50309886034E+03  0.50400001928E-02 0. -1.
       -1    1    3    3    0  502 -0.21223770075E+03 -0.15193395127E+03 -0.55605813622E+03  0.61427145307E+03  0.50400001928E-02 0.  1.
</event>
<event>
 5   0  0.8341767E-04  0.1100721E+04  0.7818609E-02  0.9204489E-01
        1   -1    0    0  501    0  0.00000000000E+00  0.00000000000E+00  0.78798848700E+03  0.78798848701E+03  0.50400001928E-02 0.  1.
       -1   -1    0    0    0  501  0.00000000000E+00  0.00000000000E+00 -0.38439234938E+03  0.38439234941E+03  0.50400001928E-02 0. -1.
    10030    2    1    2    0    0  0.00000000000E+00  0.00000000000E+00  0.40359613762E+03  0.11723808364E+04  0.11007211197E+04 0.  0.
        2    1    3    3  502    0  0.65576495686E+02  0.44792382040E+03 -0.13156493142E+03  0.47142905813E+03  0.25500000920E-02 0. -1.
       -2    1    3    3    0  502 -0.65576495686E+02 -0.44792382040E+03  0.53516106904E+03  0.70095177829E+03  0.25500000920E-02 0.  1.
</event>
<event>
 5   0  0.8341767E-04  0.1090758E+04  0.7818609E-02  0.9214247E-01
       -1   -1    0    0    0  501  0.00000000000E+00  0.00000000000E+00  0.29017007710E+03  0.29017007714E+03  0.50400001928E-02 0.  1.
        1   -1    0    0  501    0  0.00000000000E+00  0.00000000000E+00 -0.10250478484E+04  0.10250478484E+04  0.50400001928E-02 0. -1.
    10030    2    1    2    0    0  0.00000000000E+00  0.00000000000E+00 -0.73487777132E+03  0.13152179256E+04  0.10907579259E+04 0.  0.
        2    1    3    3  502    0  0.47470156398E+03 -0.13645191455E+03 -0.64627880253E+03  0.81341071448E+03  0.25500000920E-02 0. -1.
       -2    1    3    3    0  502 -0.47470156398E+03  0.13645191455E+03 -0.88598968790E+02  0.50180721109E+03  0.25500000920E-02 0.  1.
</event>
<event>
 5   0  0.8150924E-04  0.1102601E+04  0.7818609E-02  0.9202661E-01
        1   -1    0    0  501    0  0.00000000000E+00  0.00000000000E+00  0.68496649581E+03  0.68496649582E+03  0.50400001928E-02 0. -1.
       -1   -1    0    0    0  501  0.00000000000E+00  0.00000000000E+00 -0.44371816621E+03  0.44371816623E+03  0.50400001928E-02 0.  1.
    10030    2    1    2    0    0  0.00000000000E+00  0.00000000000E+00  0.24124832960E+03  0.11286846621E+04  0.11026007028E+04 0.  0.
        3    1    3    3  502    0  0.41322240153E+03 -0.18403711501E+03  0.44321356552E+03  0.63329352412E+03  0.10100000352E+00 0. -1.
       -3    1    3    3    0  502 -0.41322240153E+03  0.18403711501E+03 -0.20196523592E+03  0.49539113794E+03  0.10100000352E+00 0.  1.
</event>
<event>
 5   0  0.1425432E-03  0.1099129E+04  0.7818609E-02  0.9206041E-01
        2   -1    0    0  501    0  0.00000000000E+00  0.00000000000E+00  0.41575900575E+03  0.41575900576E+03  0.25500000920E-02 0. -1.
       -2   -1    0    0    0  501  0.00000000000E+00  0.00000000000E+00 -0.72643373053E+03  0.72643373054E+03  0.25500000920E-02 0.  1.
    10030    2    1    2    0    0  0.00000000000E+00  0.00000000000E+00 -0.31067472478E+03  0.11421927363E+04  0.10991294110E+04 0.  0.
        1    1    3    3  502    0  0.38562474758E+03 -0.16693552512E+03 -0.52339978793E+03  0.67120880025E+03  0.50400001928E-02 0. -1.
       -1    1    3    3    0  502 -0.38562474758E+03  0.16693552512E+03  0.21272506315E+03  0.47098393605E+03  0.50400001928E-02 0.  1.
</event>
<event>
 5   0  0.7946038E-04  0.1097925E+04  0.7818609E-02  0.9207216E-01
       -1   -1    0    0    0  501  0.00000000000E+00  0.00000000000E+00  0.49124455043E+03  0.49124455046E+03  0.50400001928E-02 0.  1.
        1   -1    0    0  501    0  0.00000000000E+00  0.00000000000E+00 -0.61346230667E+03  0.61346230669E+03  0.50400001928E-02 0. -1.
    10030    2    1    2    0    0  0.00000000000E+00  0.00000000000E+00 -0.12221775624E+03  0.11047068571E+04  0.10979253437E+04 0.  0.
        4    1    3    3  502    0 -0.18328406729E+03 -0.28859730882E+03  0.37105184151E+03  0.50454190903E+03  0.12699999809E+01 0.  1.
       -4    1    3    3    0  502  0.18328406729E+03  0.28859730882E+03 -0.49326959775E+03  0.60016494811E+03  0.12699999809E+01 0. -1.
</event>
<event>
 5   0  0.7946038E-04  0.1100859E+04  0.7818609E-02  0.9204355E-01
       -1   -1    0    0    0  501  0.00000000000E+00  0.00000000000E+00  0.38536741111E+03  0.38536741114E+03  0.50400001928E-02 0.  1.
        1   -1    0    0  501    0  0.00000000000E+00  0.00000000000E+00 -0.78619126578E+03  0.78619126580E+03  0.50400001928E-02 0. -1.
    10030    2    1    2    0    0  0.00000000000E+00  0.00000000000E+00 -0.40082385467E+03  0.11715586769E+04  0.11008587425E+04 0.  0.
        4    1    3    3  502    0  0.63366761924E+01  0.12538177382E+03  0.36992610288E+03  0.39065032595E+03  0.12699999809E+01 0.  1.
       -4    1    3    3    0  502 -0.63366761924E+01 -0.12538177382E+03 -0.77074995756E+03  0.78090835099E+03  0.12699999809E+01 0. -1.
</event>
<event>
 5   0  0.8305271E-04  0.1101005E+04  0.7818609E-02  0.9204213E-01
        1   -1    0    0  501    0  0.00000000000E+00  0.00000000000E+00  0.57384485100E+03  0.57384485102E+03  0.50400001928E-02 0.  1.
       -1   -1    0    0    0  501  0.00000000000E+00  0.00000000000E+00 -0.52810954400E+03  0.52810954402E+03  0.50400001928E-02 0. -1.
    10030    2    1    2    0    0  0.00000000000E+00  0.00000000000E+00  0.45735306999E+02  0.11019543950E+04  0.11010048912E+04 0.  0.
        5    1    3    3  502    0 -0.24812962648E+02 -0.23323354515E+03  0.52131047502E+03  0.57166447420E+03  0.46999998093E+01 0.  1.
       -5    1    3    3    0  502  0.24812962648E+02  0.23323354515E+03 -0.47557516803E+03  0.53028992084E+03  0.46999998093E+01 0. -1.
</event>
<event>
 5   0  0.1396936E-03  0.1093774E+04  0.7818609E-02  0.9211281E-01
       -2   -1    0    0    0  501  0.00000000000E+00  0.00000000000E+00  0.11743090766E+03  0.11743090769E+03  0.25500000920E-02 0. -1.
        2   -1    0    0  501    0  0.00000000000E+00  0.00000000000E+00 -0.25469062718E+04  0.25469062718E+04  0.25500000920E-02 0.  1.
    10030    2    1    2    0    0  0.00000000000E+00  0.00000000000E+00 -0.24294753641E+04  0.26643371795E+04  0.10937742276E+04 0.  0.
        2    1    3    3  502    0  0.51011522923E+02  0.50409859697E+03 -0.17161329092E+04  0.17893657349E+04  0.25500000920E-02 0.  1.
       -2    1    3    3    0  502 -0.51011522923E+02 -0.50409859697E+03 -0.71334245490E+03  0.87497144463E+03  0.25500000920E-02 0. -1.
</event>
<event>
 5   0  0.1372794E-03  0.1100208E+04  0.7818609E-02  0.9204989E-01
       -2   -1    0    0    0  501  0.00000000000E+00  0.00000000000E+00  0.51399049913E+03  0.51399049914E+03  0.25500000920E-02 0. -1.
        2   -1    0    0  501    0  0.00000000000E+00  0.00000000000E+00 -0.58875457702E+03  0.58875457702E+03  0.25500000920E-02 0.  1.
    10030    2    1    2    0    0  0.00000000000E+00  0.00000000000E+00 -0.74764077884E+02  0.11027450762E+04  0.11002077239E+04 0.  0.
        4    1    3    3  502    0 -0.31969054986E+03  0.42174506397E+03  0.11310315228E+03  0.54116992027E+03  0.12699999809E+01 0. -1.
       -4    1    3    3    0  502  0.31969054986E+03 -0.42174506397E+03 -0.18786723016E+03  0.56157515589E+03  0.12699999809E+01 0.  1.
</event>
<event>
 5   0  0.1402775E-03  0.1051622E+04  0.7818609E-02  0.9253671E-01
       -2   -1    0    0    0  501  0.00000000000E+00  0.00000000000E+00  0.53804060194E+03  0.53804060195E+03  0.25500000920E-02 0.  1.
        2   -1    0    0  501    0  0.00000000000E+00  0.00000000000E+00 -0.51385892421E+03  0.51385892422E+03  0.25500000920E-02 0. -1.
    10030    2    1    2    0    0  0.00000000000E+00  0.00000000000E+00  0.24181677735E+02  0.10518995262E+04  0.10516215382E+04 0.  0.
        5    1    3    3  502    0 -0.36130329945E+03 -0.37770146518E+03  0.69170833187E+02  0.52726195117E+03  0.46999998093E+01 0. -1.
       -5    1    3    3    0  502  0.36130329945E+03  0.37770146518E+03 -0.44989155452E+02  0.52463757500E+03  0.46999998093E+01 0.  1.
</event>
<event>
 5   0  0.1429680E-03  0.1098674E+04  0.7818609E-02  0.9206485E-01
       -2   -1    0    0    0  501  0.00000000000E+00  0.00000000000E+00  0.17410503419E+03  0.17410503421E+03  0.25500000920E-02 0.  1.
        2   -1    0    0  501    0  0.00000000000E+00  0.00000000000E+00 -0.17332721844E+04  0.17332721844E+04  0.25500000920E-02 0. -1.
    10030    2    1    2    0    0  0.00000000000E+00  0.00000000000E+00 -0.15591671502E+04  0.19073772186E+04  0.10986744976E+04 0.  0.
        3    1    3    3  502    0  0.43297676519E+03 -0.16671202975E+03 -0.26896130004E+03  0.53628534492E+03  0.10100000352E+00 0.  1.
       -3    1    3    3    0  502 -0.43297676519E+03  0.16671202975E+03 -0.12902058502E+04  0.13710918737E+04  0.10100000352E+00 0. -1.
</event>
<event>
 5   0  0.1402775E-03  0.1101206E+04  0.7818609E-02  0.9204017E-01
       -2   -1    0    0    0  501  0.00000000000E+00  0.00000000000E+00  0.15405408879E+03  0.15405408881E+03  0.25500000920E-02 0. -1.
        2   -1    0    0  501    0  0.00000000000E+00  0.00000000000E+00 -0.19679038826E+04  0.19679038826E+04  0.25500000920E-02 0.  1.
    10030    2    1    2    0    0  0.00000000000E+00  0.00000000000E+00 -0.18138497938E+04  0.21219579714E+04  0.11012059562E+04 0.  0.
        5    1    3    3  502    0 -0.37725793795E+03 -0.33062673192E+03 -0.46961576637E+03  0.68716711623E+03  0.46999998093E+01 0. -1.
       -5    1    3    3    0  502  0.37725793795E+03  0.33062673192E+03 -0.13442340274E+04  0.14347908551E+04  0.46999998093E+01 0.  1.
</event>
<event>
 5   0  0.1396936E-03  0.1099588E+04  0.7818609E-02  0.9205594E-01
        2   -1    0    0  501    0  0.00000000000E+00  0.00000000000E+00  0.14958096421E+04  0.14958096421E+04  0.25500000920E-02 0.  1.
       -2   -1    0    0    0  501  0.00000000000E+00  0.00000000000E+00 -0.20208015921E+03  0.20208015922E+03  0.25500000920E-02 0. -1.
    10030    2    1    2    0    0  0.00000000000E+00  0.00000000000E+00  0.12937294829E+04  0.16978898013E+04  0.10995880149E+04 0.  0.
        2    1    3    3  502    0  0.15758710662E+02  0.47453377836E+02  0.14922914614E+04  0.14931289180E+04  0.25500000920E-02 0.  1.
       -2    1    3    3    0  502 -0.15758710662E+02 -0.47453377836E+02 -0.19856197849E+03  0.20476088332E+03  0.25500000920E-02 0. -1.
</event>
<event>
 5   0  0.8009636E-04  0.1103524E+04  0.7818609E-02  0.9201764E-01
       -1   -1    0    0    0  501  0.00000000000E+00  0.00000000000E+00  0.32664036928E+03  0.32664036932E+03  0.50400001928E-02 0.  1.
        1   -1    0    0  501    0  0.00000000000E+00  0.00000000000E+00 -0.93203830901E+03  0.93203830902E+03  0.50400001928E-02 0. -1.
    10030    2    1    2    0    0  0.00000000000E+00  0.00000000000E+00 -0.60539793973E+03  0.12586786783E+04  0.11035240595E+04 0.  0.
        1    1    3    3  502    0  0.52300458804E+03  0.77619517568E+02 -0.12277780797E+03  0.54280104898E+03  0.50400001928E-02 0.  1.
       -1    1    3    3    0  502 -0.52300458804E+03 -0.77619517568E+02 -0.48262013176E+03  0.71587762936E+03  0.50400001928E-02 0. -1.
</event>
<event>
 5   0  0.7946038E-04  0.1103046E+04  0.7818609E-02  0.9202228E-01
        1   -1    0    0  501    0  0.00000000000E+00  0.00000000000E+00  0.93881145870E+03  0.93881145872E+03  0.50400001928E-02 0.  1.
       -1   -1    0    0    0  501  0.00000000000E+00  0.00000000000E+00 -0.32400315180E+03  0.32400315184E+03  0.50400001928E-02 0. -1.
    10030    2    1    2    0    0  0.00000000000E+00  0.00000000000E+00  0.61480830691E+03  0.12628146106E+04  0.11030464570E+04 0.  0.
        4    1    3    3  502    0 -0.52686654151E+03 -0.16300372451E+03  0.31221956405E+03  0.63375171467E+03  0.12699999809E+01 0.  1.
       -4    1    3    3    0  502  0.52686654151E+03  0.16300372451E+03  0.30258874286E+03  0.62906289588E+03  0.12699999809E+01 0. -1.
</event>
<event>
 5   0  0.1372794E-03  0.1107294E+04  0.7818609E-02  0.9198111E-01
        2   -1    0    0  501    0  0.00000000000E+00  0.00000000000E+00  0.12772666172E+04  0.12772666172E+04  0.25500000920E-02 0.  1.
       -2   -1    0    0    0  501  0.00000000000E+00  0.00000000000E+00 -0.23998533814E+03  0.23998533816E+03  0.25500000920E-02 0. -1.
    10030    2    1    2    0    0  0.00000000000E+00  0.00000000000E+00  0.10372812790E+04  0.15172519553E+04  0.11072944704E+04 0.  0.
        4    1    3    3  502    0  0.26173795657E+03  0.48767835525E+03  0.49991741057E+03  0.74582569437E+03  0.12699999809E+01 0.  1.
       -4    1    3    3    0  502 -0.26173795657E+03 -0.48767835525E+03  0.53736386846E+03  0.77142626097E+03  0.12699999809E+01 0. -1.
</event>
<event>
 5   0  0.1372794E-03  0.1100266E+04  0.7818609E-02  0.9204933E-01
       -2   -1    0    0    0  501  0.00000000000E+00  0.00000000000E+00  0.14694304334E+03  0.14694304337E+03  0.25500000920E-02 0.  1.
        2   -1    0    0  501    0  0.00000000000E+00  0.00000000000E+00 -0.20596168925E+04  0.20596168925E+04  0.25500000920E-02 0. -1.
    10030    2    1    2    0    0  0.00000000000E+00  0.00000000000E+00 -0.19126738491E+04  0.22065599358E+04  0.11002661030E+04 0.  0.
        4    1    3    3  502    0  0.27507429418E+03 -0.36974837368E+03 -0.15588656696E+04  0.16255594471E+04  0.12699999809E+01 0. -1.
       -4    1    3    3    0  502 -0.27507429418E+03  0.36974837368E+03 -0.35380817951E+03  0.58100048877E+03  0.12699999809E+01 0.  1.
</event>
<event>
 5   0  0.8341767E-04  0.1105642E+04  0.7818609E-02  0.9199710E-01
        1   -1    0    0  501    0  0.00000000000E+00  0.00000000000E+00  0.65483354889E+03  0.65483354891E+03  0.50400001928E-02 0. -1.
       -1   -1    0    0    0  501  0.00000000000E+00  0.00000000000E+00 -0.46670070074E+03  0.46670070076E+03  0.50400001928E-02 0.  1.
    10030    2    1    2    0    0  0.00000000000E+00  0.00000000000E+00  0.18813284815E+03  0.11215342497E+04  0.11056423946E+04 0.  0.
        2    1    3    3  502    0  0.29034019526E+03  0.90635439116E+01 -0.38304688952E+03  0.48073329029E+03  0.25500000920E-02 0.  1.
       -2    1    3    3    0  502 -0.29034019526E+03 -0.90635439116E+01  0.57117973767E+03  0.64080095938E+03  0.25500000920E-02 0. -1.
</event>
<event>
 5   0  0.8341767E-04  0.1097039E+04  0.7818609E-02  0.9208082E-01
        1   -1    0    0  501    0  0.00000000000E+00  0.00000000000E+00  0.20953168734E+04  0.20953168734E+04  0.50400001928E-02 0.  1.
       -1   -1    0    0    0  501  0.00000000000E+00  0.00000000000E+00 -0.14359350722E+03  0.14359350731E+03  0.50400001928E-02 0. -1.
    10030    2    1    2    0    0  0.00000000000E+00  0.00000000000E+00  0.19517233661E+04  0.22389103807E+04  0.10970394682E+04 0.  0.
        2    1    3    3  502    0 -0.19019594749E+02  0.28949695163E+03  0.25809217500E+02  0.29126679472E+03  0.25500000920E-02 0. -1.
       -2    1    3    3    0  502  0.19019594749E+02 -0.28949695163E+03  0.19259141486E+04  0.19476435860E+04  0.25500000920E-02 0.  1.
</event>
<event>
 5   0  0.1396936E-03  0.1092410E+04  0.7818609E-02  0.9212621E-01
        2   -1    0    0  501    0  0.00000000000E+00  0.00000000000E+00  0.42775762852E+03  0.42775762853E+03  0.25500000920E-02 0.  1.
       -2   -1    0    0    0  501  0.00000000000E+00  0.00000000000E+00 -0.69745142601E+03  0.69745142602E+03  0.25500000920E-02 0. -1.
    10030    2    1    2    0    0  0.00000000000E+00  0.00000000000E+00 -0.26969379749E+03  0.11252090546E+04  0.10924104870E+04 0.  0.
        2    1    3    3  502    0 -0.34906852687E+03 -0.25612436246E+03  0.20815519079E+03  0.48039266122E+03  0.25500000920E-02 0.  1.
       -2    1    3    3    0  502  0.34906852687E+03  0.25612436246E+03 -0.47784898828E+03  0.64481639333E+03  0.25500000920E-02 0. -1.
</event>
<event>
 5   0  0.1429680E-03  0.1101356E+04  0.7818609E-02  0.9203871E-01
        2   -1    0    0  501    0  0.00000000000E+00  0.00000000000E+00  0.18054065106E+04  0.18054065106E+04  0.25500000920E-02 0. -1.
       -2   -1    0    0    0  501  0.00000000000E+00  0.00000000000E+00 -0.16796570383E+03  0.16796570385E+03  0.25500000920E-02 0.  1.
    10030    2    1    2    0    0  0.00000000000E+00  0.00000000000E+00  0.16374408068E+04  0.19733722145E+04  0.11013562099E+04 0.  0.
        3    1    3    3  502    0  0.19023052121E+03 -0.33853912710E+03  0.15183124772E+04  0.15671851137E+04  0.10100000352E+00 0. -1.
       -3    1    3    3    0  502 -0.19023052121E+03  0.33853912710E+03  0.11912832960E+03  0.40618710084E+03  0.10100000352E+00 0.  1.
</event>
<event>
 5   0  0.1396936E-03  0.1099031E+04  0.7818609E-02  0.9206137E-01
       -2   -1    0    0    0  501  0.00000000000E+00  0.00000000000E+00  0.12076355336E+03  0.12076355339E+03  0.25500000920E-02 0. -1.
        2   -1    0    0  501    0  0.00000000000E+00  0.00000000000E+00 -0.25004848821E+04  0.25004848821E+04  0.25500000920E-02 0.  1.
    10030    2    1    2    0    0  0.00000000000E+00  0.00000000000E+00 -0.23797213288E+04  0.26212484355E+04  0.10990312817E+04 0.  0.
        2    1    3    3  502    0 -0.32552663695E+03 -0.40156374737E+03 -0.16344438862E+04  0.17142426467E+04  0.25500000920E-02 0.  1.
       -2    1    3    3    0  502  0.32552663695E+03  0.40156374737E+03 -0.74527744256E+03  0.90700578882E+03  0.25500000920E-02 0. -1.
</event>
<event>
 5   0  0.1425432E-03  0.1101174E+04  0.7818609E-02  0.9204048E-01
        2   -1    0    0  501    0  0.00000000000E+00  0.00000000000E+00  0.23240623088E+04  0.23240623088E+04  0.25500000920E-02 0. -1.
       -2   -1    0    0    0  501  0.00000000000E+00  0.00000000000E+00 -0.13043809776E+03  0.13043809779E+03  0.25500000920E-02 0.  1.
    10030    2    1    2    0    0  0.00000000000E+00  0.00000000000E+00  0.21936242111E+04  0.24545004066E+04  0.11011744034E+04 0.  0.
        1    1    3    3  502    0  0.17847967903E+03  0.50445476266E+03  0.80775948266E+03  0.96891949369E+03  0.50400001928E-02 0.  1.
       -1    1    3    3    0  502 -0.17847967903E+03 -0.50445476266E+03  0.13858647284E+04  0.14855809129E+04  0.50400001928E-02 0. -1.
</event>
<event>
 5   0  0.8150924E-04  0.1100755E+04  0.7818609E-02  0.9204456E-01
        1   -1    0    0  501    0  0.00000000000E+00  0.00000000000E+00  0.80689345063E+03  0.80689345065E+03  0.50400001928E-02 0.  1.
       -1   -1    0    0    0  501  0.00000000000E+00  0.00000000000E+00 -0.37540931306E+03  0.37540931309E+03  0.50400001928E-02 0. -1.
    10030    2    1    2    0    0  0.00000000000E+00  0.00000000000E+00  0.43148413757E+03  0.11823027637E+04  0.11007548611E+04 0.  0.
        3    1    3    3  502    0  0.12993139632E+03  0.33460899482E+03 -0.23238379060E+03  0.42760680946E+03  0.10100000352E+00 0. -1.
       -3    1    3    3    0  502 -0.12993139632E+03 -0.33460899482E+03  0.66386792817E+03  0.75469595428E+03  0.10100000352E+00 0.  1.
</event>
<event>
 5   0  0.1402775E-03  0.1103342E+04  0.7818609E-02  0.9201941E-01
       -2   -1    0    0    0  501  0.00000000000E+00  0.00000000000E+00  0.49574561320E+03  0.49574561320E+03  0.25500000920E-02 0.  1.
        2   -1    0    0  501    0  0.00000000000E+00  0.00000000000E+00 -0.61390536916E+03  0.61390536917E+03  0.25500000920E-02 0. -1.
    10030    2    1    2    0    0  0.00000000000E+00  0.00000000000E+00 -0.11815975596E+03  0.11096509824E+04  0.11033420026E+04 0.  0.
        5    1    3    3  502    0 -0.24286351621E+03  0.90544449460E+02 -0.54883237735E+03  0.60697615543E+03  0.46999998093E+01 0. -1.
       -5    1    3    3    0  502  0.24286351621E+03 -0.90544449460E+02  0.43067262138E+03  0.50267482694E+03  0.46999998093E+01 0.  1.
</event>
<event>
 5   0  0.1372794E-03  0.1098933E+04  0.7818609E-02  0.9206233E-01
       -2   -1    0    0    0  501  0.00000000000E+00  0.00000000000E+00  0.51661175708E+03  0.51661175709E+03  0.25500000920E-02 0. -1.
        2   -1    0    0  501    0  0.00000000000E+00  0.00000000000E+00 -0.58441043107E+03  0.58441043108E+03  0.25500000920E-02 0.  1.
    10030    2    1    2    0    0  0.00000000000E+00  0.00000000000E+00 -0.67798673987E+02  0.11010221882E+04  0.10989327544E+04 0.  0.
        4    1    3    3  502    0 -0.21471711259E+03  0.44838950907E+03 -0.26834231393E+03  0.56494760874E+03  0.12699999809E+01 0.  1.
       -4    1    3    3    0  502  0.21471711259E+03 -0.44838950907E+03  0.20054363995E+03  0.53607457942E+03  0.12699999809E+01 0. -1.
</event>
<event>
 5   0  0.1396936E-03  0.1102392E+04  0.7818609E-02  0.9202864E-01
        2   -1    0    0  501    0  0.00000000000E+00  0.00000000000E+00  0.98751836370E+03  0.98751836370E+03  0.25500000920E-02 0.  1.
       -2   -1    0    0    0  501  0.00000000000E+00  0.00000000000E+00 -0.30765696532E+03  0.30765696534E+03  0.25500000920E-02 0. -1.
    10030    2    1    2    0    0  0.00000000000E+00  0.00000000000E+00  0.67986139837E+03  0.12951753290E+04  0.11023917688E+04 0.  0.
        2    1    3    3  502    0 -0.22045186267E+03 -0.25019601272E+03  0.85556654871E+03  0.91825442434E+03  0.25500000920E-02 0.  1.
       -2    1    3    3    0  502  0.22045186267E+03  0.25019601272E+03 -0.17570515034E+03  0.37692090470E+03  0.25500000920E-02 0. -1.
</event>
<event>
 5   0  0.8150924E-04  0.1102318E+04  0.7818609E-02  0.9202936E-01
       -1   -1    0    0    0  501  0.00000000000E+00  0.00000000000E+00  0.45289629841E+03  0.45289629844E+03  0.50400001928E-02 0.  1.
        1   -1    0    0  501    0  0.00000000000E+00  0.00000000000E+00 -0.67074130707E+03  0.67074130708E+03  0.50400001928E-02 0. -1.
    10030    2    1    2    0    0  0.00000000000E+00  0.00000000000E+00 -0.21784500865E+03  0.11236376055E+04  0.11023180216E+04 0.  0.
        3    1    3    3  502    0 -0.28752799231E+03  0.39025926956E+03 -0.37629617019E+03  0.61365581700E+03  0.10100000352E+00 0. -1.
       -3    1    3    3    0  502  0.28752799231E+03 -0.39025926956E+03  0.15845116154E+03  0.50998178853E+03  0.10100000352E+00 0.  1.
</event>
<event>
 5   0  0.8305271E-04  0.1099772E+04  0.7818609E-02  0.9205414E-01
        1   -1    0    0  501    0  0.00000000000E+00  0.00000000000E+00  0.83396094244E+03  0.83396094246E+03  0.50400001928E-02 0. -1.
       -1   -1    0    0    0  501  0.00000000000E+00  0.00000000000E+00 -0.36257676868E+03  0.36257676871E+03  0.50400001928E-02 0.  1.
    10030    2    1    2    0    0  0.00000000000E+00  0.00000000000E+00  0.47138417377E+03  0.11965377112E+04  0.10997724560E+04 0.  0.
        5    1    3    3  502    0  0.93908333393E+02  0.46920342279E+03  0.53041829629E+03  0.71437825140E+03  0.46999998093E+01 0. -1.
       -5    1    3    3    0  502 -0.93908333393E+02 -0.46920342279E+03 -0.59034122519E+02  0.48215945978E+03  0.46999998093E+01 0.  1.
</event>
<event>
 5   0  0.1425432E-03  0.1095953E+04  0.7818609E-02  0.9209146E-01
        2   -1    0    0  501    0  0.00000000000E+00  0.00000000000E+00  0.43270369752E+03  0.43270369753E+03  0.25500000920E-02 0.  1.
       -2   -1    0    0    0  501  0.00000000000E+00  0.00000000000E+00 -0.69395771298E+03  0.69395771299E+03  0.25500000920E-02 0. -1.
    10030    2    1    2    0    0  0.00000000000E+00  0.00000000000E+00 -0.26125401546E+03  0.11266614105E+04  0.10959526784E+04 0.  0.
        1    1    3    3  502    0 -0.18284162587E+03  0.49032563642E+03 -0.29774836176E+03  0.60208336369E+03  0.50400001928E-02 0. -1.
       -1    1    3    3    0  502  0.18284162587E+03 -0.49032563642E+03  0.36494346295E+02  0.52457804683E+03  0.50400001928E-02 0.  1.
</event>
<event>
 5   0  0.1402775E-03  0.1105609E+04  0.7818609E-02  0.9199742E-01
       -2   -1    0    0    0  501  0.00000000000E+00  0.00000000000E+00  0.57733261880E+03  0.57733261880E+03  0.25500000920E-02 0. -1.
        2   -1    0    0  501    0  0.00000000000E+00  0.00000000000E+00 -0.52931891673E+03  0.52931891673E+03  0.25500000920E-02 0.  1.
    10030    2    1    2    0    0  0.00000000000E+00  0.00000000000E+00  0.48013702069E+02  0.11066515355E+04  0.11056094724E+04 0.  0.
        5    1    3    3  502    0 -0.36094319536E+03  0.38065328353E+03 -0.15049643005E+03  0.54575468665E+03  0.46999998093E+01 0.  1.
       -5    1    3    3    0  502  0.36094319536E+03 -0.38065328353E+03  0.19851013212E+03  0.56089684889E+03  0.46999998093E+01 0. -1.
</event>
<event>
 5   0  0.1402775E-03  0.1100455E+04  0.7818609E-02  0.9204748E-01
       -2   -1    0    0    0  501  0.00000000000E+00  0.00000000000E+00  0.80625097180E+03  0.80625097181E+03  0.25500000920E-02 0. -1.
        2   -1    0    0  501    0  0.00000000000E+00  0.00000000000E+00 -0.37550403566E+03  0.37550403567E+03  0.25500000920E-02 0.  1.
    10030    2    1    2    0    0  0.00000000000E+00  0.00000000000E+00  0.43074693615E+03  0.11817550075E+04  0.11004553488E+04 0.  0.
        5    1    3    3  502    0  0.31984418423E+03 -0.31627218487E+03 -0.12489514911E+03  0.46685038865E+03  0.46999998093E+01 0.  1.
       -5    1    3    3    0  502 -0.31984418423E+03  0.31627218487E+03  0.55564208525E+03  0.71490461882E+03  0.46999998093E+01 0. -1.
</event>
<event>
 5   0  0.7946038E-04  0.1098125E+04  0.7818609E-02  0.9207021E-01
        1   -1    0    0  501    0  0.00000000000E+00  0.00000000000E+00  0.57838815706E+03  0.57838815708E+03  0.50400001928E-02 0.  1.
       -1   -1    0    0    0  501  0.00000000000E+00  0.00000000000E+00 -0.52122389672E+03  0.52122389675E+03  0.50400001928E-02 0. -1.
    10030    2    1    2    0    0  0.00000000000E+00  0.00000000000E+00  0.57164260335E+02  0.10996120538E+04  0.10981251824E+04 0.  0.
        4    1    3    3  502    0 -0.31182260882E+03  0.45184006458E+03  0.37273330982E+02  0.55025784632E+03  0.12699999809E+01 0. -1.
       -4    1    3    3    0  502  0.31182260882E+03 -0.45184006458E+03  0.19890929353E+02  0.54935420751E+03  0.12699999809E+01 0.  1.
</event>
<event>
 5   0  0.7946038E-04  0.1100734E+04  0.7818609E-02  0.9204477E-01
       -1   -1    0    0    0  501  0.00000000000E+00  0.00000000000E+00  0.70445472718E+03  0.70445472720E+03  0.50400001928E-02 0. -1.
        1   -1    0    0  501    0  0.00000000000E+00  0.00000000000E+00 -0.42998321034E+03  0.42998321037E+03  0.50400001928E-02 0.  1.
    10030    2    1    2    0    0  0.00000000000E+00  0.00000000000E+00  0.27447151685E+03  0.11344379376E+04  0.11007337646E+04 0.  0.
        4    1    3    3  502    0 -0.33551683812E+01  0.13108435135E+03  0.68811885536E+03  0.70050234570E+03  0.12699999809E+01 0. -1.
       -4    1    3    3    0  502  0.33551683812E+01 -0.13108435135E+03 -0.41364733852E+03  0.43393559186E+03  0.12699999809E+01 0.  1.
</event>
<event>
 5   0  0.8341767E-04  0.1036228E+04  0.7818609E-02  0.9269679E-01
        1   -1    0    0  501    0  0.00000000000E+00  0.00000000000E+00  0.37018208699E+03  0.37018208702E+03  0.50400001928E-02 0.  1.
       -1   -1    0    0    0  501  0.00000000000E+00  0.00000000000E+00 -0.72516287984E+03  0.72516287986E+03  0.50400001928E-02 0. -1.
    10030    2    1    2    0    0  0.00000000000E+00  0.00000000000E+00 -0.35498079285E+03  0.10953449669E+04  0.10362283692E+04 0.  0.
        2    1    3    3  502    0  0.21125702340E+03  0.46307909361E+03 -0.75166386905E+02  0.51451118802E+03  0.25500000920E-02 0. -1.
       -2    1    3    3    0  502 -0.21125702340E+03 -0.46307909361E+03 -0.27981440595E+03  0.58083377885E+03  0.25500000920E-02 0.  1.
</event>
<event>
 5   0  0.1425432E-03  0.1096485E+04  0.7818609E-02  0.9208625E-01
        2   -1    0    0  501    0  0.00000000000E+00  0.00000000000E+00  0.33529030862E+03  0.33529030863E+03  0.25500000920E-02 0. -1.
       -2   -1    0    0    0  501  0.00000000000E+00  0.00000000000E+00 -0.89644636637E+03  0.89644636637E+03  0.25500000920E-02 0.  1.
    10030    2    1    2    0    0  0.00000000000E+00  0.00000000000E+00 -0.56115605775E+03  0.12317366750E+04  0.10964848906E+04 0.  0.
        1    1    3    3  502    0  0.23114647646E+03  0.44935622448E+03 -0.51945860094E+03  0.72469783232E+03  0.50400001928E-02 0. -1.
       -1    1    3    3    0  502 -0.23114647646E+03 -0.44935622448E+03 -0.41697456807E+02  0.50703884268E+03  0.50400001928E-02 0.  1.
</event>
<event>
 5   0  0.1402775E-03  0.1099820E+04  0.7818609E-02  0.9205367E-01
       -2   -1    0    0    0  501  0.00000000000E+00  0.00000000000E+00  0.40700426584E+03  0.40700426585E+03  0.25500000920E-02 0. -1.
        2   -1    0    0  501    0  0.00000000000E+00  0.00000000000E+00 -0.74299207936E+03  0.74299207936E+03  0.25500000920E-02 0.  1.
    10030    2    1    2    0    0  0.00000000000E+00  0.00000000000E+00 -0.33598781352E+03  0.11499963452E+04  0.10998198867E+04 0.  0.
        5    1    3    3  502    0  0.47974481915E+03 -0.11391496022E+03 -0.42250610955E+03  0.64935753808E+03  0.46999998093E+01 0.  1.
       -5    1    3    3    0  502 -0.47974481915E+03  0.11391496022E+03  0.86518296033E+02  0.50063880713E+03  0.46999998093E+01 0. -1.
</event>
<event>
 5   0  0.1429680E-03  0.1098439E+04  0.7818609E-02  0.9206715E-01
        2   -1    0    0  501    0  0.00000000000E+00  0.00000000000E+00  0.89910031244E+03  0.89910031244E+03  0.25500000920E-02 0.  1.
       -2   -1    0    0    0  501  0.00000000000E+00  0.00000000000E+00 -0.33549298457E+03  0.33549298458E+03  0.25500000920E-02 0. -1.
    10030    2    1    2    0    0  0.00000000000E+00  0.00000000000E+00  0.56360732787E+03  0.12345932970E+04  0.10984386141E+04 0.  0.
        3    1    3    3  502    0 -0.84207559887E+02  0.37705715027E+03 -0.15693957758E+03  0.41700485480E+03  0.10100000352E+00 0. -1.
       -3    1    3    3    0  502  0.84207559887E+02 -0.37705715027E+03  0.72054690545E+03  0.81758844223E+03  0.10100000352E+00 0.  1.
</event>
<event>
 5   0  0.7946038E-04  0.1099528E+04  0.7818609E-02  0.9205652E-01
       -1   -1    0    0    0  501  0.00000000000E+00  0.00000000000E+00  0.25877290791E+03  0.25877290795E+03  0.50400001928E-02 0. -1.
        1   -1    0    0  501    0  0.00000000000E+00  0.00000000000E+00 -0.11679757700E+04  0.11679757700E+04  0.50400001928E-02 0.  1.
    10030    2    1    2    0    0  0.00000000000E+00  0.00000000000E+00 -0.90920286206E+03  0.14267486779E+04  0.10995280558E+04 0.  0.
        4    1    3    3  502    0 -0.31300130998E+03  0.31378211832E+03 -0.32512286101E+02  0.44439588148E+03  0.12699999809E+01 0. -1.
       -4    1    3    3    0  502  0.31300130998E+03 -0.31378211832E+03 -0.87669057596E+03  0.98235279645E+03  0.12699999809E+01 0.  1.
</event>
<event>
 5   0  0.1425432E-03  0.1102776E+04  0.7818609E-02  0.9202490E-01
       -2   -1    0    0    0  501  0.00000000000E+00  0.00000000000E+00  0.31726645341E+03  0.31726645342E+03  0.25500000920E-02 0. -1.
        2   -1    0    0  501    0  0.00000000000E+00  0.00000000000E+00 -0.95827602040E+03  0.95827602040E+03  0.25500000920E-02 0.  1.
    10030    2    1    2    0    0  0.00000000000E+00  0.00000000000E+00 -0.64100956699E+03  0.12755424738E+04  0.11027761956E+04 0.  0.
        1    1    3    3  502    0  0.23790935154E+03  0.22704869074E+02  0.25424530681E+03  0.34893702395E+03  0.50400001928E-02 0. -1.
       -1    1    3    3    0  502 -0.23790935154E+03 -0.22704869074E+02 -0.89525487380E+03  0.92660544986E+03  0.50400001928E-02 0.  1.
</event>
<event>
 5   0  0.7946038E-04  0.1091430E+04  0.7818609E-02  0.9213585E-01
       -1   -1    0    0    0  501  0.00000000000E+00  0.00000000000E+00  0.18504935875E+03  0.18504935882E+03  0.50400001928E-02 0. -1.
        1   -1    0    0  501    0  0.00000000000E+00  0.00000000000E+00 -0.16093262147E+04  0.16093262147E+04  0.50400001928E-02 0.  1.
    10030    2    1    2    0    0  0.00000000000E+00  0.00000000000E+00 -0.14242768559E+04  0.17943755735E+04  0.10914298587E+04 0.  0.
        4    1    3    3  502    0 -0.12145847014E+03 -0.17152997721E+03  0.11583524121E+03  0.23998772689E+03  0.12699999809E+01 0. -1.
       -4    1    3    3    0  502  0.12145847014E+03  0.17152997721E+03 -0.15401120971E+04  0.15543878466E+04  0.12699999809E+01 0.  1.
</event>
<event>
 5   0  0.1429680E-03  0.1101047E+04  0.7818609E-02  0.9204172E-01
        2   -1    0    0  501    0  0.00000000000E+00  0.00000000000E+00  0.15939467308E+04  0.15939467308E+04  0.25500000920E-02 0.  1.
       -2   -1    0    0    0  501  0.00000000000E+00  0.00000000000E+00 -0.19014199480E+03  0.19014199481E+03  0.25500000920E-02 0. -1.
    10030    2    1    2    0    0  0.00000000000E+00  0.00000000000E+00  0.14038047360E+04  0.17840887256E+04  0.11010471580E+04 0.  0.
        3    1    3    3  502    0  0.27364338874E+03 -0.22176904670E+03  0.16328886230E+02  0.35260297362E+03  0.10100000352E+00 0. -1.
       -3    1    3    3    0  502 -0.27364338874E+03  0.22176904670E+03  0.13874758498E+04  0.14314857520E+04  0.10100000352E+00 0.  1.
</event>
<event>
 5   0  0.1372794E-03  0.1096210E+04  0.7818609E-02  0.9208893E-01
       -2   -1    0    0    0  501  0.00000000000E+00  0.00000000000E+00  0.14527279028E+04  0.14527279028E+04  0.25500000920E-02 0.  1.
        2   -1    0    0  501    0  0.00000000000E+00  0.00000000000E+00 -0.20679671838E+03  0.20679671839E+03  0.25500000920E-02 0. -1.
    10030    2    1    2    0    0  0.00000000000E+00  0.00000000000E+00  0.12459311844E+04  0.16595246212E+04  0.10962104962E+04 0.  0.
        4    1    3    3  502    0 -0.75907191295E+02  0.27761924188E+03 -0.83193618814E+02  0.29959495367E+03  0.12699999809E+01 0. -1.
       -4    1    3    3    0  502  0.75907191295E+02 -0.27761924188E+03  0.13291248032E+04  0.13599296675E+04  0.12699999809E+01 0.  1.
</event>
<event>
 5   0  0.8009636E-04  0.1090244E+04  0.7818609E-02  0.9214753E-01
       -1   -1    0    0    0  501  0.00000000000E+00  0.00000000000E+00  0.59299816403E+03  0.59299816405E+03  0.50400001928E-02 0. -1.
        1   -1    0    0  501    0  0.00000000000E+00  0.00000000000E+00 -0.50111094750E+03  0.50111094752E+03  0.50400001928E-02 0.  1.
    10030    2    1    2    0    0  0.00000000000E+00  0.00000000000E+00  0.91887216533E+02  0.10941091116E+04  0.10902437743E+04 0.  0.
        1    1    3    3  502    0 -0.21793464912E+03  0.21218097021E+03  0.49992074037E+03  0.58518118740E+03  0.50400001928E-02 0. -1.
       -1    1    3    3    0  502  0.21793464912E+03 -0.21218097021E+03 -0.40803352384E+03  0.50892792418E+03  0.50400001928E-02 0.  1.
</event>
<event>
 5   0  0.1425432E-03  0.1085894E+04  0.7818609E-02  0.9219050E-01
        2   -1    0    0  501    0  0.00000000000E+00  0.00000000000E+00  0.38695247323E+03  0.38695247324E+03  0.25500000920E-02 0.  1.
       -2   -1    0    0    0  501  0.00000000000E+00  0.00000000000E+00 -0.76182872871E+03  0.76182872871E+03  0.25500000920E-02 0. -1.
    10030    2    1    2    0    0  0.00000000000E+00  0.00000000000E+00 -0.37487625548E+03  0.11487812020E+04  0.10858941215E+04 0.  0.
        1    1    3    3  502    0  0.38404270050E+01 -0.23016476963E+03  0.33277203393E+03  0.40463291593E+03  0.50400001928E-02 0.  1.
       -1    1    3    3    0  502 -0.38404270050E+01  0.23016476963E+03 -0.70764828941E+03  0.74414828602E+03  0.50400001928E-02 0. -1.
</event>
<event>
 5   0  0.8305271E-04  0.1097246E+04  0.7818609E-02  0.9207880E-01
       -1   -1    0    0    0  501  0.00000000000E+00  0.00000000000E+00  0.66965130147E+03  0.66965130149E+03  0.50400001928E-02 0.  1.
        1   -1    0    0  501    0  0.00000000000E+00  0.00000000000E+00 -0.44946883547E+03  0.44946883550E+03  0.50400001928E-02 0. -1.
    10030    2    1    2    0    0  0.00000000000E+00  0.00000000000E+00  0.22018246600E+03  0.11191201370E+04  0.10972463546E+04 0.  0.
        5    1    3    3  502    0 -0.29399694316E+03 -0.14041113629E+03 -0.34008717802E+03  0.47098924450E+03  0.46999998093E+01 0. -1.
       -5    1    3    3    0  502  0.29399694316E+03  0.14041113629E+03  0.56026964403E+03  0.64813089249E+03  0.46999998093E+01 0.  1.
</event>
<event>
 5   0  0.8305271E-04  0.1100736E+04  0.7818609E-02  0.9204475E-01
       -1   -1    0    0    0  501  0.00000000000E+00  0.00000000000E+00  0.67523910404E+03  0.67523910406E+03  0.50400001928E-02 0.  1.
        1   -1    0    0  501    0  0.00000000000E+00  0.00000000000E+00 -0.44858910763E+03  0.44858910766E+03  0.50400001928E-02 0. -1.
    10030    2    1    2    0    0  0.00000000000E+00  0.00000000000E+00  0.22664999641E+03  0.11238282117E+04  0.11007359486E+04 0.  0.
        5    1    3    3  502    0  0.37720329497E+03 -0.20728820364E+03 -0.23684560986E+03  0.49129284343E+03  0.46999998093E+01 0. -1.
       -5    1    3    3    0  502 -0.37720329497E+03  0.20728820364E+03  0.46349560627E+03  0.63253536829E+03  0.46999998093E+01 0.  1.
</event>
<event>
 5   0  0.7946038E-04  0.1103400E+04  0.7818609E-02  0.9201885E-01
        1   -1    0    0  501    0  0.00000000000E+00  0.00000000000E+00  0.40849572158E+03  0.40849572161E+03  0.50400001928E-02 0.  1.
       -1   -1    0    0    0  501  0.00000000000E+00  0.00000000000E+00 -0.74510634631E+03  0.74510634633E+03  0.50400001928E-02 0. -1.
    10030    2    1    2    0    0  0.00000000000E+00  0.00000000000E+00 -0.33661062473E+03  0.11536020679E+04  0.11033997546E+04 0.  0.
        4    1    3    3  502    0 -0.40596211111E+03  0.35551503058E+03 -0.48300698081E+02  0.54178477550E+03  0.12699999809E+01 0.  1.
       -4    1    3    3    0  502  0.40596211111E+03 -0.35551503058E+03 -0.28830992665E+03  0.61181729244E+03  0.12699999809E+01 0. -1.
</event>
<event>
 5   0  0.8150924E-04  0.1092584E+04  0.7818609E-02  0.9212451E-01
        1   -1    0    0  501    0  0.00000000000E+00  0.00000000000E+00  0.80372036892E+03  0.80372036893E+03  0.50400001928E-02 0.  1.
       -1   -1    0    0    0  501  0.00000000000E+00  0.00000000000E+00 -0.37131663345E+03  0.37131663349E+03  0.50400001928E-02 0. -1.
    10030    2    1    2    0    0  0.00000000000E+00  0.00000000000E+00  0.43240373546E+03  0.11750370024E+04  0.10925836200E+04 0.  0.
        3    1    3    3  502    0  0.48950153132E+03 -0.49634974664E+02  0.47151893758E+03  0.68147303584E+03  0.10100000352E+00 0.  1.
       -3    1    3    3    0  502 -0.48950153132E+03  0.49634974664E+02 -0.39115202117E+02  0.49356396658E+03  0.10100000352E+00 0. -1.
</event>
<event>
 5   0  0.8150924E-04  0.1052545E+04  0.7818609E-02  0.9252720E-01
       -1   -1    0    0    0  501  0.00000000000E+00  0.00000000000E+00  0.31620532117E+03  0.31620532121E+03  0.50400001928E-02 0.  1.
        1   -1    0    0  501    0  0.00000000000E+00  0.00000000000E+00 -0.87589542928E+03  0.87589542929E+03  0.50400001928E-02 0. -1.
    10030    2    1    2    0    0  0.00000000000E+00  0.00000000000E+00 -0.55969010811E+03  0.11921007505E+04  0.10525450975E+04 0.  0.
        3    1    3    3  502    0 -0.37390403824E+03 -0.60337103435E+02 -0.69369427378E+03  0.79035216932E+03  0.10100000352E+00 0. -1.
       -3    1    3    3    0  502  0.37390403824E+03  0.60337103435E+02  0.13400416568E+03  0.40174858119E+03  0.10100000352E+00 0.  1.
</event>
<event>
 5   0  0.7946038E-04  0.1098226E+04  0.7818609E-02  0.9206922E-01
        1   -1    0    0  501    0  0.00000000000E+00  0.00000000000E+00  0.57669247486E+03  0.57669247489E+03  0.50400001928E-02 0.  1.
       -1   -1    0    0    0  501  0.00000000000E+00  0.00000000000E+00 -0.52285289583E+03  0.52285289586E+03  0.50400001928E-02 0. -1.
    10030    2    1    2    0    0  0.00000000000E+00  0.00000000000E+00  0.53839579031E+02  0.10995453707E+04  0.10982264439E+04 0.  0.
        4    1    3    3  502    0  0.67072893621E+01 -0.49980702700E+03  0.25450680904E+03  0.56091655415E+03  0.12699999809E+01 0.  1.
       -4    1    3    3    0  502 -0.67072893621E+01  0.49980702700E+03 -0.20066723001E+03  0.53862881660E+03  0.12699999809E+01 0. -1.
</event>
<event>
 5   0  0.8150924E-04  0.1098756E+04  0.7818609E-02  0.9206406E-01
        1   -1    0    0  501    0  0.00000000000E+00  0.00000000000E+00  0.24305328654E+04  0.24305328654E+04  0.50400001928E-02 0. -1.
       -1   -1    0    0    0  501  0.00000000000E+00  0.00000000000E+00 -0.12417685650E+03  0.12417685660E+03  0.50400001928E-02 0.  1.
    10030    2    1    2    0    0  0.00000000000E+00  0.00000000000E+00  0.23063560089E+04  0.25547097220E+04  0.10987555342E+04 0.  0.
        3    1    3    3  502    0 -0.89053255966E+02  0.40660367875E+03  0.19868429431E+04  0.20299758434E+04  0.10100000352E+00 0. -1.
       -3    1    3    3    0  502  0.89053255966E+02 -0.40660367875E+03  0.31951306583E+03  0.52473387865E+03  0.10100000352E+00 0.  1.
</event>
<event>
 5   0  0.8009636E-04  0.1098570E+04  0.7818609E-02  0.9206587E-01
        1   -1    0    0  501    0  0.00000000000E+00  0.00000000000E+00  0.56952614897E+03  0.56952614899E+03  0.50400001928E-02 0.  1.
       -1   -1    0    0    0  501  0.00000000000E+00  0.00000000000E+00 -0.52976312308E+03  0.52976312311E+03  0.50400001928E-02 0. -1.
    10030    2    1    2    0    0  0.00000000000E+00  0.00000000000E+00  0.39763025887E+02  0.10992892721E+04  0.10985698911E+04 0.  0.
        1    1    3    3  502    0 -0.50191080751E+03 -0.14032517467E+03  0.19351268197E+03  0.55592514915E+03  0.50400001928E-02 0.  1.
       -1    1    3    3    0  502  0.50191080751E+03  0.14032517467E+03 -0.15374965608E+03  0.54336412296E+03  0.50400001928E-02 0. -1.
</event>
<event>
 5   0  0.8305271E-04  0.1100461E+04  0.7818609E-02  0.9204742E-01
        1   -1    0    0  501    0  0.00000000000E+00  0.00000000000E+00  0.47607409086E+03  0.47607409089E+03  0.50400001928E-02 0.  1.
       -1   -1    0    0    0  501  0.00000000000E+00  0.00000000000E+00 -0.63593832174E+03  0.63593832176E+03  0.50400001928E-02 0. -1.
    10030    2    1    2    0    0  0.00000000000E+00  0.00000000000E+00 -0.15986423088E+03  0.11120124127E+04  0.11004612822E+04 0.  0.
        5    1    3    3  502    0 -0.11814640401E+03 -0.14218922963E+03 -0.60359494327E+03  0.63128859909E+03  0.46999998093E+01 0. -1.
       -5    1    3    3    0  502  0.11814640401E+03  0.14218922963E+03  0.44373071239E+03  0.48072381356E+03  0.46999998093E+01 0.  1.
</event>
<event>
 5   0  0.1429680E-03  0.1100039E+04  0.7818609E-02  0.9205154E-01
       -2   -1    0    0    0  501  0.00000000000E+00  0.00000000000E+00  0.57185584703E+03  0.57185584704E+03  0.25500000920E-02 0.  1.
        2   -1    0    0  501    0  0.00000000000E+00  0.00000000000E+00 -0.52901701011E+03  0.52901701011E+03  0.25500000920E-02 0. -1.
    10030    2    1    2    0    0  0.00000000000E+00  0.00000000000E+00  0.42838836927E+02  0.11008728572E+04  0.11000390364E+04 0.  0.
        3    1    3    3  502    0 -0.35617525161E+03  0.17571611077E+03 -0.35937458480E+03  0.53561839387E+03  0.10100000352E+00 0. -1.
       -3    1    3    3    0  502  0.35617525161E+03 -0.17571611077E+03  0.40221342173E+03  0.56525446329E+03  0.10100000352E+00 0.  1.
</event>
<event>
 5   0  0.1396936E-03  0.1098422E+04  0.7818609E-02  0.9206731E-01
       -2   -1    0    0    0  501  0.00000000000E+00  0.00000000000E+00  0.93847964655E+03  0.93847964655E+03  0.25500000920E-02 0.  1.
        2   -1    0    0  501    0  0.00000000000E+00  0.00000000000E+00 -0.32140598787E+03  0.32140598788E+03  0.25500000920E-02 0. -1.
    10030    2    1    2    0    0  0.00000000000E+00  0.00000000000E+00  0.61707365867E+03  0.12598856344E+04  0.10984224650E+04 0.  0.
        2    1    3    3  502    0  0.98410089613E+02 -0.53978030399E+03  0.28077916861E+03  0.61634751873E+03  0.25500000920E-02 0. -1.
       -2    1    3    3    0  502 -0.98410089613E+02  0.53978030399E+03  0.33629449006E+03  0.64353811571E+03  0.25500000920E-02 0.  1.
</event>
<event>
 5   0  0.8305271E-04  0.1099451E+04  0.7818609E-02  0.9205727E-01
        1   -1    0    0  501    0  0.00000000000E+00  0.00000000000E+00  0.11220929566E+04  0.11220929566E+04  0.50400001928E-02 0.  1.
       -1   -1    0    0    0  501  0.00000000000E+00  0.00000000000E+00 -0.26931660650E+03  0.26931660655E+03  0.50400001928E-02 0. -1.
    10030    2    1    2    0    0  0.00000000000E+00  0.00000000000E+00  0.85277635011E+03  0.13914095632E+04  0.10994512582E+04 0.  0.
        5    1    3    3  502    0 -0.41851386800E+03  0.35255605452E+03  0.49247054025E+03  0.73620578122E+03  0.46999998093E+01 0. -1.
       -5    1    3    3    0  502  0.41851386800E+03 -0.35255605452E+03  0.36030580986E+03  0.65520378196E+03  0.46999998093E+01 0.  1.
</event>
<event>
 5   0  0.1429680E-03  0.1112160E+04  0.7818609E-02  0.9193420E-01
        2   -1    0    0  501    0  0.00000000000E+00  0.00000000000E+00  0.75813392680E+03  0.75813392680E+03  0.25500000920E-02 0. -1.
       -2   -1    0    0    0  501  0.00000000000E+00  0.00000000000E+00 -0.40787658339E+03  0.40787658340E+03  0.25500000920E-02 0.  1.
    10030    2    1    2    0    0  0.00000000000E+00  0.00000000000E+00  0.35025734341E+03  0.11660105102E+04  0.11121601968E+04 0.  0.
        3    1    3    3  502    0 -0.49547169750E+03 -0.76163762240E+02 -0.77216016799E+02  0.50720355396E+03  0.10100000352E+00 0.  1.
       -3    1    3    3    0  502  0.49547169750E+03  0.76163762240E+02  0.42747336020E+03  0.65880695624E+03  0.10100000352E+00 0. -1.
</event>
<event>
 5   0  0.1425432E-03  0.1095708E+04  0.7818609E-02  0.9209385E-01
        2   -1    0    0  501    0  0.00000000000E+00  0.00000000000E+00  0.90565741322E+03  0.90565741323E+03  0.25500000920E-02 0.  1.
       -2   -1    0    0    0  501  0.00000000000E+00  0.00000000000E+00 -0.33141001148E+03  0.33141001149E+03  0.25500000920E-02 0. -1.
    10030    2    1    2    0    0  0.00000000000E+00  0.00000000000E+00  0.57424740174E+03  0.12370674247E+04  0.10957078693E+04 0.  0.
        1    1    3    3  502    0 -0.43670099947E+03 -0.11071619620E+03 -0.64827766344E+02  0.45515764122E+03  0.50400001928E-02 0. -1.
       -1    1    3    3    0  502  0.43670099947E+03  0.11071619620E+03  0.63907516809E+03  0.78190978350E+03  0.50400001928E-02 0.  1.
</event>
<event>
 5   0  0.1372794E-03  0.1064154E+04  0.7818609E-02  0.9240852E-01
       -2   -1    0    0    0  501  0.00000000000E+00  0.00000000000E+00  0.28590729059E+03  0.28590729060E+03  0.25500000920E-02 0.  1.
        2   -1    0    0  501    0  0.00000000000E+00  0.00000000000E+00 -0.99020131888E+03  0.99020131888E+03  0.25500000920E-02 0. -1.
    10030    2    1    2    0    0  0.00000000000E+00  0.00000000000E+00 -0.70429402829E+03  0.12761086095E+04  0.10641537036E+04 0.  0.
        4    1    3    3  502    0 -0.21633165158E+03  0.39343983967E+03 -0.69451124491E+03  0.82700772253E+03  0.12699999809E+01 0. -1.
       -4    1    3    3    0  502  0.21633165158E+03 -0.39343983967E+03 -0.97827833810E+01  0.44910088696E+03  0.12699999809E+01 0.  1.
</event>
<event>
 5   0  0.1396936E-03  0.1098682E+04  0.7818609E-02  0.9206477E-01
        2   -1    0    0  501    0  0.00000000000E+00  0.00000000000E+00  0.13820480499E+04  0.13820480499E+04  0.25500000920E-02 0.  1.
       -2   -1    0    0    0  501  0.00000000000E+00  0.00000000000E+00 -0.21835395793E+03  0.21835395794E+03  0.25500000920E-02 0. -1.
    10030    2    1    2    0    0  0.00000000000E+00  0.00000000000E+00  0.11636940919E+04  0.16004020078E+04  0.10986822320E+04 0.  0.
        2    1    3    3  502    0  0.14079252611E+03 -0.52787449379E+03  0.66554641489E+03  0.86106100073E+03  0.25500000920E-02 0. -1.
       -2    1    3    3    0  502 -0.14079252611E+03  0.52787449379E+03  0.49814767705E+03  0.73934100709E+03  0.25500000920E-02 0.  1.
</event>
<event>
 5   0  0.8305271E-04  0.1099483E+04  0.7818609E-02  0.9205696E-01
        1   -1    0    0  501    0  0.00000000000E+00  0.00000000000E+00  0.56058484362E+03  0.56058484364E+03  0.50400001928E-02 0.  1.
       -1   -1    0    0    0  501  0.00000000000E+00  0.00000000000E+00 -0.53910805689E+03  0.53910805691E+03  0.50400001928E-02 0. -1.
    10030    2    1    2    0    0  0.00000000000E+00  0.00000000000E+00  0.21476786730E+02  0.10996929006E+04  0.10994831618E+04 0.  0.
        5    1    3    3  502    0 -0.19872635639E+03 -0.34299274075E+03 -0.37019845026E+03  0.54240682841E+03  0.46999998093E+01 0. -1.
       -5    1    3    3    0  502  0.19872635639E+03  0.34299274075E+03  0.39167523699E+03  0.55728607214E+03  0.46999998093E+01 0.  1.
</event>
<event>
 5   0  0.1396936E-03  0.1100892E+04  0.7818609E-02  0.9204323E-01
        2   -1    0    0  501    0  0.00000000000E+00  0.00000000000E+00  0.17853117254E+04  0.17853117254E+04  0.25500000920E-02 0. -1.
       -2   -1    0    0    0  501  0.00000000000E+00  0.00000000000E+00 -0.16971316954E+03  0.16971316956E+03  0.25500000920E-02 0.  1.
    10030    2    1    2    0    0  0.00000000000E+00  0.00000000000E+00  0.16155985559E+04  0.19550248950E+04  0.11008922046E+04 0.  0.
        2    1    3    3  502    0  0.10304140146E+03 -0.69989342999E+02 -0.14435525846E+03  0.19066850605E+03  0.25500000920E-02 0.  1.
       -2    1    3    3    0  502 -0.10304140146E+03  0.69989342999E+02  0.17599538144E+04  0.17643563889E+04  0.25500000920E-02 0. -1.
</event>
<event>
 5   0  0.8305271E-04  0.1097632E+04  0.7818609E-02  0.9207503E-01
        1   -1    0    0  501    0  0.00000000000E+00  0.00000000000E+00  0.39714239873E+03  0.39714239877E+03  0.50400001928E-02 0. -1.
       -1   -1    0    0    0  501  0.00000000000E+00  0.00000000000E+00 -0.75841604696E+03  0.75841604697E+03  0.50400001928E-02 0.  1.
    10030    2    1    2    0    0  0.00000000000E+00  0.00000000000E+00 -0.36127364822E+03  0.11555584457E+04  0.10976323030E+04 0.  0.
        5    1    3    3  502    0 -0.92020683691E+02  0.20890805495E+02  0.38851649225E+03  0.39983920109E+03  0.46999998093E+01 0. -1.
       -5    1    3    3    0  502  0.92020683691E+02 -0.20890805495E+02 -0.74979014047E+03  0.75571924465E+03  0.46999998093E+01 0.  1.
</event>
<event>
 5   0  0.8341767E-04  0.1098357E+04  0.7818609E-02  0.9206795E-01
        1   -1    0    0  501    0  0.00000000000E+00  0.00000000000E+00  0.87521869844E+03  0.87521869846E+03  0.50400001928E-02 0.  1.
       -1   -1    0    0    0  501  0.00000000000E+00  0.00000000000E+00 -0.34459626961E+03  0.34459626964E+03  0.50400001928E-02 0. -1.
    10030    2    1    2    0    0  0.00000000000E+00  0.00000000000E+00  0.53062242883E+03  0.12198149681E+04  0.10983571343E+04 0.  0.
        2    1    3    3  502    0  0.23445356691E+03 -0.94261565371E+02 -0.27619644019E+03  0.37435035905E+03  0.25500000920E-02 0. -1.
       -2    1    3    3    0  502 -0.23445356691E+03  0.94261565371E+02  0.80681886902E+03  0.84546460905E+03  0.25500000920E-02 0.  1.
</event>
<event>
 5   0  0.8341767E-04  0.1119039E+04  0.7818609E-02  0.9186831E-01
       -1   -1    0    0    0  501  0.00000000000E+00  0.00000000000E+00  0.19123640533E+03  0.19123640539E+03  0.50400001928E-02 0. -1.
        1   -1    0    0  501    0  0.00000000000E+00  0.00000000000E+00 -0.16370426147E+04  0.16370426147E+04  0.50400001928E-02 0.  1.
    10030    2    1    2    0    0  0.00000000000E+00  0.00000000000E+00 -0.14458062094E+04  0.18282790201E+04  0.11190391326E+04 0.  0.
        2    1    3    3  502    0  0.57114452593E+02 -0.32174647833E+03  0.19132960117E+02  0.32733610736E+03  0.25500000920E-02 0. -1.
       -2    1    3    3    0  502 -0.57114452593E+02  0.32174647833E+03 -0.14649391695E+04  0.15009429127E+04  0.25500000920E-02 0.  1.
</event>
<event>
 5   0  0.7946038E-04  0.1101405E+04  0.7818609E-02  0.9203824E-01
       -1   -1    0    0    0  501  0.00000000000E+00  0.00000000000E+00  0.19578965924E+03  0.19578965930E+03  0.50400001928E-02 0.  1.
        1   -1    0    0  501    0  0.00000000000E+00  0.00000000000E+00 -0.15489736722E+04  0.15489736722E+04  0.50400001928E-02 0. -1.
    10030    2    1    2    0    0  0.00000000000E+00  0.00000000000E+00 -0.13531840129E+04  0.17447633315E+04  0.11014046078E+04 0.  0.
        4    1    3    3  502    0  0.11621078803E+03 -0.49137925912E+03 -0.32839811354E+03  0.60233334411E+03  0.12699999809E+01 0.  1.
       -4    1    3    3    0  502 -0.11621078803E+03  0.49137925912E+03 -0.10247858994E+04  0.11424299874E+04  0.12699999809E+01 0. -1.
</event>
<event>
 5   0  0.1425432E-03  0.1102470E+04  0.7818609E-02  0.9202788E-01
        2   -1    0    0  501    0  0.00000000000E+00  0.00000000000E+00  0.42228123206E+03  0.42228123206E+03  0.25500000920E-02 0. -1.
       -2   -1    0    0    0  501  0.00000000000E+00  0.00000000000E+00 -0.71956760333E+03  0.71956760334E+03  0.25500000920E-02 0.  1.
    10030    2    1    2    0    0  0.00000000000E+00  0.00000000000E+00 -0.29728637128E+03  0.11418488354E+04  0.11024697621E+04 0.  0.
        1    1    3    3  502    0  0.20327863727E+03  0.41804965056E+03  0.15820274460E+03  0.49103546015E+03  0.50400001928E-02 0. -1.
       -1    1    3    3    0  502 -0.20327863727E+03 -0.41804965056E+03 -0.45548911588E+03  0.65081337525E+03  0.50400001928E-02 0.  1.
</event>
<event>
 5   0  0.1372794E-03  0.1100389E+04  0.7818609E-02  0.9204813E-01
       -2   -1    0    0    0  501  0.00000000000E+00  0.00000000000E+00  0.27037425561E+03  0.27037425562E+03  0.25500000920E-02 0. -1.
        2   -1    0    0  501    0  0.00000000000E+00  0.00000000000E+00 -0.11196107904E+04  0.11196107904E+04  0.25500000920E-02 0.  1.
    10030    2    1    2    0    0  0.00000000000E+00  0.00000000000E+00 -0.84923653482E+03  0.13899850461E+04  0.11003889022E+04 0.  0.
        4    1    3    3  502    0 -0.44535630167E+03  0.28437449275E+03 -0.23097194402E+03  0.57668079506E+03  0.12699999809E+01 0. -1.
       -4    1    3    3    0  502  0.44535630167E+03 -0.28437449275E+03 -0.61826459079E+03  0.81330425100E+03  0.12699999809E+01 0.  1.
</event>
<event>
 5   0  0.8150924E-04  0.1110747E+04  0.7818609E-02  0.9194780E-01
       -1   -1    0    0    0  501  0.00000000000E+00  0.00000000000E+00  0.13794853638E+03  0.13794853647E+03  0.50400001928E-02 0. -1.
        1   -1    0    0  501    0  0.00000000000E+00  0.00000000000E+00 -0.22359048021E+04  0.22359048021E+04  0.50400001928E-02 0.  1.
    10030    2    1    2    0    0  0.00000000000E+00  0.00000000000E+00 -0.20979562657E+04  0.23738533386E+04  0.11107471270E+04 0.  0.
        3    1    3    3  502    0 -0.42096047223E+03  0.34665162106E+03 -0.82417162193E+03  0.98824791331E+03  0.10100000352E+00 0.  1.
       -3    1    3    3    0  502  0.42096047223E+03 -0.34665162106E+03 -0.12737846438E+04  0.13856054253E+04  0.10100000352E+00 0. -1.
</event>
<event>
 5   0  0.1429680E-03  0.1096877E+04  0.7818609E-02  0.9208241E-01
       -2   -1    0    0    0  501  0.00000000000E+00  0.00000000000E+00  0.31294139132E+03  0.31294139133E+03  0.25500000920E-02 0. -1.
        2   -1    0    0  501    0  0.00000000000E+00  0.00000000000E+00 -0.96115350420E+03  0.96115350420E+03  0.25500000920E-02 0.  1.
    10030    2    1    2    0    0  0.00000000000E+00  0.00000000000E+00 -0.64821211288E+03  0.12740948955E+04  0.10968768662E+04 0.  0.
        3    1    3    3  502    0  0.16061396404E+03 -0.22027193141E+03 -0.87687985714E+03  0.91827820582E+03  0.10100000352E+00 0.  1.
       -3    1    3    3    0  502 -0.16061396404E+03  0.22027193141E+03  0.22866774427E+03  0.35581668971E+03  0.10100000352E+00 0. -1.
</event>
<event>
 5   0  0.8150924E-04  0.1106374E+04  0.7818609E-02  0.9199002E-01
        1   -1    0    0  501    0  0.00000000000E+00  0.00000000000E+00  0.50515339440E+03  0.50515339442E+03  0.50400001928E-02 0. -1.
       -1   -1    0    0    0  501  0.00000000000E+00  0.00000000000E+00 -0.60578744736E+03  0.60578744738E+03  0.50400001928E-02 0.  1.
    10030    2    1    2    0    0  0.00000000000E+00  0.00000000000E+00 -0.10063405296E+03  0.11109408418E+04  0.11063735090E+04 0.  0.
        3    1    3    3  502    0  0.40805355662E+03 -0.26880925492E+03 -0.31071257024E+03  0.57905822860E+03  0.10100000352E+00 0.  1.
       -3    1    3    3    0  502 -0.40805355662E+03  0.26880925492E+03  0.21007851728E+03  0.53188261320E+03  0.10100000352E+00 0. -1.
</event>
<event>
 5   0  0.8341767E-04  0.1102479E+04  0.7818609E-02  0.9202779E-01
        1   -1    0    0  501    0  0.00000000000E+00  0.00000000000E+00  0.17226285417E+04  0.17226285417E+04  0.50400001928E-02 0.  1.
       -1   -1    0    0    0  501  0.00000000000E+00  0.00000000000E+00 -0.17639623158E+03  0.17639623166E+03  0.50400001928E-02 0. -1.
    10030    2    1    2    0    0  0.00000000000E+00  0.00000000000E+00  0.15462323101E+04  0.18990247733E+04  0.11024793572E+04 0.  0.
        2    1    3    3  502    0  0.23623272855E+03  0.22196561820E+03  0.51218023142E+01  0.32419264422E+03  0.25500000920E-02 0. -1.
       -2    1    3    3    0  502 -0.23623272855E+03 -0.22196561820E+03  0.15411105078E+04  0.15748321291E+04  0.25500000920E-02 0.  1.
</event>
<event>
 5   0  0.1396936E-03  0.1111798E+04  0.7818609E-02  0.9193769E-01
        2   -1    0    0  501    0  0.00000000000E+00  0.00000000000E+00  0.41772107967E+03  0.41772107968E+03  0.25500000920E-02 0. -1.
       -2   -1    0    0    0  501  0.00000000000E+00  0.00000000000E+00 -0.73978437240E+03  0.73978437241E+03  0.25500000920E-02 0.  1.
    10030    2    1    2    0    0  0.00000000000E+00  0.00000000000E+00 -0.32206329273E+03  0.11575054521E+04  0.11117976916E+04 0.  0.
        2    1    3    3  502    0  0.18808776378E+03  0.48318748305E+03  0.47649232829E+02  0.52068954287E+03  0.25500000920E-02 0. -1.
       -2    1    3    3    0  502 -0.18808776378E+03 -0.48318748305E+03 -0.36971252556E+03  0.63681590921E+03  0.25500000920E-02 0.  1.
</event>
<event>
 5   0  0.8305271E-04  0.1101733E+04  0.7818609E-02  0.9203504E-01
       -1   -1    0    0    0  501  0.00000000000E+00  0.00000000000E+00  0.26757182039E+03  0.26757182044E+03  0.50400001928E-02 0. -1.
        1   -1    0    0  501    0  0.00000000000E+00  0.00000000000E+00 -0.11341026050E+04  0.11341026051E+04  0.50400001928E-02 0.  1.
    10030    2    1    2    0    0  0.00000000000E+00  0.00000000000E+00 -0.86653078465E+03  0.14016744255E+04  0.11017329959E+04 0.  0.
        5    1    3    3  502    0 -0.19565970169E+03 -0.11552772462E+03 -0.10716769715E+04  0.10955103812E+04  0.46999998093E+01 0.  1.
       -5    1    3    3    0  502  0.19565970169E+03  0.11552772462E+03  0.20514618688E+03  0.30616404428E+03  0.46999998093E+01 0. -1.
</event>
<event>
 5   0  0.8009636E-04  0.1059824E+04  0.7818609E-02  0.9245260E-01
        1   -1    0    0  501    0  0.00000000000E+00  0.00000000000E+00  0.14276318544E+04  0.14276318544E+04  0.50400001928E-02 0. -1.
       -1   -1    0    0    0  501  0.00000000000E+00  0.00000000000E+00 -0.19669390228E+03  0.19669390234E+03  0.50400001928E-02 0.  1.
    10030    2    1    2    0    0  0.00000000000E+00  0.00000000000E+00  0.12309379521E+04  0.16243257567E+04  0.10598235335E+04 0.  0.
        1    1    3    3  502    0 -0.47619301202E+03 -0.20243381665E+03  0.44026998528E+03  0.67939450600E+03  0.50400001928E-02 0.  1.
       -1    1    3    3    0  502  0.47619301202E+03  0.20243381665E+03  0.79066796683E+03  0.94493125073E+03  0.50400001928E-02 0. -1.
</event>
<event>
 5   0  0.1372794E-03  0.1099520E+04  0.7818609E-02  0.9205660E-01
       -2   -1    0    0    0  501  0.00000000000E+00  0.00000000000E+00  0.31311970604E+03  0.31311970605E+03  0.25500000920E-02 0. -1.
        2   -1    0    0  501    0  0.00000000000E+00  0.00000000000E+00 -0.96524135889E+03  0.96524135890E+03  0.25500000920E-02 0.  1.
    10030    2    1    2    0    0  0.00000000000E+00  0.00000000000E+00 -0.65212165285E+03  0.12783610649E+04  0.10995200600E+04 0.  0.
        4    1    3    3  502    0 -0.42731153738E+03 -0.34097853555E+03 -0.39358454608E+03  0.67362594925E+03  0.12699999809E+01 0. -1.
       -4    1    3    3    0  502  0.42731153738E+03  0.34097853555E+03 -0.25853710677E+03  0.60473511570E+03  0.12699999809E+01 0.  1.
</event>
<event>
 5   0  0.8009636E-04  0.1097534E+04  0.7818609E-02  0.9207599E-01
       -1   -1    0    0    0  501  0.00000000000E+00  0.00000000000E+00  0.37275976251E+03  0.37275976254E+03  0.50400001928E-02 0. -1.
        1   -1    0    0  501    0  0.00000000000E+00  0.00000000000E+00 -0.80788012951E+03  0.80788012953E+03  0.50400001928E-02 0.  1.
    10030    2    1    2    0    0  0.00000000000E+00  0.00000000000E+00 -0.43512036701E+03  0.11806398921E+04  0.10975339726E+04 0.  0.
        1    1    3    3  502    0 -0.47626659469E+03 -0.25283288739E+03 -0.32721440991E+03  0.63073259646E+03  0.50400001928E-02 0.  1.
       -1    1    3    3    0  502  0.47626659469E+03  0.25283288739E+03 -0.10790595710E+03  0.54990729561E+03  0.50400001928E-02 0. -1.
</event>
<event>
 5   0  0.1372794E-03  0.1100033E+04  0.7818609E-02  0.9205159E-01
       -2   -1    0    0    0  501  0.00000000000E+00  0.00000000000E+00  0.20032166310E+03  0.20032166311E+03  0.25500000920E-02 0.  1.
        2   -1    0    0  501    0  0.00000000000E+00  0.00000000000E+00 -0.15101628430E+04  0.15101628430E+04  0.25500000920E-02 0. -1.
    10030    2    1    2    0    0  0.00000000000E+00  0.00000000000E+00 -0.13098411799E+04  0.17104845061E+04  0.11000333309E+04 0.  0.
        4    1    3    3  502    0  0.30929336506E+03  0.29550106395E+02  0.50790614953E+02  0.31482835630E+03  0.12699999809E+01 0.  1.
       -4    1    3    3    0  502 -0.30929336506E+03 -0.29550106395E+02 -0.13606317949E+04  0.13956561499E+04  0.12699999809E+01 0. -1.
</event>
<event>
 5   0  0.1402775E-03  0.1099321E+04  0.7818609E-02  0.9205854E-01
       -2   -1    0    0    0  501  0.00000000000E+00  0.00000000000E+00  0.30180233154E+03  0.30180233155E+03  0.25500000920E-02 0. -1.
        2   -1    0    0  501    0  0.00000000000E+00  0.00000000000E+00 -0.10010743001E+04  0.10010743002E+04  0.25500000920E-02 0.  1.
    10030    2    1    2    0    0  0.00000000000E+00  0.00000000000E+00 -0.69927196861E+03  0.13028766317E+04  0.10993208046E+04 0.  0.
        5    1    3    3  502    0  0.74415040474E+01  0.11266846320E+03 -0.98715666157E+03  0.99360451039E+03  0.46999998093E+01 0.  1.
       -5    1    3    3    0  502 -0.74415040474E+01 -0.11266846320E+03  0.28788469296E+03  0.30927212132E+03  0.46999998093E+01 0. -1.
</event>
<event>
 5   0  0.7946038E-04  0.1108053E+04  0.7818609E-02  0.9197379E-01
        1   -1    0    0  501    0  0.00000000000E+00  0.00000000000E+00  0.72941287435E+03  0.72941287436E+03  0.50400001928E-02 0. -1.
       -1   -1    0    0    0  501  0.00000000000E+00  0.00000000000E+00 -0.42081124041E+03  0.42081124044E+03  0.50400001928E-02 0.  1.
    10030    2    1    2    0    0  0.00000000000E+00  0.00000000000E+00  0.30860163394E+03  0.11502241148E+04  0.11080525916E+04 0.  0.
        4    1    3    3  502    0 -0.25490526492E+03  0.96092841444E+02  0.65508554266E+03  0.70947107719E+03  0.12699999809E+01 0. -1.
       -4    1    3    3    0  502  0.25490526492E+03 -0.96092841444E+02 -0.34648390872E+03  0.44075303761E+03  0.12699999809E+01 0.  1.
</event>
<event>
 5   0  0.1402775E-03  0.1095671E+04  0.7818609E-02  0.9209421E-01
       -2   -1    0    0    0  501  0.00000000000E+00  0.00000000000E+00  0.12346949303E+03  0.12346949305E+03  0.25500000920E-02 0. -1.
        2   -1    0    0  501    0  0.00000000000E+00  0.00000000000E+00 -0.24307529249E+04  0.24307529249E+04  0.25500000920E-02 0.  1.
    10030    2    1    2    0    0  0.00000000000E+00  0.00000000000E+00 -0.23072834319E+04  0.25542224180E+04  0.10956711758E+04 0.  0.
        5    1    3    3  502    0  0.37323669153E+03 -0.39930073867E+03 -0.10678286343E+04  0.11995944273E+04  0.46999998093E+01 0.  1.
       -5    1    3    3    0  502 -0.37323669153E+03  0.39930073867E+03 -0.12394547975E+04  0.13546279906E+04  0.46999998093E+01 0. -1.
</event>
<event>
 5   0  0.5409500E-04  0.1100966E+04  0.7818609E-02  0.9204251E-01
       -4   -1    0    0    0  501  0.00000000000E+00  0.00000000000E+00  0.24473985864E+03  0.24474315375E+03  0.12699999809E+01 0.  1.
        4   -1    0    0  501    0  0.00000000000E+00  0.00000000000E+00 -0.12381658767E+04  0.12381665280E+04  0.12699999809E+01 0. -1.
    10030    2    1    2    0    0  0.00000000000E+00  0.00000000000E+00 -0.99342601807E+03  0.14829096818E+04  0.11009658809E+04 0.  0.
        5    1    3    3  502    0  0.24872240630E+02 -0.13064170583E+03 -0.12161779024E+04  0.12234364160E+04  0.46999998093E+01 0. -1.
       -5    1    3    3    0  502 -0.24872240630E+02  0.13064170583E+03  0.22275188437E+03  0.25947326576E+03  0.46999998093E+01 0.  1.
</event>
<event>
 5   0  0.1396936E-03  0.1098890E+04  0.7818609E-02  0.9206275E-01
        2   -1    0    0  501    0  0.00000000000E+00  0.00000000000E+00  0.50052207376E+03  0.50052207377E+03  0.25500000920E-02 0. -1.
       -2   -1    0    0    0  501  0.00000000000E+00  0.00000000000E+00 -0.60314938527E+03  0.60314938528E+03  0.25500000920E-02 0.  1.
    10030    2    1    2    0    0  0.00000000000E+00  0.00000000000E+00 -0.10262731151E+03  0.11036714591E+04  0.10988895870E+04 0.  0.
        2    1    3    3  502    0 -0.24205949989E+03 -0.44909461421E+03 -0.25618858832E+03  0.57088647452E+03  0.25500000920E-02 0. -1.
       -2    1    3    3    0  502  0.24205949989E+03  0.44909461421E+03  0.15356127681E+03  0.53278498453E+03  0.25500000920E-02 0.  1.
</event>
<event>
 5   0  0.8305271E-04  0.1091105E+04  0.7818609E-02  0.9213905E-01
       -1   -1    0    0    0  501  0.00000000000E+00  0.00000000000E+00  0.20845841906E+03  0.20845841912E+03  0.50400001928E-02 0. -1.
        1   -1    0    0  501    0  0.00000000000E+00  0.00000000000E+00 -0.14277551456E+04  0.14277551456E+04  0.50400001928E-02 0.  1.
    10030    2    1    2    0    0  0.00000000000E+00  0.00000000000E+00 -0.12192967265E+04  0.16362135647E+04  0.10911050921E+04 0.  0.
        5    1    3    3  502    0  0.20308814828E+03  0.47119123994E+03 -0.88753678531E+03  0.10251876003E+04  0.46999998093E+01 0.  1.
       -5    1    3    3    0  502 -0.20308814828E+03 -0.47119123994E+03 -0.33175994120E+03  0.61102596438E+03  0.46999998093E+01 0. -1.
</event>
</LesHouchesEvents>
