<LesHouchesEvents version="3.0">
<header>
<!--
#*********************************************************************
#                                                                    *
#                        MadGraph5_aMC@NLO                           *
#                                                                    *
#                           Going Beyond                             *
#                                                                    *
#                   http://madgraph.hep.uiuc.edu                     *
#                   http://madgraph.phys.ucl.ac.be                   *
#                   http://amcatnlo.cern.ch                          *
#                                                                    *
#                     The MadGraph5_aMC@NLO team                     *
#                                                                    *
#....................................................................*
#                                                                    *
# This file contains all the information necessary to reproduce      *
# the events generated:                                              *
#                                                                    *
# 1. software version                                                *
# 2. proc_card          : code generation info including model       *
# 3. param_card         : model primary parameters in the LH format  *
# 4. run_card           : running parameters (collider and cuts)     *
# 5. pythia_card        : present only if pythia has been run        *
# 6. pgs_card           : present only if pgs has been run           *
# 7. delphes_cards      : present only if delphes has been run       *
#                                                                    *
#                                                                    *
#*********************************************************************
-->
<MGVersion>
#5.2.2.3
</MGVersion>
<MG5ProcCard>
#************************************************************
#*                     MadGraph5_aMC@NLO                    *
#*                                                          *
#*                *                       *                 *
#*                  *        * *        *                   *
#*                    * * * * 5 * * * *                     *
#*                  *        * *        *                   *
#*                *                       *                 *
#*                                                          *
#*                                                          *
#*         VERSION 2.2.3                 2015-02-10         *
#*                                                          *
#*    The MadGraph5_aMC@NLO Development Team - Find us at   *
#*    https://server06.fynu.ucl.ac.be/projects/madgraph     *
#*                                                          *
#************************************************************
#*                                                          *
#*               Command File for MadGraph5_aMC@NLO         *
#*                                                          *
#*     run as ./bin/mg5_aMC  filename                       *
#*                                                          *
#************************************************************
set group_subprocesses Auto
set ignore_six_quark_processes False
set loop_optimized_output True
set gauge unitary
set complex_mass_scheme False
import model sm
define p = g u c d s u~ c~ d~ s~
define j = g u c d s u~ c~ d~ s~
define l+ = e+ mu+
define l- = e- mu-
define vl = ve vm vt
define vl~ = ve~ vm~ vt~
import model Zprime_UFO
generate p p > zph, zph > j j
add process p p > zph, zph > b b~
output Dijet_signal
</MG5ProcCard>
<MGProcCard>
#*********************************************************************
#                        MadGraph/MadEvent                           *
#                   http://madgraph.hep.uiuc.edu                     *
#                                                                    *
#                          proc_card.dat                             *
#*********************************************************************
#                                                                    *
#            This Files is generated by MADGRAPH 5                   *
#                                                                    *
# WARNING: This Files is generated for MADEVENT (compatibility issue)*
#          This files is NOT a valid MG4 proc_card.dat               *
#          Running this in MG4 will NEVER reproduce the result of MG5*
#                                                                    *
#*********************************************************************
#*********************************************************************
# Process(es) requested : mg2 input                                  *
#*********************************************************************
# Begin PROCESS # This is TAG. Do not modify this line
p p > zph , zph > j j           #Process
# Be carefull the coupling are here in MG5 convention
          
end_coup           # End the couplings input

done               # this tells MG there are no more procs
# End PROCESS  # This is TAG. Do not modify this line
#*********************************************************************
# Model information                                                  *
#*********************************************************************
# Begin MODEL  # This is TAG. Do not modify this line
Zprime_UFO
# End   MODEL  # This is TAG. Do not modify this line
#*********************************************************************
# Start multiparticle definitions                                    *
#*********************************************************************
# Begin MULTIPARTICLES # This is TAG. Do not modify this line

# End  MULTIPARTICLES # This is TAG. Do not modify this line
</MGProcCard>
<MGRunCard>
#*********************************************************************
#                       MadGraph5_aMC@NLO                            *
#                                                                    *
#                     run_card.dat MadEvent                          *
#                                                                    *
#  This file is used to set the parameters of the run.               *
#                                                                    *
#  Some notation/conventions:                                        *
#                                                                    *
#   Lines starting with a '# ' are info or comments                  *
#                                                                    *
#   mind the format:   value    = variable     ! comment             *
#*********************************************************************
#
#*******************                                                 
# Running parameters
#*******************                                                 
#                                                                    
#*********************************************************************
# Tag name for the run (one word)                                    *
#*********************************************************************
  tag_1     = run_tag ! name of the run 
#*********************************************************************
# Run to generate the grid pack                                      *
#*********************************************************************
  .false.     = gridpack  !True = setting up the grid pack
#*********************************************************************
# Number of events and rnd seed                                      *
# Warning: Do not generate more than 1M events in a single run       *
# If you want to run Pythia, avoid more than 50k events in a run.    *
#*********************************************************************
  2000 = nevents ! Number of unweighted events requested 
 957 = iseed   ! rnd seed (0=assigned automatically=default))
#*********************************************************************
# Collider type and energy                                           *
# lpp: 0=No PDF, 1=proton, -1=antiproton, 2=photon from proton,      *
#                                         3=photon from electron     *
#*********************************************************************
        1     = lpp1    ! beam 1 type 
        1     = lpp2    ! beam 2 type
     4000     = ebeam1  ! beam 1 total energy in GeV
     4000     = ebeam2  ! beam 2 total energy in GeV
#*********************************************************************
# Beam polarization from -100 (left-handed) to 100 (right-handed)    *
#*********************************************************************
        0     = polbeam1 ! beam polarization for beam 1
        0     = polbeam2 ! beam polarization for beam 2
#*********************************************************************
# PDF CHOICE: this automatically fixes also alpha_s and its evol.    *
#*********************************************************************
 'nn23lo1'    = pdlabel     ! PDF set                                     
 230000    = lhaid     ! if pdlabel=lhapdf, this is the lhapdf number
#*********************************************************************
# Renormalization and factorization scales                           *
#*********************************************************************
 F        = fixed_ren_scale  ! if .true. use fixed ren scale
 F        = fixed_fac_scale  ! if .true. use fixed fac scale
 91.1880  = scale            ! fixed ren scale
 91.1880  = dsqrt_q2fact1    ! fixed fact scale for pdf1
 91.1880  = dsqrt_q2fact2    ! fixed fact scale for pdf2
 1        = scalefact        ! scale factor for event-by-event scales
#*********************************************************************
# Matching - Warning! ickkw > 1 is still beta
#*********************************************************************
 0        = ickkw            ! 0 no matching, 1 MLM, 2 CKKW matching
 1        = highestmult      ! for ickkw=2, highest mult group
 1        = ktscheme         ! for ickkw=1, 1 Durham kT, 2 Pythia pTE
 1        = alpsfact         ! scale factor for QCD emission vx
 F        = chcluster        ! cluster only according to channel diag
 T        = pdfwgt           ! for ickkw=1, perform pdf reweighting
 5        = asrwgtflavor     ! highest quark flavor for a_s reweight
 T        = clusinfo         ! include clustering tag in output
 3.0      = lhe_version       ! Change the way clustering information pass to shower.        
#*********************************************************************
#**********************************************************
#
#**********************************************************
# Automatic ptj and mjj cuts if xqcut > 0
# (turn off for VBF and single top processes)
#**********************************************************
   T  = auto_ptj_mjj  ! Automatic setting of ptj and mjj
#**********************************************************
#                                                                    
#**********************************
# BW cutoff (M+/-bwcutoff*Gamma)
#**********************************
  15  = bwcutoff      ! (M+/-bwcutoff*Gamma)
#**********************************************************
# Apply pt/E/eta/dr/mij cuts on decay products or not
# (note that etmiss/ptll/ptheavy/ht/sorted cuts always apply)
#**********************************************************
   T  = cut_decays    ! Cut decay products 
#*************************************************************
# Number of helicities to sum per event (0 = all helicities)
# 0 gives more stable result, but longer run time (needed for
# long decay chains e.g.).
# Use >=2 if most helicities contribute, e.g. pure QCD.
#*************************************************************
   0  = nhel          ! Number of helicities used per event
#*******************                                                 
# Standard Cuts
#*******************                                                 
#                                                                    
#*********************************************************************
# Minimum and maximum pt's (for max, -1 means no cut)                *
#*********************************************************************
 20  = ptj       ! minimum pt for the jets 
  0  = ptb       ! minimum pt for the b 
 10  = pta       ! minimum pt for the photons 
 10  = ptl       ! minimum pt for the charged leptons 
  0  = misset    ! minimum missing Et (sum of neutrino's momenta)
  0  = ptheavy   ! minimum pt for one heavy final state
 1.0 = ptonium   ! minimum pt for the quarkonium states
 -1  = ptjmax    ! maximum pt for the jets
 -1  = ptbmax    ! maximum pt for the b
 -1  = ptamax    ! maximum pt for the photons
 -1  = ptlmax    ! maximum pt for the charged leptons
 -1  = missetmax ! maximum missing Et (sum of neutrino's momenta)
#*********************************************************************
# Minimum and maximum E's (in the center of mass frame)              *
#*********************************************************************
  0  = ej     ! minimum E for the jets 
  0  = eb     ! minimum E for the b 
  0  = ea     ! minimum E for the photons 
  0  = el     ! minimum E for the charged leptons 
 -1   = ejmax ! maximum E for the jets
 -1   = ebmax ! maximum E for the b
 -1   = eamax ! maximum E for the photons
 -1   = elmax ! maximum E for the charged leptons
#*********************************************************************
# Maximum and minimum absolute rapidity (for max, -1 means no cut)   *
#*********************************************************************
   5  = etaj    ! max rap for the jets 
  -1  = etab    ! max rap for the b
 2.5  = etaa    ! max rap for the photons 
 2.5  = etal    ! max rap for the charged leptons 
 0.6  = etaonium ! max rap for the quarkonium states
   0  = etajmin ! min rap for the jets
   0  = etabmin ! min rap for the b
   0  = etaamin ! min rap for the photons
   0  = etalmin ! main rap for the charged leptons
#*********************************************************************
# Minimum and maximum DeltaR distance                                *
#*********************************************************************
 0.4 = drjj    ! min distance between jets 
 0   = drbb    ! min distance between b's 
 0.4 = drll    ! min distance between leptons 
 0.4 = draa    ! min distance between gammas 
 0   = drbj    ! min distance between b and jet 
 0.4 = draj    ! min distance between gamma and jet 
 0.4 = drjl    ! min distance between jet and lepton 
 0   = drab    ! min distance between gamma and b 
 0   = drbl    ! min distance between b and lepton 
 0.4 = dral    ! min distance between gamma and lepton 
 -1  = drjjmax ! max distance between jets
 -1  = drbbmax ! max distance between b's
 -1  = drllmax ! max distance between leptons
 -1  = draamax ! max distance between gammas
 -1  = drbjmax ! max distance between b and jet
 -1  = drajmax ! max distance between gamma and jet
 -1  = drjlmax ! max distance between jet and lepton
 -1  = drabmax ! max distance between gamma and b
 -1  = drblmax ! max distance between b and lepton
 -1  = dralmax ! maxdistance between gamma and lepton
#*********************************************************************
# Minimum and maximum invariant mass for pairs                       *
# WARNING: for four lepton final state mmll cut require to have      *
#          different lepton masses for each flavor!                  *           
#*********************************************************************
 0   = mmjj    ! min invariant mass of a jet pair 
 0   = mmbb    ! min invariant mass of a b pair 
 0   = mmaa    ! min invariant mass of gamma gamma pair
 0   = mmll    ! min invariant mass of l+l- (same flavour) lepton pair
 -1  = mmjjmax ! max invariant mass of a jet pair
 -1  = mmbbmax ! max invariant mass of a b pair
 -1  = mmaamax ! max invariant mass of gamma gamma pair
 -1  = mmllmax ! max invariant mass of l+l- (same flavour) lepton pair
#*********************************************************************
# Minimum and maximum invariant mass for all letpons                 *
#*********************************************************************
 0   = mmnl    ! min invariant mass for all letpons (l+- and vl) 
 -1  = mmnlmax ! max invariant mass for all letpons (l+- and vl) 
#*********************************************************************
# Minimum and maximum pt for 4-momenta sum of leptons                *
#*********************************************************************
 0   = ptllmin  ! Minimum pt for 4-momenta sum of leptons(l and vl)
 -1  = ptllmax  ! Maximum pt for 4-momenta sum of leptons(l and vl)
#*********************************************************************
# Inclusive cuts                                                     *
#*********************************************************************
 0  = xptj ! minimum pt for at least one jet  
 0  = xptb ! minimum pt for at least one b 
 0  = xpta ! minimum pt for at least one photon 
 0  = xptl ! minimum pt for at least one charged lepton 
#*********************************************************************
# Control the pt's of the jets sorted by pt                          *
#*********************************************************************
 0   = ptj1min ! minimum pt for the leading jet in pt
 0   = ptj2min ! minimum pt for the second jet in pt
 0   = ptj3min ! minimum pt for the third jet in pt
 0   = ptj4min ! minimum pt for the fourth jet in pt
 -1  = ptj1max ! maximum pt for the leading jet in pt 
 -1  = ptj2max ! maximum pt for the second jet in pt
 -1  = ptj3max ! maximum pt for the third jet in pt
 -1  = ptj4max ! maximum pt for the fourth jet in pt
 0   = cutuse  ! reject event if fails any (0) / all (1) jet pt cuts
#*********************************************************************
# Control the pt's of leptons sorted by pt                           *
#*********************************************************************
 0   = ptl1min ! minimum pt for the leading lepton in pt
 0   = ptl2min ! minimum pt for the second lepton in pt
 0   = ptl3min ! minimum pt for the third lepton in pt
 0   = ptl4min ! minimum pt for the fourth lepton in pt
 -1  = ptl1max ! maximum pt for the leading lepton in pt 
 -1  = ptl2max ! maximum pt for the second lepton in pt
 -1  = ptl3max ! maximum pt for the third lepton in pt
 -1  = ptl4max ! maximum pt for the fourth lepton in pt
#*********************************************************************
# Control the Ht(k)=Sum of k leading jets                            *
#*********************************************************************
 0   = htjmin ! minimum jet HT=Sum(jet pt)
 -1  = htjmax ! maximum jet HT=Sum(jet pt)
 0   = ihtmin  !inclusive Ht for all partons (including b)
 -1  = ihtmax  !inclusive Ht for all partons (including b)
 0   = ht2min ! minimum Ht for the two leading jets
 0   = ht3min ! minimum Ht for the three leading jets
 0   = ht4min ! minimum Ht for the four leading jets
 -1  = ht2max ! maximum Ht for the two leading jets
 -1  = ht3max ! maximum Ht for the three leading jets
 -1  = ht4max ! maximum Ht for the four leading jets
#***********************************************************************
# Photon-isolation cuts, according to hep-ph/9801442                   *
# When ptgmin=0, all the other parameters are ignored                  *
# When ptgmin>0, pta and draj are not going to be used                 *
#***********************************************************************
   0 = ptgmin ! Min photon transverse momentum
 0.4 = R0gamma ! Radius of isolation code
 1.0 = xn ! n parameter of eq.(3.4) in hep-ph/9801442
 1.0 = epsgamma ! epsilon_gamma parameter of eq.(3.4) in hep-ph/9801442
 .true. = isoEM ! isolate photons from EM energy (photons and leptons)
#*********************************************************************
# WBF cuts                                                           *
#*********************************************************************
 0   = xetamin ! minimum rapidity for two jets in the WBF case  
 0   = deltaeta ! minimum rapidity for two jets in the WBF case 
#*********************************************************************
# KT DURHAM CUT                                                      *
#*********************************************************************
 -1    =  ktdurham        
 0.4  =  dparameter 
#*********************************************************************
# maximal pdg code for quark to be considered as a light jet         *
# (otherwise b cuts are applied)                                     *
#*********************************************************************
 4 = maxjetflavor    ! Maximum jet pdg code
#*********************************************************************
# Jet measure cuts                                                   *
#*********************************************************************
 0   = xqcut   ! minimum kt jet measure between partons
#*********************************************************************
#
#*********************************************************************
# Store info for systematics studies                                 *
# WARNING: If use_syst is T, matched Pythia output is                *
#          meaningful ONLY if plotted taking matchscale              *
#          reweighting into account!                                 *
#*********************************************************************
   F  = use_syst      ! Enable systematics studies
#
#**************************************
# Parameter of the systematics study
#  will be used by SysCalc (if installed)
#**************************************                                  
#
0.5 1 2 = sys_scalefact  # factorization/renormalization scale factor
0.5 1 2 = sys_alpsfact  # \alpha_s emission scale factors
30 50 = sys_matchscale # variation of merging scale
# PDF sets and number of members (0 or none for all members).
CT10nlo.LHgrid = sys_pdf # matching scales
# MSTW2008nlo68cl.LHgrid 1  = sys_pdf
</MGRunCard>
<slha>
######################################################################
## PARAM_CARD AUTOMATICALY GENERATED BY MG5 FOLLOWING UFO MODEL   ####
######################################################################
##                                                                  ##
##  Width set on Auto will be computed following the information    ##
##        present in the decay.py files of the model.               ##
##        See  arXiv:1402.1178 for more details.                    ##
##                                                                  ##
######################################################################

###################################
## INFORMATION FOR CKMBLOCK
###################################
Block ckmblock 
    1 2.277360e-01 # cabi 

###################################
## INFORMATION FOR FRBLOCK
###################################
Block frblock 
    1 4.000000e-01 # gz 

###################################
## INFORMATION FOR MASS
###################################
Block mass 
    1 5.040000e-03 # MD 
    2 2.550000e-03 # MU 
    3 1.010000e-01 # MS 
    4 1.270000e+00 # MC 
    5 4.700000e+00 # MB 
    6 1.720000e+02 # MT 
   11 5.110000e-04 # Me 
   13 1.056600e-01 # MM 
   15 1.777000e+00 # MTA 
   23 9.118760e+01 # MZ 
   25 1.200000e+02 # MH 
  10030 2.000000e+03 # MZph 
  10031 3.000000e+02 # MZpl 
## Dependent parameters, given by model restrictions.
## Those values should be edited following the 
## analytical expression. MG5 ignores those values 
## but they are important for interfacing the output of MG5
## to external program such as Pythia.
  12 0.000000 # ve : 0.0 
  14 0.000000 # vm : 0.0 
  16 0.000000 # vt : 0.0 
  21 0.000000 # g : 0.0 
  22 0.000000 # a : 0.0 
  24 79.824360 # w+ : cmath.sqrt(MZ__exp__2/2. + cmath.sqrt(MZ__exp__4/4. - (aEW*cmath.pi*MZ__exp__2)/(Gf*sqrt__2))) 

###################################
## INFORMATION FOR SMINPUTS
###################################
Block sminputs 
    1 1.279000e+02 # aEWM1 
    2 1.166370e-05 # Gf 
    3 1.184000e-01 # aS 

###################################
## INFORMATION FOR YUKAWA
###################################
Block yukawa 
    1 5.040000e-03 # ymdo 
    2 2.550000e-03 # ymup 
    3 1.010000e-01 # yms 
    4 1.270000e+00 # ymc 
    5 4.700000e+00 # ymb 
    6 1.720000e+02 # ymt 
   11 5.110000e-04 # yme 
   13 1.056600e-01 # ymm 
   15 1.777000e+00 # ymtau 

###################################
## INFORMATION FOR DECAY
###################################
DECAY   6 1.508336e+00 # WT 
DECAY  23 2.495200e+00 # WZ 
DECAY  24 2.085000e+00 # WW 
DECAY  25 5.753088e-03 # WH 
## Dependent parameters, given by model restrictions.
## Those values should be edited following the 
## analytical expression. MG5 ignores those values 
## but they are important for interfacing the output of MG5
## to external program such as Pythia.
DECAY  1 0.000000 # d : 0.0 
DECAY  2 0.000000 # u : 0.0 
DECAY  3 0.000000 # s : 0.0 
DECAY  4 0.000000 # c : 0.0 
DECAY  5 0.000000 # b : 0.0 
DECAY  11 0.000000 # e- : 0.0 
DECAY  12 0.000000 # ve : 0.0 
DECAY  13 0.000000 # mu- : 0.0 
DECAY  14 0.000000 # vm : 0.0 
DECAY  15 0.000000 # ta- : 0.0 
DECAY  16 0.000000 # vt : 0.0 
DECAY  21 0.000000 # g : 0.0 
DECAY  22 0.000000 # a : 0.0 
DECAY  10030 0.308725 # zph : (gz__exp__2*MZph*(5 + cmath.sqrt(1 - (4*MT__exp__2)/MZph__exp__2)))/(144.*cmath.pi) 
DECAY  10031 0.132629 # zpl : (5*gz__exp__2*MZpl)/(144.*cmath.pi) 
#===========================================================
# QUANTUM NUMBERS OF NEW STATE(S) (NON SM PDG CODE)
#===========================================================

Block QNUMBERS 10030  # zph 
        1 0  # 3 times electric charge
        2 3  # number of spin states (2S+1)
        3 1  # colour rep (1: singlet, 3: triplet, 8: octet)
        4 0  # Particle/Antiparticle distinction (0=own anti)
Block QNUMBERS 10031  # zpl 
        1 0  # 3 times electric charge
        2 3  # number of spin states (2S+1)
        3 1  # colour rep (1: singlet, 3: triplet, 8: octet)
        4 0  # Particle/Antiparticle distinction (0=own anti)
</slha>
## END BANNER##
<MGGenerationInfo>
#  Number of Events        :         3979
#  Integrated weight (pb)  :  0.57056E-02
#  Max wgt                 :  0.20389E-05
#  Average wgt             :  0.14339E-05
</MGGenerationInfo>
</header>
<init>
     2212     2212  0.40000000000E+04  0.40000000000E+04 0 0  247000  247000 2   1
  0.57079979122E-02  0.14736190628E-04  0.20388820000E-05   0
</init>
<event>
 5   0  0.1999142E-05  0.2000051E+04  0.7818609E-02  0.8606597E-01
        2   -1    0    0  501    0  0.00000000000E+00  0.00000000000E+00  0.14188740585E+04  0.14188740585E+04  0.25500000920E-02 0.  1.
       -2   -1    0    0    0  501  0.00000000000E+00  0.00000000000E+00 -0.70481993987E+03  0.70481993988E+03  0.25500000920E-02 0. -1.
    10030    2    1    2    0    0  0.00000000000E+00  0.00000000000E+00  0.71405411864E+03  0.21236939984E+04  0.20000507280E+04 0.  0.
        1    1    3    3  502    0 -0.28716622075E+03  0.95553662943E+03  0.28551333932E+03  0.10378017901E+04  0.50400001928E-02 0. -1.
       -1    1    3    3    0  502  0.28716622075E+03 -0.95553662943E+03  0.42854077932E+03  0.10858922083E+04  0.50400001928E-02 0.  1.
</event>
<event>
 5   0  0.1999142E-05  0.2007163E+04  0.7818609E-02  0.8603279E-01
        2   -1    0    0  501    0  0.00000000000E+00  0.00000000000E+00  0.13265191755E+04  0.13265191755E+04  0.25500000920E-02 0.  1.
       -2   -1    0    0    0  501  0.00000000000E+00  0.00000000000E+00 -0.75926201345E+03  0.75926201345E+03  0.25500000920E-02 0. -1.
    10030    2    1    2    0    0  0.00000000000E+00  0.00000000000E+00  0.56725716208E+03  0.20857811890E+04  0.20071627937E+04 0.  0.
        1    1    3    3  502    0 -0.49864932480E+03 -0.54207530593E+01 -0.62140049954E+03  0.79675536681E+03  0.50400001928E-02 0. -1.
       -1    1    3    3    0  502  0.49864932480E+03  0.54207530593E+01  0.11886576616E+04  0.12890258222E+04  0.50400001928E-02 0.  1.
</event>
<event>
 5   0  0.2038882E-05  0.2001013E+04  0.7818609E-02  0.8606147E-01
       -2   -1    0    0    0  501  0.00000000000E+00  0.00000000000E+00  0.11172527969E+04  0.11172527969E+04  0.25500000920E-02 0. -1.
        2   -1    0    0  501    0  0.00000000000E+00  0.00000000000E+00 -0.89595974195E+03  0.89595974195E+03  0.25500000920E-02 0.  1.
    10030    2    1    2    0    0  0.00000000000E+00  0.00000000000E+00  0.22129305499E+03  0.20132125389E+04  0.20010132710E+04 0.  0.
        3    1    3    3  502    0 -0.89020199488E+03  0.45259881466E+03  0.49379966979E+02  0.99987182682E+03  0.10100000352E+00 0. -1.
       -3    1    3    3    0  502  0.89020199488E+03 -0.45259881466E+03  0.17191308802E+03  0.10133407121E+04  0.10100000352E+00 0.  1.
</event>
<event>
 5   0  0.1999142E-05  0.1999445E+04  0.7818609E-02  0.8606880E-01
        2   -1    0    0  501    0  0.00000000000E+00  0.00000000000E+00  0.14590044236E+04  0.14590044236E+04  0.25500000920E-02 0. -1.
       -2   -1    0    0    0  501  0.00000000000E+00  0.00000000000E+00 -0.68501838178E+03  0.68501838178E+03  0.25500000920E-02 0.  1.
    10030    2    1    2    0    0  0.00000000000E+00  0.00000000000E+00  0.77398604183E+03  0.21440228054E+04  0.19994447722E+04 0.  0.
        1    1    3    3  502    0  0.13682891122E+03  0.58563965811E+02 -0.67307167950E+03  0.68933110681E+03  0.50400001928E-02 0.  1.
       -1    1    3    3    0  502 -0.13682891122E+03 -0.58563965811E+02  0.14470577213E+04  0.14546916986E+04  0.50400001928E-02 0. -1.
</event>
<event>
 5   0  0.2038882E-05  0.1994762E+04  0.7818609E-02  0.8609073E-01
        2   -1    0    0  501    0  0.00000000000E+00  0.00000000000E+00  0.21181787150E+04  0.21181787150E+04  0.25500000920E-02 0. -1.
       -2   -1    0    0    0  501  0.00000000000E+00  0.00000000000E+00 -0.46963426927E+03  0.46963426927E+03  0.25500000920E-02 0.  1.
    10030    2    1    2    0    0  0.00000000000E+00  0.00000000000E+00  0.16485444458E+04  0.25878129843E+04  0.19947624551E+04 0.  0.
        3    1    3    3  502    0 -0.79424457192E+03 -0.18993268033E+03  0.81436409334E+02  0.82068919942E+03  0.10100000352E+00 0.  1.
       -3    1    3    3    0  502  0.79424457192E+03  0.18993268033E+03  0.15671080364E+04  0.17671237849E+04  0.10100000352E+00 0. -1.
</event>
<event>
 5   0  0.9140695E-06  0.2000178E+04  0.7818609E-02  0.8606538E-01
        1   -1    0    0  501    0  0.00000000000E+00  0.00000000000E+00  0.17075093572E+04  0.17075093572E+04  0.50400001928E-02 0. -1.
       -1   -1    0    0    0  501  0.00000000000E+00  0.00000000000E+00 -0.58575238886E+03  0.58575238888E+03  0.50400001928E-02 0.  1.
    10030    2    1    2    0    0  0.00000000000E+00  0.00000000000E+00  0.11217569684E+04  0.22932617461E+04  0.20001776771E+04 0.  0.
        1    1    3    3  502    0  0.13113705313E+03  0.33523715210E+02  0.16969591083E+04  0.17023486662E+04  0.50400001928E-02 0. -1.
       -1    1    3    3    0  502 -0.13113705313E+03 -0.33523715210E+02 -0.57520213992E+03  0.59091307989E+03  0.50400001928E-02 0.  1.
</event>
<event>
 5   0  0.9220260E-06  0.2000319E+04  0.7818609E-02  0.8606472E-01
        1   -1    0    0  501    0  0.00000000000E+00  0.00000000000E+00  0.15244667411E+04  0.15244667411E+04  0.50400001928E-02 0. -1.
       -1   -1    0    0    0  501  0.00000000000E+00  0.00000000000E+00 -0.65617632224E+03  0.65617632226E+03  0.50400001928E-02 0.  1.
    10030    2    1    2    0    0  0.00000000000E+00  0.00000000000E+00  0.86829041888E+03  0.21806430634E+04  0.20003189542E+04 0.  0.
        3    1    3    3  502    0 -0.42723123154E+03  0.55273423915E+03 -0.34611218335E+03  0.77963794033E+03  0.10100000352E+00 0.  1.
       -3    1    3    3    0  502  0.42723123154E+03 -0.55273423915E+03  0.12144026022E+04  0.14010051231E+04  0.10100000352E+00 0. -1.
</event>
<event>
 5   0  0.1999142E-05  0.2001151E+04  0.7818609E-02  0.8606083E-01
       -2   -1    0    0    0  501  0.00000000000E+00  0.00000000000E+00  0.48724332283E+03  0.48724332284E+03  0.25500000920E-02 0. -1.
        2   -1    0    0  501    0  0.00000000000E+00  0.00000000000E+00 -0.20547261548E+04  0.20547261548E+04  0.25500000920E-02 0.  1.
    10030    2    1    2    0    0  0.00000000000E+00  0.00000000000E+00 -0.15674828320E+04  0.25419694777E+04  0.20011512678E+04 0.  0.
        1    1    3    3  502    0 -0.63078858279E+03  0.95711419224E+02  0.19534038599E+03  0.66724266828E+03  0.50400001928E-02 0. -1.
       -1    1    3    3    0  502  0.63078858279E+03 -0.95711419224E+02 -0.17628232180E+04  0.18747268094E+04  0.50400001928E-02 0.  1.
</event>
<event>
 5   0  0.9333353E-06  0.1997902E+04  0.7818609E-02  0.8607602E-01
       -1   -1    0    0    0  501  0.00000000000E+00  0.00000000000E+00  0.80755420826E+03  0.80755420827E+03  0.50400001928E-02 0. -1.
        1   -1    0    0  501    0  0.00000000000E+00  0.00000000000E+00 -0.12357108021E+04  0.12357108021E+04  0.50400001928E-02 0.  1.
    10030    2    1    2    0    0  0.00000000000E+00  0.00000000000E+00 -0.42815659380E+03  0.20432650103E+04  0.19979023584E+04 0.  0.
        2    1    3    3  502    0 -0.93194820841E+03 -0.24410746545E+03 -0.48424970429E+03  0.10782456557E+04  0.25500000920E-02 0. -1.
       -2    1    3    3    0  502  0.93194820841E+03  0.24410746545E+03  0.56093110483E+02  0.96501935468E+03  0.25500000920E-02 0.  1.
</event>
<event>
 5   0  0.1999142E-05  0.1998348E+04  0.7818609E-02  0.8607394E-01
        2   -1    0    0  501    0  0.00000000000E+00  0.00000000000E+00  0.13453486171E+04  0.13453486171E+04  0.25500000920E-02 0.  1.
       -2   -1    0    0    0  501  0.00000000000E+00  0.00000000000E+00 -0.74207403503E+03  0.74207403504E+03  0.25500000920E-02 0. -1.
    10030    2    1    2    0    0  0.00000000000E+00  0.00000000000E+00  0.60327458206E+03  0.20874226521E+04  0.19983475942E+04 0.  0.
        1    1    3    3  502    0  0.38214275313E+03 -0.19806732361E+03 -0.64026793954E+03  0.77149645682E+03  0.50400001928E-02 0. -1.
       -1    1    3    3    0  502 -0.38214275313E+03  0.19806732361E+03  0.12435425216E+04  0.13159261953E+04  0.50400001928E-02 0.  1.
</event>
<event>
 5   0  0.7132000E-06  0.2001206E+04  0.7818609E-02  0.8606057E-01
        4   -1    0    0  501    0  0.00000000000E+00  0.00000000000E+00  0.80814209918E+03  0.80814309709E+03  0.12699999809E+01 0.  1.
       -4   -1    0    0    0  501  0.00000000000E+00  0.00000000000E+00 -0.12388968619E+04  0.12388975128E+04  0.12699999809E+01 0. -1.
    10030    2    1    2    0    0  0.00000000000E+00  0.00000000000E+00 -0.43075476271E+03  0.20470406099E+04  0.20012060346E+04 0.  0.
        5    1    3    3  502    0 -0.68559041079E+03 -0.34605882153E+03  0.44071245309E+03  0.88546060083E+03  0.46999998093E+01 0.  1.
       -5    1    3    3    0  502  0.68559041079E+03  0.34605882153E+03 -0.87146721580E+03  0.11615800091E+04  0.46999998093E+01 0. -1.
</event>
<event>
 5   0  0.2020029E-05  0.1999151E+04  0.7818609E-02  0.8607018E-01
        2   -1    0    0  501    0  0.00000000000E+00  0.00000000000E+00  0.89372647854E+03  0.89372647854E+03  0.25500000920E-02 0. -1.
       -2   -1    0    0    0  501  0.00000000000E+00  0.00000000000E+00 -0.11179609136E+04  0.11179609136E+04  0.25500000920E-02 0.  1.
    10030    2    1    2    0    0  0.00000000000E+00  0.00000000000E+00 -0.22423443509E+03  0.20116873922E+04  0.19991510903E+04 0.  0.
        5    1    3    3  502    0 -0.56478406866E+03 -0.38217301689E+03 -0.84751595584E+03  0.10878155379E+04  0.46999998093E+01 0.  1.
       -5    1    3    3    0  502  0.56478406866E+03  0.38217301689E+03  0.62328152075E+03  0.92387185429E+03  0.46999998093E+01 0. -1.
</event>
<event>
 5   0  0.9342635E-06  0.1997828E+04  0.7818609E-02  0.8607637E-01
        1   -1    0    0  501    0  0.00000000000E+00  0.00000000000E+00  0.99208108148E+03  0.99208108149E+03  0.50400001928E-02 0.  1.
       -1   -1    0    0    0  501  0.00000000000E+00  0.00000000000E+00 -0.10057941344E+04  0.10057941344E+04  0.50400001928E-02 0. -1.
    10030    2    1    2    0    0  0.00000000000E+00  0.00000000000E+00 -0.13713052916E+02  0.19978752159E+04  0.19978281534E+04 0.  0.
        5    1    3    3  502    0  0.70424549208E+02  0.96681282573E+03  0.23423126629E+03  0.99728282509E+03  0.46999998093E+01 0.  1.
       -5    1    3    3    0  502 -0.70424549208E+02 -0.96681282573E+03 -0.24794431921E+03  0.10005923908E+04  0.46999998093E+01 0. -1.
</event>
<event>
 5   0  0.7132000E-06  0.1998756E+04  0.7818609E-02  0.8607203E-01
       -3   -1    0    0    0  501  0.00000000000E+00  0.00000000000E+00  0.11611121853E+04  0.11611121897E+04  0.10100000352E+00 0.  1.
        3   -1    0    0  501    0  0.00000000000E+00  0.00000000000E+00 -0.86017197458E+03  0.86017198051E+03  0.10100000352E+00 0. -1.
    10030    2    1    2    0    0  0.00000000000E+00  0.00000000000E+00  0.30094021073E+03  0.20212841702E+04  0.19987557846E+04 0.  0.
        5    1    3    3  502    0  0.46597035418E+03  0.82845192747E+03 -0.16167233575E+03  0.96416855437E+03  0.46999998093E+01 0. -1.
       -5    1    3    3    0  502 -0.46597035418E+03 -0.82845192747E+03  0.46261254648E+03  0.10571156158E+04  0.46999998093E+01 0.  1.
</event>
<event>
 5   0  0.9140695E-06  0.1998857E+04  0.7818609E-02  0.8607155E-01
       -1   -1    0    0    0  501  0.00000000000E+00  0.00000000000E+00  0.82223234190E+03  0.82223234192E+03  0.50400001928E-02 0.  1.
        1   -1    0    0  501    0  0.00000000000E+00  0.00000000000E+00 -0.12148118336E+04  0.12148118336E+04  0.50400001928E-02 0. -1.
    10030    2    1    2    0    0  0.00000000000E+00  0.00000000000E+00 -0.39257949166E+03  0.20370441755E+04  0.19988572524E+04 0.  0.
        1    1    3    3  502    0 -0.12761906000E+02  0.38118773409E+02  0.82140814869E+03  0.82239118057E+03  0.50400001928E-02 0.  1.
       -1    1    3    3    0  502  0.12761906000E+02 -0.38118773409E+02 -0.12139876403E+04  0.12146529949E+04  0.50400001928E-02 0. -1.
</event>
<event>
 5   0  0.9220260E-06  0.1986188E+04  0.7818609E-02  0.8613106E-01
       -1   -1    0    0    0  501  0.00000000000E+00  0.00000000000E+00  0.75638566459E+03  0.75638566461E+03  0.50400001928E-02 0. -1.
        1   -1    0    0  501    0  0.00000000000E+00  0.00000000000E+00 -0.13038794939E+04  0.13038794939E+04  0.50400001928E-02 0.  1.
    10030    2    1    2    0    0  0.00000000000E+00  0.00000000000E+00 -0.54749382933E+03  0.20602651585E+04  0.19861880652E+04 0.  0.
        3    1    3    3  502    0 -0.50280322799E+03  0.85325944822E+03 -0.34978132348E+03  0.10503379249E+04  0.10100000352E+00 0. -1.
       -3    1    3    3    0  502  0.50280322799E+03 -0.85325944822E+03 -0.19771250585E+03  0.10099272336E+04  0.10100000352E+00 0.  1.
</event>
<event>
 5   0  0.9220260E-06  0.1994011E+04  0.7818609E-02  0.8609426E-01
       -1   -1    0    0    0  501  0.00000000000E+00  0.00000000000E+00  0.17089701945E+04  0.17089701946E+04  0.50400001928E-02 0.  1.
        1   -1    0    0  501    0  0.00000000000E+00  0.00000000000E+00 -0.58164863279E+03  0.58164863281E+03  0.50400001928E-02 0. -1.
    10030    2    1    2    0    0  0.00000000000E+00  0.00000000000E+00  0.11273215618E+04  0.22906188274E+04  0.19940112108E+04 0.  0.
        3    1    3    3  502    0 -0.58422567253E+03  0.70741129719E+03  0.11539859905E+03  0.92469845177E+03  0.10100000352E+00 0.  1.
       -3    1    3    3    0  502  0.58422567253E+03 -0.70741129719E+03  0.10119229627E+04  0.13659203756E+04  0.10100000352E+00 0. -1.
</event>
<event>
 5   0  0.1999142E-05  0.1995938E+04  0.7818609E-02  0.8608522E-01
       -2   -1    0    0    0  501  0.00000000000E+00  0.00000000000E+00  0.15295095747E+04  0.15295095747E+04  0.25500000920E-02 0. -1.
        2   -1    0    0  501    0  0.00000000000E+00  0.00000000000E+00 -0.65115114784E+03  0.65115114784E+03  0.25500000920E-02 0.  1.
    10030    2    1    2    0    0  0.00000000000E+00  0.00000000000E+00  0.87835842687E+03  0.21806607226E+04  0.19959377898E+04 0.  0.
        1    1    3    3  502    0  0.17835040885E+03  0.90758344488E+03  0.84859429666E+03  0.12552405579E+04  0.50400001928E-02 0. -1.
       -1    1    3    3    0  502 -0.17835040885E+03 -0.90758344488E+03  0.29764130217E+02  0.92542016470E+03  0.50400001928E-02 0.  1.
</event>
<event>
 5   0  0.9370269E-06  0.1998242E+04  0.7818609E-02  0.8607443E-01
        1   -1    0    0  501    0  0.00000000000E+00  0.00000000000E+00  0.16856098669E+04  0.16856098669E+04  0.50400001928E-02 0. -1.
       -1   -1    0    0    0  501  0.00000000000E+00  0.00000000000E+00 -0.59221457056E+03  0.59221457058E+03  0.50400001928E-02 0.  1.
    10030    2    1    2    0    0  0.00000000000E+00  0.00000000000E+00  0.10933952963E+04  0.22778244375E+04  0.19982419508E+04 0.  0.
        4    1    3    3  502    0 -0.21440137296E+03  0.68872877433E+03 -0.24134991517E+03  0.76063569977E+03  0.12699999809E+01 0.  1.
       -4    1    3    3    0  502  0.21440137296E+03 -0.68872877433E+03  0.13347452115E+04  0.15171887377E+04  0.12699999809E+01 0. -1.
</event>
<event>
 5   0  0.9140695E-06  0.2000211E+04  0.7818609E-02  0.8606522E-01
       -1   -1    0    0    0  501  0.00000000000E+00  0.00000000000E+00  0.43928979930E+03  0.43928979933E+03  0.50400001928E-02 0. -1.
        1   -1    0    0  501    0  0.00000000000E+00  0.00000000000E+00 -0.22768809300E+04  0.22768809300E+04  0.50400001928E-02 0.  1.
    10030    2    1    2    0    0  0.00000000000E+00  0.00000000000E+00 -0.18375911307E+04  0.27161707294E+04  0.20002105557E+04 0.  0.
        1    1    3    3  502    0  0.49623086949E+02  0.96373701816E+03 -0.56219907349E+03  0.11168344950E+04  0.50400001928E-02 0.  1.
       -1    1    3    3    0  502 -0.49623086949E+02 -0.96373701816E+03 -0.12753920572E+04  0.15993362344E+04  0.50400001928E-02 0. -1.
</event>
<event>
 5   0  0.1979765E-05  0.1981359E+04  0.7818609E-02  0.8615386E-01
        2   -1    0    0  501    0  0.00000000000E+00  0.00000000000E+00  0.18922421305E+04  0.18922421305E+04  0.25500000920E-02 0.  1.
       -2   -1    0    0    0  501  0.00000000000E+00  0.00000000000E+00 -0.51866830070E+03  0.51866830070E+03  0.25500000920E-02 0. -1.
    10030    2    1    2    0    0  0.00000000000E+00  0.00000000000E+00  0.13735738298E+04  0.24109104312E+04  0.19813591399E+04 0.  0.
        2    1    3    3  502    0  0.77025266096E+03 -0.42779554221E+02  0.14430889489E+04  0.16363450022E+04  0.25500000920E-02 0. -1.
       -2    1    3    3    0  502 -0.77025266096E+03  0.42779554221E+02 -0.69515119072E+02  0.77456542897E+03  0.25500000920E-02 0.  1.
</event>
<event>
 5   0  0.9220260E-06  0.1999763E+04  0.7818609E-02  0.8606732E-01
       -1   -1    0    0    0  501  0.00000000000E+00  0.00000000000E+00  0.83503878655E+03  0.83503878657E+03  0.50400001928E-02 0. -1.
        1   -1    0    0  501    0  0.00000000000E+00  0.00000000000E+00 -0.11972649880E+04  0.11972649880E+04  0.50400001928E-02 0.  1.
    10030    2    1    2    0    0  0.00000000000E+00  0.00000000000E+00 -0.36222620145E+03  0.20323037746E+04  0.19997626887E+04 0.  0.
        3    1    3    3  502    0  0.44687699553E+03  0.69789886496E+03 -0.74968173641E+03  0.11174903091E+04  0.10100000352E+00 0.  1.
       -3    1    3    3    0  502 -0.44687699553E+03 -0.69789886496E+03  0.38745553496E+03  0.91481346548E+03  0.10100000352E+00 0. -1.
</event>
<event>
 5   0  0.2038882E-05  0.1998722E+04  0.7818609E-02  0.8607218E-01
        2   -1    0    0  501    0  0.00000000000E+00  0.00000000000E+00  0.66633820581E+03  0.66633820581E+03  0.25500000920E-02 0. -1.
       -2   -1    0    0    0  501  0.00000000000E+00  0.00000000000E+00 -0.14988217571E+04  0.14988217571E+04  0.25500000920E-02 0.  1.
    10030    2    1    2    0    0  0.00000000000E+00  0.00000000000E+00 -0.83248355132E+03  0.21651599629E+04  0.19987217920E+04 0.  0.
        3    1    3    3  502    0  0.76457042734E+03  0.29709199185E+03 -0.10346475801E+04  0.13203511711E+04  0.10100000352E+00 0.  1.
       -3    1    3    3    0  502 -0.76457042734E+03 -0.29709199185E+03  0.20216402875E+03  0.84480879180E+03  0.10100000352E+00 0. -1.
</event>
<event>
 5   0  0.9140695E-06  0.1997206E+04  0.7818609E-02  0.8607928E-01
        1   -1    0    0  501    0  0.00000000000E+00  0.00000000000E+00  0.12491264082E+04  0.12491264082E+04  0.50400001928E-02 0. -1.
       -1   -1    0    0    0  501  0.00000000000E+00  0.00000000000E+00 -0.79832465067E+03  0.79832465068E+03  0.50400001928E-02 0.  1.
    10030    2    1    2    0    0  0.00000000000E+00  0.00000000000E+00  0.45080175757E+03  0.20474510589E+04  0.19972064525E+04 0.  0.
        1    1    3    3  502    0  0.51051858216E+02 -0.32813868757E+03  0.11908614331E+04  0.12362977972E+04  0.50400001928E-02 0. -1.
       -1    1    3    3    0  502 -0.51051858216E+02  0.32813868757E+03 -0.74005967557E+03  0.81115326168E+03  0.50400001928E-02 0.  1.
</event>
<event>
 5   0  0.1979765E-05  0.2001549E+04  0.7818609E-02  0.8605897E-01
       -2   -1    0    0    0  501  0.00000000000E+00  0.00000000000E+00  0.62930215364E+03  0.62930215364E+03  0.25500000920E-02 0.  1.
        2   -1    0    0  501    0  0.00000000000E+00  0.00000000000E+00 -0.15915247133E+04  0.15915247133E+04  0.25500000920E-02 0. -1.
    10030    2    1    2    0    0  0.00000000000E+00  0.00000000000E+00 -0.96222255968E+03  0.22208268670E+04  0.20015493296E+04 0.  0.
        2    1    3    3  502    0  0.71205731452E+03 -0.49896865122E+03 -0.10309336909E+04  0.13486362034E+04  0.25500000920E-02 0. -1.
       -2    1    3    3    0  502 -0.71205731452E+03  0.49896865122E+03  0.68711131214E+02  0.87219066357E+03  0.25500000920E-02 0.  1.
</event>
<event>
 5   0  0.9333353E-06  0.1997048E+04  0.7818609E-02  0.8608002E-01
       -1   -1    0    0    0  501  0.00000000000E+00  0.00000000000E+00  0.59974755264E+03  0.59974755266E+03  0.50400001928E-02 0.  1.
        1   -1    0    0  501    0  0.00000000000E+00  0.00000000000E+00 -0.16624503468E+04  0.16624503468E+04  0.50400001928E-02 0. -1.
    10030    2    1    2    0    0  0.00000000000E+00  0.00000000000E+00 -0.10627027942E+04  0.22621978995E+04  0.19970483489E+04 0.  0.
        2    1    3    3  502    0 -0.38820448534E+03  0.41427250590E+03 -0.14618286681E+04  0.15682051800E+04  0.25500000920E-02 0. -1.
       -2    1    3    3    0  502  0.38820448534E+03 -0.41427250590E+03  0.39912587389E+03  0.69399271956E+03  0.25500000920E-02 0.  1.
</event>
<event>
 5   0  0.2038882E-05  0.2006675E+04  0.7818609E-02  0.8603506E-01
       -2   -1    0    0    0  501  0.00000000000E+00  0.00000000000E+00  0.81146795026E+03  0.81146795026E+03  0.25500000920E-02 0. -1.
        2   -1    0    0  501    0  0.00000000000E+00  0.00000000000E+00 -0.12405737728E+04  0.12405737728E+04  0.25500000920E-02 0.  1.
    10030    2    1    2    0    0  0.00000000000E+00  0.00000000000E+00 -0.42910582250E+03  0.20520417230E+04  0.20066747186E+04 0.  0.
        3    1    3    3  502    0 -0.23573721854E+03  0.41946565584E+03  0.68578502463E+03  0.83774971373E+03  0.10100000352E+00 0. -1.
       -3    1    3    3    0  502  0.23573721854E+03 -0.41946565584E+03 -0.11148908471E+04  0.12142920093E+04  0.10100000352E+00 0.  1.
</event>
<event>
 5   0  0.2020029E-05  0.2000986E+04  0.7818609E-02  0.8606160E-01
        2   -1    0    0  501    0  0.00000000000E+00  0.00000000000E+00  0.11335963525E+04  0.11335963525E+04  0.25500000920E-02 0.  1.
       -2   -1    0    0    0  501  0.00000000000E+00  0.00000000000E+00 -0.88301779592E+03  0.88301779593E+03  0.25500000920E-02 0. -1.
    10030    2    1    2    0    0  0.00000000000E+00  0.00000000000E+00  0.25057855655E+03  0.20166141484E+04  0.20009855098E+04 0.  0.
        5    1    3    3  502    0  0.47464713334E+03 -0.57830605270E+03 -0.54415475030E+03  0.92512392362E+03  0.46999998093E+01 0. -1.
       -5    1    3    3    0  502 -0.47464713334E+03  0.57830605270E+03  0.79473330685E+03  0.10914902248E+04  0.46999998093E+01 0.  1.
</event>
<event>
 5   0  0.9333353E-06  0.2003886E+04  0.7818609E-02  0.8604806E-01
       -1   -1    0    0    0  501  0.00000000000E+00  0.00000000000E+00  0.72395858569E+03  0.72395858571E+03  0.50400001928E-02 0.  1.
        1   -1    0    0  501    0  0.00000000000E+00  0.00000000000E+00 -0.13866678540E+04  0.13866678540E+04  0.50400001928E-02 0. -1.
    10030    2    1    2    0    0  0.00000000000E+00  0.00000000000E+00 -0.66270926835E+03  0.21106264398E+04  0.20038863226E+04 0.  0.
        2    1    3    3  502    0 -0.71405126975E+03 -0.45246797517E+03  0.23515554363E+03  0.87743638749E+03  0.25500000920E-02 0.  1.
       -2    1    3    3    0  502  0.71405126975E+03  0.45246797517E+03 -0.89786481199E+03  0.12331900523E+04  0.25500000920E-02 0. -1.
</event>
<event>
 5   0  0.2038882E-05  0.1984407E+04  0.7818609E-02  0.8613946E-01
        2   -1    0    0  501    0  0.00000000000E+00  0.00000000000E+00  0.14489396848E+04  0.14489396848E+04  0.25500000920E-02 0.  1.
       -2   -1    0    0    0  501  0.00000000000E+00  0.00000000000E+00 -0.67943984746E+03  0.67943984746E+03  0.25500000920E-02 0. -1.
    10030    2    1    2    0    0  0.00000000000E+00  0.00000000000E+00  0.76949983735E+03  0.21283795323E+04  0.19844065697E+04 0.  0.
        3    1    3    3  502    0 -0.77164243268E+03 -0.23893263963E+03  0.10026986762E+04  0.12876045571E+04  0.10100000352E+00 0.  1.
       -3    1    3    3    0  502  0.77164243268E+03  0.23893263963E+03 -0.23319883881E+03  0.84077497514E+03  0.10100000352E+00 0. -1.
</event>
<event>
 5   0  0.1999142E-05  0.2001881E+04  0.7818609E-02  0.8605742E-01
        2   -1    0    0  501    0  0.00000000000E+00  0.00000000000E+00  0.15129601698E+04  0.15129601698E+04  0.25500000920E-02 0. -1.
       -2   -1    0    0    0  501  0.00000000000E+00  0.00000000000E+00 -0.66219985575E+03  0.66219985575E+03  0.25500000920E-02 0.  1.
    10030    2    1    2    0    0  0.00000000000E+00  0.00000000000E+00  0.85076031409E+03  0.21751600256E+04  0.20018811216E+04 0.  0.
        1    1    3    3  502    0 -0.25974110144E+02  0.21673714143E+03 -0.63602208382E+03  0.67243864702E+03  0.50400001928E-02 0.  1.
       -1    1    3    3    0  502  0.25974110144E+02 -0.21673714143E+03  0.14867823979E+04  0.15027213786E+04  0.50400001928E-02 0. -1.
</event>
<event>
 5   0  0.9342635E-06  0.1999029E+04  0.7818609E-02  0.8607075E-01
        1   -1    0    0  501    0  0.00000000000E+00  0.00000000000E+00  0.75793273520E+03  0.75793273522E+03  0.50400001928E-02 0.  1.
       -1   -1    0    0    0  501  0.00000000000E+00  0.00000000000E+00 -0.13180979196E+04  0.13180979196E+04  0.50400001928E-02 0. -1.
    10030    2    1    2    0    0  0.00000000000E+00  0.00000000000E+00 -0.56016518438E+03  0.20760306548E+04  0.19990293259E+04 0.  0.
        5    1    3    3  502    0  0.30899905684E+03  0.17613087670E+03  0.68997730536E+03  0.77626881605E+03  0.46999998093E+01 0.  1.
       -5    1    3    3    0  502 -0.30899905684E+03 -0.17613087670E+03 -0.12501424897E+04  0.12997618388E+04  0.46999998093E+01 0. -1.
</event>
<event>
 5   0  0.2038882E-05  0.1997138E+04  0.7818609E-02  0.8607960E-01
        2   -1    0    0  501    0  0.00000000000E+00  0.00000000000E+00  0.11492602581E+04  0.11492602581E+04  0.25500000920E-02 0.  1.
       -2   -1    0    0    0  501  0.00000000000E+00  0.00000000000E+00 -0.86763681479E+03  0.86763681479E+03  0.25500000920E-02 0. -1.
    10030    2    1    2    0    0  0.00000000000E+00  0.00000000000E+00  0.28162344331E+03  0.20168970729E+04  0.19971384626E+04 0.  0.
        3    1    3    3  502    0 -0.54749735809E+03  0.33243856709E+03  0.91446640529E+03  0.11164755146E+04  0.10100000352E+00 0.  1.
       -3    1    3    3    0  502  0.54749735809E+03 -0.33243856709E+03 -0.63284296198E+03  0.90042155834E+03  0.10100000352E+00 0. -1.
</event>
<event>
 5   0  0.9370269E-06  0.2001457E+04  0.7818609E-02  0.8605940E-01
       -1   -1    0    0    0  501  0.00000000000E+00  0.00000000000E+00  0.10320219677E+04  0.10320219677E+04  0.50400001928E-02 0.  1.
        1   -1    0    0  501    0  0.00000000000E+00  0.00000000000E+00 -0.97038420940E+03  0.97038420941E+03  0.50400001928E-02 0. -1.
    10030    2    1    2    0    0  0.00000000000E+00  0.00000000000E+00  0.61637758293E+02  0.20024061771E+04  0.20014572903E+04 0.  0.
        4    1    3    3  502    0  0.37238918909E+03  0.37523961728E+03  0.88091444343E+03  0.10273705992E+04  0.12699999809E+01 0.  1.
       -4    1    3    3    0  502 -0.37238918909E+03 -0.37523961728E+03 -0.81927668514E+03  0.97503557793E+03  0.12699999809E+01 0. -1.
</event>
<event>
 5   0  0.9140695E-06  0.2000858E+04  0.7818609E-02  0.8606219E-01
       -1   -1    0    0    0  501  0.00000000000E+00  0.00000000000E+00  0.97092267387E+03  0.97092267388E+03  0.50400001928E-02 0.  1.
        1   -1    0    0  501    0  0.00000000000E+00  0.00000000000E+00 -0.10308324265E+04  0.10308324266E+04  0.50400001928E-02 0. -1.
    10030    2    1    2    0    0  0.00000000000E+00  0.00000000000E+00 -0.59909752679E+02  0.20017551004E+04  0.20008583917E+04 0.  0.
        1    1    3    3  502    0 -0.40330845308E+03  0.33465991683E+03 -0.88251259711E+03  0.10263934199E+04  0.50400001928E-02 0. -1.
       -1    1    3    3    0  502  0.40330845308E+03 -0.33465991683E+03  0.82260284443E+03  0.97536168058E+03  0.50400001928E-02 0.  1.
</event>
<event>
 5   0  0.9220260E-06  0.1996800E+04  0.7818609E-02  0.8608118E-01
       -1   -1    0    0    0  501  0.00000000000E+00  0.00000000000E+00  0.11263972605E+04  0.11263972605E+04  0.50400001928E-02 0.  1.
        1   -1    0    0  501    0  0.00000000000E+00  0.00000000000E+00 -0.88494804637E+03  0.88494804639E+03  0.50400001928E-02 0. -1.
    10030    2    1    2    0    0  0.00000000000E+00  0.00000000000E+00  0.24144921412E+03  0.20113453069E+04  0.19968004959E+04 0.  0.
        3    1    3    3  502    0  0.61871660439E+02  0.94454534506E+02  0.11199449519E+04  0.11256227019E+04  0.10100000352E+00 0.  1.
       -3    1    3    3    0  502 -0.61871660439E+02 -0.94454534506E+02 -0.87849573781E+03  0.88572260500E+03  0.10100000352E+00 0. -1.
</event>
<event>
 5   0  0.2003576E-05  0.2002164E+04  0.7818609E-02  0.8605610E-01
        2   -1    0    0  501    0  0.00000000000E+00  0.00000000000E+00  0.97725663296E+03  0.97725663297E+03  0.25500000920E-02 0.  1.
       -2   -1    0    0    0  501  0.00000000000E+00  0.00000000000E+00 -0.10254881164E+04  0.10254881164E+04  0.25500000920E-02 0. -1.
    10030    2    1    2    0    0  0.00000000000E+00  0.00000000000E+00 -0.48231483432E+02  0.20027447494E+04  0.20021638932E+04 0.  0.
        4    1    3    3  502    0  0.79020187046E+03 -0.33193812217E+03 -0.54152931631E+03  0.10138330860E+04  0.12699999809E+01 0. -1.
       -4    1    3    3    0  502 -0.79020187046E+03  0.33193812217E+03  0.49329783288E+03  0.98891166332E+03  0.12699999809E+01 0.  1.
</event>
<event>
 5   0  0.2003576E-05  0.2001162E+04  0.7818609E-02  0.8606078E-01
        2   -1    0    0  501    0  0.00000000000E+00  0.00000000000E+00  0.10902806222E+04  0.10902806222E+04  0.25500000920E-02 0. -1.
       -2   -1    0    0    0  501  0.00000000000E+00  0.00000000000E+00 -0.91826122919E+03  0.91826122919E+03  0.25500000920E-02 0.  1.
    10030    2    1    2    0    0  0.00000000000E+00  0.00000000000E+00  0.17201939301E+03  0.20085418514E+04  0.20011620867E+04 0.  0.
        4    1    3    3  502    0 -0.87785472902E+03 -0.69218047167E+02 -0.39086425354E+03  0.96342957236E+03  0.12699999809E+01 0. -1.
       -4    1    3    3    0  502  0.87785472902E+03  0.69218047167E+02  0.56288364655E+03  0.10451122790E+04  0.12699999809E+01 0.  1.
</event>
<event>
 5   0  0.9333353E-06  0.1999967E+04  0.7818609E-02  0.8606636E-01
        1   -1    0    0  501    0  0.00000000000E+00  0.00000000000E+00  0.17689410092E+04  0.17689410092E+04  0.50400001928E-02 0. -1.
       -1   -1    0    0    0  501  0.00000000000E+00  0.00000000000E+00 -0.56529138090E+03  0.56529138092E+03  0.50400001928E-02 0.  1.
    10030    2    1    2    0    0  0.00000000000E+00  0.00000000000E+00  0.12036496282E+04  0.23342323901E+04  0.19999671056E+04 0.  0.
        2    1    3    3  502    0 -0.69121554064E+03  0.52220881354E+03  0.11847924538E+04  0.14677241318E+04  0.25500000920E-02 0. -1.
       -2    1    3    3    0  502  0.69121554064E+03 -0.52220881354E+03  0.18857174429E+02  0.86650825824E+03  0.25500000920E-02 0.  1.
</event>
<event>
 5   0  0.9220260E-06  0.2000335E+04  0.7818609E-02  0.8606464E-01
       -1   -1    0    0    0  501  0.00000000000E+00  0.00000000000E+00  0.14422459713E+04  0.14422459713E+04  0.50400001928E-02 0.  1.
        1   -1    0    0  501    0  0.00000000000E+00  0.00000000000E+00 -0.69359517354E+03  0.69359517356E+03  0.50400001928E-02 0. -1.
    10030    2    1    2    0    0  0.00000000000E+00  0.00000000000E+00  0.74865079778E+03  0.21358411449E+04  0.20003348168E+04 0.  0.
        3    1    3    3  502    0 -0.28513299035E+03  0.55575586698E+03 -0.45972342945E+03  0.77557143298E+03  0.10100000352E+00 0. -1.
       -3    1    3    3    0  502  0.28513299035E+03 -0.55575586698E+03  0.12083742272E+04  0.13602697119E+04  0.10100000352E+00 0.  1.
</event>
<event>
 5   0  0.9342635E-06  0.1991077E+04  0.7818609E-02  0.8610804E-01
        1   -1    0    0  501    0  0.00000000000E+00  0.00000000000E+00  0.13200916677E+04  0.13200916677E+04  0.50400001928E-02 0. -1.
       -1   -1    0    0    0  501  0.00000000000E+00  0.00000000000E+00 -0.75077876068E+03  0.75077876069E+03  0.50400001928E-02 0.  1.
    10030    2    1    2    0    0  0.00000000000E+00  0.00000000000E+00  0.56931290700E+03  0.20708704284E+04  0.19910768808E+04 0.  0.
        5    1    3    3  502    0 -0.28410876819E+03 -0.38313833869E+03 -0.62418269655E+03  0.78558189096E+03  0.46999998093E+01 0.  1.
       -5    1    3    3    0  502  0.28410876819E+03  0.38313833869E+03  0.11934956036E+04  0.12852885374E+04  0.46999998093E+01 0. -1.
</event>
<event>
 5   0  0.1979765E-05  0.1997722E+04  0.7818609E-02  0.8607686E-01
        2   -1    0    0  501    0  0.00000000000E+00  0.00000000000E+00  0.84140833840E+03  0.84140833841E+03  0.25500000920E-02 0. -1.
       -2   -1    0    0    0  501  0.00000000000E+00  0.00000000000E+00 -0.11857781508E+04  0.11857781508E+04  0.25500000920E-02 0.  1.
    10030    2    1    2    0    0  0.00000000000E+00  0.00000000000E+00 -0.34436981242E+03  0.20271864892E+04  0.19977223267E+04 0.  0.
        2    1    3    3  502    0  0.25121797735E+03 -0.83109335417E+03  0.32895824364E+03  0.92846117935E+03  0.25500000920E-02 0. -1.
       -2    1    3    3    0  502 -0.25121797735E+03  0.83109335417E+03 -0.67332805605E+03  0.10987253099E+04  0.25500000920E-02 0.  1.
</event>
<event>
 5   0  0.2038882E-05  0.2005570E+04  0.7818609E-02  0.8604021E-01
       -2   -1    0    0    0  501  0.00000000000E+00  0.00000000000E+00  0.10455432823E+04  0.10455432823E+04  0.25500000920E-02 0.  1.
        2   -1    0    0  501    0  0.00000000000E+00  0.00000000000E+00 -0.96177568039E+03  0.96177568040E+03  0.25500000920E-02 0. -1.
    10030    2    1    2    0    0  0.00000000000E+00  0.00000000000E+00  0.83767601890E+02  0.20073189627E+04  0.20055703445E+04 0.  0.
        3    1    3    3  502    0 -0.41825388638E+02 -0.73129903980E+00  0.10446696174E+04  0.10455068233E+04  0.10100000352E+00 0.  1.
       -3    1    3    3    0  502  0.41825388638E+02  0.73129903980E+00 -0.96090201547E+03  0.96181213938E+03  0.10100000352E+00 0. -1.
</event>
<event>
 5   0  0.1999142E-05  0.1983466E+04  0.7818609E-02  0.8614390E-01
        2   -1    0    0  501    0  0.00000000000E+00  0.00000000000E+00  0.91288526857E+03  0.91288526857E+03  0.25500000920E-02 0.  1.
       -2   -1    0    0    0  501  0.00000000000E+00  0.00000000000E+00 -0.10773914048E+04  0.10773914048E+04  0.25500000920E-02 0. -1.
    10030    2    1    2    0    0  0.00000000000E+00  0.00000000000E+00 -0.16450613623E+03  0.19902766734E+04  0.19834664020E+04 0.  0.
        1    1    3    3  502    0 -0.93780079933E+03 -0.37404981182E+02 -0.40376743311E+03  0.10217130771E+04  0.50400001928E-02 0.  1.
       -1    1    3    3    0  502  0.93780079933E+03  0.37404981182E+02  0.23926129688E+03  0.96856359628E+03  0.50400001928E-02 0. -1.
</event>
<event>
 5   0  0.1979765E-05  0.1997586E+04  0.7818609E-02  0.8607750E-01
        2   -1    0    0  501    0  0.00000000000E+00  0.00000000000E+00  0.18941694175E+04  0.18941694175E+04  0.25500000920E-02 0.  1.
       -2   -1    0    0    0  501  0.00000000000E+00  0.00000000000E+00 -0.52666210747E+03  0.52666210748E+03  0.25500000920E-02 0. -1.
    10030    2    1    2    0    0  0.00000000000E+00  0.00000000000E+00  0.13675073100E+04  0.24208315250E+04  0.19975858003E+04 0.  0.
        2    1    3    3  502    0 -0.25267920791E+03  0.40991146938E+02 -0.48623353319E+03  0.54949986810E+03  0.25500000920E-02 0. -1.
       -2    1    3    3    0  502  0.25267920791E+03 -0.40991146938E+02  0.18537408432E+04  0.18713316569E+04  0.25500000920E-02 0.  1.
</event>
<event>
 5   0  0.2038882E-05  0.2005756E+04  0.7818609E-02  0.8603934E-01
       -2   -1    0    0    0  501  0.00000000000E+00  0.00000000000E+00  0.37709604982E+03  0.37709604983E+03  0.25500000920E-02 0. -1.
        2   -1    0    0  501    0  0.00000000000E+00  0.00000000000E+00 -0.26671290297E+04  0.26671290297E+04  0.25500000920E-02 0.  1.
    10030    2    1    2    0    0  0.00000000000E+00  0.00000000000E+00 -0.22900329799E+04  0.30442250795E+04  0.20057555399E+04 0.  0.
        3    1    3    3  502    0 -0.96899026129E+03 -0.21412600639E+03 -0.13648105607E+04  0.16874536883E+04  0.10100000352E+00 0.  1.
       -3    1    3    3    0  502  0.96899026129E+03  0.21412600639E+03 -0.92522241913E+03  0.13567713913E+04  0.10100000352E+00 0. -1.
</event>
<event>
 5   0  0.9220260E-06  0.2006220E+04  0.7818609E-02  0.8603718E-01
       -1   -1    0    0    0  501  0.00000000000E+00  0.00000000000E+00  0.48700415755E+03  0.48700415758E+03  0.50400001928E-02 0. -1.
        1   -1    0    0  501    0  0.00000000000E+00  0.00000000000E+00 -0.20661614837E+04  0.20661614837E+04  0.50400001928E-02 0.  1.
    10030    2    1    2    0    0  0.00000000000E+00  0.00000000000E+00 -0.15791573261E+04  0.25531656412E+04  0.20062195620E+04 0.  0.
        3    1    3    3  502    0  0.48027088732E+03  0.20261651243E+03 -0.18802679723E+04  0.19511845720E+04  0.10100000352E+00 0.  1.
       -3    1    3    3    0  502 -0.48027088732E+03 -0.20261651243E+03  0.30111064614E+03  0.60198106925E+03  0.10100000352E+00 0. -1.
</event>
<event>
 5   0  0.2020029E-05  0.1978661E+04  0.7818609E-02  0.8616663E-01
        2   -1    0    0  501    0  0.00000000000E+00  0.00000000000E+00  0.16251859770E+04  0.16251859771E+04  0.25500000920E-02 0.  1.
       -2   -1    0    0    0  501  0.00000000000E+00  0.00000000000E+00 -0.60225403293E+03  0.60225403293E+03  0.25500000920E-02 0. -1.
    10030    2    1    2    0    0  0.00000000000E+00  0.00000000000E+00  0.10229319441E+04  0.22274400100E+04  0.19786609704E+04 0.  0.
        5    1    3    3  502    0  0.40389744532E+03 -0.68103059234E+03  0.11791838137E+04  0.14203634642E+04  0.46999998093E+01 0.  1.
       -5    1    3    3    0  502 -0.40389744532E+03  0.68103059234E+03 -0.15625186953E+03  0.80707654579E+03  0.46999998093E+01 0. -1.
</event>
<event>
 5   0  0.9342635E-06  0.2002243E+04  0.7818609E-02  0.8605573E-01
        1   -1    0    0  501    0  0.00000000000E+00  0.00000000000E+00  0.99953084855E+03  0.99953084856E+03  0.50400001928E-02 0.  1.
       -1   -1    0    0    0  501  0.00000000000E+00  0.00000000000E+00 -0.10027142993E+04  0.10027142993E+04  0.50400001928E-02 0. -1.
    10030    2    1    2    0    0  0.00000000000E+00  0.00000000000E+00 -0.31834507026E+01  0.20022451478E+04  0.20022426171E+04 0.  0.
        5    1    3    3  502    0  0.28078304085E+03 -0.57474978205E+03  0.76850362952E+03  0.99989816810E+03  0.46999998093E+01 0.  1.
       -5    1    3    3    0  502 -0.28078304085E+03  0.57474978205E+03 -0.77168708022E+03  0.10023469797E+04  0.46999998093E+01 0. -1.
</event>
<event>
 5   0  0.9220260E-06  0.2001848E+04  0.7818609E-02  0.8605757E-01
        1   -1    0    0  501    0  0.00000000000E+00  0.00000000000E+00  0.35639564086E+03  0.35639564090E+03  0.50400001928E-02 0.  1.
       -1   -1    0    0    0  501  0.00000000000E+00  0.00000000000E+00 -0.28110587586E+04  0.28110587586E+04  0.50400001928E-02 0. -1.
    10030    2    1    2    0    0  0.00000000000E+00  0.00000000000E+00 -0.24546631177E+04  0.31674543995E+04  0.20018482338E+04 0.  0.
        3    1    3    3  502    0 -0.86702991999E+03  0.22872678015E+03 -0.52363753385E+03  0.10383896664E+04  0.10100000352E+00 0.  1.
       -3    1    3    3    0  502  0.86702991999E+03 -0.22872678015E+03 -0.19310255839E+04  0.21290647332E+04  0.10100000352E+00 0. -1.
</event>
<event>
 5   0  0.2038882E-05  0.2001002E+04  0.7818609E-02  0.8606152E-01
        2   -1    0    0  501    0  0.00000000000E+00  0.00000000000E+00  0.17481782089E+04  0.17481782089E+04  0.25500000920E-02 0.  1.
       -2   -1    0    0    0  501  0.00000000000E+00  0.00000000000E+00 -0.57259747033E+03  0.57259747034E+03  0.25500000920E-02 0. -1.
    10030    2    1    2    0    0  0.00000000000E+00  0.00000000000E+00  0.11755807385E+04  0.23207756792E+04  0.20010021690E+04 0.  0.
        3    1    3    3  502    0 -0.36286125017E+02  0.97160195527E+03  0.31412669630E+03  0.10217644709E+04  0.10100000352E+00 0.  1.
       -3    1    3    3    0  502  0.36286125017E+02 -0.97160195527E+03  0.86145404224E+03  0.12990112084E+04  0.10100000352E+00 0. -1.
</event>
<event>
 5   0  0.9140695E-06  0.1999776E+04  0.7818609E-02  0.8606725E-01
       -1   -1    0    0    0  501  0.00000000000E+00  0.00000000000E+00  0.59952139757E+03  0.59952139759E+03  0.50400001928E-02 0.  1.
        1   -1    0    0  501    0  0.00000000000E+00  0.00000000000E+00 -0.16676242252E+04  0.16676242252E+04  0.50400001928E-02 0. -1.
    10030    2    1    2    0    0  0.00000000000E+00  0.00000000000E+00 -0.10681028276E+04  0.22671456227E+04  0.19997763936E+04 0.  0.
        1    1    3    3  502    0 -0.38218435650E+02 -0.95566476723E+03 -0.86461886345E+03  0.12893105038E+04  0.50400001928E-02 0. -1.
       -1    1    3    3    0  502  0.38218435650E+02  0.95566476723E+03 -0.20348396413E+03  0.97783511894E+03  0.50400001928E-02 0.  1.
</event>
<event>
 5   0  0.9220260E-06  0.1992204E+04  0.7818609E-02  0.8610274E-01
       -1   -1    0    0    0  501  0.00000000000E+00  0.00000000000E+00  0.59381982795E+03  0.59381982798E+03  0.50400001928E-02 0.  1.
        1   -1    0    0  501    0  0.00000000000E+00  0.00000000000E+00 -0.16709093652E+04  0.16709093652E+04  0.50400001928E-02 0. -1.
    10030    2    1    2    0    0  0.00000000000E+00  0.00000000000E+00 -0.10770895372E+04  0.22647291932E+04  0.19922039171E+04 0.  0.
        3    1    3    3  502    0 -0.35460984622E+03  0.88806095134E+03 -0.85566539383E+03  0.12831849721E+04  0.10100000352E+00 0.  1.
       -3    1    3    3    0  502  0.35460984622E+03 -0.88806095134E+03 -0.22142414339E+03  0.98154422102E+03  0.10100000352E+00 0. -1.
</event>
<event>
 5   0  0.9333353E-06  0.2010405E+04  0.7818609E-02  0.8601771E-01
       -1   -1    0    0    0  501  0.00000000000E+00  0.00000000000E+00  0.58529736806E+03  0.58529736808E+03  0.50400001928E-02 0. -1.
        1   -1    0    0  501    0  0.00000000000E+00  0.00000000000E+00 -0.17263573560E+04  0.17263573560E+04  0.50400001928E-02 0.  1.
    10030    2    1    2    0    0  0.00000000000E+00  0.00000000000E+00 -0.11410599879E+04  0.23116547240E+04  0.20104053490E+04 0.  0.
        2    1    3    3  502    0 -0.43633731769E+03  0.25934952320E+03 -0.15681688787E+04  0.16482736612E+04  0.25500000920E-02 0.  1.
       -2    1    3    3    0  502  0.43633731769E+03 -0.25934952320E+03  0.42710889079E+03  0.66338106288E+03  0.25500000920E-02 0. -1.
</event>
<event>
 5   0  0.9342635E-06  0.1998143E+04  0.7818609E-02  0.8607489E-01
        1   -1    0    0  501    0  0.00000000000E+00  0.00000000000E+00  0.11083089219E+04  0.11083089219E+04  0.50400001928E-02 0.  1.
       -1   -1    0    0    0  501  0.00000000000E+00  0.00000000000E+00 -0.90060057354E+03  0.90060057355E+03  0.50400001928E-02 0. -1.
    10030    2    1    2    0    0  0.00000000000E+00  0.00000000000E+00  0.20770834832E+03  0.20089094954E+04  0.19981427884E+04 0.  0.
        5    1    3    3  502    0 -0.63387604792E+03 -0.41793283200E+03  0.75670267192E+03  0.10719550923E+04  0.46999998093E+01 0.  1.
       -5    1    3    3    0  502  0.63387604792E+03  0.41793283200E+03 -0.54899432361E+03  0.93695440313E+03  0.46999998093E+01 0. -1.
</event>
<event>
 5   0  0.2003576E-05  0.1998558E+04  0.7818609E-02  0.8607295E-01
       -2   -1    0    0    0  501  0.00000000000E+00  0.00000000000E+00  0.39608472849E+03  0.39608472850E+03  0.25500000920E-02 0.  1.
        2   -1    0    0  501    0  0.00000000000E+00  0.00000000000E+00 -0.25210739286E+04  0.25210739286E+04  0.25500000920E-02 0. -1.
    10030    2    1    2    0    0  0.00000000000E+00  0.00000000000E+00 -0.21249892001E+04  0.29171586571E+04  0.19985583630E+04 0.  0.
        4    1    3    3  502    0  0.27689985570E+03 -0.62201206208E+03 -0.21301077379E+04  0.22362766205E+04  0.12699999809E+01 0. -1.
       -4    1    3    3    0  502 -0.27689985570E+03  0.62201206208E+03  0.51185377680E+01  0.68088203662E+03  0.12699999809E+01 0.  1.
</event>
<event>
 5   0  0.1999142E-05  0.1994751E+04  0.7818609E-02  0.8609079E-01
        2   -1    0    0  501    0  0.00000000000E+00  0.00000000000E+00  0.76871590908E+03  0.76871590909E+03  0.25500000920E-02 0. -1.
       -2   -1    0    0    0  501  0.00000000000E+00  0.00000000000E+00 -0.12940518390E+04  0.12940518390E+04  0.25500000920E-02 0.  1.
    10030    2    1    2    0    0  0.00000000000E+00  0.00000000000E+00 -0.52533592992E+03  0.20627677481E+04  0.19947513487E+04 0.  0.
        1    1    3    3  502    0 -0.86379381692E+03  0.10039145265E+03  0.24239113840E+03  0.90275781133E+03  0.50400001928E-02 0. -1.
       -1    1    3    3    0  502  0.86379381692E+03 -0.10039145265E+03 -0.76772706832E+03  0.11600099368E+04  0.50400001928E-02 0.  1.
</event>
<event>
 5   0  0.9370269E-06  0.1999832E+04  0.7818609E-02  0.8606699E-01
        1   -1    0    0  501    0  0.00000000000E+00  0.00000000000E+00  0.67200349906E+03  0.67200349908E+03  0.50400001928E-02 0.  1.
       -1   -1    0    0    0  501  0.00000000000E+00  0.00000000000E+00 -0.14878372950E+04  0.14878372950E+04  0.50400001928E-02 0. -1.
    10030    2    1    2    0    0  0.00000000000E+00  0.00000000000E+00 -0.81583379595E+03  0.21598407941E+04  0.19998318612E+04 0.  0.
        4    1    3    3  502    0 -0.30129951604E+03 -0.85833555597E+03  0.40396945545E+02  0.91057940408E+03  0.12699999809E+01 0.  1.
       -4    1    3    3    0  502  0.30129951604E+03  0.85833555597E+03 -0.85623074149E+03  0.12492613900E+04  0.12699999809E+01 0. -1.
</event>
<event>
 5   0  0.1979765E-05  0.1999599E+04  0.7818609E-02  0.8606808E-01
       -2   -1    0    0    0  501  0.00000000000E+00  0.00000000000E+00  0.43480040484E+03  0.43480040485E+03  0.25500000920E-02 0.  1.
        2   -1    0    0  501    0  0.00000000000E+00  0.00000000000E+00 -0.22989845024E+04  0.22989845024E+04  0.25500000920E-02 0. -1.
    10030    2    1    2    0    0  0.00000000000E+00  0.00000000000E+00 -0.18641840976E+04  0.27337849073E+04  0.19995993523E+04 0.  0.
        2    1    3    3  502    0  0.12362036013E+03  0.46480613588E+03 -0.21304292505E+04  0.21840456792E+04  0.25500000920E-02 0. -1.
       -2    1    3    3    0  502 -0.12362036013E+03 -0.46480613588E+03  0.26624515295E+03  0.54973922806E+03  0.25500000920E-02 0.  1.
</event>
<event>
 5   0  0.9342635E-06  0.2000645E+04  0.7818609E-02  0.8606319E-01
       -1   -1    0    0    0  501  0.00000000000E+00  0.00000000000E+00  0.44571674922E+03  0.44571674925E+03  0.50400001928E-02 0.  1.
        1   -1    0    0  501    0  0.00000000000E+00  0.00000000000E+00 -0.22450254181E+04  0.22450254181E+04  0.50400001928E-02 0. -1.
    10030    2    1    2    0    0  0.00000000000E+00  0.00000000000E+00 -0.17993086689E+04  0.26907421674E+04  0.20006453272E+04 0.  0.
        5    1    3    3  502    0  0.38503507211E+03 -0.49726056044E+03 -0.19458591880E+04  0.20449719169E+04  0.46999998093E+01 0. -1.
       -5    1    3    3    0  502 -0.38503507211E+03  0.49726056044E+03  0.14655051905E+03  0.64577025044E+03  0.46999998093E+01 0.  1.
</event>
<event>
 5   0  0.1979765E-05  0.1999374E+04  0.7818609E-02  0.8606913E-01
       -2   -1    0    0    0  501  0.00000000000E+00  0.00000000000E+00  0.39616701727E+03  0.39616701727E+03  0.25500000920E-02 0. -1.
        2   -1    0    0  501    0  0.00000000000E+00  0.00000000000E+00 -0.25226075582E+04  0.25226075582E+04  0.25500000920E-02 0.  1.
    10030    2    1    2    0    0  0.00000000000E+00  0.00000000000E+00 -0.21264405409E+04  0.29187745755E+04  0.19993738141E+04 0.  0.
        2    1    3    3  502    0 -0.26340805617E+03 -0.57416590286E+03  0.67875222373E+02  0.63534032918E+03  0.25500000920E-02 0. -1.
       -2    1    3    3    0  502  0.26340805617E+03  0.57416590286E+03 -0.21943157633E+04  0.22834342463E+04  0.25500000920E-02 0.  1.
</event>
<event>
 5   0  0.9370269E-06  0.2001438E+04  0.7818609E-02  0.8605949E-01
        1   -1    0    0  501    0  0.00000000000E+00  0.00000000000E+00  0.12249849520E+04  0.12249849520E+04  0.50400001928E-02 0. -1.
       -1   -1    0    0    0  501  0.00000000000E+00  0.00000000000E+00 -0.81751047827E+03  0.81751047828E+03  0.50400001928E-02 0.  1.
    10030    2    1    2    0    0  0.00000000000E+00  0.00000000000E+00  0.40747447376E+03  0.20424954303E+04  0.20014375174E+04 0.  0.
        4    1    3    3  502    0 -0.15448990982E+03 -0.32924548434E+03  0.11551535565E+04  0.12110537037E+04  0.12699999809E+01 0. -1.
       -4    1    3    3    0  502  0.15448990982E+03  0.32924548434E+03 -0.74767908272E+03  0.83144172666E+03  0.12699999809E+01 0.  1.
</event>
<event>
 5   0  0.9370269E-06  0.2002469E+04  0.7818609E-02  0.8605467E-01
        1   -1    0    0  501    0  0.00000000000E+00  0.00000000000E+00  0.83731535632E+03  0.83731535634E+03  0.50400001928E-02 0.  1.
       -1   -1    0    0    0  501  0.00000000000E+00  0.00000000000E+00 -0.11972430904E+04  0.11972430904E+04  0.50400001928E-02 0. -1.
    10030    2    1    2    0    0  0.00000000000E+00  0.00000000000E+00 -0.35992773406E+03  0.20345584467E+04  0.20024685015E+04 0.  0.
        4    1    3    3  502    0 -0.52480826030E+03  0.58656841667E+03 -0.80873669918E+03  0.11285135706E+04  0.12699999809E+01 0. -1.
       -4    1    3    3    0  502  0.52480826030E+03 -0.58656841667E+03  0.44880896511E+03  0.90604487614E+03  0.12699999809E+01 0.  1.
</event>
<event>
 5   0  0.9333353E-06  0.1995977E+04  0.7818609E-02  0.8608504E-01
        1   -1    0    0  501    0  0.00000000000E+00  0.00000000000E+00  0.99651378024E+03  0.99651378025E+03  0.50400001928E-02 0.  1.
       -1   -1    0    0    0  501  0.00000000000E+00  0.00000000000E+00 -0.99946559884E+03  0.99946559885E+03  0.50400001928E-02 0. -1.
    10030    2    1    2    0    0  0.00000000000E+00  0.00000000000E+00 -0.29518186002E+01  0.19959793791E+04  0.19959771964E+04 0.  0.
        2    1    3    3  502    0 -0.84955238680E+03 -0.13960887793E+03 -0.50620544340E+03  0.99873612513E+03  0.25500000920E-02 0. -1.
       -2    1    3    3    0  502  0.84955238680E+03  0.13960887793E+03  0.50325362480E+03  0.99724325397E+03  0.25500000920E-02 0.  1.
</event>
<event>
 5   0  0.1979765E-05  0.1999300E+04  0.7818609E-02  0.8606948E-01
       -2   -1    0    0    0  501  0.00000000000E+00  0.00000000000E+00  0.91020555606E+03  0.91020555606E+03  0.25500000920E-02 0. -1.
        2   -1    0    0  501    0  0.00000000000E+00  0.00000000000E+00 -0.10978835721E+04  0.10978835721E+04  0.25500000920E-02 0.  1.
    10030    2    1    2    0    0  0.00000000000E+00  0.00000000000E+00 -0.18767801600E+03  0.20080891281E+04  0.19992996046E+04 0.  0.
        2    1    3    3  502    0 -0.14578087656E+03  0.28994287026E+03  0.85582329595E+03  0.91528817642E+03  0.25500000920E-02 0. -1.
       -2    1    3    3    0  502  0.14578087656E+03 -0.28994287026E+03 -0.10435013120E+04  0.10928009517E+04  0.25500000920E-02 0.  1.
</event>
<event>
 5   0  0.9342635E-06  0.2002727E+04  0.7818609E-02  0.8605347E-01
       -1   -1    0    0    0  501  0.00000000000E+00  0.00000000000E+00  0.86772927184E+03  0.86772927186E+03  0.50400001928E-02 0. -1.
        1   -1    0    0  501    0  0.00000000000E+00  0.00000000000E+00 -0.11555779647E+04  0.11555779647E+04  0.50400001928E-02 0.  1.
    10030    2    1    2    0    0  0.00000000000E+00  0.00000000000E+00 -0.28784869286E+03  0.20233072366E+04  0.20027269668E+04 0.  0.
        5    1    3    3  502    0 -0.26882589709E+03  0.47583661883E+03 -0.99160494591E+03  0.11322501091E+04  0.46999998093E+01 0.  1.
       -5    1    3    3    0  502  0.26882589709E+03 -0.47583661883E+03  0.70375625304E+03  0.89105712750E+03  0.46999998093E+01 0. -1.
</event>
<event>
 5   0  0.2020029E-05  0.1998157E+04  0.7818609E-02  0.8607483E-01
        2   -1    0    0  501    0  0.00000000000E+00  0.00000000000E+00  0.29899178947E+04  0.29899178947E+04  0.25500000920E-02 0.  1.
       -2   -1    0    0    0  501  0.00000000000E+00  0.00000000000E+00 -0.33384111012E+03  0.33384111013E+03  0.25500000920E-02 0. -1.
    10030    2    1    2    0    0  0.00000000000E+00  0.00000000000E+00  0.26560767845E+04  0.33237590048E+04  0.19981566597E+04 0.  0.
        5    1    3    3  502    0  0.32489972549E+03 -0.83964519628E+03  0.20484545666E+04  0.22375772810E+04  0.46999998093E+01 0.  1.
       -5    1    3    3    0  502 -0.32489972549E+03  0.83964519628E+03  0.60762221795E+03  0.10861817237E+04  0.46999998093E+01 0. -1.
</event>
<event>
 5   0  0.2020029E-05  0.1994817E+04  0.7818609E-02  0.8609048E-01
        2   -1    0    0  501    0  0.00000000000E+00  0.00000000000E+00  0.87407269686E+03  0.87407269686E+03  0.25500000920E-02 0.  1.
       -2   -1    0    0    0  501  0.00000000000E+00  0.00000000000E+00 -0.11381470307E+04  0.11381470307E+04  0.25500000920E-02 0. -1.
    10030    2    1    2    0    0  0.00000000000E+00  0.00000000000E+00 -0.26407433387E+03  0.20122197276E+04  0.19948165275E+04 0.  0.
        5    1    3    3  502    0  0.81328412276E+03  0.49180699694E+03  0.17308476310E+03  0.96606708451E+03  0.46999998093E+01 0.  1.
       -5    1    3    3    0  502 -0.81328412276E+03 -0.49180699694E+03 -0.43715909697E+03  0.10461526431E+04  0.46999998093E+01 0. -1.
</event>
<event>
 5   0  0.2003576E-05  0.1999450E+04  0.7818609E-02  0.8606878E-01
        2   -1    0    0  501    0  0.00000000000E+00  0.00000000000E+00  0.12288238000E+04  0.12288238000E+04  0.25500000920E-02 0. -1.
       -2   -1    0    0    0  501  0.00000000000E+00  0.00000000000E+00 -0.81333913178E+03  0.81333913178E+03  0.25500000920E-02 0.  1.
    10030    2    1    2    0    0  0.00000000000E+00  0.00000000000E+00  0.41548466819E+03  0.20421629317E+04  0.19994504071E+04 0.  0.
        4    1    3    3  502    0 -0.94311761445E+03  0.27587425071E+03  0.39571579439E+03  0.10593252757E+04  0.12699999809E+01 0. -1.
       -4    1    3    3    0  502  0.94311761445E+03 -0.27587425071E+03  0.19768873793E+02  0.98283765606E+03  0.12699999809E+01 0.  1.
</event>
<event>
 5   0  0.9370269E-06  0.1999741E+04  0.7818609E-02  0.8606742E-01
       -1   -1    0    0    0  501  0.00000000000E+00  0.00000000000E+00  0.10274900622E+04  0.10274900622E+04  0.50400001928E-02 0.  1.
        1   -1    0    0  501    0  0.00000000000E+00  0.00000000000E+00 -0.97299319155E+03  0.97299319156E+03  0.50400001928E-02 0. -1.
    10030    2    1    2    0    0  0.00000000000E+00  0.00000000000E+00  0.54496870642E+02  0.20004832538E+04  0.19997408181E+04 0.  0.
        4    1    3    3  502    0  0.50435705499E+03 -0.46112347826E+03 -0.70290494725E+03  0.98035089580E+03  0.12699999809E+01 0. -1.
       -4    1    3    3    0  502 -0.50435705499E+03  0.46112347826E+03  0.75740181789E+03  0.10201323580E+04  0.12699999809E+01 0.  1.
</event>
<event>
 5   0  0.9333353E-06  0.1999372E+04  0.7818609E-02  0.8606914E-01
       -1   -1    0    0    0  501  0.00000000000E+00  0.00000000000E+00  0.96178306219E+03  0.96178306220E+03  0.50400001928E-02 0.  1.
        1   -1    0    0  501    0  0.00000000000E+00  0.00000000000E+00 -0.10390822939E+04  0.10390822939E+04  0.50400001928E-02 0. -1.
    10030    2    1    2    0    0  0.00000000000E+00  0.00000000000E+00 -0.77299231707E+02  0.20008653561E+04  0.19993716518E+04 0.  0.
        2    1    3    3  502    0 -0.78362176463E+03  0.36358545645E+03  0.46483090449E+03  0.98098176534E+03  0.25500000920E-02 0.  1.
       -2    1    3    3    0  502  0.78362176463E+03 -0.36358545645E+03 -0.54213013620E+03  0.10198835908E+04  0.25500000920E-02 0. -1.
</event>
<event>
 5   0  0.1979765E-05  0.1999213E+04  0.7818609E-02  0.8606989E-01
        2   -1    0    0  501    0  0.00000000000E+00  0.00000000000E+00  0.70363395615E+03  0.70363395616E+03  0.25500000920E-02 0.  1.
       -2   -1    0    0    0  501  0.00000000000E+00  0.00000000000E+00 -0.14200747587E+04  0.14200747587E+04  0.25500000920E-02 0. -1.
    10030    2    1    2    0    0  0.00000000000E+00  0.00000000000E+00 -0.71644080251E+03  0.21237087148E+04  0.19992126655E+04 0.  0.
        2    1    3    3  502    0  0.88481355899E+03 -0.79487791217E+00 -0.85228238229E+03  0.12285279505E+04  0.25500000920E-02 0. -1.
       -2    1    3    3    0  502 -0.88481355899E+03  0.79487791217E+00  0.13584157978E+03  0.89518076432E+03  0.25500000920E-02 0.  1.
</event>
<event>
 5   0  0.9333353E-06  0.2000896E+04  0.7818609E-02  0.8606202E-01
        1   -1    0    0  501    0  0.00000000000E+00  0.00000000000E+00  0.12303832861E+04  0.12303832861E+04  0.50400001928E-02 0. -1.
       -1   -1    0    0    0  501  0.00000000000E+00  0.00000000000E+00 -0.81348327936E+03  0.81348327937E+03  0.50400001928E-02 0.  1.
    10030    2    1    2    0    0  0.00000000000E+00  0.00000000000E+00  0.41690000676E+03  0.20438665655E+04  0.20008960298E+04 0.  0.
        2    1    3    3  502    0 -0.34860590187E+02  0.49222003291E+03 -0.68052752805E+03  0.84060307993E+03  0.25500000920E-02 0.  1.
       -2    1    3    3    0  502  0.34860590187E+02 -0.49222003291E+03  0.10974275348E+04  0.12032634856E+04  0.25500000920E-02 0. -1.
</event>
<event>
 5   0  0.2038882E-05  0.2005504E+04  0.7818609E-02  0.8604052E-01
       -2   -1    0    0    0  501  0.00000000000E+00  0.00000000000E+00  0.11440560152E+04  0.11440560152E+04  0.25500000920E-02 0. -1.
        2   -1    0    0  501    0  0.00000000000E+00  0.00000000000E+00 -0.87890059085E+03  0.87890059085E+03  0.25500000920E-02 0.  1.
    10030    2    1    2    0    0  0.00000000000E+00  0.00000000000E+00  0.26515542434E+03  0.20229566060E+04  0.20055039344E+04 0.  0.
        3    1    3    3  502    0 -0.38444821365E+03  0.91638522098E+03 -0.25627936170E+01  0.99376500257E+03  0.10100000352E+00 0.  1.
       -3    1    3    3    0  502  0.38444821365E+03 -0.91638522098E+03  0.26771821795E+03  0.10291916035E+04  0.10100000352E+00 0. -1.
</event>
<event>
 5   0  0.2020029E-05  0.1995499E+04  0.7818609E-02  0.8608728E-01
       -2   -1    0    0    0  501  0.00000000000E+00  0.00000000000E+00  0.84217625215E+03  0.84217625215E+03  0.25500000920E-02 0.  1.
        2   -1    0    0  501    0  0.00000000000E+00  0.00000000000E+00 -0.11820608473E+04  0.11820608473E+04  0.25500000920E-02 0. -1.
    10030    2    1    2    0    0  0.00000000000E+00  0.00000000000E+00 -0.33988459515E+03  0.20242370994E+04  0.19954985083E+04 0.  0.
        5    1    3    3  502    0 -0.55637268915E+01  0.30622504846E+03 -0.11331842917E+04  0.11738541069E+04  0.46999998093E+01 0. -1.
       -5    1    3    3    0  502  0.55637268915E+01 -0.30622504846E+03  0.79329969658E+03  0.85038299251E+03  0.46999998093E+01 0.  1.
</event>
<event>
 5   0  0.9342635E-06  0.1999808E+04  0.7818609E-02  0.8606710E-01
        1   -1    0    0  501    0  0.00000000000E+00  0.00000000000E+00  0.15621388926E+04  0.15621388926E+04  0.50400001928E-02 0. -1.
       -1   -1    0    0    0  501  0.00000000000E+00  0.00000000000E+00 -0.64002531741E+03  0.64002531743E+03  0.50400001928E-02 0.  1.
    10030    2    1    2    0    0  0.00000000000E+00  0.00000000000E+00  0.92211357519E+03  0.22021642100E+04  0.19998084314E+04 0.  0.
        5    1    3    3  502    0  0.28797603107E+03  0.94161987790E+03  0.65244864338E+03  0.11812237346E+04  0.46999998093E+01 0. -1.
       -5    1    3    3    0  502 -0.28797603107E+03 -0.94161987790E+03  0.26966493181E+03  0.10209404754E+04  0.46999998093E+01 0.  1.
</event>
<event>
 5   0  0.9220260E-06  0.1997025E+04  0.7818609E-02  0.8608013E-01
        1   -1    0    0  501    0  0.00000000000E+00  0.00000000000E+00  0.11079420467E+04  0.11079420467E+04  0.50400001928E-02 0.  1.
       -1   -1    0    0    0  501  0.00000000000E+00  0.00000000000E+00 -0.89989128312E+03  0.89989128313E+03  0.50400001928E-02 0. -1.
    10030    2    1    2    0    0  0.00000000000E+00  0.00000000000E+00  0.20805076357E+03  0.20078333298E+04  0.19970251776E+04 0.  0.
        3    1    3    3  502    0  0.99624944520E+03 -0.30043392163E+02  0.16444903928E+03  0.10101777364E+04  0.10100000352E+00 0.  1.
       -3    1    3    3    0  502 -0.99624944520E+03  0.30043392163E+02  0.43601724282E+02  0.99765559339E+03  0.10100000352E+00 0. -1.
</event>
<event>
 5   0  0.2038882E-05  0.1999191E+04  0.7818609E-02  0.8606999E-01
        2   -1    0    0  501    0  0.00000000000E+00  0.00000000000E+00  0.16695859968E+04  0.16695859968E+04  0.25500000920E-02 0. -1.
       -2   -1    0    0    0  501  0.00000000000E+00  0.00000000000E+00 -0.59846670527E+03  0.59846670528E+03  0.25500000920E-02 0.  1.
    10030    2    1    2    0    0  0.00000000000E+00  0.00000000000E+00  0.10711192915E+04  0.22680527021E+04  0.19991914672E+04 0.  0.
        3    1    3    3  502    0 -0.11881529192E+03 -0.98489426389E+03  0.67477272236E+03  0.11997716540E+04  0.10100000352E+00 0. -1.
       -3    1    3    3    0  502  0.11881529192E+03  0.98489426389E+03  0.39634656914E+03  0.10682810481E+04  0.10100000352E+00 0.  1.
</event>
<event>
 5   0  0.1999142E-05  0.2000767E+04  0.7818609E-02  0.8606262E-01
       -2   -1    0    0    0  501  0.00000000000E+00  0.00000000000E+00  0.46397473691E+03  0.46397473692E+03  0.25500000920E-02 0. -1.
        2   -1    0    0  501    0  0.00000000000E+00  0.00000000000E+00 -0.21569431750E+04  0.21569431750E+04  0.25500000920E-02 0.  1.
    10030    2    1    2    0    0  0.00000000000E+00  0.00000000000E+00 -0.16929684381E+04  0.26209179120E+04  0.20007669951E+04 0.  0.
        1    1    3    3  502    0 -0.15493013358E+03  0.12819039455E+03 -0.21301955739E+04  0.21396656997E+04  0.50400001928E-02 0.  1.
       -1    1    3    3    0  502  0.15493013358E+03 -0.12819039455E+03  0.43722713574E+03  0.48125221225E+03  0.50400001928E-02 0. -1.
</event>
<event>
 5   0  0.1999142E-05  0.1999493E+04  0.7818609E-02  0.8606858E-01
        2   -1    0    0  501    0  0.00000000000E+00  0.00000000000E+00  0.21199275321E+04  0.21199275321E+04  0.25500000920E-02 0.  1.
       -2   -1    0    0    0  501  0.00000000000E+00  0.00000000000E+00 -0.47147490322E+03  0.47147490323E+03  0.25500000920E-02 0. -1.
    10030    2    1    2    0    0  0.00000000000E+00  0.00000000000E+00  0.16484526289E+04  0.25914024354E+04  0.19994925637E+04 0.  0.
        1    1    3    3  502    0  0.58057581467E+03  0.64943807795E+03  0.18843865542E+03  0.89126158929E+03  0.50400001928E-02 0. -1.
       -1    1    3    3    0  502 -0.58057581467E+03 -0.64943807795E+03  0.14600139735E+04  0.17001408461E+04  0.50400001928E-02 0.  1.
</event>
<event>
 5   0  0.1979765E-05  0.2002134E+04  0.7818609E-02  0.8605624E-01
       -2   -1    0    0    0  501  0.00000000000E+00  0.00000000000E+00  0.53193124822E+03  0.53193124822E+03  0.25500000920E-02 0. -1.
        2   -1    0    0  501    0  0.00000000000E+00  0.00000000000E+00 -0.18839557209E+04  0.18839557209E+04  0.25500000920E-02 0.  1.
    10030    2    1    2    0    0  0.00000000000E+00  0.00000000000E+00 -0.13520244726E+04  0.24158869691E+04  0.20021337799E+04 0.  0.
        2    1    3    3  502    0  0.16397270771E+03  0.96588972211E+03 -0.92419917757E+03  0.13468385664E+04  0.25500000920E-02 0.  1.
       -2    1    3    3    0  502 -0.16397270771E+03 -0.96588972211E+03 -0.42782529508E+03  0.10690484027E+04  0.25500000920E-02 0. -1.
</event>
<event>
 5   0  0.9140695E-06  0.1999514E+04  0.7818609E-02  0.8606848E-01
       -1   -1    0    0    0  501  0.00000000000E+00  0.00000000000E+00  0.63824974002E+03  0.63824974004E+03  0.50400001928E-02 0. -1.
        1   -1    0    0  501    0  0.00000000000E+00  0.00000000000E+00 -0.15660232935E+04  0.15660232935E+04  0.50400001928E-02 0.  1.
    10030    2    1    2    0    0  0.00000000000E+00  0.00000000000E+00 -0.92777355351E+03  0.22042730336E+04  0.19995139009E+04 0.  0.
        1    1    3    3  502    0 -0.62175632157E+03  0.57260197790E+03  0.12469811353E+03  0.85440246257E+03  0.50400001928E-02 0. -1.
       -1    1    3    3    0  502  0.62175632157E+03 -0.57260197790E+03 -0.10524716670E+04  0.13498705710E+04  0.50400001928E-02 0.  1.
</event>
<event>
 5   0  0.1999142E-05  0.1995838E+04  0.7818609E-02  0.8608569E-01
        2   -1    0    0  501    0  0.00000000000E+00  0.00000000000E+00  0.18675777533E+04  0.18675777533E+04  0.25500000920E-02 0.  1.
       -2   -1    0    0    0  501  0.00000000000E+00  0.00000000000E+00 -0.53322653294E+03  0.53322653294E+03  0.25500000920E-02 0. -1.
    10030    2    1    2    0    0  0.00000000000E+00  0.00000000000E+00  0.13343512203E+04  0.24008042862E+04  0.19958376792E+04 0.  0.
        1    1    3    3  502    0  0.98925176820E+03  0.74056563787E+02  0.79750405915E+03  0.12728378372E+04  0.50400001928E-02 0.  1.
       -1    1    3    3    0  502 -0.98925176820E+03 -0.74056563787E+02  0.53684716118E+03  0.11279664490E+04  0.50400001928E-02 0. -1.
</event>
<event>
 5   0  0.2003576E-05  0.2004507E+04  0.7818609E-02  0.8604516E-01
       -2   -1    0    0    0  501  0.00000000000E+00  0.00000000000E+00  0.72333319534E+03  0.72333319535E+03  0.25500000920E-02 0.  1.
        2   -1    0    0  501    0  0.00000000000E+00  0.00000000000E+00 -0.13887271945E+04  0.13887271945E+04  0.25500000920E-02 0. -1.
    10030    2    1    2    0    0  0.00000000000E+00  0.00000000000E+00 -0.66539399917E+03  0.21120603899E+04  0.20045073999E+04 0.  0.
        4    1    3    3  502    0  0.38510154452E+03  0.56013010460E+03 -0.11087355599E+04  0.13005172388E+04  0.12699999809E+01 0. -1.
       -4    1    3    3    0  502 -0.38510154452E+03 -0.56013010460E+03  0.44334156074E+03  0.81154315107E+03  0.12699999809E+01 0.  1.
</event>
<event>
 5   0  0.2038882E-05  0.2000109E+04  0.7818609E-02  0.8606570E-01
       -2   -1    0    0    0  501  0.00000000000E+00  0.00000000000E+00  0.64613104983E+03  0.64613104983E+03  0.25500000920E-02 0. -1.
        2   -1    0    0  501    0  0.00000000000E+00  0.00000000000E+00 -0.15478422149E+04  0.15478422149E+04  0.25500000920E-02 0.  1.
    10030    2    1    2    0    0  0.00000000000E+00  0.00000000000E+00 -0.90171116505E+03  0.21939732647E+04  0.20001089123E+04 0.  0.
        3    1    3    3  502    0 -0.71564067240E+03  0.46488441054E+03  0.12107353728E+03  0.86192685235E+03  0.10100000352E+00 0.  1.
       -3    1    3    3    0  502  0.71564067240E+03 -0.46488441054E+03 -0.10227847023E+04  0.13320464124E+04  0.10100000352E+00 0. -1.
</event>
<event>
 5   0  0.9220260E-06  0.1971353E+04  0.7818609E-02  0.8620133E-01
       -1   -1    0    0    0  501  0.00000000000E+00  0.00000000000E+00  0.83095236084E+03  0.83095236086E+03  0.50400001928E-02 0.  1.
        1   -1    0    0  501    0  0.00000000000E+00  0.00000000000E+00 -0.11692100918E+04  0.11692100918E+04  0.50400001928E-02 0. -1.
    10030    2    1    2    0    0  0.00000000000E+00  0.00000000000E+00 -0.33825773096E+03  0.20001624527E+04  0.19713527195E+04 0.  0.
        3    1    3    3  502    0  0.17263526539E+03  0.64863991434E+03  0.56323790775E+03  0.87622692510E+03  0.10100000352E+00 0.  1.
       -3    1    3    3    0  502 -0.17263526539E+03 -0.64863991434E+03 -0.90149563871E+03  0.11239355276E+04  0.10100000352E+00 0. -1.
</event>
<event>
 5   0  0.9333353E-06  0.1996933E+04  0.7818609E-02  0.8608056E-01
        1   -1    0    0  501    0  0.00000000000E+00  0.00000000000E+00  0.15869771577E+04  0.15869771577E+04  0.50400001928E-02 0.  1.
       -1   -1    0    0    0  501  0.00000000000E+00  0.00000000000E+00 -0.62819786169E+03  0.62819786171E+03  0.50400001928E-02 0. -1.
    10030    2    1    2    0    0  0.00000000000E+00  0.00000000000E+00  0.95877929599E+03  0.22151750194E+04  0.19969333059E+04 0.  0.
        2    1    3    3  502    0 -0.98145927977E+03  0.16548924667E+03  0.39143595668E+03  0.10695191054E+04  0.25500000920E-02 0. -1.
       -2    1    3    3    0  502  0.98145927977E+03 -0.16548924667E+03  0.56734333930E+03  0.11456559140E+04  0.25500000920E-02 0.  1.
</event>
<event>
 5   0  0.1999142E-05  0.1998725E+04  0.7818609E-02  0.8607217E-01
        2   -1    0    0  501    0  0.00000000000E+00  0.00000000000E+00  0.11570014654E+04  0.11570014654E+04  0.25500000920E-02 0. -1.
       -2   -1    0    0    0  501  0.00000000000E+00  0.00000000000E+00 -0.86320164135E+03  0.86320164135E+03  0.25500000920E-02 0.  1.
    10030    2    1    2    0    0  0.00000000000E+00  0.00000000000E+00  0.29379982402E+03  0.20202031067E+04  0.19987251577E+04 0.  0.
        1    1    3    3  502    0 -0.91742265514E+03 -0.36245713975E+03 -0.15091011684E+02  0.98654307812E+03  0.50400001928E-02 0.  1.
       -1    1    3    3    0  502  0.91742265514E+03  0.36245713975E+03  0.30889083571E+03  0.10336600286E+04  0.50400001928E-02 0. -1.
</event>
<event>
 5   0  0.2003576E-05  0.1992396E+04  0.7818609E-02  0.8610184E-01
        2   -1    0    0  501    0  0.00000000000E+00  0.00000000000E+00  0.68955928660E+03  0.68955928660E+03  0.25500000920E-02 0. -1.
       -2   -1    0    0    0  501  0.00000000000E+00  0.00000000000E+00 -0.14391950492E+04  0.14391950492E+04  0.25500000920E-02 0.  1.
    10030    2    1    2    0    0  0.00000000000E+00  0.00000000000E+00 -0.74963576260E+03  0.21287543358E+04  0.19923958557E+04 0.  0.
        4    1    3    3  502    0 -0.27800769144E+02 -0.98205514884E+02 -0.14335931261E+04  0.14372223453E+04  0.12699999809E+01 0.  1.
       -4    1    3    3    0  502  0.27800769144E+02  0.98205514884E+02  0.68395736346E+03  0.69153199048E+03  0.12699999809E+01 0. -1.
</event>
<event>
 5   0  0.2038882E-05  0.2000219E+04  0.7818609E-02  0.8606518E-01
        2   -1    0    0  501    0  0.00000000000E+00  0.00000000000E+00  0.60064082456E+03  0.60064082457E+03  0.25500000920E-02 0. -1.
       -2   -1    0    0    0  501  0.00000000000E+00  0.00000000000E+00 -0.16652533818E+04  0.16652533818E+04  0.25500000920E-02 0.  1.
    10030    2    1    2    0    0  0.00000000000E+00  0.00000000000E+00 -0.10646125572E+04  0.22658942063E+04  0.20002191523E+04 0.  0.
        3    1    3    3  502    0 -0.52315153827E+03  0.35191659364E+03  0.34713676760E+03  0.71974771031E+03  0.10100000352E+00 0. -1.
       -3    1    3    3    0  502  0.52315153827E+03 -0.35191659364E+03 -0.14117493248E+04  0.15461464960E+04  0.10100000352E+00 0.  1.
</event>
<event>
 5   0  0.9140695E-06  0.1986573E+04  0.7818609E-02  0.8612924E-01
       -1   -1    0    0    0  501  0.00000000000E+00  0.00000000000E+00  0.62396364193E+03  0.62396364196E+03  0.50400001928E-02 0. -1.
        1   -1    0    0  501    0  0.00000000000E+00  0.00000000000E+00 -0.15812111692E+04  0.15812111692E+04  0.50400001928E-02 0.  1.
    10030    2    1    2    0    0  0.00000000000E+00  0.00000000000E+00 -0.95724752726E+03  0.22051748112E+04  0.19865732102E+04 0.  0.
        1    1    3    3  502    0 -0.59326636958E+03  0.43333765672E+03  0.26342066464E+03  0.78047226510E+03  0.50400001928E-02 0. -1.
       -1    1    3    3    0  502  0.59326636958E+03 -0.43333765672E+03 -0.12206681919E+04  0.14247025461E+04  0.50400001928E-02 0.  1.
</event>
<event>
 5   0  0.1979765E-05  0.2052222E+04  0.7818609E-02  0.8582587E-01
        2   -1    0    0  501    0  0.00000000000E+00  0.00000000000E+00  0.10641925518E+04  0.10641925518E+04  0.25500000920E-02 0.  1.
       -2   -1    0    0    0  501  0.00000000000E+00  0.00000000000E+00 -0.98939187203E+03  0.98939187204E+03  0.25500000920E-02 0. -1.
    10030    2    1    2    0    0  0.00000000000E+00  0.00000000000E+00  0.74800679787E+02  0.20535844239E+04  0.20522216850E+04 0.  0.
        2    1    3    3  502    0 -0.29084279085E+03 -0.44939269318E+03 -0.83860094500E+03  0.99488434837E+03  0.25500000920E-02 0. -1.
       -2    1    3    3    0  502  0.29084279085E+03  0.44939269318E+03  0.91340162479E+03  0.10587000755E+04  0.25500000920E-02 0.  1.
</event>
<event>
 5   0  0.9140695E-06  0.2000299E+04  0.7818609E-02  0.8606481E-01
        1   -1    0    0  501    0  0.00000000000E+00  0.00000000000E+00  0.21083940501E+04  0.21083940501E+04  0.50400001928E-02 0.  1.
       -1   -1    0    0    0  501  0.00000000000E+00  0.00000000000E+00 -0.47443666126E+03  0.47443666128E+03  0.50400001928E-02 0. -1.
    10030    2    1    2    0    0  0.00000000000E+00  0.00000000000E+00  0.16339573888E+04  0.25828307113E+04  0.20002994114E+04 0.  0.
        1    1    3    3  502    0  0.15380278960E+03  0.60453358468E+03  0.18264330059E+04  0.19300190875E+04  0.50400001928E-02 0.  1.
       -1    1    3    3    0  502 -0.15380278960E+03 -0.60453358468E+03 -0.19247561705E+03  0.65281162388E+03  0.50400001928E-02 0. -1.
</event>
<event>
 5   0  0.9333353E-06  0.2002072E+04  0.7818609E-02  0.8605652E-01
        1   -1    0    0  501    0  0.00000000000E+00  0.00000000000E+00  0.11271003805E+04  0.11271003805E+04  0.50400001928E-02 0.  1.
       -1   -1    0    0    0  501  0.00000000000E+00  0.00000000000E+00 -0.88907207094E+03  0.88907207096E+03  0.50400001928E-02 0. -1.
    10030    2    1    2    0    0  0.00000000000E+00  0.00000000000E+00  0.23802830957E+03  0.20161724515E+04  0.20020723958E+04 0.  0.
        2    1    3    3  502    0  0.19516238829E+03 -0.55470468168E+03  0.93483551753E+03  0.11044016871E+04  0.25500000920E-02 0.  1.
       -2    1    3    3    0  502 -0.19516238829E+03  0.55470468168E+03 -0.69680720796E+03  0.91177076436E+03  0.25500000920E-02 0. -1.
</event>
<event>
 5   0  0.2020029E-05  0.2001010E+04  0.7818609E-02  0.8606148E-01
       -2   -1    0    0    0  501  0.00000000000E+00  0.00000000000E+00  0.62052688974E+03  0.62052688975E+03  0.25500000920E-02 0.  1.
        2   -1    0    0  501    0  0.00000000000E+00  0.00000000000E+00 -0.16131625280E+04  0.16131625280E+04  0.25500000920E-02 0. -1.
    10030    2    1    2    0    0  0.00000000000E+00  0.00000000000E+00 -0.99263563825E+03  0.22336894177E+04  0.20010104709E+04 0.  0.
        5    1    3    3  502    0  0.78173444809E+03  0.38595458163E+03  0.51591776187E+02  0.87335759445E+03  0.46999998093E+01 0.  1.
       -5    1    3    3    0  502 -0.78173444809E+03 -0.38595458163E+03 -0.10442274144E+04  0.13603318233E+04  0.46999998093E+01 0. -1.
</event>
<event>
 5   0  0.9140695E-06  0.1996001E+04  0.7818609E-02  0.8608493E-01
        1   -1    0    0  501    0  0.00000000000E+00  0.00000000000E+00  0.11456443059E+04  0.11456443059E+04  0.50400001928E-02 0.  1.
       -1   -1    0    0    0  501  0.00000000000E+00  0.00000000000E+00 -0.86938373522E+03  0.86938373523E+03  0.50400001928E-02 0. -1.
    10030    2    1    2    0    0  0.00000000000E+00  0.00000000000E+00  0.27626057065E+03  0.20150280411E+04  0.19960005270E+04 0.  0.
        1    1    3    3  502    0  0.20789424323E+02  0.14302815095E+03 -0.85876242916E+03  0.87083991749E+03  0.50400001928E-02 0. -1.
       -1    1    3    3    0  502 -0.20789424323E+02 -0.14302815095E+03  0.11350229998E+04  0.11441881236E+04  0.50400001928E-02 0.  1.
</event>
<event>
 5   0  0.2003576E-05  0.2008174E+04  0.7818609E-02  0.8602808E-01
        2   -1    0    0  501    0  0.00000000000E+00  0.00000000000E+00  0.67890418967E+03  0.67890418967E+03  0.25500000920E-02 0.  1.
       -2   -1    0    0    0  501  0.00000000000E+00  0.00000000000E+00 -0.14850270461E+04  0.14850270461E+04  0.25500000920E-02 0. -1.
    10030    2    1    2    0    0  0.00000000000E+00  0.00000000000E+00 -0.80612285646E+03  0.21639312358E+04  0.20081743783E+04 0.  0.
        4    1    3    3  502    0  0.81469674846E+03  0.18072504433E+03 -0.10047587738E+04  0.13061141375E+04  0.12699999809E+01 0. -1.
       -4    1    3    3    0  502 -0.81469674846E+03 -0.18072504433E+03  0.19863591738E+03  0.85781709833E+03  0.12699999809E+01 0.  1.
</event>
<event>
 5   0  0.9342635E-06  0.1999487E+04  0.7818609E-02  0.8606860E-01
       -1   -1    0    0    0  501  0.00000000000E+00  0.00000000000E+00  0.91292824421E+03  0.91292824423E+03  0.50400001928E-02 0. -1.
        1   -1    0    0  501    0  0.00000000000E+00  0.00000000000E+00 -0.10948145886E+04  0.10948145887E+04  0.50400001928E-02 0.  1.
    10030    2    1    2    0    0  0.00000000000E+00  0.00000000000E+00 -0.18188634443E+03  0.20077428329E+04  0.19994870944E+04 0.  0.
        5    1    3    3  502    0  0.15916675219E+02 -0.82180385240E+03  0.48048485200E+03  0.95210435110E+03  0.46999998093E+01 0. -1.
       -5    1    3    3    0  502 -0.15916675219E+02  0.82180385240E+03 -0.66237119644E+03  0.10556384818E+04  0.46999998093E+01 0.  1.
</event>
<event>
 5   0  0.2038882E-05  0.2015576E+04  0.7818609E-02  0.8599373E-01
        2   -1    0    0  501    0  0.00000000000E+00  0.00000000000E+00  0.88877938067E+03  0.88877938068E+03  0.25500000920E-02 0.  1.
       -2   -1    0    0    0  501  0.00000000000E+00  0.00000000000E+00 -0.11427322420E+04  0.11427322420E+04  0.25500000920E-02 0. -1.
    10030    2    1    2    0    0  0.00000000000E+00  0.00000000000E+00 -0.25395286129E+03  0.20315116226E+04  0.20155761998E+04 0.  0.
        3    1    3    3  502    0 -0.17265384476E+03 -0.41900180162E+03  0.78028745844E+03  0.90234161373E+03  0.10100000352E+00 0.  1.
       -3    1    3    3    0  502  0.17265384476E+03  0.41900180162E+03 -0.10342403197E+04  0.11291700089E+04  0.10100000352E+00 0. -1.
</event>
<event>
 5   0  0.2038882E-05  0.1998148E+04  0.7818609E-02  0.8607487E-01
        2   -1    0    0  501    0  0.00000000000E+00  0.00000000000E+00  0.17185984278E+04  0.17185984278E+04  0.25500000920E-02 0.  1.
       -2   -1    0    0    0  501  0.00000000000E+00  0.00000000000E+00 -0.58079230541E+03  0.58079230541E+03  0.25500000920E-02 0. -1.
    10030    2    1    2    0    0  0.00000000000E+00  0.00000000000E+00  0.11378061224E+04  0.22993907332E+04  0.19981478854E+04 0.  0.
        3    1    3    3  502    0  0.26292412261E+03  0.94126223519E+03  0.80765489870E+03  0.12678367936E+04  0.10100000352E+00 0. -1.
       -3    1    3    3    0  502 -0.26292412261E+03 -0.94126223519E+03  0.33015122371E+03  0.10315539396E+04  0.10100000352E+00 0.  1.
</event>
<event>
 5   0  0.9220260E-06  0.1999528E+04  0.7818609E-02  0.8606841E-01
       -1   -1    0    0    0  501  0.00000000000E+00  0.00000000000E+00  0.88706119001E+03  0.88706119003E+03  0.50400001928E-02 0.  1.
        1   -1    0    0  501    0  0.00000000000E+00  0.00000000000E+00 -0.11267856586E+04  0.11267856586E+04  0.50400001928E-02 0. -1.
    10030    2    1    2    0    0  0.00000000000E+00  0.00000000000E+00 -0.23972446856E+03  0.20138468486E+04  0.19995277715E+04 0.  0.
        3    1    3    3  502    0 -0.64659016081E+03 -0.55323451322E+03 -0.64838735516E+03  0.10698380416E+04  0.10100000352E+00 0. -1.
       -3    1    3    3    0  502  0.64659016081E+03  0.55323451322E+03  0.40866288659E+03  0.94400880704E+03  0.10100000352E+00 0.  1.
</event>
<event>
 5   0  0.1979765E-05  0.1996628E+04  0.7818609E-02  0.8608199E-01
        2   -1    0    0  501    0  0.00000000000E+00  0.00000000000E+00  0.19451039493E+04  0.19451039493E+04  0.25500000920E-02 0.  1.
       -2   -1    0    0    0  501  0.00000000000E+00  0.00000000000E+00 -0.51237918307E+03  0.51237918308E+03  0.25500000920E-02 0. -1.
    10030    2    1    2    0    0  0.00000000000E+00  0.00000000000E+00  0.14327247663E+04  0.24574831324E+04  0.19966279298E+04 0.  0.
        2    1    3    3  502    0  0.67094930229E+03  0.31314319844E+03  0.15405494416E+04  0.17092466794E+04  0.25500000920E-02 0.  1.
       -2    1    3    3    0  502 -0.67094930229E+03 -0.31314319844E+03 -0.10782467537E+03  0.74823645299E+03  0.25500000920E-02 0. -1.
</event>
<event>
 5   0  0.2003576E-05  0.1996791E+04  0.7818609E-02  0.8608122E-01
        2   -1    0    0  501    0  0.00000000000E+00  0.00000000000E+00  0.11835385162E+04  0.11835385162E+04  0.25500000920E-02 0.  1.
       -2   -1    0    0    0  501  0.00000000000E+00  0.00000000000E+00 -0.84221509403E+03  0.84221509403E+03  0.25500000920E-02 0. -1.
    10030    2    1    2    0    0  0.00000000000E+00  0.00000000000E+00  0.34132342214E+03  0.20257536102E+04  0.19967914290E+04 0.  0.
        4    1    3    3  502    0 -0.93923269262E+03  0.69048219617E+02  0.50693078100E+03  0.10695354773E+04  0.12699999809E+01 0. -1.
       -4    1    3    3    0  502  0.93923269262E+03 -0.69048219617E+02 -0.16560735886E+03  0.95621813292E+03  0.12699999809E+01 0.  1.
</event>
<event>
 5   0  0.2003576E-05  0.1999568E+04  0.7818609E-02  0.8606823E-01
        2   -1    0    0  501    0  0.00000000000E+00  0.00000000000E+00  0.14759777221E+04  0.14759777221E+04  0.25500000920E-02 0. -1.
       -2   -1    0    0    0  501  0.00000000000E+00  0.00000000000E+00 -0.67722431997E+03  0.67722431997E+03  0.25500000920E-02 0.  1.
    10030    2    1    2    0    0  0.00000000000E+00  0.00000000000E+00  0.79875340216E+03  0.21532020421E+04  0.19995679625E+04 0.  0.
        4    1    3    3  502    0  0.93102547291E+03  0.13546742885E+03  0.35148104525E+02  0.94148651485E+03  0.12699999809E+01 0.  1.
       -4    1    3    3    0  502 -0.93102547291E+03 -0.13546742885E+03  0.76360529763E+03  0.12117155272E+04  0.12699999809E+01 0. -1.
</event>
<event>
 5   0  0.9370269E-06  0.1993391E+04  0.7818609E-02  0.8609717E-01
        1   -1    0    0  501    0  0.00000000000E+00  0.00000000000E+00  0.14366209967E+04  0.14366209967E+04  0.50400001928E-02 0.  1.
       -1   -1    0    0    0  501  0.00000000000E+00  0.00000000000E+00 -0.69148494030E+03  0.69148494032E+03  0.50400001928E-02 0. -1.
    10030    2    1    2    0    0  0.00000000000E+00  0.00000000000E+00  0.74513605641E+03  0.21281059370E+04  0.19933908640E+04 0.  0.
        4    1    3    3  502    0  0.46934386527E+03 -0.87847416794E+03  0.41250816266E+03  0.10780376268E+04  0.12699999809E+01 0.  1.
       -4    1    3    3    0  502 -0.46934386527E+03  0.87847416794E+03  0.33262789376E+03  0.10500683103E+04  0.12699999809E+01 0. -1.
</event>
<event>
 5   0  0.9220260E-06  0.2003589E+04  0.7818609E-02  0.8604945E-01
       -1   -1    0    0    0  501  0.00000000000E+00  0.00000000000E+00  0.66558027048E+03  0.66558027050E+03  0.50400001928E-02 0.  1.
        1   -1    0    0  501    0  0.00000000000E+00  0.00000000000E+00 -0.15078447820E+04  0.15078447820E+04  0.50400001928E-02 0. -1.
    10030    2    1    2    0    0  0.00000000000E+00  0.00000000000E+00 -0.84226451149E+03  0.21734250525E+04  0.20035885185E+04 0.  0.
        3    1    3    3  502    0 -0.84352799288E+03 -0.15425674539E+03  0.14070657902E+03  0.86898387203E+03  0.10100000352E+00 0.  1.
       -3    1    3    3    0  502  0.84352799288E+03  0.15425674539E+03 -0.98297109050E+03  0.13044411804E+04  0.10100000352E+00 0. -1.
</event>
<event>
 5   0  0.9140695E-06  0.1994215E+04  0.7818609E-02  0.8609330E-01
       -1   -1    0    0    0  501  0.00000000000E+00  0.00000000000E+00  0.63886351642E+03  0.63886351644E+03  0.50400001928E-02 0.  1.
        1   -1    0    0  501    0  0.00000000000E+00  0.00000000000E+00 -0.15562372318E+04  0.15562372318E+04  0.50400001928E-02 0. -1.
    10030    2    1    2    0    0  0.00000000000E+00  0.00000000000E+00 -0.91737371541E+03  0.21951007483E+04  0.19942148233E+04 0.  0.
        1    1    3    3  502    0 -0.33183568169E+02  0.53533775524E+02 -0.15540453950E+04  0.15553212222E+04  0.50400001928E-02 0. -1.
       -1    1    3    3    0  502  0.33183568169E+02 -0.53533775524E+02  0.63667167963E+03  0.63977952608E+03  0.50400001928E-02 0.  1.
</event>
<event>
 5   0  0.9370269E-06  0.1997924E+04  0.7818609E-02  0.8607592E-01
       -1   -1    0    0    0  501  0.00000000000E+00  0.00000000000E+00  0.13857853641E+04  0.13857853641E+04  0.50400001928E-02 0.  1.
        1   -1    0    0  501    0  0.00000000000E+00  0.00000000000E+00 -0.72011491902E+03  0.72011491903E+03  0.50400001928E-02 0. -1.
    10030    2    1    2    0    0  0.00000000000E+00  0.00000000000E+00  0.66567044512E+03  0.21059002832E+04  0.19979236375E+04 0.  0.
        4    1    3    3  502    0 -0.90762091498E+03 -0.11458516457E+02 -0.10686188416E+03  0.91396285378E+03  0.12699999809E+01 0.  1.
       -4    1    3    3    0  502  0.90762091498E+03  0.11458516457E+02  0.77253232928E+03  0.11919374294E+04  0.12699999809E+01 0. -1.
</event>
<event>
 5   0  0.9140695E-06  0.1998340E+04  0.7818609E-02  0.8607397E-01
        1   -1    0    0  501    0  0.00000000000E+00  0.00000000000E+00  0.12941210309E+04  0.12941210309E+04  0.50400001928E-02 0.  1.
       -1   -1    0    0    0  501  0.00000000000E+00  0.00000000000E+00 -0.77144307350E+03  0.77144307352E+03  0.50400001928E-02 0. -1.
    10030    2    1    2    0    0  0.00000000000E+00  0.00000000000E+00  0.52267795744E+03  0.20655641045E+04  0.19983400167E+04 0.  0.
        1    1    3    3  502    0  0.60106635467E+03 -0.23645686152E+03 -0.52663649872E+03  0.83338983188E+03  0.50400001928E-02 0. -1.
       -1    1    3    3    0  502 -0.60106635467E+03  0.23645686152E+03  0.10493144562E+04  0.12321742726E+04  0.50400001928E-02 0.  1.
</event>
<event>
 5   0  0.1979765E-05  0.1998260E+04  0.7818609E-02  0.8607435E-01
        2   -1    0    0  501    0  0.00000000000E+00  0.00000000000E+00  0.85295635452E+03  0.85295635452E+03  0.25500000920E-02 0. -1.
       -2   -1    0    0    0  501  0.00000000000E+00  0.00000000000E+00 -0.11703539762E+04  0.11703539762E+04  0.25500000920E-02 0.  1.
    10030    2    1    2    0    0  0.00000000000E+00  0.00000000000E+00 -0.31739762171E+03  0.20233103308E+04  0.19982601043E+04 0.  0.
        2    1    3    3  502    0 -0.93544081988E+02  0.88374148032E+03 -0.62105358204E+03  0.10841849709E+04  0.25500000920E-02 0.  1.
       -2    1    3    3    0  502  0.93544081988E+02 -0.88374148032E+03  0.30365596033E+03  0.93912535988E+03  0.25500000920E-02 0. -1.
</event>
<event>
 5   0  0.9370269E-06  0.2001113E+04  0.7818609E-02  0.8606101E-01
        1   -1    0    0  501    0  0.00000000000E+00  0.00000000000E+00  0.14453346654E+04  0.14453346654E+04  0.50400001928E-02 0. -1.
       -1   -1    0    0    0  501  0.00000000000E+00  0.00000000000E+00 -0.69265131685E+03  0.69265131687E+03  0.50400001928E-02 0.  1.
    10030    2    1    2    0    0  0.00000000000E+00  0.00000000000E+00  0.75268334859E+03  0.21379859823E+04  0.20011126498E+04 0.  0.
        4    1    3    3  502    0  0.20338718965E+03 -0.83432860042E+03 -0.17223787503E+03  0.87586417948E+03  0.12699999809E+01 0.  1.
       -4    1    3    3    0  502 -0.20338718965E+03  0.83432860042E+03  0.92492122362E+03  0.12621218028E+04  0.12699999809E+01 0. -1.
</event>
<event>
 5   0  0.1979765E-05  0.1996660E+04  0.7818609E-02  0.8608184E-01
        2   -1    0    0  501    0  0.00000000000E+00  0.00000000000E+00  0.16495483502E+04  0.16495483502E+04  0.25500000920E-02 0. -1.
       -2   -1    0    0    0  501  0.00000000000E+00  0.00000000000E+00 -0.60420327499E+03  0.60420327500E+03  0.25500000920E-02 0.  1.
    10030    2    1    2    0    0  0.00000000000E+00  0.00000000000E+00  0.10453450752E+04  0.22537516252E+04  0.19966597261E+04 0.  0.
        2    1    3    3  502    0  0.66212877217E+03 -0.48415739124E+03  0.11650155275E+04  0.14248101873E+04  0.25500000920E-02 0. -1.
       -2    1    3    3    0  502 -0.66212877217E+03  0.48415739124E+03 -0.11967045225E+03  0.82894143797E+03  0.25500000920E-02 0.  1.
</event>
<event>
 5   0  0.9140695E-06  0.2004321E+04  0.7818609E-02  0.8604603E-01
        1   -1    0    0  501    0  0.00000000000E+00  0.00000000000E+00  0.10850044578E+04  0.10850044578E+04  0.50400001928E-02 0. -1.
       -1   -1    0    0    0  501  0.00000000000E+00  0.00000000000E+00 -0.92564190504E+03  0.92564190506E+03  0.50400001928E-02 0.  1.
    10030    2    1    2    0    0  0.00000000000E+00  0.00000000000E+00  0.15936255271E+03  0.20106463628E+04  0.20043209257E+04 0.  0.
        1    1    3    3  502    0  0.37973457636E+03  0.67765082959E+03 -0.55549672752E+03  0.95497937655E+03  0.50400001928E-02 0.  1.
       -1    1    3    3    0  502 -0.37973457636E+03 -0.67765082959E+03  0.71485928024E+03  0.10556669863E+04  0.50400001928E-02 0. -1.
</event>
<event>
 5   0  0.9220260E-06  0.1986824E+04  0.7818609E-02  0.8612806E-01
       -1   -1    0    0    0  501  0.00000000000E+00  0.00000000000E+00  0.17252412659E+04  0.17252412659E+04  0.50400001928E-02 0. -1.
        1   -1    0    0  501    0  0.00000000000E+00  0.00000000000E+00 -0.57201720883E+03  0.57201720885E+03  0.50400001928E-02 0.  1.
    10030    2    1    2    0    0  0.00000000000E+00  0.00000000000E+00  0.11532240570E+04  0.22972584747E+04  0.19868242937E+04 0.  0.
        3    1    3    3  502    0  0.52048912052E+03  0.82988378756E+03  0.38573798909E+03  0.10528104444E+04  0.10100000352E+00 0.  1.
       -3    1    3    3    0  502 -0.52048912052E+03 -0.82988378756E+03  0.76748606796E+03  0.12444480303E+04  0.10100000352E+00 0. -1.
</event>
<event>
 5   0  0.1979765E-05  0.2000723E+04  0.7818609E-02  0.8606283E-01
        2   -1    0    0  501    0  0.00000000000E+00  0.00000000000E+00  0.20115096049E+04  0.20115096049E+04  0.25500000920E-02 0.  1.
       -2   -1    0    0    0  501  0.00000000000E+00  0.00000000000E+00 -0.49749854932E+03  0.49749854932E+03  0.25500000920E-02 0. -1.
    10030    2    1    2    0    0  0.00000000000E+00  0.00000000000E+00  0.15140110556E+04  0.25090081542E+04  0.20007229797E+04 0.  0.
        2    1    3    3  502    0  0.16205472709E+03  0.73206470349E+03  0.15874699442E+04  0.17556313076E+04  0.25500000920E-02 0.  1.
       -2    1    3    3    0  502 -0.16205472709E+03 -0.73206470349E+03 -0.73458888581E+02  0.75337684660E+03  0.25500000920E-02 0. -1.
</event>
<event>
 5   0  0.1999142E-05  0.1998486E+04  0.7818609E-02  0.8607329E-01
        2   -1    0    0  501    0  0.00000000000E+00  0.00000000000E+00  0.17968459785E+04  0.17968459785E+04  0.25500000920E-02 0. -1.
       -2   -1    0    0    0  501  0.00000000000E+00  0.00000000000E+00 -0.55568831587E+03  0.55568831588E+03  0.25500000920E-02 0.  1.
    10030    2    1    2    0    0  0.00000000000E+00  0.00000000000E+00  0.12411576626E+04  0.23525342943E+04  0.19984857424E+04 0.  0.
        1    1    3    3  502    0 -0.57839717958E+03 -0.55434720163E+03 -0.82414609534E+02  0.80537959075E+03  0.50400001928E-02 0.  1.
       -1    1    3    3    0  502  0.57839717958E+03  0.55434720163E+03  0.13235722721E+04  0.15471547036E+04  0.50400001928E-02 0. -1.
</event>
<event>
 5   0  0.2020029E-05  0.2003915E+04  0.7818609E-02  0.8604792E-01
       -2   -1    0    0    0  501  0.00000000000E+00  0.00000000000E+00  0.10943547281E+04  0.10943547281E+04  0.25500000920E-02 0.  1.
        2   -1    0    0  501    0  0.00000000000E+00  0.00000000000E+00 -0.91736148089E+03  0.91736148089E+03  0.25500000920E-02 0. -1.
    10030    2    1    2    0    0  0.00000000000E+00  0.00000000000E+00  0.17699324717E+03  0.20117162090E+04  0.20039150421E+04 0.  0.
        5    1    3    3  502    0  0.46026473279E+03  0.70115288490E+03  0.63875250155E+03  0.10542702882E+04  0.46999998093E+01 0.  1.
       -5    1    3    3    0  502 -0.46026473279E+03 -0.70115288490E+03 -0.46175925438E+03  0.95744592080E+03  0.46999998093E+01 0. -1.
</event>
<event>
 5   0  0.9370269E-06  0.2000813E+04  0.7818609E-02  0.8606241E-01
        1   -1    0    0  501    0  0.00000000000E+00  0.00000000000E+00  0.13233397663E+04  0.13233397663E+04  0.50400001928E-02 0. -1.
       -1   -1    0    0    0  501  0.00000000000E+00  0.00000000000E+00 -0.75627827177E+03  0.75627827178E+03  0.50400001928E-02 0.  1.
    10030    2    1    2    0    0  0.00000000000E+00  0.00000000000E+00  0.56706149452E+03  0.20796180381E+04  0.20008129462E+04 0.  0.
        4    1    3    3  502    0 -0.66671757845E+03  0.66629891492E+03  0.63191122984E+03  0.11348039429E+04  0.12699999809E+01 0. -1.
       -4    1    3    3    0  502  0.66671757845E+03 -0.66629891492E+03 -0.64849735320E+02  0.94481409521E+03  0.12699999809E+01 0.  1.
</event>
<event>
 5   0  0.9140695E-06  0.2012602E+04  0.7818609E-02  0.8600751E-01
        1   -1    0    0  501    0  0.00000000000E+00  0.00000000000E+00  0.10894805394E+04  0.10894805394E+04  0.50400001928E-02 0. -1.
       -1   -1    0    0    0  501  0.00000000000E+00  0.00000000000E+00 -0.92947209294E+03  0.92947209295E+03  0.50400001928E-02 0.  1.
    10030    2    1    2    0    0  0.00000000000E+00  0.00000000000E+00  0.16000844641E+03  0.20189526323E+04  0.20126020542E+04 0.  0.
        1    1    3    3  502    0  0.22740446375E+03  0.98026354060E+03  0.83530704341E+02  0.10097558011E+04  0.50400001928E-02 0.  1.
       -1    1    3    3    0  502 -0.22740446375E+03 -0.98026354060E+03  0.76477742072E+02  0.10091968313E+04  0.50400001928E-02 0. -1.
</event>
<event>
 5   0  0.9220260E-06  0.1997175E+04  0.7818609E-02  0.8607942E-01
       -1   -1    0    0    0  501  0.00000000000E+00  0.00000000000E+00  0.82355712012E+03  0.82355712013E+03  0.50400001928E-02 0.  1.
        1   -1    0    0  501    0  0.00000000000E+00  0.00000000000E+00 -0.12108173356E+04  0.12108173356E+04  0.50400001928E-02 0. -1.
    10030    2    1    2    0    0  0.00000000000E+00  0.00000000000E+00 -0.38726021549E+03  0.20343744557E+04  0.19971752431E+04 0.  0.
        3    1    3    3  502    0 -0.49982419862E+03 -0.39181429226E+03  0.59132976146E+03  0.86776354275E+03  0.10100000352E+00 0.  1.
       -3    1    3    3    0  502  0.49982419862E+03  0.39181429226E+03 -0.97858997694E+03  0.11666109130E+04  0.10100000352E+00 0. -1.
</event>
<event>
 5   0  0.2038882E-05  0.1995703E+04  0.7818609E-02  0.8608632E-01
        2   -1    0    0  501    0  0.00000000000E+00  0.00000000000E+00  0.17232676810E+04  0.17232676810E+04  0.25500000920E-02 0. -1.
       -2   -1    0    0    0  501  0.00000000000E+00  0.00000000000E+00 -0.57780187170E+03  0.57780187171E+03  0.25500000920E-02 0.  1.
    10030    2    1    2    0    0  0.00000000000E+00  0.00000000000E+00  0.11454658093E+04  0.23010695527E+04  0.19957026748E+04 0.  0.
        3    1    3    3  502    0 -0.24298075963E+03  0.34027135702E+03 -0.47192608727E+03  0.63050653288E+03  0.10100000352E+00 0.  1.
       -3    1    3    3    0  502  0.24298075963E+03 -0.34027135702E+03  0.16173918965E+04  0.16705630198E+04  0.10100000352E+00 0. -1.
</event>
<event>
 5   0  0.1979765E-05  0.2003315E+04  0.7818609E-02  0.8605072E-01
       -2   -1    0    0    0  501  0.00000000000E+00  0.00000000000E+00  0.11389537455E+04  0.11389537455E+04  0.25500000920E-02 0. -1.
        2   -1    0    0  501    0  0.00000000000E+00  0.00000000000E+00 -0.88091165889E+03  0.88091165889E+03  0.25500000920E-02 0.  1.
    10030    2    1    2    0    0  0.00000000000E+00  0.00000000000E+00  0.25804208665E+03  0.20198654044E+04  0.20033148863E+04 0.  0.
        2    1    3    3  502    0 -0.17576997643E+03  0.78091667416E+03 -0.47810958133E+03  0.93237047807E+03  0.25500000920E-02 0.  1.
       -2    1    3    3    0  502  0.17576997643E+03 -0.78091667416E+03  0.73615166799E+03  0.10874949264E+04  0.25500000920E-02 0. -1.
</event>
<event>
 5   0  0.9333353E-06  0.2013903E+04  0.7818609E-02  0.8600148E-01
       -1   -1    0    0    0  501  0.00000000000E+00  0.00000000000E+00  0.67713498315E+03  0.67713498317E+03  0.50400001928E-02 0. -1.
        1   -1    0    0  501    0  0.00000000000E+00  0.00000000000E+00 -0.14974138180E+04  0.14974138180E+04  0.50400001928E-02 0.  1.
    10030    2    1    2    0    0  0.00000000000E+00  0.00000000000E+00 -0.82027883486E+03  0.21745488012E+04  0.20139029574E+04 0.  0.
        2    1    3    3  502    0 -0.99556372226E+03  0.14595457743E+03 -0.36830042280E+03  0.10714919809E+04  0.25500000920E-02 0. -1.
       -2    1    3    3    0  502  0.99556372226E+03 -0.14595457743E+03 -0.45197841205E+03  0.11030568203E+04  0.25500000920E-02 0.  1.
</event>
<event>
 5   0  0.9333353E-06  0.2003798E+04  0.7818609E-02  0.8604847E-01
       -1   -1    0    0    0  501  0.00000000000E+00  0.00000000000E+00  0.11000555201E+04  0.11000555201E+04  0.50400001928E-02 0.  1.
        1   -1    0    0  501    0  0.00000000000E+00  0.00000000000E+00 -0.91250112691E+03  0.91250112693E+03  0.50400001928E-02 0. -1.
    10030    2    1    2    0    0  0.00000000000E+00  0.00000000000E+00  0.18755439318E+03  0.20125566470E+04  0.20037982950E+04 0.  0.
        2    1    3    3  502    0  0.62335777970E+03  0.29326054000E+02 -0.69346440705E+03  0.93291362023E+03  0.25500000920E-02 0. -1.
       -2    1    3    3    0  502 -0.62335777970E+03 -0.29326054000E+02  0.88101880023E+03  0.10796430268E+04  0.25500000920E-02 0.  1.
</event>
<event>
 5   0  0.2003576E-05  0.2011825E+04  0.7818609E-02  0.8601112E-01
       -2   -1    0    0    0  501  0.00000000000E+00  0.00000000000E+00  0.61412081983E+03  0.61412081983E+03  0.25500000920E-02 0.  1.
        2   -1    0    0  501    0  0.00000000000E+00  0.00000000000E+00 -0.16476559306E+04  0.16476559307E+04  0.25500000920E-02 0. -1.
    10030    2    1    2    0    0  0.00000000000E+00  0.00000000000E+00 -0.10335351108E+04  0.22617767505E+04  0.20118248541E+04 0.  0.
        4    1    3    3  502    0 -0.57316910991E+03  0.78676637079E+03 -0.80192190684E+03  0.12611917017E+04  0.12699999809E+01 0. -1.
       -4    1    3    3    0  502  0.57316910991E+03 -0.78676637079E+03 -0.23161320398E+03  0.10005850488E+04  0.12699999809E+01 0.  1.
</event>
<event>
 5   0  0.9220260E-06  0.2011487E+04  0.7818609E-02  0.8601269E-01
       -1   -1    0    0    0  501  0.00000000000E+00  0.00000000000E+00  0.37341925940E+03  0.37341925943E+03  0.50400001928E-02 0. -1.
        1   -1    0    0  501    0  0.00000000000E+00  0.00000000000E+00 -0.27088050576E+04  0.27088050577E+04  0.50400001928E-02 0.  1.
    10030    2    1    2    0    0  0.00000000000E+00  0.00000000000E+00 -0.23353857983E+04  0.30822243171E+04  0.20114869908E+04 0.  0.
        3    1    3    3  502    0  0.36270979140E+03  0.35606570479E+03 -0.24975226812E+04  0.25487174681E+04  0.10100000352E+00 0.  1.
       -3    1    3    3    0  502 -0.36270979140E+03 -0.35606570479E+03  0.16213688294E+03  0.53350684899E+03  0.10100000352E+00 0. -1.
</event>
<event>
 5   0  0.1999142E-05  0.2001050E+04  0.7818609E-02  0.8606130E-01
       -2   -1    0    0    0  501  0.00000000000E+00  0.00000000000E+00  0.49850989013E+03  0.49850989014E+03  0.25500000920E-02 0.  1.
        2   -1    0    0  501    0  0.00000000000E+00  0.00000000000E+00 -0.20080841057E+04  0.20080841057E+04  0.25500000920E-02 0. -1.
    10030    2    1    2    0    0  0.00000000000E+00  0.00000000000E+00 -0.15095742156E+04  0.25065939958E+04  0.20010495115E+04 0.  0.
        1    1    3    3  502    0  0.50239875548E+03 -0.66301671040E+03 -0.58411695202E+02  0.83391102279E+03  0.50400001928E-02 0.  1.
       -1    1    3    3    0  502 -0.50239875548E+03  0.66301671040E+03 -0.14511625203E+04  0.16726829730E+04  0.50400001928E-02 0. -1.
</event>
<event>
 5   0  0.9333353E-06  0.1997173E+04  0.7818609E-02  0.8607943E-01
        1   -1    0    0  501    0  0.00000000000E+00  0.00000000000E+00  0.26165675741E+04  0.26165675741E+04  0.50400001928E-02 0.  1.
       -1   -1    0    0    0  501  0.00000000000E+00  0.00000000000E+00 -0.38110056910E+03  0.38110056913E+03  0.50400001928E-02 0. -1.
    10030    2    1    2    0    0  0.00000000000E+00  0.00000000000E+00  0.22354670050E+04  0.29976681432E+04  0.19971733942E+04 0.  0.
        2    1    3    3  502    0 -0.72760912942E+03 -0.67901372938E+03  0.12405984284E+04  0.15904587862E+04  0.25500000920E-02 0.  1.
       -2    1    3    3    0  502  0.72760912942E+03  0.67901372938E+03  0.99486857656E+03  0.14072093570E+04  0.25500000920E-02 0. -1.
</event>
<event>
 5   0  0.9370269E-06  0.2003440E+04  0.7818609E-02  0.8605014E-01
       -1   -1    0    0    0  501  0.00000000000E+00  0.00000000000E+00  0.60975429799E+03  0.60975429801E+03  0.50400001928E-02 0.  1.
        1   -1    0    0  501    0  0.00000000000E+00  0.00000000000E+00 -0.16456509071E+04  0.16456509071E+04  0.50400001928E-02 0. -1.
    10030    2    1    2    0    0  0.00000000000E+00  0.00000000000E+00 -0.10358966091E+04  0.22554052051E+04  0.20034397556E+04 0.  0.
        4    1    3    3  502    0 -0.63999287646E+03  0.35143318526E+03 -0.12900180363E+04  0.14823104643E+04  0.12699999809E+01 0. -1.
       -4    1    3    3    0  502  0.63999287646E+03 -0.35143318526E+03  0.25412142721E+03  0.77309474082E+03  0.12699999809E+01 0.  1.
</event>
<event>
 5   0  0.2003576E-05  0.2000972E+04  0.7818609E-02  0.8606167E-01
       -2   -1    0    0    0  501  0.00000000000E+00  0.00000000000E+00  0.78686912728E+03  0.78686912729E+03  0.25500000920E-02 0. -1.
        2   -1    0    0  501    0  0.00000000000E+00  0.00000000000E+00 -0.12720944212E+04  0.12720944212E+04  0.25500000920E-02 0.  1.
    10030    2    1    2    0    0  0.00000000000E+00  0.00000000000E+00 -0.48522529391E+03  0.20589635485E+04  0.20009715910E+04 0.  0.
        4    1    3    3  502    0 -0.21197151815E+03 -0.63074003468E+03  0.52617201909E+03  0.84830626688E+03  0.12699999809E+01 0. -1.
       -4    1    3    3    0  502  0.21197151815E+03  0.63074003468E+03 -0.10113973130E+04  0.12106572816E+04  0.12699999809E+01 0.  1.
</event>
<event>
 5   0  0.1979765E-05  0.1998811E+04  0.7818609E-02  0.8607177E-01
       -2   -1    0    0    0  501  0.00000000000E+00  0.00000000000E+00  0.59655353256E+03  0.59655353257E+03  0.25500000920E-02 0. -1.
        2   -1    0    0  501    0  0.00000000000E+00  0.00000000000E+00 -0.16743027894E+04  0.16743027894E+04  0.25500000920E-02 0.  1.
    10030    2    1    2    0    0  0.00000000000E+00  0.00000000000E+00 -0.10777492568E+04  0.22708563219E+04  0.19988108901E+04 0.  0.
        2    1    3    3  502    0  0.43421633173E+03  0.78743380435E+03 -0.10343713846E+04  0.13705911061E+04  0.25500000920E-02 0.  1.
       -2    1    3    3    0  502 -0.43421633173E+03 -0.78743380435E+03 -0.43377872225E+02  0.90026521580E+03  0.25500000920E-02 0. -1.
</event>
<event>
 5   0  0.9342635E-06  0.1999495E+04  0.7818609E-02  0.8606857E-01
        1   -1    0    0  501    0  0.00000000000E+00  0.00000000000E+00  0.64959087703E+03  0.64959087705E+03  0.50400001928E-02 0. -1.
       -1   -1    0    0    0  501  0.00000000000E+00  0.00000000000E+00 -0.15386539390E+04  0.15386539390E+04  0.50400001928E-02 0.  1.
    10030    2    1    2    0    0  0.00000000000E+00  0.00000000000E+00 -0.88906306197E+03  0.21882448161E+04  0.19994954981E+04 0.  0.
        5    1    3    3  502    0 -0.28625092190E+02 -0.18396524827E+03  0.63043902789E+03  0.65737209125E+03  0.46999998093E+01 0. -1.
       -5    1    3    3    0  502  0.28625092190E+02  0.18396524827E+03 -0.15195020899E+04  0.15308727248E+04  0.46999998093E+01 0.  1.
</event>
<event>
 5   0  0.2020029E-05  0.2000482E+04  0.7818609E-02  0.8606395E-01
       -2   -1    0    0    0  501  0.00000000000E+00  0.00000000000E+00  0.72450894508E+03  0.72450894509E+03  0.25500000920E-02 0.  1.
        2   -1    0    0  501    0  0.00000000000E+00  0.00000000000E+00 -0.13809110017E+04  0.13809110017E+04  0.25500000920E-02 0. -1.
    10030    2    1    2    0    0  0.00000000000E+00  0.00000000000E+00 -0.65640205660E+03  0.21054199468E+04  0.20004823149E+04 0.  0.
        5    1    3    3  502    0  0.11162238434E+02  0.99259000586E+03 -0.19886976154E+03  0.10123886543E+04  0.46999998093E+01 0.  1.
       -5    1    3    3    0  502 -0.11162238434E+02 -0.99259000586E+03 -0.45753229506E+03  0.10930312925E+04  0.46999998093E+01 0. -1.
</event>
<event>
 5   0  0.1979765E-05  0.2001992E+04  0.7818609E-02  0.8605690E-01
        2   -1    0    0  501    0  0.00000000000E+00  0.00000000000E+00  0.10386048522E+04  0.10386048522E+04  0.25500000920E-02 0.  1.
       -2   -1    0    0    0  501  0.00000000000E+00  0.00000000000E+00 -0.96474909380E+03  0.96474909381E+03  0.25500000920E-02 0. -1.
    10030    2    1    2    0    0  0.00000000000E+00  0.00000000000E+00  0.73855758371E+02  0.20033539460E+04  0.20019920978E+04 0.  0.
        2    1    3    3  502    0  0.94332237291E+03  0.33322718949E+03  0.38050470592E+01  0.10004558648E+04  0.25500000920E-02 0. -1.
       -2    1    3    3    0  502 -0.94332237291E+03 -0.33322718949E+03  0.70050711311E+02  0.10028980812E+04  0.25500000920E-02 0.  1.
</event>
<event>
 5   0  0.7132000E-06  0.1997359E+04  0.7818609E-02  0.8607856E-01
        4   -1    0    0  501    0  0.00000000000E+00  0.00000000000E+00  0.15362796150E+04  0.15362801399E+04  0.12699999809E+01 0. -1.
       -4   -1    0    0    0  501  0.00000000000E+00  0.00000000000E+00 -0.64920416363E+03  0.64920540584E+03  0.12699999809E+01 0.  1.
    10030    2    1    2    0    0  0.00000000000E+00  0.00000000000E+00  0.88707545133E+03  0.21854855457E+04  0.19973593103E+04 0.  0.
        1    1    3    3  502    0  0.99081518388E+03  0.12495699231E+03  0.43734081573E+03  0.10902274844E+04  0.50400001928E-02 0.  1.
       -1    1    3    3    0  502 -0.99081518388E+03 -0.12495699231E+03  0.44973463561E+03  0.10952580614E+04  0.50400001928E-02 0. -1.
</event>
<event>
 5   0  0.9220260E-06  0.2001081E+04  0.7818609E-02  0.8606115E-01
       -1   -1    0    0    0  501  0.00000000000E+00  0.00000000000E+00  0.18039880228E+04  0.18039880228E+04  0.50400001928E-02 0. -1.
        1   -1    0    0  501    0  0.00000000000E+00  0.00000000000E+00 -0.55492696314E+03  0.55492696316E+03  0.50400001928E-02 0.  1.
    10030    2    1    2    0    0  0.00000000000E+00  0.00000000000E+00  0.12490610596E+04  0.23589149860E+04  0.20010813028E+04 0.  0.
        3    1    3    3  502    0 -0.27150985016E+03 -0.71337950710E+03 -0.13802459347E+03  0.77567952048E+03  0.10100000352E+00 0.  1.
       -3    1    3    3    0  502  0.27150985016E+03  0.71337950710E+03  0.13870856531E+04  0.15832354655E+04  0.10100000352E+00 0. -1.
</event>
<event>
 5   0  0.1999142E-05  0.2006575E+04  0.7818609E-02  0.8603553E-01
       -2   -1    0    0    0  501  0.00000000000E+00  0.00000000000E+00  0.84771723980E+03  0.84771723980E+03  0.25500000920E-02 0. -1.
        2   -1    0    0  501    0  0.00000000000E+00  0.00000000000E+00 -0.11874077437E+04  0.11874077437E+04  0.25500000920E-02 0.  1.
    10030    2    1    2    0    0  0.00000000000E+00  0.00000000000E+00 -0.33969050393E+03  0.20351249835E+04  0.20065752067E+04 0.  0.
        1    1    3    3  502    0 -0.24594805403E+02  0.37295265205E+03 -0.11141604879E+04  0.11751817638E+04  0.50400001928E-02 0.  1.
       -1    1    3    3    0  502  0.24594805403E+02 -0.37295265205E+03  0.77446998396E+03  0.85994321975E+03  0.50400001928E-02 0. -1.
</event>
<event>
 5   0  0.9220260E-06  0.1992619E+04  0.7818609E-02  0.8610079E-01
       -1   -1    0    0    0  501  0.00000000000E+00  0.00000000000E+00  0.11763737126E+04  0.11763737127E+04  0.50400001928E-02 0.  1.
        1   -1    0    0  501    0  0.00000000000E+00  0.00000000000E+00 -0.84380686308E+03  0.84380686310E+03  0.50400001928E-02 0. -1.
    10030    2    1    2    0    0  0.00000000000E+00  0.00000000000E+00  0.33256684957E+03  0.20201805758E+04  0.19926185910E+04 0.  0.
        3    1    3    3  502    0  0.44741546362E+03  0.16848653989E+03 -0.71991474940E+03  0.86420227251E+03  0.10100000352E+00 0. -1.
       -3    1    3    3    0  502 -0.44741546362E+03 -0.16848653989E+03  0.10524815990E+04  0.11559783032E+04  0.10100000352E+00 0.  1.
</event>
<event>
 5   0  0.1979765E-05  0.1984281E+04  0.7818609E-02  0.8614005E-01
        2   -1    0    0  501    0  0.00000000000E+00  0.00000000000E+00  0.93178231667E+03  0.93178231667E+03  0.25500000920E-02 0. -1.
       -2   -1    0    0    0  501  0.00000000000E+00  0.00000000000E+00 -0.10564083281E+04  0.10564083281E+04  0.25500000920E-02 0.  1.
    10030    2    1    2    0    0  0.00000000000E+00  0.00000000000E+00 -0.12462601145E+03  0.19881906448E+04  0.19842808262E+04 0.  0.
        2    1    3    3  502    0 -0.52351585864E+03 -0.16365753678E+03  0.76605050192E+03  0.94217090546E+03  0.25500000920E-02 0. -1.
       -2    1    3    3    0  502  0.52351585864E+03  0.16365753678E+03 -0.89067651337E+03  0.10460197393E+04  0.25500000920E-02 0.  1.
</event>
<event>
 5   0  0.2038882E-05  0.2004431E+04  0.7818609E-02  0.8604552E-01
       -2   -1    0    0    0  501  0.00000000000E+00  0.00000000000E+00  0.53820281981E+03  0.53820281981E+03  0.25500000920E-02 0.  1.
        2   -1    0    0  501    0  0.00000000000E+00  0.00000000000E+00 -0.18662777549E+04  0.18662777549E+04  0.25500000920E-02 0. -1.
    10030    2    1    2    0    0  0.00000000000E+00  0.00000000000E+00 -0.13280749351E+04  0.24044805747E+04  0.20044310417E+04 0.  0.
        3    1    3    3  502    0  0.87088883798E+02 -0.87567117249E+03 -0.12394014261E+04  0.15200330198E+04  0.10100000352E+00 0. -1.
       -3    1    3    3    0  502 -0.87088883798E+02  0.87567117249E+03 -0.88673508984E+02  0.88444755493E+03  0.10100000352E+00 0.  1.
</event>
<event>
 5   0  0.1999142E-05  0.1999119E+04  0.7818609E-02  0.8607033E-01
        2   -1    0    0  501    0  0.00000000000E+00  0.00000000000E+00  0.71856656218E+03  0.71856656219E+03  0.25500000920E-02 0. -1.
       -2   -1    0    0    0  501  0.00000000000E+00  0.00000000000E+00 -0.13904342055E+04  0.13904342055E+04  0.25500000920E-02 0.  1.
    10030    2    1    2    0    0  0.00000000000E+00  0.00000000000E+00 -0.67186764328E+03  0.21090007676E+04  0.19991193331E+04 0.  0.
        1    1    3    3  502    0 -0.62117960647E+03 -0.17165241287E+01 -0.11620814761E+04  0.13176875226E+04  0.50400001928E-02 0.  1.
       -1    1    3    3    0  502  0.62117960647E+03  0.17165241287E+01  0.49021383282E+03  0.79131324510E+03  0.50400001928E-02 0. -1.
</event>
<event>
 5   0  0.2020029E-05  0.2000547E+04  0.7818609E-02  0.8606365E-01
        2   -1    0    0  501    0  0.00000000000E+00  0.00000000000E+00  0.20299244007E+04  0.20299244007E+04  0.25500000920E-02 0. -1.
       -2   -1    0    0    0  501  0.00000000000E+00  0.00000000000E+00 -0.49289846408E+03  0.49289846409E+03  0.25500000920E-02 0.  1.
    10030    2    1    2    0    0  0.00000000000E+00  0.00000000000E+00  0.15370259366E+04  0.25228228648E+04  0.20005465446E+04 0.  0.
        5    1    3    3  502    0  0.33327452815E+03  0.70188481709E+03  0.15628953042E+04  0.17453876445E+04  0.46999998093E+01 0. -1.
       -5    1    3    3    0  502 -0.33327452815E+03 -0.70188481709E+03 -0.25869367613E+02  0.77743522029E+03  0.46999998093E+01 0.  1.
</event>
<event>
 5   0  0.9370269E-06  0.1997593E+04  0.7818609E-02  0.8607747E-01
       -1   -1    0    0    0  501  0.00000000000E+00  0.00000000000E+00  0.57771075702E+03  0.57771075705E+03  0.50400001928E-02 0. -1.
        1   -1    0    0  501    0  0.00000000000E+00  0.00000000000E+00 -0.17268053523E+04  0.17268053524E+04  0.50400001928E-02 0.  1.
    10030    2    1    2    0    0  0.00000000000E+00  0.00000000000E+00 -0.11490945953E+04  0.23045161094E+04  0.19975925785E+04 0.  0.
        4    1    3    3  502    0  0.28049063544E+02  0.87326070330E+03 -0.11328710791E+04  0.14306535222E+04  0.12699999809E+01 0.  1.
       -4    1    3    3    0  502 -0.28049063544E+02 -0.87326070330E+03 -0.16223516235E+02  0.87386258718E+03  0.12699999809E+01 0. -1.
</event>
<event>
 5   0  0.9342635E-06  0.1996785E+04  0.7818609E-02  0.8608125E-01
       -1   -1    0    0    0  501  0.00000000000E+00  0.00000000000E+00  0.14555185837E+04  0.14555185837E+04  0.50400001928E-02 0. -1.
        1   -1    0    0  501    0  0.00000000000E+00  0.00000000000E+00 -0.68483312552E+03  0.68483312553E+03  0.50400001928E-02 0.  1.
    10030    2    1    2    0    0  0.00000000000E+00  0.00000000000E+00  0.77068545822E+03  0.21403517093E+04  0.19967847565E+04 0.  0.
        5    1    3    3  502    0 -0.19608673392E+03 -0.74448432716E+03 -0.29601615614E+03  0.82483608996E+03  0.46999998093E+01 0.  1.
       -5    1    3    3    0  502  0.19608673392E+03  0.74448432716E+03  0.10667016144E+04  0.13155156193E+04  0.46999998093E+01 0. -1.
</event>
<event>
 5   0  0.2003576E-05  0.2000978E+04  0.7818609E-02  0.8606163E-01
        2   -1    0    0  501    0  0.00000000000E+00  0.00000000000E+00  0.21530221098E+04  0.21530221098E+04  0.25500000920E-02 0.  1.
       -2   -1    0    0    0  501  0.00000000000E+00  0.00000000000E+00 -0.46491784301E+03  0.46491784302E+03  0.25500000920E-02 0. -1.
    10030    2    1    2    0    0  0.00000000000E+00  0.00000000000E+00  0.16881042668E+04  0.26179399528E+04  0.20009781561E+04 0.  0.
        4    1    3    3  502    0  0.91059150360E+03 -0.16158885950E+03  0.13434315294E+04  0.16309806047E+04  0.12699999809E+01 0. -1.
       -4    1    3    3    0  502 -0.91059150360E+03  0.16158885950E+03  0.34467273737E+03  0.98695934806E+03  0.12699999809E+01 0.  1.
</event>
<event>
 5   0  0.9370269E-06  0.2022046E+04  0.7818609E-02  0.8596382E-01
        1   -1    0    0  501    0  0.00000000000E+00  0.00000000000E+00  0.13705731451E+04  0.13705731451E+04  0.50400001928E-02 0.  1.
       -1   -1    0    0    0  501  0.00000000000E+00  0.00000000000E+00 -0.74579565484E+03  0.74579565485E+03  0.50400001928E-02 0. -1.
    10030    2    1    2    0    0  0.00000000000E+00  0.00000000000E+00  0.62477749027E+03  0.21163688000E+04  0.20220459899E+04 0.  0.
        4    1    3    3  502    0 -0.67247345444E+03  0.11482032548E+03  0.10933598576E+04  0.12887364529E+04  0.12699999809E+01 0.  1.
       -4    1    3    3    0  502  0.67247345444E+03 -0.11482032548E+03 -0.46858236728E+03  0.82763234706E+03  0.12699999809E+01 0. -1.
</event>
<event>
 5   0  0.9140695E-06  0.1997802E+04  0.7818609E-02  0.8607649E-01
        1   -1    0    0  501    0  0.00000000000E+00  0.00000000000E+00  0.14985325422E+04  0.14985325422E+04  0.50400001928E-02 0. -1.
       -1   -1    0    0    0  501  0.00000000000E+00  0.00000000000E+00 -0.66585371135E+03  0.66585371137E+03  0.50400001928E-02 0.  1.
    10030    2    1    2    0    0  0.00000000000E+00  0.00000000000E+00  0.83267883084E+03  0.21643862536E+04  0.19978022473E+04 0.  0.
        1    1    3    3  502    0 -0.45401068663E+03  0.23726436343E+03 -0.51271076672E+03  0.72477059271E+03  0.50400001928E-02 0.  1.
       -1    1    3    3    0  502  0.45401068663E+03 -0.23726436343E+03  0.13453895976E+04  0.14396156609E+04  0.50400001928E-02 0. -1.
</event>
<event>
 5   0  0.1999142E-05  0.2001453E+04  0.7818609E-02  0.8605942E-01
       -2   -1    0    0    0  501  0.00000000000E+00  0.00000000000E+00  0.47683088724E+03  0.47683088725E+03  0.25500000920E-02 0.  1.
        2   -1    0    0  501    0  0.00000000000E+00  0.00000000000E+00 -0.21002272559E+04  0.21002272559E+04  0.25500000920E-02 0. -1.
    10030    2    1    2    0    0  0.00000000000E+00  0.00000000000E+00 -0.16233963687E+04  0.25770581432E+04  0.20014526983E+04 0.  0.
        1    1    3    3  502    0  0.48061293470E+03  0.43553062548E+03 -0.17929574727E+04  0.19066652086E+04  0.50400001928E-02 0. -1.
       -1    1    3    3    0  502 -0.48061293470E+03 -0.43553062548E+03  0.16956110401E+03  0.67039293459E+03  0.50400001928E-02 0.  1.
</event>
<event>
 5   0  0.9342635E-06  0.2008754E+04  0.7818609E-02  0.8602539E-01
       -1   -1    0    0    0  501  0.00000000000E+00  0.00000000000E+00  0.11086015742E+04  0.11086015742E+04  0.50400001928E-02 0. -1.
        1   -1    0    0  501    0  0.00000000000E+00  0.00000000000E+00 -0.90995069022E+03  0.90995069024E+03  0.50400001928E-02 0.  1.
    10030    2    1    2    0    0  0.00000000000E+00  0.00000000000E+00  0.19865088395E+03  0.20185522644E+04  0.20087536112E+04 0.  0.
        5    1    3    3  502    0  0.71120554279E+03 -0.56191257286E+03 -0.33544150802E+03  0.96648960622E+03  0.46999998093E+01 0.  1.
       -5    1    3    3    0  502 -0.71120554279E+03  0.56191257286E+03  0.53409239196E+03  0.10520626582E+04  0.46999998093E+01 0. -1.
</event>
<event>
 5   0  0.2003576E-05  0.2001021E+04  0.7818609E-02  0.8606144E-01
        2   -1    0    0  501    0  0.00000000000E+00  0.00000000000E+00  0.10590679681E+04  0.10590679681E+04  0.25500000920E-02 0. -1.
       -2   -1    0    0    0  501  0.00000000000E+00  0.00000000000E+00 -0.94519031587E+03  0.94519031587E+03  0.25500000920E-02 0.  1.
    10030    2    1    2    0    0  0.00000000000E+00  0.00000000000E+00  0.11387765224E+03  0.20042582840E+04  0.20010205269E+04 0.  0.
        4    1    3    3  502    0  0.63169502651E+03 -0.58319207883E+03  0.56949680705E+03  0.10312515859E+04  0.12699999809E+01 0. -1.
       -4    1    3    3    0  502 -0.63169502651E+03  0.58319207883E+03 -0.45561915482E+03  0.97300669806E+03  0.12699999809E+01 0.  1.
</event>
<event>
 5   0  0.1999142E-05  0.2001497E+04  0.7818609E-02  0.8605921E-01
       -2   -1    0    0    0  501  0.00000000000E+00  0.00000000000E+00  0.47281290162E+03  0.47281290163E+03  0.25500000920E-02 0.  1.
        2   -1    0    0  501    0  0.00000000000E+00  0.00000000000E+00 -0.21181690029E+04  0.21181690029E+04  0.25500000920E-02 0. -1.
    10030    2    1    2    0    0  0.00000000000E+00  0.00000000000E+00 -0.16453561013E+04  0.25909819045E+04  0.20014970721E+04 0.  0.
        1    1    3    3  502    0 -0.43912624067E+03  0.75340804690E+03 -0.14582370384E+04  0.16990911690E+04  0.50400001928E-02 0. -1.
       -1    1    3    3    0  502  0.43912624067E+03 -0.75340804690E+03 -0.18711906286E+03  0.89189073551E+03  0.50400001928E-02 0.  1.
</event>
<event>
 5   0  0.2038882E-05  0.1999404E+04  0.7818609E-02  0.8606900E-01
       -2   -1    0    0    0  501  0.00000000000E+00  0.00000000000E+00  0.90499547177E+03  0.90499547177E+03  0.25500000920E-02 0.  1.
        2   -1    0    0  501    0  0.00000000000E+00  0.00000000000E+00 -0.11043190898E+04  0.11043190898E+04  0.25500000920E-02 0. -1.
    10030    2    1    2    0    0  0.00000000000E+00  0.00000000000E+00 -0.19932361801E+03  0.20093145616E+04  0.19994036868E+04 0.  0.
        3    1    3    3  502    0  0.43402264312E+03 -0.63532575891E+03  0.54177259075E+03  0.94102711171E+03  0.10100000352E+00 0.  1.
       -3    1    3    3    0  502 -0.43402264312E+03  0.63532575891E+03 -0.74109620876E+03  0.10682874499E+04  0.10100000352E+00 0. -1.
</event>
<event>
 5   0  0.1979765E-05  0.1999816E+04  0.7818609E-02  0.8606707E-01
       -2   -1    0    0    0  501  0.00000000000E+00  0.00000000000E+00  0.85529389445E+03  0.85529389445E+03  0.25500000920E-02 0.  1.
        2   -1    0    0  501    0  0.00000000000E+00  0.00000000000E+00 -0.11689730801E+04  0.11689730801E+04  0.25500000920E-02 0. -1.
    10030    2    1    2    0    0  0.00000000000E+00  0.00000000000E+00 -0.31367918561E+03  0.20242669745E+04  0.19998155297E+04 0.  0.
        2    1    3    3  502    0  0.44889666095E+03  0.57022555797E+03  0.53942985553E+03  0.90423999481E+03  0.25500000920E-02 0.  1.
       -2    1    3    3    0  502 -0.44889666095E+03 -0.57022555797E+03 -0.85310904114E+03  0.11200269797E+04  0.25500000920E-02 0. -1.
</event>
<event>
 5   0  0.1999142E-05  0.1995202E+04  0.7818609E-02  0.8608867E-01
       -2   -1    0    0    0  501  0.00000000000E+00  0.00000000000E+00  0.11327326309E+04  0.11327326309E+04  0.25500000920E-02 0.  1.
        2   -1    0    0  501    0  0.00000000000E+00  0.00000000000E+00 -0.87858994346E+03  0.87858994347E+03  0.25500000920E-02 0. -1.
    10030    2    1    2    0    0  0.00000000000E+00  0.00000000000E+00  0.25414268748E+03  0.20113225744E+04  0.19952017424E+04 0.  0.
        1    1    3    3  502    0 -0.72971816368E+03 -0.43652816359E+03 -0.39883535910E+03  0.93920981666E+03  0.50400001928E-02 0. -1.
       -1    1    3    3    0  502  0.72971816368E+03  0.43652816359E+03  0.65297804658E+03  0.10721127578E+04  0.50400001928E-02 0.  1.
</event>
<event>
 5   0  0.2020029E-05  0.1997392E+04  0.7818609E-02  0.8607841E-01
        2   -1    0    0  501    0  0.00000000000E+00  0.00000000000E+00  0.15736777788E+04  0.15736777788E+04  0.25500000920E-02 0.  1.
       -2   -1    0    0    0  501  0.00000000000E+00  0.00000000000E+00 -0.63379763597E+03  0.63379763597E+03  0.25500000920E-02 0. -1.
    10030    2    1    2    0    0  0.00000000000E+00  0.00000000000E+00  0.93988014283E+03  0.22074754148E+04  0.19973915550E+04 0.  0.
        5    1    3    3  502    0 -0.25484920805E+03  0.13636979696E+03 -0.58654775857E+03  0.65391528767E+03  0.46999998093E+01 0. -1.
       -5    1    3    3    0  502  0.25484920805E+03 -0.13636979696E+03  0.15264279014E+04  0.15535601271E+04  0.46999998093E+01 0.  1.
</event>
<event>
 5   0  0.1979765E-05  0.1997810E+04  0.7818609E-02  0.8607645E-01
       -2   -1    0    0    0  501  0.00000000000E+00  0.00000000000E+00  0.86403999170E+03  0.86403999171E+03  0.25500000920E-02 0. -1.
        2   -1    0    0  501    0  0.00000000000E+00  0.00000000000E+00 -0.11548209285E+04  0.11548209285E+04  0.25500000920E-02 0.  1.
    10030    2    1    2    0    0  0.00000000000E+00  0.00000000000E+00 -0.29078093681E+03  0.20188609202E+04  0.19978102668E+04 0.  0.
        2    1    3    3  502    0 -0.24688049782E+03 -0.92595446613E+03  0.13948382000E+03  0.96839939570E+03  0.25500000920E-02 0. -1.
       -2    1    3    3    0  502  0.24688049782E+03  0.92595446613E+03 -0.43026475681E+03  0.10504615245E+04  0.25500000920E-02 0.  1.
</event>
<event>
 5   0  0.9220260E-06  0.1999167E+04  0.7818609E-02  0.8607010E-01
       -1   -1    0    0    0  501  0.00000000000E+00  0.00000000000E+00  0.10462653133E+04  0.10462653133E+04  0.50400001928E-02 0. -1.
        1   -1    0    0  501    0  0.00000000000E+00  0.00000000000E+00 -0.95498488114E+03  0.95498488115E+03  0.50400001928E-02 0.  1.
    10030    2    1    2    0    0  0.00000000000E+00  0.00000000000E+00  0.91280432179E+02  0.20012501945E+04  0.19991673826E+04 0.  0.
        3    1    3    3  502    0  0.87693872488E+03 -0.30550674333E+03  0.41590615887E+03  0.10175135579E+04  0.10100000352E+00 0.  1.
       -3    1    3    3    0  502 -0.87693872488E+03  0.30550674333E+03 -0.32462572669E+03  0.98373663653E+03  0.10100000352E+00 0. -1.
</event>
<event>
 5   0  0.9140695E-06  0.2001342E+04  0.7818609E-02  0.8605994E-01
       -1   -1    0    0    0  501  0.00000000000E+00  0.00000000000E+00  0.85817013764E+03  0.85817013765E+03  0.50400001928E-02 0.  1.
        1   -1    0    0  501    0  0.00000000000E+00  0.00000000000E+00 -0.11668339619E+04  0.11668339619E+04  0.50400001928E-02 0. -1.
    10030    2    1    2    0    0  0.00000000000E+00  0.00000000000E+00 -0.30866382422E+03  0.20250040995E+04  0.20013416117E+04 0.  0.
        1    1    3    3  502    0 -0.73042191425E+03  0.39077464635E+03  0.41366163135E+03  0.92592491182E+03  0.50400001928E-02 0.  1.
       -1    1    3    3    0  502  0.73042191425E+03 -0.39077464635E+03 -0.72232545557E+03  0.10990791877E+04  0.50400001928E-02 0. -1.
</event>
<event>
 5   0  0.1979765E-05  0.1999895E+04  0.7818609E-02  0.8606670E-01
       -2   -1    0    0    0  501  0.00000000000E+00  0.00000000000E+00  0.90624717955E+03  0.90624717955E+03  0.25500000920E-02 0.  1.
        2   -1    0    0  501    0  0.00000000000E+00  0.00000000000E+00 -0.11033359720E+04  0.11033359720E+04  0.25500000920E-02 0. -1.
    10030    2    1    2    0    0  0.00000000000E+00  0.00000000000E+00 -0.19708879244E+03  0.20095831515E+04  0.19998951100E+04 0.  0.
        2    1    3    3  502    0 -0.66876095140E+03 -0.72912536557E+03  0.47175707384E+02  0.99050015457E+03  0.25500000920E-02 0. -1.
       -2    1    3    3    0  502  0.66876095140E+03  0.72912536557E+03 -0.24426449983E+03  0.10190829970E+04  0.25500000920E-02 0.  1.
</event>
<event>
 5   0  0.2020029E-05  0.1995504E+04  0.7818609E-02  0.8608726E-01
        2   -1    0    0  501    0  0.00000000000E+00  0.00000000000E+00  0.11210331056E+04  0.11210331056E+04  0.25500000920E-02 0. -1.
       -2   -1    0    0    0  501  0.00000000000E+00  0.00000000000E+00 -0.88802795910E+03  0.88802795910E+03  0.25500000920E-02 0.  1.
    10030    2    1    2    0    0  0.00000000000E+00  0.00000000000E+00  0.23300514649E+03  0.20090610647E+04  0.19955036866E+04 0.  0.
        5    1    3    3  502    0  0.44876143514E+03 -0.82257524799E+03  0.46156978334E+03  0.10445504388E+04  0.46999998093E+01 0. -1.
       -5    1    3    3    0  502 -0.44876143514E+03  0.82257524799E+03 -0.22856463685E+03  0.96451062591E+03  0.46999998093E+01 0.  1.
</event>
<event>
 5   0  0.2020029E-05  0.1999793E+04  0.7818609E-02  0.8606718E-01
        2   -1    0    0  501    0  0.00000000000E+00  0.00000000000E+00  0.13067437726E+04  0.13067437726E+04  0.25500000920E-02 0.  1.
       -2   -1    0    0    0  501  0.00000000000E+00  0.00000000000E+00 -0.76510236801E+03  0.76510236801E+03  0.25500000920E-02 0. -1.
    10030    2    1    2    0    0  0.00000000000E+00  0.00000000000E+00  0.54164140461E+03  0.20718461406E+04  0.19997927441E+04 0.  0.
        5    1    3    3  502    0 -0.95298336983E+03 -0.66592027245E+01 -0.42651730494E+02  0.95397217374E+03  0.46999998093E+01 0.  1.
       -5    1    3    3    0  502  0.95298336983E+03  0.66592027245E+01  0.58429313511E+03  0.11178739669E+04  0.46999998093E+01 0. -1.
</event>
<event>
 5   0  0.9370269E-06  0.2001235E+04  0.7818609E-02  0.8606044E-01
        1   -1    0    0  501    0  0.00000000000E+00  0.00000000000E+00  0.90890439581E+03  0.90890439582E+03  0.50400001928E-02 0.  1.
       -1   -1    0    0    0  501  0.00000000000E+00  0.00000000000E+00 -0.11015844875E+04  0.11015844875E+04  0.50400001928E-02 0. -1.
    10030    2    1    2    0    0  0.00000000000E+00  0.00000000000E+00 -0.19268009168E+03  0.20104888833E+04  0.20012346020E+04 0.  0.
        4    1    3    3  502    0  0.37431815700E+03 -0.90884970477E+03 -0.28458718055E+03  0.10232855636E+04  0.12699999809E+01 0. -1.
       -4    1    3    3    0  502 -0.37431815700E+03  0.90884970477E+03  0.91907088867E+02  0.98720331968E+03  0.12699999809E+01 0.  1.
</event>
<event>
 5   0  0.9342635E-06  0.2002515E+04  0.7818609E-02  0.8605446E-01
        1   -1    0    0  501    0  0.00000000000E+00  0.00000000000E+00  0.10418592655E+04  0.10418592655E+04  0.50400001928E-02 0.  1.
       -1   -1    0    0    0  501  0.00000000000E+00  0.00000000000E+00 -0.96223770461E+03  0.96223770462E+03  0.50400001928E-02 0. -1.
    10030    2    1    2    0    0  0.00000000000E+00  0.00000000000E+00  0.79621560884E+02  0.20040969701E+04  0.20025146873E+04 0.  0.
        5    1    3    3  502    0 -0.26392135974E+03  0.24056613120E+03 -0.89632536596E+03  0.96485636199E+03  0.46999998093E+01 0. -1.
       -5    1    3    3    0  502  0.26392135974E+03 -0.24056613120E+03  0.97594692684E+03  0.10392406081E+04  0.46999998093E+01 0.  1.
</event>
<event>
 5   0  0.1999142E-05  0.2005063E+04  0.7818609E-02  0.8604257E-01
        2   -1    0    0  501    0  0.00000000000E+00  0.00000000000E+00  0.20052667682E+04  0.20052667682E+04  0.25500000920E-02 0.  1.
       -2   -1    0    0    0  501  0.00000000000E+00  0.00000000000E+00 -0.50121457725E+03  0.50121457726E+03  0.25500000920E-02 0. -1.
    10030    2    1    2    0    0  0.00000000000E+00  0.00000000000E+00  0.15040521909E+04  0.25064813454E+04  0.20050625282E+04 0.  0.
        1    1    3    3  502    0  0.53213808669E+03  0.71374915460E+03  0.13282287889E+04  0.15989998482E+04  0.50400001928E-02 0.  1.
       -1    1    3    3    0  502 -0.53213808669E+03 -0.71374915460E+03  0.17582340201E+03  0.90748149718E+03  0.50400001928E-02 0. -1.
</event>
<event>
 5   0  0.2003576E-05  0.2001342E+04  0.7818609E-02  0.8605994E-01
        2   -1    0    0  501    0  0.00000000000E+00  0.00000000000E+00  0.22032821176E+04  0.22032821176E+04  0.25500000920E-02 0.  1.
       -2   -1    0    0    0  501  0.00000000000E+00  0.00000000000E+00 -0.45447754413E+03  0.45447754413E+03  0.25500000920E-02 0. -1.
    10030    2    1    2    0    0  0.00000000000E+00  0.00000000000E+00  0.17488045734E+04  0.26577596617E+04  0.20013417957E+04 0.  0.
        4    1    3    3  502    0 -0.33180801839E+03  0.35595942001E+03  0.20355666107E+04  0.20929253951E+04  0.12699999809E+01 0.  1.
       -4    1    3    3    0  502  0.33180801839E+03 -0.35595942001E+03 -0.28676203732E+03  0.56483426659E+03  0.12699999809E+01 0. -1.
</event>
<event>
 5   0  0.1979765E-05  0.1999264E+04  0.7818609E-02  0.8606965E-01
       -2   -1    0    0    0  501  0.00000000000E+00  0.00000000000E+00  0.98940439450E+03  0.98940439450E+03  0.25500000920E-02 0. -1.
        2   -1    0    0  501    0  0.00000000000E+00  0.00000000000E+00 -0.10099651219E+04  0.10099651219E+04  0.25500000920E-02 0.  1.
    10030    2    1    2    0    0  0.00000000000E+00  0.00000000000E+00 -0.20560727389E+02  0.19993695164E+04  0.19992637944E+04 0.  0.
        2    1    3    3  502    0 -0.49772552158E+03  0.70283602246E+03  0.49724500566E+03  0.99446556751E+03  0.25500000920E-02 0. -1.
       -2    1    3    3    0  502  0.49772552158E+03 -0.70283602246E+03 -0.51780573305E+03  0.10049039489E+04  0.25500000920E-02 0.  1.
</event>
<event>
 5   0  0.1979765E-05  0.1963365E+04  0.7818609E-02  0.8623943E-01
        2   -1    0    0  501    0  0.00000000000E+00  0.00000000000E+00  0.10841312441E+04  0.10841312441E+04  0.25500000920E-02 0. -1.
       -2   -1    0    0    0  501  0.00000000000E+00  0.00000000000E+00 -0.88891540487E+03  0.88891540487E+03  0.25500000920E-02 0.  1.
    10030    2    1    2    0    0  0.00000000000E+00  0.00000000000E+00  0.19521583922E+03  0.19730466490E+04  0.19633654410E+04 0.  0.
        2    1    3    3  502    0 -0.81444210510E+03 -0.19712434234E+03  0.61152670100E+03  0.10373711269E+04  0.25500000920E-02 0. -1.
       -2    1    3    3    0  502  0.81444210510E+03  0.19712434234E+03 -0.41631086179E+03  0.93567552204E+03  0.25500000920E-02 0.  1.
</event>
<event>
 5   0  0.9333353E-06  0.1989701E+04  0.7818609E-02  0.8611451E-01
        1   -1    0    0  501    0  0.00000000000E+00  0.00000000000E+00  0.12247443260E+04  0.12247443260E+04  0.50400001928E-02 0. -1.
       -1   -1    0    0    0  501  0.00000000000E+00  0.00000000000E+00 -0.80810981244E+03  0.80810981245E+03  0.50400001928E-02 0.  1.
    10030    2    1    2    0    0  0.00000000000E+00  0.00000000000E+00  0.41663451357E+03  0.20328541385E+04  0.19897013923E+04 0.  0.
        2    1    3    3  502    0  0.91651940168E+03  0.37645072578E+03  0.29972805271E+03  0.10351617594E+04  0.25500000920E-02 0. -1.
       -2    1    3    3    0  502 -0.91651940168E+03 -0.37645072578E+03  0.11690646085E+03  0.99769237904E+03  0.25500000920E-02 0.  1.
</event>
<event>
 5   0  0.9220260E-06  0.2002056E+04  0.7818609E-02  0.8605660E-01
        1   -1    0    0  501    0  0.00000000000E+00  0.00000000000E+00  0.11254301154E+04  0.11254301154E+04  0.50400001928E-02 0. -1.
       -1   -1    0    0    0  501  0.00000000000E+00  0.00000000000E+00 -0.89037682072E+03  0.89037682073E+03  0.50400001928E-02 0.  1.
    10030    2    1    2    0    0  0.00000000000E+00  0.00000000000E+00  0.23505329468E+03  0.20158069361E+04  0.20020558315E+04 0.  0.
        3    1    3    3  502    0  0.18171810653E+03  0.11032441607E+03 -0.86738629133E+03  0.89305763286E+03  0.10100000352E+00 0.  1.
       -3    1    3    3    0  502 -0.18171810653E+03 -0.11032441607E+03  0.11024395860E+04  0.11227493033E+04  0.10100000352E+00 0. -1.
</event>
<event>
 5   0  0.2020029E-05  0.1997830E+04  0.7818609E-02  0.8607636E-01
        2   -1    0    0  501    0  0.00000000000E+00  0.00000000000E+00  0.14676965907E+04  0.14676965907E+04  0.25500000920E-02 0. -1.
       -2   -1    0    0    0  501  0.00000000000E+00  0.00000000000E+00 -0.67986235433E+03  0.67986235434E+03  0.25500000920E-02 0.  1.
    10030    2    1    2    0    0  0.00000000000E+00  0.00000000000E+00  0.78783423635E+03  0.21475589450E+04  0.19978304829E+04 0.  0.
        5    1    3    3  502    0 -0.26653927656E+03  0.45395794098E+03  0.13064746948E+04  0.14085521702E+04  0.46999998093E+01 0. -1.
       -5    1    3    3    0  502  0.26653927656E+03 -0.45395794098E+03 -0.51864045842E+03  0.73900677482E+03  0.46999998093E+01 0.  1.
</event>
<event>
 5   0  0.1999142E-05  0.1998825E+04  0.7818609E-02  0.8607170E-01
        2   -1    0    0  501    0  0.00000000000E+00  0.00000000000E+00  0.16344299490E+04  0.16344299490E+04  0.25500000920E-02 0.  1.
       -2   -1    0    0    0  501  0.00000000000E+00  0.00000000000E+00 -0.61111534967E+03  0.61111534967E+03  0.25500000920E-02 0. -1.
    10030    2    1    2    0    0  0.00000000000E+00  0.00000000000E+00  0.10233145993E+04  0.22455452987E+04  0.19988248846E+04 0.  0.
        1    1    3    3  502    0  0.30813407996E+03  0.30699291285E+03 -0.49920368229E+03  0.66211447364E+03  0.50400001928E-02 0. -1.
       -1    1    3    3    0  502 -0.30813407996E+03 -0.30699291285E+03  0.15225182816E+04  0.15834308250E+04  0.50400001928E-02 0.  1.
</event>
<event>
 5   0  0.9370269E-06  0.1997363E+04  0.7818609E-02  0.8607854E-01
        1   -1    0    0  501    0  0.00000000000E+00  0.00000000000E+00  0.20696915791E+04  0.20696915791E+04  0.50400001928E-02 0. -1.
       -1   -1    0    0    0  501  0.00000000000E+00  0.00000000000E+00 -0.48189057058E+03  0.48189057060E+03  0.50400001928E-02 0.  1.
    10030    2    1    2    0    0  0.00000000000E+00  0.00000000000E+00  0.15878010086E+04  0.25515821497E+04  0.19973631177E+04 0.  0.
        4    1    3    3  502    0  0.13880194116E+03  0.33626117707E+03 -0.39423789128E+03  0.53643516467E+03  0.12699999809E+01 0.  1.
       -4    1    3    3    0  502 -0.13880194116E+03 -0.33626117707E+03  0.19820388998E+04  0.20151469851E+04  0.12699999809E+01 0. -1.
</event>
<event>
 5   0  0.9220260E-06  0.1997182E+04  0.7818609E-02  0.8607939E-01
       -1   -1    0    0    0  501  0.00000000000E+00  0.00000000000E+00  0.89208009511E+03  0.89208009512E+03  0.50400001928E-02 0.  1.
        1   -1    0    0  501    0  0.00000000000E+00  0.00000000000E+00 -0.11178189682E+04  0.11178189682E+04  0.50400001928E-02 0. -1.
    10030    2    1    2    0    0  0.00000000000E+00  0.00000000000E+00 -0.22573887307E+03  0.20098990633E+04  0.19971820663E+04 0.  0.
        3    1    3    3  502    0 -0.68302706225E+03  0.66421990305E+03  0.18815052369E+03  0.97114091518E+03  0.10100000352E+00 0.  1.
       -3    1    3    3    0  502  0.68302706225E+03 -0.66421990305E+03 -0.41388939677E+03  0.10387581481E+04  0.10100000352E+00 0. -1.
</event>
<event>
 5   0  0.2020029E-05  0.2000996E+04  0.7818609E-02  0.8606155E-01
       -2   -1    0    0    0  501  0.00000000000E+00  0.00000000000E+00  0.80507684200E+03  0.80507684200E+03  0.25500000920E-02 0.  1.
        2   -1    0    0  501    0  0.00000000000E+00  0.00000000000E+00 -0.12433545225E+04  0.12433545225E+04  0.25500000920E-02 0. -1.
    10030    2    1    2    0    0  0.00000000000E+00  0.00000000000E+00 -0.43827768051E+03  0.20484313645E+04  0.20009956846E+04 0.  0.
        5    1    3    3  502    0  0.60553660020E+02  0.19024853448E+03 -0.12227428746E+04  0.12389445016E+04  0.46999998093E+01 0. -1.
       -5    1    3    3    0  502 -0.60553660020E+02 -0.19024853448E+03  0.78446519406E+03  0.80948686296E+03  0.46999998093E+01 0.  1.
</event>
<event>
 5   0  0.7132000E-06  0.1990058E+04  0.7818609E-02  0.8611283E-01
        4   -1    0    0  501    0  0.00000000000E+00  0.00000000000E+00  0.14970558583E+04  0.14970563970E+04  0.12699999809E+01 0. -1.
       -4   -1    0    0    0  501  0.00000000000E+00  0.00000000000E+00 -0.66135199419E+03  0.66135321358E+03  0.12699999809E+01 0.  1.
    10030    2    1    2    0    0  0.00000000000E+00  0.00000000000E+00  0.83570386412E+03  0.21584096106E+04  0.19900580641E+04 0.  0.
        2    1    3    3  502    0  0.76944155013E+03  0.51773285393E+01 -0.26640342128E+03  0.81427138393E+03  0.25500000920E-02 0.  1.
       -2    1    3    3    0  502 -0.76944155013E+03 -0.51773285393E+01  0.11021072854E+04  0.13441382267E+04  0.25500000920E-02 0. -1.
</event>
<event>
 5   0  0.1979765E-05  0.1974492E+04  0.7818609E-02  0.8618640E-01
       -2   -1    0    0    0  501  0.00000000000E+00  0.00000000000E+00  0.13612420046E+04  0.13612420046E+04  0.25500000920E-02 0.  1.
        2   -1    0    0  501    0  0.00000000000E+00  0.00000000000E+00 -0.71600404873E+03  0.71600404873E+03  0.25500000920E-02 0. -1.
    10030    2    1    2    0    0  0.00000000000E+00  0.00000000000E+00  0.64523795592E+03  0.20772460534E+04  0.19744921237E+04 0.  0.
        2    1    3    3  502    0 -0.94313388106E+03 -0.21427095114E+03  0.11421604126E+03  0.97388852657E+03  0.25500000920E-02 0.  1.
       -2    1    3    3    0  502  0.94313388106E+03  0.21427095114E+03  0.53102191467E+03  0.11033575268E+04  0.25500000920E-02 0. -1.
</event>
<event>
 5   0  0.2003576E-05  0.1998884E+04  0.7818609E-02  0.8607143E-01
        2   -1    0    0  501    0  0.00000000000E+00  0.00000000000E+00  0.16223318748E+04  0.16223318748E+04  0.25500000920E-02 0. -1.
       -2   -1    0    0    0  501  0.00000000000E+00  0.00000000000E+00 -0.61570870410E+03  0.61570870410E+03  0.25500000920E-02 0.  1.
    10030    2    1    2    0    0  0.00000000000E+00  0.00000000000E+00  0.10066231707E+04  0.22380405789E+04  0.19988835446E+04 0.  0.
        4    1    3    3  502    0 -0.49725404910E+03  0.80277088173E+03  0.13675885416E+03  0.95415264764E+03  0.12699999809E+01 0.  1.
       -4    1    3    3    0  502  0.49725404910E+03 -0.80277088173E+03  0.86986431650E+03  0.12838879312E+04  0.12699999809E+01 0. -1.
</event>
<event>
 5   0  0.9140695E-06  0.1998137E+04  0.7818609E-02  0.8607492E-01
        1   -1    0    0  501    0  0.00000000000E+00  0.00000000000E+00  0.13061468620E+04  0.13061468620E+04  0.50400001928E-02 0.  1.
       -1   -1    0    0    0  501  0.00000000000E+00  0.00000000000E+00 -0.76418537014E+03  0.76418537015E+03  0.50400001928E-02 0. -1.
    10030    2    1    2    0    0  0.00000000000E+00  0.00000000000E+00  0.54196149187E+03  0.20703322322E+04  0.19981374560E+04 0.  0.
        1    1    3    3  502    0 -0.66806298424E+03 -0.57117732441E+03 -0.22113965250E+03  0.90634123418E+03  0.50400001928E-02 0. -1.
       -1    1    3    3    0  502  0.66806298424E+03  0.57117732441E+03  0.76310114437E+03  0.11639909980E+04  0.50400001928E-02 0.  1.
</event>
<event>
 5   0  0.9140695E-06  0.1998989E+04  0.7818609E-02  0.8607094E-01
        1   -1    0    0  501    0  0.00000000000E+00  0.00000000000E+00  0.12541259349E+04  0.12541259349E+04  0.50400001928E-02 0. -1.
       -1   -1    0    0    0  501  0.00000000000E+00  0.00000000000E+00 -0.79656182390E+03  0.79656182392E+03  0.50400001928E-02 0.  1.
    10030    2    1    2    0    0  0.00000000000E+00  0.00000000000E+00  0.45756411100E+03  0.20506877588E+04  0.19989885864E+04 0.  0.
        1    1    3    3  502    0  0.62424778184E+03  0.20475453241E+03  0.10015087280E+04  0.11977601780E+04  0.50400001928E-02 0. -1.
       -1    1    3    3    0  502 -0.62424778184E+03 -0.20475453241E+03 -0.54394461704E+03  0.85292758081E+03  0.50400001928E-02 0.  1.
</event>
<event>
 5   0  0.9220260E-06  0.1999350E+04  0.7818609E-02  0.8606925E-01
        1   -1    0    0  501    0  0.00000000000E+00  0.00000000000E+00  0.19567880541E+04  0.19567880541E+04  0.50400001928E-02 0. -1.
       -1   -1    0    0    0  501  0.00000000000E+00  0.00000000000E+00 -0.51070947426E+03  0.51070947429E+03  0.50400001928E-02 0.  1.
    10030    2    1    2    0    0  0.00000000000E+00  0.00000000000E+00  0.14460785799E+04  0.24674975284E+04  0.19993500928E+04 0.  0.
        3    1    3    3  502    0  0.71073802573E+02 -0.70793185851E+03  0.15897000106E+04  0.17416558602E+04  0.10100000352E+00 0. -1.
       -3    1    3    3    0  502 -0.71073802573E+02  0.70793185851E+03 -0.14362143070E+03  0.72584166818E+03  0.10100000352E+00 0.  1.
</event>
<event>
 5   0  0.1999142E-05  0.1998422E+04  0.7818609E-02  0.8607359E-01
        2   -1    0    0  501    0  0.00000000000E+00  0.00000000000E+00  0.15705731915E+04  0.15705731915E+04  0.25500000920E-02 0.  1.
       -2   -1    0    0    0  501  0.00000000000E+00  0.00000000000E+00 -0.63570557992E+03  0.63570557992E+03  0.25500000920E-02 0. -1.
    10030    2    1    2    0    0  0.00000000000E+00  0.00000000000E+00  0.93486761153E+03  0.22062787714E+04  0.19984215186E+04 0.  0.
        1    1    3    3  502    0  0.48816213162E+03 -0.61024859599E+03  0.11548669144E+04  0.13944257619E+04  0.50400001928E-02 0.  1.
       -1    1    3    3    0  502 -0.48816213162E+03  0.61024859599E+03 -0.21999930284E+03  0.81185300943E+03  0.50400001928E-02 0. -1.
</event>
<event>
 5   0  0.7132000E-06  0.2005406E+04  0.7818609E-02  0.8604097E-01
       -3   -1    0    0    0  501  0.00000000000E+00  0.00000000000E+00  0.57718632718E+03  0.57718633602E+03  0.10100000352E+00 0.  1.
        3   -1    0    0  501    0  0.00000000000E+00  0.00000000000E+00 -0.17419211357E+04  0.17419211386E+04  0.10100000352E+00 0. -1.
    10030    2    1    2    0    0  0.00000000000E+00  0.00000000000E+00 -0.11647348085E+04  0.23191074746E+04  0.20054057706E+04 0.  0.
        3    1    3    3  502    0  0.97843595889E+03 -0.15872602993E+01 -0.32881248972E+03  0.10322098181E+04  0.10100000352E+00 0.  1.
       -3    1    3    3    0  502 -0.97843595889E+03  0.15872602993E+01 -0.83592231876E+03  0.12868976565E+04  0.10100000352E+00 0. -1.
</event>
<event>
 5   0  0.2003576E-05  0.2002643E+04  0.7818609E-02  0.8605386E-01
       -2   -1    0    0    0  501  0.00000000000E+00  0.00000000000E+00  0.56435840937E+03  0.56435840938E+03  0.25500000920E-02 0.  1.
        2   -1    0    0  501    0  0.00000000000E+00  0.00000000000E+00 -0.17766104875E+04  0.17766104875E+04  0.25500000920E-02 0. -1.
    10030    2    1    2    0    0  0.00000000000E+00  0.00000000000E+00 -0.12122520782E+04  0.23409688969E+04  0.20026433220E+04 0.  0.
        4    1    3    3  502    0 -0.30396941074E+03  0.64307203844E+03  0.21771048710E+03  0.74386727202E+03  0.12699999809E+01 0.  1.
       -4    1    3    3    0  502  0.30396941074E+03 -0.64307203844E+03 -0.14299625653E+04  0.15971016249E+04  0.12699999809E+01 0. -1.
</event>
<event>
 5   0  0.9370269E-06  0.2001797E+04  0.7818609E-02  0.8605781E-01
        1   -1    0    0  501    0  0.00000000000E+00  0.00000000000E+00  0.11921336171E+04  0.11921336171E+04  0.50400001928E-02 0.  1.
       -1   -1    0    0    0  501  0.00000000000E+00  0.00000000000E+00 -0.84034005410E+03  0.84034005411E+03  0.50400001928E-02 0. -1.
    10030    2    1    2    0    0  0.00000000000E+00  0.00000000000E+00  0.35179356298E+03  0.20324736712E+04  0.20017968211E+04 0.  0.
        4    1    3    3  502    0  0.27294357323E+03 -0.95305590774E+03  0.36009294459E+02  0.99202421323E+03  0.12699999809E+01 0. -1.
       -4    1    3    3    0  502 -0.27294357323E+03  0.95305590774E+03  0.31578426852E+03  0.10404494580E+04  0.12699999809E+01 0.  1.
</event>
<event>
 5   0  0.9342635E-06  0.1996673E+04  0.7818609E-02  0.8608178E-01
        1   -1    0    0  501    0  0.00000000000E+00  0.00000000000E+00  0.11867754221E+04  0.11867754221E+04  0.50400001928E-02 0. -1.
       -1   -1    0    0    0  501  0.00000000000E+00  0.00000000000E+00 -0.83981804253E+03  0.83981804254E+03  0.50400001928E-02 0.  1.
    10030    2    1    2    0    0  0.00000000000E+00  0.00000000000E+00  0.34695737961E+03  0.20265934647E+04  0.19966726441E+04 0.  0.
        5    1    3    3  502    0 -0.33905994566E+02  0.57476467640E+03  0.10012670781E+04  0.11550159746E+04  0.46999998093E+01 0. -1.
       -5    1    3    3    0  502  0.33905994566E+02 -0.57476467640E+03 -0.65430969854E+03  0.87157749013E+03  0.46999998093E+01 0.  1.
</event>
<event>
 5   0  0.1999142E-05  0.1998368E+04  0.7818609E-02  0.8607384E-01
       -2   -1    0    0    0  501  0.00000000000E+00  0.00000000000E+00  0.15016541705E+04  0.15016541705E+04  0.25500000920E-02 0.  1.
        2   -1    0    0  501    0  0.00000000000E+00  0.00000000000E+00 -0.66484620584E+03  0.66484620585E+03  0.25500000920E-02 0. -1.
    10030    2    1    2    0    0  0.00000000000E+00  0.00000000000E+00  0.83680796464E+03  0.21665003763E+04  0.19983684122E+04 0.  0.
        1    1    3    3  502    0  0.28887005374E+03 -0.62093791110E+03  0.12071886825E+04  0.13879172571E+04  0.50400001928E-02 0.  1.
       -1    1    3    3    0  502 -0.28887005374E+03  0.62093791110E+03 -0.37038071785E+03  0.77858311924E+03  0.50400001928E-02 0. -1.
</event>
<event>
 5   0  0.9220260E-06  0.1998846E+04  0.7818609E-02  0.8607160E-01
        1   -1    0    0  501    0  0.00000000000E+00  0.00000000000E+00  0.10645940228E+04  0.10645940228E+04  0.50400001928E-02 0. -1.
       -1   -1    0    0    0  501  0.00000000000E+00  0.00000000000E+00 -0.93824196712E+03  0.93824196713E+03  0.50400001928E-02 0.  1.
    10030    2    1    2    0    0  0.00000000000E+00  0.00000000000E+00  0.12635205566E+03  0.20028359899E+04  0.19988464575E+04 0.  0.
        3    1    3    3  502    0  0.66062450339E+02 -0.95725050359E+03 -0.21694233143E+03  0.98374628809E+03  0.10100000352E+00 0.  1.
       -3    1    3    3    0  502 -0.66062450339E+02  0.95725050359E+03  0.34329438709E+03  0.10190897018E+04  0.10100000352E+00 0. -1.
</event>
<event>
 5   0  0.1979765E-05  0.1994995E+04  0.7818609E-02  0.8608964E-01
       -2   -1    0    0    0  501  0.00000000000E+00  0.00000000000E+00  0.47367679773E+03  0.47367679774E+03  0.25500000920E-02 0.  1.
        2   -1    0    0  501    0  0.00000000000E+00  0.00000000000E+00 -0.21005906776E+04  0.21005906776E+04  0.25500000920E-02 0. -1.
    10030    2    1    2    0    0  0.00000000000E+00  0.00000000000E+00 -0.16269138799E+04  0.25742674754E+04  0.19949948025E+04 0.  0.
        2    1    3    3  502    0  0.68171443920E+03 -0.22869501275E+03 -0.17055496393E+04  0.18509282962E+04  0.25500000920E-02 0. -1.
       -2    1    3    3    0  502 -0.68171443920E+03  0.22869501275E+03  0.78635759406E+02  0.72333917918E+03  0.25500000920E-02 0.  1.
</event>
<event>
 5   0  0.1979765E-05  0.2001462E+04  0.7818609E-02  0.8605937E-01
       -2   -1    0    0    0  501  0.00000000000E+00  0.00000000000E+00  0.17668569989E+04  0.17668569989E+04  0.25500000920E-02 0. -1.
        2   -1    0    0  501    0  0.00000000000E+00  0.00000000000E+00 -0.56680472492E+03  0.56680472493E+03  0.25500000920E-02 0.  1.
    10030    2    1    2    0    0  0.00000000000E+00  0.00000000000E+00  0.12000522740E+04  0.23336617239E+04  0.20014623606E+04 0.  0.
        2    1    3    3  502    0  0.37724493431E+03  0.92452216494E+03  0.52261429643E+03  0.11270229265E+04  0.25500000920E-02 0.  1.
       -2    1    3    3    0  502 -0.37724493431E+03 -0.92452216494E+03  0.67743797758E+03  0.12066387974E+04  0.25500000920E-02 0. -1.
</event>
<event>
 5   0  0.2003576E-05  0.1993613E+04  0.7818609E-02  0.8609612E-01
       -2   -1    0    0    0  501  0.00000000000E+00  0.00000000000E+00  0.47175360089E+03  0.47175360089E+03  0.25500000920E-02 0. -1.
        2   -1    0    0  501    0  0.00000000000E+00  0.00000000000E+00 -0.21062342240E+04  0.21062342240E+04  0.25500000920E-02 0.  1.
    10030    2    1    2    0    0  0.00000000000E+00  0.00000000000E+00 -0.16344806231E+04  0.25779878248E+04  0.19936133822E+04 0.  0.
        4    1    3    3  502    0  0.39733248770E+03  0.38331896791E+03 -0.18904667312E+04  0.19694345918E+04  0.12699999809E+01 0.  1.
       -4    1    3    3    0  502 -0.39733248770E+03 -0.38331896791E+03  0.25598610812E+03  0.60855323300E+03  0.12699999809E+01 0. -1.
</event>
<event>
 5   0  0.2020029E-05  0.1999671E+04  0.7818609E-02  0.8606774E-01
        2   -1    0    0  501    0  0.00000000000E+00  0.00000000000E+00  0.12278479770E+04  0.12278479770E+04  0.25500000920E-02 0.  1.
       -2   -1    0    0    0  501  0.00000000000E+00  0.00000000000E+00 -0.81416550725E+03  0.81416550725E+03  0.25500000920E-02 0. -1.
    10030    2    1    2    0    0  0.00000000000E+00  0.00000000000E+00  0.41368246979E+03  0.20420134843E+04  0.19996714441E+04 0.  0.
        5    1    3    3  502    0 -0.38301860636E+03 -0.92210337937E+03  0.15406038098E+03  0.10103141027E+04  0.46999998093E+01 0. -1.
       -5    1    3    3    0  502  0.38301860636E+03  0.92210337937E+03  0.25962208881E+03  0.10316993816E+04  0.46999998093E+01 0.  1.
</event>
<event>
 5   0  0.1999142E-05  0.2002410E+04  0.7818609E-02  0.8605495E-01
        2   -1    0    0  501    0  0.00000000000E+00  0.00000000000E+00  0.12461978863E+04  0.12461978863E+04  0.25500000920E-02 0.  1.
       -2   -1    0    0    0  501  0.00000000000E+00  0.00000000000E+00 -0.80437561329E+03  0.80437561330E+03  0.25500000920E-02 0. -1.
    10030    2    1    2    0    0  0.00000000000E+00  0.00000000000E+00  0.44182227299E+03  0.20505734996E+04  0.20024097374E+04 0.  0.
        1    1    3    3  502    0 -0.72970232198E+03 -0.44641339067E+03  0.75367537889E+03  0.11400776161E+04  0.50400001928E-02 0.  1.
       -1    1    3    3    0  502  0.72970232198E+03  0.44641339067E+03 -0.31185310590E+03  0.91049588344E+03  0.50400001928E-02 0. -1.
</event>
<event>
 5   0  0.2020029E-05  0.1980306E+04  0.7818609E-02  0.8615884E-01
        2   -1    0    0  501    0  0.00000000000E+00  0.00000000000E+00  0.97602586444E+03  0.97602586445E+03  0.25500000920E-02 0. -1.
       -2   -1    0    0    0  501  0.00000000000E+00  0.00000000000E+00 -0.10044849336E+04  0.10044849336E+04  0.25500000920E-02 0.  1.
    10030    2    1    2    0    0  0.00000000000E+00  0.00000000000E+00 -0.28459069179E+02  0.19805107981E+04  0.19803063154E+04 0.  0.
        5    1    3    3  502    0 -0.33294361398E+03  0.24608191216E+03 -0.91375190945E+03  0.10031811400E+04  0.46999998093E+01 0.  1.
       -5    1    3    3    0  502  0.33294361398E+03 -0.24608191216E+03  0.88529284027E+03  0.97732965810E+03  0.46999998093E+01 0. -1.
</event>
<event>
 5   0  0.9370269E-06  0.1998308E+04  0.7818609E-02  0.8607412E-01
       -1   -1    0    0    0  501  0.00000000000E+00  0.00000000000E+00  0.11705168109E+04  0.11705168109E+04  0.50400001928E-02 0.  1.
        1   -1    0    0  501    0  0.00000000000E+00  0.00000000000E+00 -0.85287839347E+03  0.85287839349E+03  0.50400001928E-02 0. -1.
    10030    2    1    2    0    0  0.00000000000E+00  0.00000000000E+00  0.31763841745E+03  0.20233952044E+04  0.19983077814E+04 0.  0.
        4    1    3    3  502    0  0.29590865996E+03 -0.92787413847E+03 -0.67129137195E+02  0.97622757892E+03  0.12699999809E+01 0. -1.
       -4    1    3    3    0  502 -0.29590865996E+03  0.92787413847E+03  0.38476755465E+03  0.10471676255E+04  0.12699999809E+01 0.  1.
</event>
<event>
 5   0  0.9342635E-06  0.2000733E+04  0.7818609E-02  0.8606278E-01
       -1   -1    0    0    0  501  0.00000000000E+00  0.00000000000E+00  0.68280292118E+03  0.68280292120E+03  0.50400001928E-02 0.  1.
        1   -1    0    0  501    0  0.00000000000E+00  0.00000000000E+00 -0.14656246072E+04  0.14656246072E+04  0.50400001928E-02 0. -1.
    10030    2    1    2    0    0  0.00000000000E+00  0.00000000000E+00 -0.78282168598E+03  0.21484275284E+04  0.20007326290E+04 0.  0.
        5    1    3    3  502    0 -0.95716289125E+03 -0.26514611306E+03 -0.26323693157E+03  0.10275110869E+04  0.46999998093E+01 0.  1.
       -5    1    3    3    0  502  0.95716289125E+03  0.26514611306E+03 -0.51958475441E+03  0.11209164414E+04  0.46999998093E+01 0. -1.
</event>
<event>
 5   0  0.2003576E-05  0.1999529E+04  0.7818609E-02  0.8606841E-01
        2   -1    0    0  501    0  0.00000000000E+00  0.00000000000E+00  0.15752134209E+04  0.15752134209E+04  0.25500000920E-02 0. -1.
       -2   -1    0    0    0  501  0.00000000000E+00  0.00000000000E+00 -0.63453564680E+03  0.63453564681E+03  0.25500000920E-02 0.  1.
    10030    2    1    2    0    0  0.00000000000E+00  0.00000000000E+00  0.94067777409E+03  0.22097490677E+04  0.19995290114E+04 0.  0.
        4    1    3    3  502    0  0.28437684121E+03  0.42202784541E+03  0.14213648504E+04  0.15097209480E+04  0.12699999809E+01 0. -1.
       -4    1    3    3    0  502 -0.28437684121E+03 -0.42202784541E+03 -0.48068707629E+03  0.70002811967E+03  0.12699999809E+01 0.  1.
</event>
<event>
 5   0  0.1979765E-05  0.1998943E+04  0.7818609E-02  0.8607115E-01
        2   -1    0    0  501    0  0.00000000000E+00  0.00000000000E+00  0.75159714037E+03  0.75159714038E+03  0.25500000920E-02 0.  1.
       -2   -1    0    0    0  501  0.00000000000E+00  0.00000000000E+00 -0.13290943287E+04  0.13290943287E+04  0.25500000920E-02 0. -1.
    10030    2    1    2    0    0  0.00000000000E+00  0.00000000000E+00 -0.57749718828E+03  0.20806914690E+04  0.19989432175E+04 0.  0.
        2    1    3    3  502    0  0.43157422390E+03 -0.87993802629E+03 -0.49271172389E+03  0.10969558258E+04  0.25500000920E-02 0. -1.
       -2    1    3    3    0  502 -0.43157422390E+03  0.87993802629E+03 -0.84785464393E+02  0.98373564326E+03  0.25500000920E-02 0.  1.
</event>
<event>
 5   0  0.9342635E-06  0.1999373E+04  0.7818609E-02  0.8606914E-01
       -1   -1    0    0    0  501  0.00000000000E+00  0.00000000000E+00  0.14446984440E+04  0.14446984440E+04  0.50400001928E-02 0. -1.
        1   -1    0    0  501    0  0.00000000000E+00  0.00000000000E+00 -0.69175174377E+03  0.69175174379E+03  0.50400001928E-02 0.  1.
    10030    2    1    2    0    0  0.00000000000E+00  0.00000000000E+00  0.75294670020E+03  0.21364501878E+04  0.19993725695E+04 0.  0.
        5    1    3    3  502    0 -0.14427700239E+03  0.93779926838E+03  0.40144509251E+02  0.94969310454E+03  0.46999998093E+01 0.  1.
       -5    1    3    3    0  502  0.14427700239E+03 -0.93779926838E+03  0.71280219095E+03  0.11867570832E+04  0.46999998093E+01 0. -1.
</event>
<event>
 5   0  0.9333353E-06  0.2002966E+04  0.7818609E-02  0.8605235E-01
        1   -1    0    0  501    0  0.00000000000E+00  0.00000000000E+00  0.52981198559E+03  0.52981198561E+03  0.50400001928E-02 0. -1.
       -1   -1    0    0    0  501  0.00000000000E+00  0.00000000000E+00 -0.18930639970E+04  0.18930639970E+04  0.50400001928E-02 0.  1.
    10030    2    1    2    0    0  0.00000000000E+00  0.00000000000E+00 -0.13632520114E+04  0.24228759826E+04  0.20029657961E+04 0.  0.
        2    1    3    3  502    0 -0.47875296828E+02 -0.89391595036E+03 -0.13851026930E+03  0.90584925074E+03  0.25500000920E-02 0. -1.
       -2    1    3    3    0  502  0.47875296828E+02  0.89391595036E+03 -0.12247417421E+04  0.15170267319E+04  0.25500000920E-02 0.  1.
</event>
<event>
 5   0  0.2020029E-05  0.1997471E+04  0.7818609E-02  0.8607804E-01
       -2   -1    0    0    0  501  0.00000000000E+00  0.00000000000E+00  0.11863491000E+04  0.11863491000E+04  0.25500000920E-02 0.  1.
        2   -1    0    0  501    0  0.00000000000E+00  0.00000000000E+00 -0.84079214736E+03  0.84079214737E+03  0.25500000920E-02 0. -1.
    10030    2    1    2    0    0  0.00000000000E+00  0.00000000000E+00  0.34555695263E+03  0.20271412474E+04  0.19974714089E+04 0.  0.
        5    1    3    3  502    0  0.58240052200E+03 -0.31201324954E+03 -0.58728412713E+03  0.88400643204E+03  0.46999998093E+01 0. -1.
       -5    1    3    3    0  502 -0.58240052200E+03  0.31201324954E+03  0.93284107975E+03  0.11431348153E+04  0.46999998093E+01 0.  1.
</event>
<event>
 5   0  0.9333353E-06  0.1999548E+04  0.7818609E-02  0.8606832E-01
        1   -1    0    0  501    0  0.00000000000E+00  0.00000000000E+00  0.11622086484E+04  0.11622086484E+04  0.50400001928E-02 0.  1.
       -1   -1    0    0    0  501  0.00000000000E+00  0.00000000000E+00 -0.86004215216E+03  0.86004215217E+03  0.50400001928E-02 0. -1.
    10030    2    1    2    0    0  0.00000000000E+00  0.00000000000E+00  0.30216649622E+03  0.20222508006E+04  0.19995483762E+04 0.  0.
        2    1    3    3  502    0  0.45338286666E+03 -0.11597842414E+03  0.10445966567E+04  0.11446349610E+04  0.25500000920E-02 0.  1.
       -2    1    3    3    0  502 -0.45338286666E+03  0.11597842414E+03 -0.74243016050E+03  0.87761583958E+03  0.25500000920E-02 0. -1.
</event>
<event>
 5   0  0.9220260E-06  0.2002593E+04  0.7818609E-02  0.8605409E-01
        1   -1    0    0  501    0  0.00000000000E+00  0.00000000000E+00  0.12823276859E+04  0.12823276859E+04  0.50400001928E-02 0.  1.
       -1   -1    0    0    0  501  0.00000000000E+00  0.00000000000E+00 -0.78185566487E+03  0.78185566488E+03  0.50400001928E-02 0. -1.
    10030    2    1    2    0    0  0.00000000000E+00  0.00000000000E+00  0.50047202105E+03  0.20641833508E+04  0.20025934839E+04 0.  0.
        3    1    3    3  502    0 -0.50374346022E+03 -0.82270913911E+03  0.52679232403E+03  0.10991441962E+04  0.10100000352E+00 0.  1.
       -3    1    3    3    0  502  0.50374346022E+03  0.82270913911E+03 -0.26320302979E+02  0.96503915456E+03  0.10100000352E+00 0. -1.
</event>
<event>
 5   0  0.9140695E-06  0.1999730E+04  0.7818609E-02  0.8606747E-01
       -1   -1    0    0    0  501  0.00000000000E+00  0.00000000000E+00  0.40997358496E+03  0.40997358499E+03  0.50400001928E-02 0.  1.
        1   -1    0    0  501    0  0.00000000000E+00  0.00000000000E+00 -0.24385229417E+04  0.24385229418E+04  0.50400001928E-02 0. -1.
    10030    2    1    2    0    0  0.00000000000E+00  0.00000000000E+00 -0.20285493568E+04  0.28484965267E+04  0.19997299742E+04 0.  0.
        1    1    3    3  502    0  0.35714054314E+02  0.47348578773E+03  0.23912433995E+03  0.53164342829E+03  0.50400001928E-02 0.  1.
       -1    1    3    3    0  502 -0.35714054314E+02 -0.47348578773E+03 -0.22676736967E+04  0.23168530984E+04  0.50400001928E-02 0. -1.
</event>
<event>
 5   0  0.1999142E-05  0.2001527E+04  0.7818609E-02  0.8605907E-01
       -2   -1    0    0    0  501  0.00000000000E+00  0.00000000000E+00  0.12292049358E+04  0.12292049358E+04  0.25500000920E-02 0.  1.
        2   -1    0    0  501    0  0.00000000000E+00  0.00000000000E+00 -0.81477697814E+03  0.81477697815E+03  0.25500000920E-02 0. -1.
    10030    2    1    2    0    0  0.00000000000E+00  0.00000000000E+00  0.41442795768E+03  0.20439819140E+04  0.20015273000E+04 0.  0.
        1    1    3    3  502    0  0.48713958989E+03  0.83740998837E+03  0.46346963554E+03  0.10739481234E+04  0.50400001928E-02 0.  1.
       -1    1    3    3    0  502 -0.48713958989E+03 -0.83740998837E+03 -0.49041677855E+02  0.97003379058E+03  0.50400001928E-02 0. -1.
</event>
<event>
 5   0  0.7132000E-06  0.1996606E+04  0.7818609E-02  0.8608209E-01
        3   -1    0    0  501    0  0.00000000000E+00  0.00000000000E+00  0.99195978865E+03  0.99195979379E+03  0.10100000352E+00 0. -1.
       -3   -1    0    0    0  501  0.00000000000E+00  0.00000000000E+00 -0.10046871363E+04  0.10046871414E+04  0.10100000352E+00 0.  1.
    10030    2    1    2    0    0  0.00000000000E+00  0.00000000000E+00 -0.12727347625E+02  0.19966469351E+04  0.19966063704E+04 0.  0.
        5    1    3    3  502    0  0.74771142104E+03 -0.23433777674E+03  0.61219605931E+03  0.99438054476E+03  0.46999998093E+01 0. -1.
       -5    1    3    3    0  502 -0.74771142104E+03  0.23433777674E+03 -0.62492340693E+03  0.10022663904E+04  0.46999998093E+01 0.  1.
</event>
<event>
 5   0  0.2038882E-05  0.2002720E+04  0.7818609E-02  0.8605350E-01
       -2   -1    0    0    0  501  0.00000000000E+00  0.00000000000E+00  0.58042941952E+03  0.58042941953E+03  0.25500000920E-02 0. -1.
        2   -1    0    0  501    0  0.00000000000E+00  0.00000000000E+00 -0.17275514871E+04  0.17275514871E+04  0.25500000920E-02 0.  1.
    10030    2    1    2    0    0  0.00000000000E+00  0.00000000000E+00 -0.11471220675E+04  0.23079809066E+04  0.20027198574E+04 0.  0.
        3    1    3    3  502    0 -0.25773952396E+03 -0.96663482613E+03 -0.52320729414E+03  0.11289634326E+04  0.10100000352E+00 0. -1.
       -3    1    3    3    0  502  0.25773952396E+03  0.96663482613E+03 -0.62391477340E+03  0.11790174740E+04  0.10100000352E+00 0.  1.
</event>
<event>
 5   0  0.2020029E-05  0.2003046E+04  0.7818609E-02  0.8605198E-01
       -2   -1    0    0    0  501  0.00000000000E+00  0.00000000000E+00  0.60830266817E+03  0.60830266817E+03  0.25500000920E-02 0.  1.
        2   -1    0    0  501    0  0.00000000000E+00  0.00000000000E+00 -0.16489304415E+04  0.16489304415E+04  0.25500000920E-02 0. -1.
    10030    2    1    2    0    0  0.00000000000E+00  0.00000000000E+00 -0.10406277733E+04  0.22572331097E+04  0.20030464669E+04 0.  0.
        5    1    3    3  502    0  0.93541210594E+03 -0.31098435942E+03 -0.71974532067E+03  0.12205582724E+04  0.46999998093E+01 0.  1.
       -5    1    3    3    0  502 -0.93541210594E+03  0.31098435942E+03 -0.32088245265E+03  0.10366748372E+04  0.46999998093E+01 0. -1.
</event>
<event>
 5   0  0.2003576E-05  0.1998320E+04  0.7818609E-02  0.8607407E-01
        2   -1    0    0  501    0  0.00000000000E+00  0.00000000000E+00  0.15190163076E+04  0.15190163076E+04  0.25500000920E-02 0. -1.
       -2   -1    0    0    0  501  0.00000000000E+00  0.00000000000E+00 -0.65721523125E+03  0.65721523126E+03  0.25500000920E-02 0.  1.
    10030    2    1    2    0    0  0.00000000000E+00  0.00000000000E+00  0.86180107633E+03  0.21762315388E+04  0.19983199482E+04 0.  0.
        4    1    3    3  502    0  0.60437861776E+03  0.34729098672E+03  0.12104779661E+04  0.13968332264E+04  0.12699999809E+01 0. -1.
       -4    1    3    3    0  502 -0.60437861776E+03 -0.34729098672E+03 -0.34867688977E+03  0.77939831243E+03  0.12699999809E+01 0.  1.
</event>
<event>
 5   0  0.1999142E-05  0.1990866E+04  0.7818609E-02  0.8610903E-01
       -2   -1    0    0    0  501  0.00000000000E+00  0.00000000000E+00  0.77656500982E+03  0.77656500982E+03  0.25500000920E-02 0. -1.
        2   -1    0    0  501    0  0.00000000000E+00  0.00000000000E+00 -0.12759875512E+04  0.12759875512E+04  0.25500000920E-02 0.  1.
    10030    2    1    2    0    0  0.00000000000E+00  0.00000000000E+00 -0.49942254136E+03  0.20525525610E+04  0.19908664297E+04 0.  0.
        1    1    3    3  502    0  0.78379251957E+03  0.59430467573E+03 -0.40728175170E+03  0.10646159808E+04  0.50400001928E-02 0.  1.
       -1    1    3    3    0  502 -0.78379251957E+03 -0.59430467573E+03 -0.92140789663E+02  0.98793658019E+03  0.50400001928E-02 0. -1.
</event>
<event>
 5   0  0.9333353E-06  0.2000560E+04  0.7818609E-02  0.8606359E-01
        1   -1    0    0  501    0  0.00000000000E+00  0.00000000000E+00  0.15296006005E+04  0.15296006005E+04  0.50400001928E-02 0. -1.
       -1   -1    0    0    0  501  0.00000000000E+00  0.00000000000E+00 -0.65413176141E+03  0.65413176143E+03  0.50400001928E-02 0.  1.
    10030    2    1    2    0    0  0.00000000000E+00  0.00000000000E+00  0.87546883907E+03  0.21837323619E+04  0.20005602566E+04 0.  0.
        2    1    3    3  502    0 -0.17957015067E+03  0.90001882148E+03  0.87200678018E+03  0.12659680654E+04  0.25500000920E-02 0. -1.
       -2    1    3    3    0  502  0.17957015067E+03 -0.90001882148E+03  0.34620588884E+01  0.91776429648E+03  0.25500000920E-02 0.  1.
</event>
<event>
 5   0  0.9220260E-06  0.2000003E+04  0.7818609E-02  0.8606619E-01
        1   -1    0    0  501    0  0.00000000000E+00  0.00000000000E+00  0.76341571295E+03  0.76341571297E+03  0.50400001928E-02 0.  1.
       -1   -1    0    0    0  501  0.00000000000E+00  0.00000000000E+00 -0.13099055936E+04  0.13099055936E+04  0.50400001928E-02 0. -1.
    10030    2    1    2    0    0  0.00000000000E+00  0.00000000000E+00 -0.54648988064E+03  0.20733213066E+04  0.20000025127E+04 0.  0.
        3    1    3    3  502    0  0.59537152280E+03  0.76327452324E+03 -0.13154454598E+02  0.96810552001E+03  0.10100000352E+00 0.  1.
       -3    1    3    3    0  502 -0.59537152280E+03 -0.76327452324E+03 -0.53333542605E+03  0.11052157866E+04  0.10100000352E+00 0. -1.
</event>
<event>
 5   0  0.2038882E-05  0.2007625E+04  0.7818609E-02  0.8603064E-01
       -2   -1    0    0    0  501  0.00000000000E+00  0.00000000000E+00  0.55150393649E+03  0.55150393649E+03  0.25500000920E-02 0. -1.
        2   -1    0    0  501    0  0.00000000000E+00  0.00000000000E+00 -0.18270763976E+04  0.18270763976E+04  0.25500000920E-02 0.  1.
    10030    2    1    2    0    0  0.00000000000E+00  0.00000000000E+00 -0.12755724611E+04  0.23785803341E+04  0.20076252893E+04 0.  0.
        3    1    3    3  502    0  0.76353439993E+03 -0.17533425505E+03 -0.13813792205E+04  0.15880602765E+04  0.10100000352E+00 0.  1.
       -3    1    3    3    0  502 -0.76353439993E+03  0.17533425505E+03  0.10580675938E+03  0.79052005756E+03  0.10100000352E+00 0. -1.
</event>
<event>
 5   0  0.2038882E-05  0.2016495E+04  0.7818609E-02  0.8598947E-01
       -2   -1    0    0    0  501  0.00000000000E+00  0.00000000000E+00  0.65894750685E+03  0.65894750685E+03  0.25500000920E-02 0. -1.
        2   -1    0    0  501    0  0.00000000000E+00  0.00000000000E+00 -0.15427076090E+04  0.15427076090E+04  0.25500000920E-02 0.  1.
    10030    2    1    2    0    0  0.00000000000E+00  0.00000000000E+00 -0.88376010218E+03  0.22016551159E+04  0.20164953090E+04 0.  0.
        3    1    3    3  502    0 -0.17221770277E+03  0.51023206432E+03 -0.13725380066E+04  0.14744003141E+04  0.10100000352E+00 0.  1.
       -3    1    3    3    0  502  0.17221770277E+03 -0.51023206432E+03  0.48877790441E+03  0.72725480174E+03  0.10100000352E+00 0. -1.
</event>
<event>
 5   0  0.9333353E-06  0.2031276E+04  0.7818609E-02  0.8592136E-01
        1   -1    0    0  501    0  0.00000000000E+00  0.00000000000E+00  0.13212055848E+04  0.13212055848E+04  0.50400001928E-02 0. -1.
       -1   -1    0    0    0  501  0.00000000000E+00  0.00000000000E+00 -0.78074213545E+03  0.78074213546E+03  0.50400001928E-02 0.  1.
    10030    2    1    2    0    0  0.00000000000E+00  0.00000000000E+00  0.54046344938E+03  0.21019477203E+04  0.20312763177E+04 0.  0.
        2    1    3    3  502    0  0.64494799315E+03  0.23329287103E+03 -0.50492141349E+03  0.85166255721E+03  0.25500000920E-02 0.  1.
       -2    1    3    3    0  502 -0.64494799315E+03 -0.23329287103E+03  0.10453848629E+04  0.12502851631E+04  0.25500000920E-02 0. -1.
</event>
<event>
 5   0  0.9140695E-06  0.1998519E+04  0.7818609E-02  0.8607313E-01
        1   -1    0    0  501    0  0.00000000000E+00  0.00000000000E+00  0.11783049535E+04  0.11783049535E+04  0.50400001928E-02 0.  1.
       -1   -1    0    0    0  501  0.00000000000E+00  0.00000000000E+00 -0.84742023195E+03  0.84742023197E+03  0.50400001928E-02 0. -1.
    10030    2    1    2    0    0  0.00000000000E+00  0.00000000000E+00  0.33088472150E+03  0.20257251854E+04  0.19985189086E+04 0.  0.
        1    1    3    3  502    0 -0.94399294633E+03 -0.21642171304E+03 -0.83993861726E+02  0.97211933909E+03  0.50400001928E-02 0. -1.
       -1    1    3    3    0  502  0.94399294633E+03  0.21642171304E+03  0.41487858323E+03  0.10536058463E+04  0.50400001928E-02 0.  1.
</event>
<event>
 5   0  0.2020029E-05  0.1997081E+04  0.7818609E-02  0.8607987E-01
        2   -1    0    0  501    0  0.00000000000E+00  0.00000000000E+00  0.12134252112E+04  0.12134252112E+04  0.25500000920E-02 0. -1.
       -2   -1    0    0    0  501  0.00000000000E+00  0.00000000000E+00 -0.82170952797E+03  0.82170952798E+03  0.25500000920E-02 0.  1.
    10030    2    1    2    0    0  0.00000000000E+00  0.00000000000E+00  0.39171568320E+03  0.20351347392E+04  0.19970809273E+04 0.  0.
        5    1    3    3  502    0 -0.69036050500E+03  0.67002922818E+03 -0.76678190838E+02  0.96511057834E+03  0.46999998093E+01 0. -1.
       -5    1    3    3    0  502  0.69036050500E+03 -0.67002922818E+03  0.46839387404E+03  0.10700241608E+04  0.46999998093E+01 0.  1.
</event>
<event>
 5   0  0.9370269E-06  0.1994987E+04  0.7818609E-02  0.8608968E-01
       -1   -1    0    0    0  501  0.00000000000E+00  0.00000000000E+00  0.87988251754E+03  0.87988251755E+03  0.50400001928E-02 0. -1.
        1   -1    0    0  501    0  0.00000000000E+00  0.00000000000E+00 -0.11308255630E+04  0.11308255631E+04  0.50400001928E-02 0.  1.
    10030    2    1    2    0    0  0.00000000000E+00  0.00000000000E+00 -0.25094304550E+03  0.20107080806E+04  0.19949873617E+04 0.  0.
        4    1    3    3  502    0  0.36280389558E+03  0.86019305591E+03 -0.47957076089E+03  0.10495468011E+04  0.12699999809E+01 0.  1.
       -4    1    3    3    0  502 -0.36280389558E+03 -0.86019305591E+03  0.22862771539E+03  0.96116127951E+03  0.12699999809E+01 0. -1.
</event>
<event>
 5   0  0.9140695E-06  0.2004362E+04  0.7818609E-02  0.8604584E-01
        1   -1    0    0  501    0  0.00000000000E+00  0.00000000000E+00  0.10700965382E+04  0.10700965382E+04  0.50400001928E-02 0.  1.
       -1   -1    0    0    0  501  0.00000000000E+00  0.00000000000E+00 -0.93857601382E+03  0.93857601383E+03  0.50400001928E-02 0. -1.
    10030    2    1    2    0    0  0.00000000000E+00  0.00000000000E+00  0.13152052440E+03  0.20086725521E+04  0.20043621861E+04 0.  0.
        1    1    3    3  502    0  0.36054598921E+03  0.64460203763E+03 -0.61308981373E+03  0.95988765852E+03  0.50400001928E-02 0. -1.
       -1    1    3    3    0  502 -0.36054598921E+03 -0.64460203763E+03  0.74461033813E+03  0.10487848935E+04  0.50400001928E-02 0.  1.
</event>
<event>
 5   0  0.2003576E-05  0.2000262E+04  0.7818609E-02  0.8606498E-01
        2   -1    0    0  501    0  0.00000000000E+00  0.00000000000E+00  0.17262522174E+04  0.17262522174E+04  0.25500000920E-02 0.  1.
       -2   -1    0    0    0  501  0.00000000000E+00  0.00000000000E+00 -0.57944120170E+03  0.57944120170E+03  0.25500000920E-02 0. -1.
    10030    2    1    2    0    0  0.00000000000E+00  0.00000000000E+00  0.11468110157E+04  0.23056934191E+04  0.20002616422E+04 0.  0.
        4    1    3    3  502    0 -0.32044747894E+03 -0.90322426325E+03  0.24380826187E+03  0.98891088473E+03  0.12699999809E+01 0.  1.
       -4    1    3    3    0  502  0.32044747894E+03  0.90322426325E+03  0.90300275379E+03  0.13167825343E+04  0.12699999809E+01 0. -1.
</event>
<event>
 5   0  0.9140695E-06  0.1999060E+04  0.7818609E-02  0.8607060E-01
        1   -1    0    0  501    0  0.00000000000E+00  0.00000000000E+00  0.16456598013E+04  0.16456598013E+04  0.50400001928E-02 0.  1.
       -1   -1    0    0    0  501  0.00000000000E+00  0.00000000000E+00 -0.60708764276E+03  0.60708764279E+03  0.50400001928E-02 0. -1.
    10030    2    1    2    0    0  0.00000000000E+00  0.00000000000E+00  0.10385721586E+04  0.22527474441E+04  0.19990595085E+04 0.  0.
        1    1    3    3  502    0  0.33261815986E+02  0.68334213647E+03  0.13404555186E+04  0.15049530961E+04  0.50400001928E-02 0.  1.
       -1    1    3    3    0  502 -0.33261815986E+02 -0.68334213647E+03 -0.30188336007E+03  0.74779434806E+03  0.50400001928E-02 0. -1.
</event>
<event>
 5   0  0.9140695E-06  0.2003435E+04  0.7818609E-02  0.8605017E-01
       -1   -1    0    0    0  501  0.00000000000E+00  0.00000000000E+00  0.93505072354E+03  0.93505072355E+03  0.50400001928E-02 0. -1.
        1   -1    0    0  501    0  0.00000000000E+00  0.00000000000E+00 -0.10731371212E+04  0.10731371212E+04  0.50400001928E-02 0.  1.
    10030    2    1    2    0    0  0.00000000000E+00  0.00000000000E+00 -0.13808639766E+03  0.20081878448E+04  0.20034346924E+04 0.  0.
        1    1    3    3  502    0 -0.81336844675E+03  0.21958046233E+03 -0.61222721315E+03  0.10414441752E+04  0.50400001928E-02 0.  1.
       -1    1    3    3    0  502  0.81336844675E+03 -0.21958046233E+03  0.47414081549E+03  0.96674366952E+03  0.50400001928E-02 0. -1.
</event>
<event>
 5   0  0.9140695E-06  0.2002768E+04  0.7818609E-02  0.8605327E-01
        1   -1    0    0  501    0  0.00000000000E+00  0.00000000000E+00  0.20871855771E+04  0.20871855771E+04  0.50400001928E-02 0.  1.
       -1   -1    0    0    0  501  0.00000000000E+00  0.00000000000E+00 -0.48044132272E+03  0.48044132274E+03  0.50400001928E-02 0. -1.
    10030    2    1    2    0    0  0.00000000000E+00  0.00000000000E+00  0.16067442544E+04  0.25676268999E+04  0.20027682836E+04 0.  0.
        1    1    3    3  502    0  0.88871712669E+03 -0.27246264294E+03  0.12808626612E+04  0.15826127701E+04  0.50400001928E-02 0.  1.
       -1    1    3    3    0  502 -0.88871712669E+03  0.27246264294E+03  0.32588159315E+03  0.98501412977E+03  0.50400001928E-02 0. -1.
</event>
<event>
 5   0  0.9342635E-06  0.2001074E+04  0.7818609E-02  0.8606119E-01
       -1   -1    0    0    0  501  0.00000000000E+00  0.00000000000E+00  0.67417872908E+03  0.67417872910E+03  0.50400001928E-02 0. -1.
        1   -1    0    0  501    0  0.00000000000E+00  0.00000000000E+00 -0.14848796252E+04  0.14848796252E+04  0.50400001928E-02 0.  1.
    10030    2    1    2    0    0  0.00000000000E+00  0.00000000000E+00 -0.81070089614E+03  0.21590583543E+04  0.20010739702E+04 0.  0.
        5    1    3    3  502    0  0.36113976848E+03  0.23481092028E+03 -0.13796929353E+04  0.14453832663E+04  0.46999998093E+01 0.  1.
       -5    1    3    3    0  502 -0.36113976848E+03 -0.23481092028E+03  0.56899203918E+03  0.71367508805E+03  0.46999998093E+01 0. -1.
</event>
<event>
 5   0  0.9342635E-06  0.1998455E+04  0.7818609E-02  0.8607343E-01
       -1   -1    0    0    0  501  0.00000000000E+00  0.00000000000E+00  0.50489450676E+03  0.50489450679E+03  0.50400001928E-02 0. -1.
        1   -1    0    0  501    0  0.00000000000E+00  0.00000000000E+00 -0.19775538677E+04  0.19775538678E+04  0.50400001928E-02 0.  1.
    10030    2    1    2    0    0  0.00000000000E+00  0.00000000000E+00 -0.14726593610E+04  0.24824483745E+04  0.19984554883E+04 0.  0.
        5    1    3    3  502    0 -0.69947242786E+03 -0.40670024526E+03 -0.80168146582E+01  0.80916816927E+03  0.46999998093E+01 0. -1.
       -5    1    3    3    0  502  0.69947242786E+03  0.40670024526E+03 -0.14646425463E+04  0.16732802053E+04  0.46999998093E+01 0.  1.
</event>
<event>
 5   0  0.9333353E-06  0.2000424E+04  0.7818609E-02  0.8606422E-01
        1   -1    0    0  501    0  0.00000000000E+00  0.00000000000E+00  0.81049298081E+03  0.81049298083E+03  0.50400001928E-02 0.  1.
       -1   -1    0    0    0  501  0.00000000000E+00  0.00000000000E+00 -0.12343401456E+04  0.12343401456E+04  0.50400001928E-02 0. -1.
    10030    2    1    2    0    0  0.00000000000E+00  0.00000000000E+00 -0.42384716483E+03  0.20448331265E+04  0.20004239791E+04 0.  0.
        2    1    3    3  502    0 -0.10289231601E+03 -0.33003758363E+03 -0.11713290280E+04  0.12212793813E+04  0.25500000920E-02 0. -1.
       -2    1    3    3    0  502  0.10289231601E+03  0.33003758363E+03  0.74748186322E+03  0.82355374515E+03  0.25500000920E-02 0.  1.
</event>
<event>
 5   0  0.9333353E-06  0.1996509E+04  0.7818609E-02  0.8608255E-01
       -1   -1    0    0    0  501  0.00000000000E+00  0.00000000000E+00  0.69462007949E+03  0.69462007951E+03  0.50400001928E-02 0. -1.
        1   -1    0    0  501    0  0.00000000000E+00  0.00000000000E+00 -0.14346142293E+04  0.14346142293E+04  0.50400001928E-02 0.  1.
    10030    2    1    2    0    0  0.00000000000E+00  0.00000000000E+00 -0.73999414977E+03  0.21292343088E+04  0.19965088029E+04 0.  0.
        2    1    3    3  502    0 -0.15890700472E+02 -0.62426150048E+03 -0.12005895745E+04  0.13532812944E+04  0.25500000920E-02 0.  1.
       -2    1    3    3    0  502  0.15890700472E+02  0.62426150048E+03  0.46059542470E+03  0.77595301443E+03  0.25500000920E-02 0. -1.
</event>
<event>
 5   0  0.9333353E-06  0.1999686E+04  0.7818609E-02  0.8606768E-01
        1   -1    0    0  501    0  0.00000000000E+00  0.00000000000E+00  0.20068694501E+04  0.20068694501E+04  0.50400001928E-02 0.  1.
       -1   -1    0    0    0  501  0.00000000000E+00  0.00000000000E+00 -0.49813191710E+03  0.49813191713E+03  0.50400001928E-02 0. -1.
    10030    2    1    2    0    0  0.00000000000E+00  0.00000000000E+00  0.15087375330E+04  0.25050013673E+04  0.19996857019E+04 0.  0.
        2    1    3    3  502    0 -0.22962487623E+03 -0.25285079860E+03 -0.42278346784E+03  0.54351354244E+03  0.25500000920E-02 0. -1.
       -2    1    3    3    0  502  0.22962487623E+03  0.25285079860E+03  0.19315210009E+04  0.19614878248E+04  0.25500000920E-02 0.  1.
</event>
<event>
 5   0  0.2020029E-05  0.2001290E+04  0.7818609E-02  0.8606018E-01
        2   -1    0    0  501    0  0.00000000000E+00  0.00000000000E+00  0.22949091074E+04  0.22949091074E+04  0.25500000920E-02 0. -1.
       -2   -1    0    0    0  501  0.00000000000E+00  0.00000000000E+00 -0.43630924318E+03  0.43630924319E+03  0.25500000920E-02 0.  1.
    10030    2    1    2    0    0  0.00000000000E+00  0.00000000000E+00  0.18585998642E+04  0.27312183506E+04  0.20012896400E+04 0.  0.
        5    1    3    3  502    0  0.47050906601E+02 -0.74385816368E+03  0.18404334484E+04  0.19856374602E+04  0.46999998093E+01 0. -1.
       -5    1    3    3    0  502 -0.47050906601E+02  0.74385816368E+03  0.18166415880E+02  0.74558089041E+03  0.46999998093E+01 0.  1.
</event>
<event>
 5   0  0.9140695E-06  0.2000817E+04  0.7818609E-02  0.8606239E-01
       -1   -1    0    0    0  501  0.00000000000E+00  0.00000000000E+00  0.11672463754E+04  0.11672463754E+04  0.50400001928E-02 0. -1.
        1   -1    0    0  501    0  0.00000000000E+00  0.00000000000E+00 -0.85741696506E+03  0.85741696508E+03  0.50400001928E-02 0.  1.
    10030    2    1    2    0    0  0.00000000000E+00  0.00000000000E+00  0.30982941036E+03  0.20246633405E+04  0.20008166780E+04 0.  0.
        1    1    3    3  502    0 -0.32781957204E+03  0.36433194126E+03 -0.72761129572E+03  0.87728081760E+03  0.50400001928E-02 0.  1.
       -1    1    3    3    0  502  0.32781957204E+03 -0.36433194126E+03  0.10374407061E+04  0.11473825229E+04  0.50400001928E-02 0. -1.
</event>
<event>
 5   0  0.7132000E-06  0.1999318E+04  0.7818609E-02  0.8606940E-01
       -3   -1    0    0    0  501  0.00000000000E+00  0.00000000000E+00  0.82863762825E+03  0.82863763441E+03  0.10100000352E+00 0.  1.
        3   -1    0    0  501    0  0.00000000000E+00  0.00000000000E+00 -0.12059772750E+04  0.12059772792E+04  0.10100000352E+00 0. -1.
    10030    2    1    2    0    0  0.00000000000E+00  0.00000000000E+00 -0.37733964675E+03  0.20346149136E+04  0.19993180432E+04 0.  0.
        2    1    3    3  502    0  0.88178477925E+03  0.57647974340E+02 -0.66430814007E+03  0.11055193308E+04  0.25500000920E-02 0.  1.
       -2    1    3    3    0  502 -0.88178477925E+03 -0.57647974340E+02  0.28696849332E+03  0.92909558282E+03  0.25500000920E-02 0. -1.
</event>
<event>
 5   0  0.2020029E-05  0.2004871E+04  0.7818609E-02  0.8604347E-01
       -2   -1    0    0    0  501  0.00000000000E+00  0.00000000000E+00  0.55954918268E+03  0.55954918269E+03  0.25500000920E-02 0. -1.
        2   -1    0    0  501    0  0.00000000000E+00  0.00000000000E+00 -0.17958682391E+04  0.17958682391E+04  0.25500000920E-02 0.  1.
    10030    2    1    2    0    0  0.00000000000E+00  0.00000000000E+00 -0.12363190564E+04  0.23554174218E+04  0.20048706745E+04 0.  0.
        5    1    3    3  502    0 -0.35767979859E+03  0.91676727167E+03 -0.39383609445E+03  0.10599651070E+04  0.46999998093E+01 0.  1.
       -5    1    3    3    0  502  0.35767979859E+03 -0.91676727167E+03 -0.84248296196E+03  0.12954523148E+04  0.46999998093E+01 0. -1.
</event>
<event>
 5   0  0.9370269E-06  0.1997736E+04  0.7818609E-02  0.8607680E-01
       -1   -1    0    0    0  501  0.00000000000E+00  0.00000000000E+00  0.95151152520E+03  0.95151152522E+03  0.50400001928E-02 0.  1.
        1   -1    0    0  501    0  0.00000000000E+00  0.00000000000E+00 -0.10485817925E+04  0.10485817926E+04  0.50400001928E-02 0. -1.
    10030    2    1    2    0    0  0.00000000000E+00  0.00000000000E+00 -0.97070267336E+02  0.20000933178E+04  0.19977363798E+04 0.  0.
        4    1    3    3  502    0 -0.33007676489E+03 -0.59457343511E+03 -0.78101829046E+03  0.10355961681E+04  0.12699999809E+01 0. -1.
       -4    1    3    3    0  502  0.33007676489E+03  0.59457343511E+03  0.68394802313E+03  0.96449714966E+03  0.12699999809E+01 0.  1.
</event>
<event>
 5   0  0.2003576E-05  0.1998675E+04  0.7818609E-02  0.8607240E-01
        2   -1    0    0  501    0  0.00000000000E+00  0.00000000000E+00  0.95197915635E+03  0.95197915635E+03  0.25500000920E-02 0. -1.
       -2   -1    0    0    0  501  0.00000000000E+00  0.00000000000E+00 -0.10490522750E+04  0.10490522750E+04  0.25500000920E-02 0.  1.
    10030    2    1    2    0    0  0.00000000000E+00  0.00000000000E+00 -0.97073118649E+02  0.20010314314E+04  0.19986754611E+04 0.  0.
        4    1    3    3  502    0 -0.53132367900E+03  0.70921656649E+03 -0.51101320350E+03  0.10229511704E+04  0.12699999809E+01 0.  1.
       -4    1    3    3    0  502  0.53132367900E+03 -0.70921656649E+03  0.41394008486E+03  0.97808026092E+03  0.12699999809E+01 0. -1.
</event>
<event>
 5   0  0.1999142E-05  0.2000023E+04  0.7818609E-02  0.8606610E-01
       -2   -1    0    0    0  501  0.00000000000E+00  0.00000000000E+00  0.57939651023E+03  0.57939651023E+03  0.25500000920E-02 0. -1.
        2   -1    0    0  501    0  0.00000000000E+00  0.00000000000E+00 -0.17259734143E+04  0.17259734143E+04  0.25500000920E-02 0.  1.
    10030    2    1    2    0    0  0.00000000000E+00  0.00000000000E+00 -0.11465769041E+04  0.23053699245E+04  0.20000229729E+04 0.  0.
        1    1    3    3  502    0  0.62945683176E+03  0.73915226726E+03 -0.84959565893E+03  0.12901064921E+04  0.50400001928E-02 0.  1.
       -1    1    3    3    0  502 -0.62945683176E+03 -0.73915226726E+03 -0.29698124512E+03  0.10152634324E+04  0.50400001928E-02 0. -1.
</event>
<event>
 5   0  0.9220260E-06  0.1999874E+04  0.7818609E-02  0.8606680E-01
        1   -1    0    0  501    0  0.00000000000E+00  0.00000000000E+00  0.10875575133E+04  0.10875575133E+04  0.50400001928E-02 0. -1.
       -1   -1    0    0    0  501  0.00000000000E+00  0.00000000000E+00 -0.91937557579E+03  0.91937557581E+03  0.50400001928E-02 0.  1.
    10030    2    1    2    0    0  0.00000000000E+00  0.00000000000E+00  0.16818193751E+03  0.20069330891E+04  0.19998738110E+04 0.  0.
        3    1    3    3  502    0 -0.34622449524E+03 -0.18380355353E+03 -0.83905759513E+03  0.92610626039E+03  0.10100000352E+00 0.  1.
       -3    1    3    3    0  502  0.34622449524E+03  0.18380355353E+03  0.10072395326E+04  0.10808268287E+04  0.10100000352E+00 0. -1.
</event>
<event>
 5   0  0.2038882E-05  0.2002793E+04  0.7818609E-02  0.8605316E-01
       -2   -1    0    0    0  501  0.00000000000E+00  0.00000000000E+00  0.87232855845E+03  0.87232855845E+03  0.25500000920E-02 0.  1.
        2   -1    0    0  501    0  0.00000000000E+00  0.00000000000E+00 -0.11495611946E+04  0.11495611946E+04  0.25500000920E-02 0. -1.
    10030    2    1    2    0    0  0.00000000000E+00  0.00000000000E+00 -0.27723263614E+03  0.20218897530E+04  0.20027931094E+04 0.  0.
        3    1    3    3  502    0  0.46127422111E+03  0.37730750995E+03  0.67383057582E+03  0.89954572937E+03  0.10100000352E+00 0.  1.
       -3    1    3    3    0  502 -0.46127422111E+03 -0.37730750995E+03 -0.95106321196E+03  0.11223440237E+04  0.10100000352E+00 0. -1.
</event>
<event>
 5   0  0.9370269E-06  0.2019461E+04  0.7818609E-02  0.8597576E-01
       -1   -1    0    0    0  501  0.00000000000E+00  0.00000000000E+00  0.66046565022E+03  0.66046565024E+03  0.50400001928E-02 0. -1.
        1   -1    0    0  501    0  0.00000000000E+00  0.00000000000E+00 -0.15436920956E+04  0.15436920956E+04  0.50400001928E-02 0.  1.
    10030    2    1    2    0    0  0.00000000000E+00  0.00000000000E+00 -0.88322644538E+03  0.22041577458E+04  0.20194609218E+04 0.  0.
        4    1    3    3  502    0  0.91405842691E+03 -0.18542736599E+03 -0.86386502808E+03  0.12712790864E+04  0.12699999809E+01 0.  1.
       -4    1    3    3    0  502 -0.91405842691E+03  0.18542736599E+03 -0.19361417294E+02  0.93287865944E+03  0.12699999809E+01 0. -1.
</event>
<event>
 5   0  0.1979765E-05  0.1994087E+04  0.7818609E-02  0.8609390E-01
       -2   -1    0    0    0  501  0.00000000000E+00  0.00000000000E+00  0.10677357874E+04  0.10677357874E+04  0.25500000920E-02 0.  1.
        2   -1    0    0  501    0  0.00000000000E+00  0.00000000000E+00 -0.93103170351E+03  0.93103170351E+03  0.25500000920E-02 0. -1.
    10030    2    1    2    0    0  0.00000000000E+00  0.00000000000E+00  0.13670408385E+03  0.19987674909E+04  0.19940871285E+04 0.  0.
        2    1    3    3  502    0  0.47776954278E+02 -0.84377302001E+03 -0.46190789036E+03  0.96311704680E+03  0.25500000920E-02 0. -1.
       -2    1    3    3    0  502 -0.47776954278E+02  0.84377302001E+03  0.59861197421E+03  0.10356504441E+04  0.25500000920E-02 0.  1.
</event>
<event>
 5   0  0.9370269E-06  0.2001486E+04  0.7818609E-02  0.8605926E-01
       -1   -1    0    0    0  501  0.00000000000E+00  0.00000000000E+00  0.10372208401E+04  0.10372208402E+04  0.50400001928E-02 0. -1.
        1   -1    0    0  501    0  0.00000000000E+00  0.00000000000E+00 -0.96554785794E+03  0.96554785796E+03  0.50400001928E-02 0.  1.
    10030    2    1    2    0    0  0.00000000000E+00  0.00000000000E+00  0.71672982195E+02  0.20027686981E+04  0.20014858085E+04 0.  0.
        4    1    3    3  502    0 -0.46226892340E+03 -0.71992288401E+03  0.55530624769E+03  0.10199745870E+04  0.12699999809E+01 0. -1.
       -4    1    3    3    0  502  0.46226892340E+03  0.71992288401E+03 -0.48363326550E+03  0.98279411113E+03  0.12699999809E+01 0.  1.
</event>
<event>
 5   0  0.9370269E-06  0.2002013E+04  0.7818609E-02  0.8605680E-01
       -1   -1    0    0    0  501  0.00000000000E+00  0.00000000000E+00  0.51003513092E+03  0.51003513094E+03  0.50400001928E-02 0. -1.
        1   -1    0    0  501    0  0.00000000000E+00  0.00000000000E+00 -0.19645974760E+04  0.19645974761E+04  0.50400001928E-02 0.  1.
    10030    2    1    2    0    0  0.00000000000E+00  0.00000000000E+00 -0.14545623451E+04  0.24746326070E+04  0.20020127182E+04 0.  0.
        4    1    3    3  502    0  0.69612770046E+03 -0.71929767134E+03 -0.73396084711E+03  0.12412425441E+04  0.12699999809E+01 0. -1.
       -4    1    3    3    0  502 -0.69612770046E+03  0.71929767134E+03 -0.72060149802E+03  0.12333900629E+04  0.12699999809E+01 0.  1.
</event>
<event>
 5   0  0.9333353E-06  0.2031700E+04  0.7818609E-02  0.8591942E-01
        1   -1    0    0  501    0  0.00000000000E+00  0.00000000000E+00  0.11030834171E+04  0.11030834171E+04  0.50400001928E-02 0.  1.
       -1   -1    0    0    0  501  0.00000000000E+00  0.00000000000E+00 -0.93551477966E+03  0.93551477967E+03  0.50400001928E-02 0. -1.
    10030    2    1    2    0    0  0.00000000000E+00  0.00000000000E+00  0.16756863741E+03  0.20385981967E+04  0.20316996234E+04 0.  0.
        2    1    3    3  502    0  0.70190845593E+03 -0.67728748547E+03  0.36857372847E+03  0.10427082103E+04  0.25500000920E-02 0.  1.
       -2    1    3    3    0  502 -0.70190845593E+03  0.67728748547E+03 -0.20100509107E+03  0.99588998646E+03  0.25500000920E-02 0. -1.
</event>
<event>
 5   0  0.1979765E-05  0.2032651E+04  0.7818609E-02  0.8591506E-01
       -2   -1    0    0    0  501  0.00000000000E+00  0.00000000000E+00  0.98845826718E+03  0.98845826719E+03  0.25500000920E-02 0.  1.
        2   -1    0    0  501    0  0.00000000000E+00  0.00000000000E+00 -0.10449781332E+04  0.10449781332E+04  0.25500000920E-02 0. -1.
    10030    2    1    2    0    0  0.00000000000E+00  0.00000000000E+00 -0.56519866029E+02  0.20334364004E+04  0.20326507568E+04 0.  0.
        2    1    3    3  502    0  0.51896936867E+02 -0.31439545156E+03  0.93719312142E+03  0.98988319455E+03  0.25500000920E-02 0.  1.
       -2    1    3    3    0  502 -0.51896936867E+02  0.31439545156E+03 -0.99371298744E+03  0.10435532058E+04  0.25500000920E-02 0. -1.
</event>
<event>
 5   0  0.1999142E-05  0.2002642E+04  0.7818609E-02  0.8605387E-01
       -2   -1    0    0    0  501  0.00000000000E+00  0.00000000000E+00  0.56892346797E+03  0.56892346797E+03  0.25500000920E-02 0.  1.
        2   -1    0    0  501    0  0.00000000000E+00  0.00000000000E+00 -0.17623522918E+04  0.17623522918E+04  0.25500000920E-02 0. -1.
    10030    2    1    2    0    0  0.00000000000E+00  0.00000000000E+00 -0.11934288239E+04  0.23312757598E+04  0.20026418328E+04 0.  0.
        1    1    3    3  502    0 -0.75378325154E+03  0.60800972199E+03 -0.30043189409E+03  0.10139646618E+04  0.50400001928E-02 0.  1.
       -1    1    3    3    0  502  0.75378325154E+03 -0.60800972199E+03 -0.89299692976E+03  0.13173110980E+04  0.50400001928E-02 0. -1.
</event>
<event>
 5   0  0.7132000E-06  0.2006022E+04  0.7818609E-02  0.8603811E-01
       -4   -1    0    0    0  501  0.00000000000E+00  0.00000000000E+00  0.15720541851E+04  0.15720546981E+04  0.12699999809E+01 0.  1.
        4   -1    0    0  501    0  0.00000000000E+00  0.00000000000E+00 -0.63994530424E+03  0.63994656442E+03  0.12699999809E+01 0. -1.
    10030    2    1    2    0    0  0.00000000000E+00  0.00000000000E+00  0.93210888090E+03  0.22120012625E+04  0.20060215900E+04 0.  0.
        4    1    3    3  502    0 -0.10080246942E+03  0.45818481982E+03 -0.51150452943E+03  0.69406985490E+03  0.12699999809E+01 0. -1.
       -4    1    3    3    0  502  0.10080246942E+03 -0.45818481982E+03  0.14436134103E+04  0.15179314077E+04  0.12699999809E+01 0.  1.
</event>
<event>
 5   0  0.1999142E-05  0.2002316E+04  0.7818609E-02  0.8605538E-01
        2   -1    0    0  501    0  0.00000000000E+00  0.00000000000E+00  0.74781539327E+03  0.74781539328E+03  0.25500000920E-02 0. -1.
       -2   -1    0    0    0  501  0.00000000000E+00  0.00000000000E+00 -0.13403276420E+04  0.13403276420E+04  0.25500000920E-02 0.  1.
    10030    2    1    2    0    0  0.00000000000E+00  0.00000000000E+00 -0.59251224872E+03  0.20881430353E+04  0.20023163014E+04 0.  0.
        1    1    3    3  502    0 -0.35888097173E+03 -0.55873069410E+03  0.48508623447E+03  0.82236500126E+03  0.50400001928E-02 0. -1.
       -1    1    3    3    0  502  0.35888097173E+03  0.55873069410E+03 -0.10775984832E+04  0.12657780340E+04  0.50400001928E-02 0.  1.
</event>
<event>
 5   0  0.9140695E-06  0.1979322E+04  0.7818609E-02  0.8616350E-01
       -1   -1    0    0    0  501  0.00000000000E+00  0.00000000000E+00  0.90175346792E+03  0.90175346793E+03  0.50400001928E-02 0. -1.
        1   -1    0    0  501    0  0.00000000000E+00  0.00000000000E+00 -0.10861385956E+04  0.10861385956E+04  0.50400001928E-02 0.  1.
    10030    2    1    2    0    0  0.00000000000E+00  0.00000000000E+00 -0.18438512766E+03  0.19878920635E+04  0.19793223540E+04 0.  0.
        1    1    3    3  502    0 -0.84798128655E+03 -0.40272844409E+03  0.22247976209E+03  0.96475888521E+03  0.50400001928E-02 0. -1.
       -1    1    3    3    0  502  0.84798128655E+03  0.40272844409E+03 -0.40686488974E+03  0.10231331783E+04  0.50400001928E-02 0.  1.
</event>
<event>
 5   0  0.2020029E-05  0.2006490E+04  0.7818609E-02  0.8603592E-01
       -2   -1    0    0    0  501  0.00000000000E+00  0.00000000000E+00  0.62648131342E+03  0.62648131342E+03  0.25500000920E-02 0. -1.
        2   -1    0    0  501    0  0.00000000000E+00  0.00000000000E+00 -0.16065929208E+04  0.16065929208E+04  0.25500000920E-02 0.  1.
    10030    2    1    2    0    0  0.00000000000E+00  0.00000000000E+00 -0.98011160734E+03  0.22330742342E+04  0.20064899134E+04 0.  0.
        5    1    3    3  502    0  0.29602369982E+03 -0.87687030900E+03 -0.92101361482E+03  0.13056874581E+04  0.46999998093E+01 0.  1.
       -5    1    3    3    0  502 -0.29602369982E+03  0.87687030900E+03 -0.59097992518E+02  0.92738677604E+03  0.46999998093E+01 0. -1.
</event>
<event>
 5   0  0.7132000E-06  0.2003489E+04  0.7818609E-02  0.8604991E-01
       -3   -1    0    0    0  501  0.00000000000E+00  0.00000000000E+00  0.99143198416E+03  0.99143198930E+03  0.10100000352E+00 0. -1.
        3   -1    0    0  501    0  0.00000000000E+00  0.00000000000E+00 -0.10121638940E+04  0.10121638990E+04  0.10100000352E+00 0.  1.
    10030    2    1    2    0    0  0.00000000000E+00  0.00000000000E+00 -0.20731909807E+02  0.20035958883E+04  0.20034886253E+04 0.  0.
        1    1    3    3  502    0  0.23091529551E+03  0.89918221645E+03 -0.38673851313E+03  0.10056924031E+04  0.50400001928E-02 0.  1.
       -1    1    3    3    0  502 -0.23091529551E+03 -0.89918221645E+03  0.36600660332E+03  0.99790348521E+03  0.50400001928E-02 0. -1.
</event>
<event>
 5   0  0.2003576E-05  0.2002152E+04  0.7818609E-02  0.8605615E-01
       -2   -1    0    0    0  501  0.00000000000E+00  0.00000000000E+00  0.87235146986E+03  0.87235146986E+03  0.25500000920E-02 0. -1.
        2   -1    0    0  501    0  0.00000000000E+00  0.00000000000E+00 -0.11487948638E+04  0.11487948638E+04  0.25500000920E-02 0.  1.
    10030    2    1    2    0    0  0.00000000000E+00  0.00000000000E+00 -0.27644339396E+03  0.20211463337E+04  0.20021517305E+04 0.  0.
        4    1    3    3  502    0 -0.21634924091E+03  0.50429962984E+03  0.70699464428E+03  0.89496824002E+03  0.12699999809E+01 0. -1.
       -4    1    3    3    0  502  0.21634924091E+03 -0.50429962984E+03 -0.98343803824E+03  0.11261780937E+04  0.12699999809E+01 0.  1.
</event>
<event>
 5   0  0.2003576E-05  0.2000801E+04  0.7818609E-02  0.8606246E-01
        2   -1    0    0  501    0  0.00000000000E+00  0.00000000000E+00  0.17717839916E+04  0.17717839916E+04  0.25500000920E-02 0.  1.
       -2   -1    0    0    0  501  0.00000000000E+00  0.00000000000E+00 -0.56485529228E+03  0.56485529229E+03  0.25500000920E-02 0. -1.
    10030    2    1    2    0    0  0.00000000000E+00  0.00000000000E+00  0.12069286993E+04  0.23366392839E+04  0.20008014039E+04 0.  0.
        4    1    3    3  502    0 -0.87408926057E+03  0.16821772472E+03  0.70239701356E+02  0.89289667201E+03  0.12699999809E+01 0. -1.
       -4    1    3    3    0  502  0.87408926057E+03 -0.16821772472E+03  0.11366889979E+04  0.14437426118E+04  0.12699999809E+01 0.  1.
</event>
<event>
 5   0  0.9333353E-06  0.1988110E+04  0.7818609E-02  0.8612200E-01
       -1   -1    0    0    0  501  0.00000000000E+00  0.00000000000E+00  0.14043251439E+04  0.14043251439E+04  0.50400001928E-02 0.  1.
        1   -1    0    0  501    0  0.00000000000E+00  0.00000000000E+00 -0.70364445281E+03  0.70364445282E+03  0.50400001928E-02 0. -1.
    10030    2    1    2    0    0  0.00000000000E+00  0.00000000000E+00  0.70068069111E+03  0.21079695967E+04  0.19881102560E+04 0.  0.
        2    1    3    3  502    0  0.97715047021E+03  0.17453702018E+03  0.29364333426E+03  0.10351389378E+04  0.25500000920E-02 0. -1.
       -2    1    3    3    0  502 -0.97715047021E+03 -0.17453702018E+03  0.40703735686E+03  0.10728306589E+04  0.25500000920E-02 0.  1.
</event>
<event>
 5   0  0.9140695E-06  0.2002256E+04  0.7818609E-02  0.8605567E-01
       -1   -1    0    0    0  501  0.00000000000E+00  0.00000000000E+00  0.10541228954E+04  0.10541228954E+04  0.50400001928E-02 0. -1.
        1   -1    0    0  501    0  0.00000000000E+00  0.00000000000E+00 -0.95079700035E+03  0.95079700036E+03  0.50400001928E-02 0.  1.
    10030    2    1    2    0    0  0.00000000000E+00  0.00000000000E+00  0.10332589509E+03  0.20049198958E+04  0.20022556151E+04 0.  0.
        1    1    3    3  502    0 -0.23243622488E+03 -0.73693932101E+03  0.68902443219E+03  0.10353071185E+04  0.50400001928E-02 0. -1.
       -1    1    3    3    0  502  0.23243622488E+03  0.73693932101E+03 -0.58569853710E+03  0.96961277728E+03  0.50400001928E-02 0.  1.
</event>
<event>
 5   0  0.9342635E-06  0.2006306E+04  0.7818609E-02  0.8603678E-01
       -1   -1    0    0    0  501  0.00000000000E+00  0.00000000000E+00  0.10664608551E+04  0.10664608551E+04  0.50400001928E-02 0. -1.
        1   -1    0    0  501    0  0.00000000000E+00  0.00000000000E+00 -0.94360318151E+03  0.94360318152E+03  0.50400001928E-02 0.  1.
    10030    2    1    2    0    0  0.00000000000E+00  0.00000000000E+00  0.12285767355E+03  0.20100640366E+04  0.20063059147E+04 0.  0.
        5    1    3    3  502    0  0.47435809740E+02  0.92206118772E+03  0.45439661330E+03  0.10290507092E+04  0.46999998093E+01 0. -1.
       -5    1    3    3    0  502 -0.47435809740E+02 -0.92206118772E+03 -0.33153893975E+03  0.98101332739E+03  0.46999998093E+01 0.  1.
</event>
<event>
 5   0  0.2003576E-05  0.1997608E+04  0.7818609E-02  0.8607740E-01
        2   -1    0    0  501    0  0.00000000000E+00  0.00000000000E+00  0.13304057513E+04  0.13304057513E+04  0.25500000920E-02 0.  1.
       -2   -1    0    0    0  501  0.00000000000E+00  0.00000000000E+00 -0.74985357132E+03  0.74985357132E+03  0.25500000920E-02 0. -1.
    10030    2    1    2    0    0  0.00000000000E+00  0.00000000000E+00  0.58055218002E+03  0.20802593227E+04  0.19976080736E+04 0.  0.
        4    1    3    3  502    0  0.50353036008E+02  0.52536205723E+03  0.11733395677E+04  0.12865722185E+04  0.12699999809E+01 0.  1.
       -4    1    3    3    0  502 -0.50353036008E+02 -0.52536205723E+03 -0.59278738768E+03  0.79368710415E+03  0.12699999809E+01 0. -1.
</event>
<event>
 5   0  0.2020029E-05  0.1999103E+04  0.7818609E-02  0.8607040E-01
        2   -1    0    0  501    0  0.00000000000E+00  0.00000000000E+00  0.16009788859E+04  0.16009788859E+04  0.25500000920E-02 0.  1.
       -2   -1    0    0    0  501  0.00000000000E+00  0.00000000000E+00 -0.62405773316E+03  0.62405773317E+03  0.25500000920E-02 0. -1.
    10030    2    1    2    0    0  0.00000000000E+00  0.00000000000E+00  0.97692115271E+03  0.22250366190E+04  0.19991030532E+04 0.  0.
        5    1    3    3  502    0  0.19862485819E+03  0.59448379197E+03 -0.37813510400E+03  0.73203214415E+03  0.46999998093E+01 0. -1.
       -5    1    3    3    0  502 -0.19862485819E+03 -0.59448379197E+03  0.13550562567E+04  0.14930044749E+04  0.46999998093E+01 0.  1.
</event>
<event>
 5   0  0.1999142E-05  0.2003639E+04  0.7818609E-02  0.8604921E-01
        2   -1    0    0  501    0  0.00000000000E+00  0.00000000000E+00  0.33405142270E+04  0.33405142270E+04  0.25500000920E-02 0.  1.
       -2   -1    0    0    0  501  0.00000000000E+00  0.00000000000E+00 -0.30044548440E+03  0.30044548441E+03  0.25500000920E-02 0. -1.
    10030    2    1    2    0    0  0.00000000000E+00  0.00000000000E+00  0.30400687426E+04  0.36409597114E+04  0.20036391043E+04 0.  0.
        1    1    3    3  502    0 -0.44604558616E+03 -0.89703261046E+03  0.15277964676E+04  0.18269609234E+04  0.50400001928E-02 0. -1.
       -1    1    3    3    0  502  0.44604558616E+03  0.89703261046E+03  0.15122722750E+04  0.18139987880E+04  0.50400001928E-02 0.  1.
</event>
<event>
 5   0  0.1999142E-05  0.2014434E+04  0.7818609E-02  0.8599902E-01
       -2   -1    0    0    0  501  0.00000000000E+00  0.00000000000E+00  0.72965356401E+03  0.72965356402E+03  0.25500000920E-02 0.  1.
        2   -1    0    0  501    0  0.00000000000E+00  0.00000000000E+00 -0.13903674027E+04  0.13903674027E+04  0.25500000920E-02 0. -1.
    10030    2    1    2    0    0  0.00000000000E+00  0.00000000000E+00 -0.66071383866E+03  0.21200209667E+04  0.20144344424E+04 0.  0.
        1    1    3    3  502    0  0.40088644067E+02  0.11338291097E+03  0.72207054802E+03  0.73201684423E+03  0.50400001928E-02 0.  1.
       -1    1    3    3    0  502 -0.40088644067E+02 -0.11338291097E+03 -0.13827843867E+04  0.13880041225E+04  0.50400001928E-02 0. -1.
</event>
<event>
 5   0  0.9342635E-06  0.1997042E+04  0.7818609E-02  0.8608005E-01
       -1   -1    0    0    0  501  0.00000000000E+00  0.00000000000E+00  0.10403447064E+04  0.10403447064E+04  0.50400001928E-02 0. -1.
        1   -1    0    0  501    0  0.00000000000E+00  0.00000000000E+00 -0.95837872181E+03  0.95837872182E+03  0.50400001928E-02 0.  1.
    10030    2    1    2    0    0  0.00000000000E+00  0.00000000000E+00  0.81965984585E+02  0.19987234282E+04  0.19970420426E+04 0.  0.
        5    1    3    3  502    0 -0.87787797091E+03  0.31629065829E+03 -0.31472111507E+03  0.98477458466E+03  0.46999998093E+01 0.  1.
       -5    1    3    3    0  502  0.87787797091E+03 -0.31629065829E+03  0.39668709966E+03  0.10139488436E+04  0.46999998093E+01 0. -1.
</event>
<event>
 5   0  0.9342635E-06  0.2001966E+04  0.7818609E-02  0.8605702E-01
       -1   -1    0    0    0  501  0.00000000000E+00  0.00000000000E+00  0.16857522195E+04  0.16857522195E+04  0.50400001928E-02 0. -1.
        1   -1    0    0  501    0  0.00000000000E+00  0.00000000000E+00 -0.59437395321E+03  0.59437395323E+03  0.50400001928E-02 0.  1.
    10030    2    1    2    0    0  0.00000000000E+00  0.00000000000E+00  0.10913782663E+04  0.22801261727E+04  0.20019662443E+04 0.  0.
        5    1    3    3  502    0  0.67485479554E+03  0.47771290865E+03  0.11882657013E+04  0.14476311978E+04  0.46999998093E+01 0. -1.
       -5    1    3    3    0  502 -0.67485479554E+03 -0.47771290865E+03 -0.96887435000E+02  0.83249497488E+03  0.46999998093E+01 0.  1.
</event>
<event>
 5   0  0.2003576E-05  0.1996294E+04  0.7818609E-02  0.8608355E-01
       -2   -1    0    0    0  501  0.00000000000E+00  0.00000000000E+00  0.69839698874E+03  0.69839698874E+03  0.25500000920E-02 0.  1.
        2   -1    0    0  501    0  0.00000000000E+00  0.00000000000E+00 -0.14265486019E+04  0.14265486019E+04  0.25500000920E-02 0. -1.
    10030    2    1    2    0    0  0.00000000000E+00  0.00000000000E+00 -0.72815161311E+03  0.21249455906E+04  0.19962938139E+04 0.  0.
        4    1    3    3  502    0 -0.25220852898E+03  0.64586546786E+03 -0.11283625804E+04  0.13243696880E+04  0.12699999809E+01 0. -1.
       -4    1    3    3    0  502  0.25220852898E+03 -0.64586546786E+03  0.40021096728E+03  0.80057590264E+03  0.12699999809E+01 0.  1.
</event>
<event>
 5   0  0.9370269E-06  0.2000347E+04  0.7818609E-02  0.8606458E-01
        1   -1    0    0  501    0  0.00000000000E+00  0.00000000000E+00  0.13740491238E+04  0.13740491238E+04  0.50400001928E-02 0. -1.
       -1   -1    0    0    0  501  0.00000000000E+00  0.00000000000E+00 -0.72802885075E+03  0.72802885077E+03  0.50400001928E-02 0.  1.
    10030    2    1    2    0    0  0.00000000000E+00  0.00000000000E+00  0.64602027303E+03  0.21020779746E+04  0.20003473743E+04 0.  0.
        4    1    3    3  502    0 -0.97334677985E+03 -0.18821544364E+03  0.46209203020E+03  0.10937822746E+04  0.12699999809E+01 0.  1.
       -4    1    3    3    0  502  0.97334677985E+03  0.18821544364E+03  0.18392824284E+03  0.10082956999E+04  0.12699999809E+01 0. -1.
</event>
<event>
 5   0  0.2003576E-05  0.2000764E+04  0.7818609E-02  0.8606263E-01
        2   -1    0    0  501    0  0.00000000000E+00  0.00000000000E+00  0.23553458037E+04  0.23553458037E+04  0.25500000920E-02 0.  1.
       -2   -1    0    0    0  501  0.00000000000E+00  0.00000000000E+00 -0.42489074062E+03  0.42489074063E+03  0.25500000920E-02 0. -1.
    10030    2    1    2    0    0  0.00000000000E+00  0.00000000000E+00  0.19304550631E+04  0.27802365443E+04  0.20007644769E+04 0.  0.
        4    1    3    3  502    0  0.39052078099E+03  0.89491738779E+03  0.66275875339E+03  0.11800993134E+04  0.12699999809E+01 0. -1.
       -4    1    3    3    0  502 -0.39052078099E+03 -0.89491738779E+03  0.12676963097E+04  0.16001372309E+04  0.12699999809E+01 0.  1.
</event>
<event>
 5   0  0.9220260E-06  0.1990966E+04  0.7818609E-02  0.8610856E-01
       -1   -1    0    0    0  501  0.00000000000E+00  0.00000000000E+00  0.11916034381E+04  0.11916034381E+04  0.50400001928E-02 0.  1.
        1   -1    0    0  501    0  0.00000000000E+00  0.00000000000E+00 -0.83164149607E+03  0.83164149609E+03  0.50400001928E-02 0. -1.
    10030    2    1    2    0    0  0.00000000000E+00  0.00000000000E+00  0.35996194206E+03  0.20232449342E+04  0.19909664648E+04 0.  0.
        3    1    3    3  502    0 -0.54545731250E+02  0.20103948363E+03 -0.80924574887E+03  0.83562599471E+03  0.10100000352E+00 0. -1.
       -3    1    3    3    0  502  0.54545731250E+02 -0.20103948363E+03  0.11692076909E+04  0.11876189395E+04  0.10100000352E+00 0.  1.
</event>
<event>
 5   0  0.9370269E-06  0.2009288E+04  0.7818609E-02  0.8602290E-01
       -1   -1    0    0    0  501  0.00000000000E+00  0.00000000000E+00  0.46637481309E+03  0.46637481312E+03  0.50400001928E-02 0.  1.
        1   -1    0    0  501    0  0.00000000000E+00  0.00000000000E+00 -0.21641607396E+04  0.21641607396E+04  0.50400001928E-02 0. -1.
    10030    2    1    2    0    0  0.00000000000E+00  0.00000000000E+00 -0.16977859265E+04  0.26305355527E+04  0.20092884914E+04 0.  0.
        4    1    3    3  502    0 -0.88096609349E+03  0.10588177615E+03 -0.23204989652E+03  0.91714828450E+03  0.12699999809E+01 0.  1.
       -4    1    3    3    0  502  0.88096609349E+03 -0.10588177615E+03 -0.14657360299E+04  0.17133872682E+04  0.12699999809E+01 0. -1.
</event>
<event>
 5   0  0.9333353E-06  0.2001039E+04  0.7818609E-02  0.8606135E-01
       -1   -1    0    0    0  501  0.00000000000E+00  0.00000000000E+00  0.57899367438E+03  0.57899367441E+03  0.50400001928E-02 0.  1.
        1   -1    0    0  501    0  0.00000000000E+00  0.00000000000E+00 -0.17289287960E+04  0.17289287960E+04  0.50400001928E-02 0. -1.
    10030    2    1    2    0    0  0.00000000000E+00  0.00000000000E+00 -0.11499351216E+04  0.23079224704E+04  0.20010385667E+04 0.  0.
        2    1    3    3  502    0 -0.46308398819E+03  0.31155898127E+03  0.38275595961E+03  0.67677019996E+03  0.25500000920E-02 0.  1.
       -2    1    3    3    0  502  0.46308398819E+03 -0.31155898127E+03 -0.15326910812E+04  0.16311522705E+04  0.25500000920E-02 0. -1.
</event>
<event>
 5   0  0.1999142E-05  0.1998134E+04  0.7818609E-02  0.8607493E-01
       -2   -1    0    0    0  501  0.00000000000E+00  0.00000000000E+00  0.76070492508E+03  0.76070492509E+03  0.25500000920E-02 0.  1.
        2   -1    0    0  501    0  0.00000000000E+00  0.00000000000E+00 -0.13121187906E+04  0.13121187906E+04  0.25500000920E-02 0. -1.
    10030    2    1    2    0    0  0.00000000000E+00  0.00000000000E+00 -0.55141386553E+03  0.20728237157E+04  0.19981343562E+04 0.  0.
        1    1    3    3  502    0 -0.85299360626E+03  0.36369891893E+03  0.11002564514E+03  0.93379903543E+03  0.50400001928E-02 0.  1.
       -1    1    3    3    0  502  0.85299360626E+03 -0.36369891893E+03 -0.66143951067E+03  0.11390246803E+04  0.50400001928E-02 0. -1.
</event>
<event>
 5   0  0.9140695E-06  0.2000476E+04  0.7818609E-02  0.8606398E-01
       -1   -1    0    0    0  501  0.00000000000E+00  0.00000000000E+00  0.10009080164E+04  0.10009080164E+04  0.50400001928E-02 0. -1.
        1   -1    0    0  501    0  0.00000000000E+00  0.00000000000E+00 -0.99956847268E+03  0.99956847269E+03  0.50400001928E-02 0.  1.
    10030    2    1    2    0    0  0.00000000000E+00  0.00000000000E+00  0.13395437179E+01  0.20004764891E+04  0.20004760406E+04 0.  0.
        1    1    3    3  502    0 -0.54022895116E+03  0.78250494992E+02  0.83882605359E+03  0.10007994843E+04  0.50400001928E-02 0. -1.
       -1    1    3    3    0  502  0.54022895116E+03 -0.78250494992E+02 -0.83748650987E+03  0.99967700477E+03  0.50400001928E-02 0.  1.
</event>
<event>
 5   0  0.1999142E-05  0.2002001E+04  0.7818609E-02  0.8605686E-01
        2   -1    0    0  501    0  0.00000000000E+00  0.00000000000E+00  0.80034142868E+03  0.80034142869E+03  0.25500000920E-02 0. -1.
       -2   -1    0    0    0  501  0.00000000000E+00  0.00000000000E+00 -0.12519684642E+04  0.12519684642E+04  0.25500000920E-02 0.  1.
    10030    2    1    2    0    0  0.00000000000E+00  0.00000000000E+00 -0.45162703552E+03  0.20523098929E+04  0.20020012281E+04 0.  0.
        1    1    3    3  502    0 -0.54304186069E+03 -0.80887114842E+03 -0.46144884874E+03  0.10780083660E+04  0.50400001928E-02 0.  1.
       -1    1    3    3    0  502  0.54304186069E+03  0.80887114842E+03  0.98218132203E+01  0.97430152686E+03  0.50400001928E-02 0. -1.
</event>
<event>
 5   0  0.1979765E-05  0.1937834E+04  0.7818609E-02  0.8636250E-01
        2   -1    0    0  501    0  0.00000000000E+00  0.00000000000E+00  0.12749146210E+04  0.12749146210E+04  0.25500000920E-02 0.  1.
       -2   -1    0    0    0  501  0.00000000000E+00  0.00000000000E+00 -0.73636321831E+03  0.73636321832E+03  0.25500000920E-02 0. -1.
    10030    2    1    2    0    0  0.00000000000E+00  0.00000000000E+00  0.53855140266E+03  0.20112778393E+04  0.19378340831E+04 0.  0.
        2    1    3    3  502    0 -0.29914537651E+03  0.86313173450E+03  0.60449630503E+03  0.10953995299E+04  0.25500000920E-02 0.  1.
       -2    1    3    3    0  502  0.29914537651E+03 -0.86313173450E+03 -0.65944902370E+02  0.91587830935E+03  0.25500000920E-02 0. -1.
</event>
<event>
 5   0  0.2003576E-05  0.2000389E+04  0.7818609E-02  0.8606439E-01
       -2   -1    0    0    0  501  0.00000000000E+00  0.00000000000E+00  0.10186194775E+04  0.10186194775E+04  0.25500000920E-02 0. -1.
        2   -1    0    0  501    0  0.00000000000E+00  0.00000000000E+00 -0.98210295679E+03  0.98210295679E+03  0.25500000920E-02 0.  1.
    10030    2    1    2    0    0  0.00000000000E+00  0.00000000000E+00  0.36516520691E+02  0.20007224343E+04  0.20003891628E+04 0.  0.
        4    1    3    3  502    0 -0.31865906572E+03 -0.87465132434E+03  0.38414573607E+03  0.10070392737E+04  0.12699999809E+01 0. -1.
       -4    1    3    3    0  502  0.31865906572E+03  0.87465132434E+03 -0.34762921537E+03  0.99368316057E+03  0.12699999809E+01 0.  1.
</event>
<event>
 5   0  0.9370269E-06  0.2002996E+04  0.7818609E-02  0.8605221E-01
       -1   -1    0    0    0  501  0.00000000000E+00  0.00000000000E+00  0.37621127733E+03  0.37621127736E+03  0.50400001928E-02 0.  1.
        1   -1    0    0  501    0  0.00000000000E+00  0.00000000000E+00 -0.26660507988E+04  0.26660507988E+04  0.50400001928E-02 0. -1.
    10030    2    1    2    0    0  0.00000000000E+00  0.00000000000E+00 -0.22898395214E+04  0.30422620761E+04  0.20029961323E+04 0.  0.
        4    1    3    3  502    0  0.16594347023E+03 -0.98743577720E+03 -0.11764196040E+04  0.15448402335E+04  0.12699999809E+01 0.  1.
       -4    1    3    3    0  502 -0.16594347023E+03  0.98743577720E+03 -0.11134199174E+04  0.14974218426E+04  0.12699999809E+01 0. -1.
</event>
<event>
 5   0  0.9140695E-06  0.1999522E+04  0.7818609E-02  0.8606844E-01
        1   -1    0    0  501    0  0.00000000000E+00  0.00000000000E+00  0.16623437169E+04  0.16623437169E+04  0.50400001928E-02 0.  1.
       -1   -1    0    0    0  501  0.00000000000E+00  0.00000000000E+00 -0.60127267811E+03  0.60127267813E+03  0.50400001928E-02 0. -1.
    10030    2    1    2    0    0  0.00000000000E+00  0.00000000000E+00  0.10610710388E+04  0.22636163950E+04  0.19995218015E+04 0.  0.
        1    1    3    3  502    0  0.40185105917E+02 -0.62496008847E+03 -0.35171055547E+03  0.71825501723E+03  0.50400001928E-02 0. -1.
       -1    1    3    3    0  502 -0.40185105917E+02  0.62496008847E+03  0.14127815943E+04  0.15453613778E+04  0.50400001928E-02 0.  1.
</event>
<event>
 5   0  0.2003576E-05  0.2009178E+04  0.7818609E-02  0.8602342E-01
       -2   -1    0    0    0  501  0.00000000000E+00  0.00000000000E+00  0.15956532490E+04  0.15956532490E+04  0.25500000920E-02 0. -1.
        2   -1    0    0  501    0  0.00000000000E+00  0.00000000000E+00 -0.63246783251E+03  0.63246783252E+03  0.25500000920E-02 0.  1.
    10030    2    1    2    0    0  0.00000000000E+00  0.00000000000E+00  0.96318541645E+03  0.22281210815E+04  0.20091782916E+04 0.  0.
        4    1    3    3  502    0  0.95817838799E+02  0.63036997893E+03 -0.37930791959E+03  0.74190530348E+03  0.12699999809E+01 0.  1.
       -4    1    3    3    0  502 -0.95817838799E+02 -0.63036997893E+03  0.13424933360E+04  0.14862157780E+04  0.12699999809E+01 0. -1.
</event>
<event>
 5   0  0.2020029E-05  0.2009010E+04  0.7818609E-02  0.8602420E-01
        2   -1    0    0  501    0  0.00000000000E+00  0.00000000000E+00  0.46011855371E+03  0.46011855371E+03  0.25500000920E-02 0.  1.
       -2   -1    0    0    0  501  0.00000000000E+00  0.00000000000E+00 -0.21929787122E+04  0.21929787122E+04  0.25500000920E-02 0. -1.
    10030    2    1    2    0    0  0.00000000000E+00  0.00000000000E+00 -0.17328601585E+04  0.26530972659E+04  0.20090098988E+04 0.  0.
        5    1    3    3  502    0  0.65181887106E+03  0.29568074852E+03  0.64300381484E+02  0.71864565314E+03  0.46999998093E+01 0.  1.
       -5    1    3    3    0  502 -0.65181887106E+03 -0.29568074852E+03 -0.17971605400E+04  0.19344516128E+04  0.46999998093E+01 0. -1.
</event>
<event>
 5   0  0.9333353E-06  0.2002738E+04  0.7818609E-02  0.8605341E-01
        1   -1    0    0  501    0  0.00000000000E+00  0.00000000000E+00  0.13066000366E+04  0.13066000366E+04  0.50400001928E-02 0.  1.
       -1   -1    0    0    0  501  0.00000000000E+00  0.00000000000E+00 -0.76744245345E+03  0.76744245347E+03  0.50400001928E-02 0. -1.
    10030    2    1    2    0    0  0.00000000000E+00  0.00000000000E+00  0.53915758311E+03  0.20740424900E+04  0.20027384630E+04 0.  0.
        2    1    3    3  502    0 -0.61257511937E+01  0.43474081258E+03  0.12037499033E+04  0.12798636367E+04  0.25500000920E-02 0.  1.
       -2    1    3    3    0  502  0.61257511937E+01 -0.43474081258E+03 -0.66459232019E+03  0.79417885329E+03  0.25500000920E-02 0. -1.
</event>
<event>
 5   0  0.7132000E-06  0.2000645E+04  0.7818609E-02  0.8606319E-01
       -3   -1    0    0    0  501  0.00000000000E+00  0.00000000000E+00  0.10795817120E+04  0.10795817167E+04  0.10100000352E+00 0.  1.
        3   -1    0    0  501    0  0.00000000000E+00  0.00000000000E+00 -0.92688195221E+03  0.92688195772E+03  0.10100000352E+00 0. -1.
    10030    2    1    2    0    0  0.00000000000E+00  0.00000000000E+00  0.15269975976E+03  0.20064636744E+04  0.20006447111E+04 0.  0.
        5    1    3    3  502    0  0.17985437562E+03  0.74063243232E+03 -0.57340694910E+03  0.95378279262E+03  0.46999998093E+01 0. -1.
       -5    1    3    3    0  502 -0.17985437562E+03 -0.74063243232E+03  0.72610670886E+03  0.10526808818E+04  0.46999998093E+01 0.  1.
</event>
<event>
 5   0  0.9220260E-06  0.1998726E+04  0.7818609E-02  0.8607216E-01
        1   -1    0    0  501    0  0.00000000000E+00  0.00000000000E+00  0.14979389077E+04  0.14979389077E+04  0.50400001928E-02 0.  1.
       -1   -1    0    0    0  501  0.00000000000E+00  0.00000000000E+00 -0.66673381246E+03  0.66673381248E+03  0.50400001928E-02 0. -1.
    10030    2    1    2    0    0  0.00000000000E+00  0.00000000000E+00  0.83120509524E+03  0.21646727202E+04  0.19987261131E+04 0.  0.
        3    1    3    3  502    0 -0.93531009855E+03 -0.26691700540E+03  0.66417260716E+03  0.11777839065E+04  0.10100000352E+00 0.  1.
       -3    1    3    3    0  502  0.93531009855E+03  0.26691700540E+03  0.16703248808E+03  0.98688881364E+03  0.10100000352E+00 0. -1.
</event>
<event>
 5   0  0.1979765E-05  0.2002839E+04  0.7818609E-02  0.8605295E-01
        2   -1    0    0  501    0  0.00000000000E+00  0.00000000000E+00  0.12950800930E+04  0.12950800930E+04  0.25500000920E-02 0. -1.
       -2   -1    0    0    0  501  0.00000000000E+00  0.00000000000E+00 -0.77434665664E+03  0.77434665665E+03  0.25500000920E-02 0.  1.
    10030    2    1    2    0    0  0.00000000000E+00  0.00000000000E+00  0.52073343632E+03  0.20694267496E+04  0.20028389252E+04 0.  0.
        2    1    3    3  502    0  0.19287529624E+03 -0.78592493783E+03  0.86986147928E+03  0.11880815969E+04  0.25500000920E-02 0. -1.
       -2    1    3    3    0  502 -0.19287529624E+03  0.78592493783E+03 -0.34912804296E+03  0.88134515270E+03  0.25500000920E-02 0.  1.
</event>
<event>
 5   0  0.2003576E-05  0.2005134E+04  0.7818609E-02  0.8604224E-01
        2   -1    0    0  501    0  0.00000000000E+00  0.00000000000E+00  0.87546223370E+03  0.87546223370E+03  0.25500000920E-02 0. -1.
       -2   -1    0    0    0  501  0.00000000000E+00  0.00000000000E+00 -0.11481254433E+04  0.11481254433E+04  0.25500000920E-02 0.  1.
    10030    2    1    2    0    0  0.00000000000E+00  0.00000000000E+00 -0.27266320961E+03  0.20235876770E+04  0.20051338760E+04 0.  0.
        4    1    3    3  502    0  0.46461798952E+03  0.41013635765E+03  0.65899302634E+03  0.90462983021E+03  0.12699999809E+01 0. -1.
       -4    1    3    3    0  502 -0.46461798952E+03 -0.41013635765E+03 -0.93165623595E+03  0.11189578468E+04  0.12699999809E+01 0.  1.
</event>
<event>
 5   0  0.9140695E-06  0.2009014E+04  0.7818609E-02  0.8602418E-01
        1   -1    0    0  501    0  0.00000000000E+00  0.00000000000E+00  0.68181563378E+03  0.68181563379E+03  0.50400001928E-02 0.  1.
       -1   -1    0    0    0  501  0.00000000000E+00  0.00000000000E+00 -0.14799218289E+04  0.14799218289E+04  0.50400001928E-02 0. -1.
    10030    2    1    2    0    0  0.00000000000E+00  0.00000000000E+00 -0.79810619509E+03  0.21617374627E+04  0.20090135288E+04 0.  0.
        1    1    3    3  502    0  0.39186480347E+03 -0.74064841972E+03  0.19706137253E+03  0.86078527543E+03  0.50400001928E-02 0.  1.
       -1    1    3    3    0  502 -0.39186480347E+03  0.74064841972E+03 -0.99516756762E+03  0.13009521872E+04  0.50400001928E-02 0. -1.
</event>
<event>
 5   0  0.9140695E-06  0.1999748E+04  0.7818609E-02  0.8606738E-01
        1   -1    0    0  501    0  0.00000000000E+00  0.00000000000E+00  0.22977162105E+04  0.22977162105E+04  0.50400001928E-02 0.  1.
       -1   -1    0    0    0  501  0.00000000000E+00  0.00000000000E+00 -0.43510517062E+03  0.43510517065E+03  0.50400001928E-02 0. -1.
    10030    2    1    2    0    0  0.00000000000E+00  0.00000000000E+00  0.18626110399E+04  0.27328213811E+04  0.19997481880E+04 0.  0.
        1    1    3    3  502    0 -0.12065517112E+03  0.81134234279E+03  0.17126684175E+04  0.18989647642E+04  0.50400001928E-02 0.  1.
       -1    1    3    3    0  502  0.12065517112E+03 -0.81134234279E+03  0.14994262239E+03  0.83385661691E+03  0.50400001928E-02 0. -1.
</event>
<event>
 5   0  0.2038882E-05  0.1999040E+04  0.7818609E-02  0.8607070E-01
       -2   -1    0    0    0  501  0.00000000000E+00  0.00000000000E+00  0.98453922881E+03  0.98453922882E+03  0.25500000920E-02 0.  1.
        2   -1    0    0  501    0  0.00000000000E+00  0.00000000000E+00 -0.10147283037E+04  0.10147283037E+04  0.25500000920E-02 0. -1.
    10030    2    1    2    0    0  0.00000000000E+00  0.00000000000E+00 -0.30189074842E+02  0.19992675325E+04  0.19990395909E+04 0.  0.
        3    1    3    3  502    0 -0.32001392043E+03  0.81396273109E+03 -0.49898394964E+03  0.10069405291E+04  0.10100000352E+00 0. -1.
       -3    1    3    3    0  502  0.32001392043E+03 -0.81396273109E+03  0.46879487480E+03  0.99232700341E+03  0.10100000352E+00 0.  1.
</event>
<event>
 5   0  0.9370269E-06  0.1999078E+04  0.7818609E-02  0.8607052E-01
        1   -1    0    0  501    0  0.00000000000E+00  0.00000000000E+00  0.18487079012E+04  0.18487079012E+04  0.50400001928E-02 0.  1.
       -1   -1    0    0    0  501  0.00000000000E+00  0.00000000000E+00 -0.54041949024E+03  0.54041949027E+03  0.50400001928E-02 0. -1.
    10030    2    1    2    0    0  0.00000000000E+00  0.00000000000E+00  0.13082884109E+04  0.23891273914E+04  0.19990775689E+04 0.  0.
        4    1    3    3  502    0  0.98411780329E+03  0.17320748396E+03  0.62517689230E+03  0.11787011677E+04  0.12699999809E+01 0.  1.
       -4    1    3    3    0  502 -0.98411780329E+03 -0.17320748396E+03  0.68311151863E+03  0.12104262237E+04  0.12699999809E+01 0. -1.
</event>
<event>
 5   0  0.9140695E-06  0.1995474E+04  0.7818609E-02  0.8608740E-01
       -1   -1    0    0    0  501  0.00000000000E+00  0.00000000000E+00  0.67462753275E+03  0.67462753277E+03  0.50400001928E-02 0.  1.
        1   -1    0    0  501    0  0.00000000000E+00  0.00000000000E+00 -0.14755979847E+04  0.14755979847E+04  0.50400001928E-02 0. -1.
    10030    2    1    2    0    0  0.00000000000E+00  0.00000000000E+00 -0.80097045193E+03  0.21502255175E+04  0.19954739064E+04 0.  0.
        1    1    3    3  502    0 -0.43950609372E+03 -0.58417097355E+02  0.56264364988E+03  0.71634212529E+03  0.50400001928E-02 0.  1.
       -1    1    3    3    0  502  0.43950609372E+03  0.58417097355E+02 -0.13636141018E+04  0.14338833922E+04  0.50400001928E-02 0. -1.
</event>
<event>
 5   0  0.9140695E-06  0.1999006E+04  0.7818609E-02  0.8607086E-01
       -1   -1    0    0    0  501  0.00000000000E+00  0.00000000000E+00  0.49664437841E+03  0.49664437844E+03  0.50400001928E-02 0. -1.
        1   -1    0    0  501    0  0.00000000000E+00  0.00000000000E+00 -0.20115119211E+04  0.20115119211E+04  0.50400001928E-02 0.  1.
    10030    2    1    2    0    0  0.00000000000E+00  0.00000000000E+00 -0.15148675427E+04  0.25081562996E+04  0.19990058407E+04 0.  0.
        1    1    3    3  502    0 -0.66032148425E+03  0.59363271138E+03 -0.18166118881E+03  0.90632502234E+03  0.50400001928E-02 0. -1.
       -1    1    3    3    0  502  0.66032148425E+03 -0.59363271138E+03 -0.13332063539E+04  0.16018312772E+04  0.50400001928E-02 0.  1.
</event>
<event>
 5   0  0.9220260E-06  0.1994665E+04  0.7818609E-02  0.8609119E-01
       -1   -1    0    0    0  501  0.00000000000E+00  0.00000000000E+00  0.49764802313E+03  0.49764802315E+03  0.50400001928E-02 0. -1.
        1   -1    0    0  501    0  0.00000000000E+00  0.00000000000E+00 -0.19987454431E+04  0.19987454431E+04  0.50400001928E-02 0.  1.
    10030    2    1    2    0    0  0.00000000000E+00  0.00000000000E+00 -0.15010974200E+04  0.24963934663E+04  0.19946646019E+04 0.  0.
        3    1    3    3  502    0  0.20520891488E+03  0.37053485968E+03 -0.18805853792E+04  0.19276950380E+04  0.10100000352E+00 0.  1.
       -3    1    3    3    0  502 -0.20520891488E+03 -0.37053485968E+03  0.37948795917E+03  0.56869842829E+03  0.10100000352E+00 0. -1.
</event>
<event>
 5   0  0.2020029E-05  0.1999601E+04  0.7818609E-02  0.8606807E-01
       -2   -1    0    0    0  501  0.00000000000E+00  0.00000000000E+00  0.75756307413E+03  0.75756307413E+03  0.25500000920E-02 0.  1.
        2   -1    0    0  501    0  0.00000000000E+00  0.00000000000E+00 -0.13194953877E+04  0.13194953877E+04  0.25500000920E-02 0. -1.
    10030    2    1    2    0    0  0.00000000000E+00  0.00000000000E+00 -0.56193231362E+03  0.20770584619E+04  0.19996009424E+04 0.  0.
        5    1    3    3  502    0 -0.46408044497E+03 -0.11635281963E+03  0.63091803332E+03  0.79182592330E+03  0.46999998093E+01 0.  1.
       -5    1    3    3    0  502  0.46408044497E+03  0.11635281963E+03 -0.11928503469E+04  0.12852325386E+04  0.46999998093E+01 0. -1.
</event>
<event>
 5   0  0.9370269E-06  0.2001460E+04  0.7818609E-02  0.8605939E-01
        1   -1    0    0  501    0  0.00000000000E+00  0.00000000000E+00  0.15150765562E+04  0.15150765562E+04  0.50400001928E-02 0.  1.
       -1   -1    0    0    0  501  0.00000000000E+00  0.00000000000E+00 -0.66099646972E+03  0.66099646974E+03  0.50400001928E-02 0. -1.
    10030    2    1    2    0    0  0.00000000000E+00  0.00000000000E+00  0.85408008648E+03  0.21760730260E+04  0.20014597223E+04 0.  0.
        4    1    3    3  502    0 -0.15656749146E+00 -0.95172379147E+03  0.76334881750E+03  0.12200332905E+04  0.12699999809E+01 0.  1.
       -4    1    3    3    0  502  0.15656749146E+00  0.95172379147E+03  0.90731268980E+02  0.95603973549E+03  0.12699999809E+01 0. -1.
</event>
<event>
 5   0  0.9140695E-06  0.2002361E+04  0.7818609E-02  0.8605518E-01
        1   -1    0    0  501    0  0.00000000000E+00  0.00000000000E+00  0.24537065867E+04  0.24537065867E+04  0.50400001928E-02 0.  1.
       -1   -1    0    0    0  501  0.00000000000E+00  0.00000000000E+00 -0.40850942155E+03  0.40850942158E+03  0.50400001928E-02 0. -1.
    10030    2    1    2    0    0  0.00000000000E+00  0.00000000000E+00  0.20451971651E+04  0.28622160082E+04  0.20023608650E+04 0.  0.
        1    1    3    3  502    0 -0.65853593501E+03  0.40241642332E+03  0.19342437106E+04  0.20825242585E+04  0.50400001928E-02 0.  1.
       -1    1    3    3    0  502  0.65853593501E+03 -0.40241642332E+03  0.11095345451E+03  0.77969174970E+03  0.50400001928E-02 0. -1.
</event>
<event>
 5   0  0.9140695E-06  0.2000004E+04  0.7818609E-02  0.8606619E-01
        1   -1    0    0  501    0  0.00000000000E+00  0.00000000000E+00  0.77324553004E+03  0.77324553005E+03  0.50400001928E-02 0. -1.
       -1   -1    0    0    0  501  0.00000000000E+00  0.00000000000E+00 -0.12932557060E+04  0.12932557060E+04  0.50400001928E-02 0.  1.
    10030    2    1    2    0    0  0.00000000000E+00  0.00000000000E+00 -0.52001017592E+03  0.20665012360E+04  0.20000041938E+04 0.  0.
        1    1    3    3  502    0  0.70381060727E+03 -0.44131882934E+01 -0.99400092460E+03  0.12179518403E+04  0.50400001928E-02 0.  1.
       -1    1    3    3    0  502 -0.70381060727E+03  0.44131882934E+01  0.47399074867E+03  0.84854939573E+03  0.50400001928E-02 0. -1.
</event>
<event>
 5   0  0.2020029E-05  0.2001274E+04  0.7818609E-02  0.8606025E-01
       -2   -1    0    0    0  501  0.00000000000E+00  0.00000000000E+00  0.15813768771E+04  0.15813768771E+04  0.25500000920E-02 0. -1.
        2   -1    0    0  501    0  0.00000000000E+00  0.00000000000E+00 -0.63316593404E+03  0.63316593404E+03  0.25500000920E-02 0.  1.
    10030    2    1    2    0    0  0.00000000000E+00  0.00000000000E+00  0.94821094307E+03  0.22145428112E+04  0.20012735620E+04 0.  0.
        5    1    3    3  502    0 -0.54690433005E+03 -0.78447336111E+03  0.80002475247E+03  0.12468217575E+04  0.46999998093E+01 0. -1.
       -5    1    3    3    0  502  0.54690433005E+03  0.78447336111E+03  0.14818619060E+03  0.96772105361E+03  0.46999998093E+01 0.  1.
</event>
<event>
 5   0  0.2003576E-05  0.1994022E+04  0.7818609E-02  0.8609421E-01
       -2   -1    0    0    0  501  0.00000000000E+00  0.00000000000E+00  0.11874177559E+04  0.11874177559E+04  0.25500000920E-02 0.  1.
        2   -1    0    0  501    0  0.00000000000E+00  0.00000000000E+00 -0.83713645202E+03  0.83713645202E+03  0.25500000920E-02 0. -1.
    10030    2    1    2    0    0  0.00000000000E+00  0.00000000000E+00  0.35028130391E+03  0.20245542079E+04  0.19940217524E+04 0.  0.
        4    1    3    3  502    0 -0.65199647816E+03  0.63490563233E+03 -0.23831018230E+03  0.94074328346E+03  0.12699999809E+01 0. -1.
       -4    1    3    3    0  502  0.65199647816E+03 -0.63490563233E+03  0.58859148620E+03  0.10838109245E+04  0.12699999809E+01 0.  1.
</event>
<event>
 5   0  0.9342635E-06  0.2001578E+04  0.7818609E-02  0.8605883E-01
       -1   -1    0    0    0  501  0.00000000000E+00  0.00000000000E+00  0.19655005035E+04  0.19655005035E+04  0.50400001928E-02 0.  1.
        1   -1    0    0  501    0  0.00000000000E+00  0.00000000000E+00 -0.50957964424E+03  0.50957964426E+03  0.50400001928E-02 0. -1.
    10030    2    1    2    0    0  0.00000000000E+00  0.00000000000E+00  0.14559208593E+04  0.24750801478E+04  0.20015784245E+04 0.  0.
        5    1    3    3  502    0 -0.42640758808E+03 -0.19921819212E+03  0.18200962767E+04  0.18799691129E+04  0.46999998093E+01 0.  1.
       -5    1    3    3    0  502  0.42640758808E+03  0.19921819212E+03 -0.36417541735E+03  0.59511103489E+03  0.46999998093E+01 0. -1.
</event>
<event>
 5   0  0.2003576E-05  0.2001657E+04  0.7818609E-02  0.8605846E-01
        2   -1    0    0  501    0  0.00000000000E+00  0.00000000000E+00  0.12982297236E+04  0.12982297236E+04  0.25500000920E-02 0.  1.
       -2   -1    0    0    0  501  0.00000000000E+00  0.00000000000E+00 -0.77155682557E+03  0.77155682557E+03  0.25500000920E-02 0. -1.
    10030    2    1    2    0    0  0.00000000000E+00  0.00000000000E+00  0.52667289801E+03  0.20697865491E+04  0.20016573177E+04 0.  0.
        4    1    3    3  502    0 -0.70691024222E+03 -0.25858752806E+03 -0.41870975956E+03  0.86134143978E+03  0.12699999809E+01 0. -1.
       -4    1    3    3    0  502  0.70691024222E+03  0.25858752806E+03  0.94538265757E+03  0.12084451094E+04  0.12699999809E+01 0.  1.
</event>
<event>
 5   0  0.9220260E-06  0.2006598E+04  0.7818609E-02  0.8603542E-01
       -1   -1    0    0    0  501  0.00000000000E+00  0.00000000000E+00  0.63517457087E+03  0.63517457089E+03  0.50400001928E-02 0.  1.
        1   -1    0    0  501    0  0.00000000000E+00  0.00000000000E+00 -0.15847748191E+04  0.15847748191E+04  0.50400001928E-02 0. -1.
    10030    2    1    2    0    0  0.00000000000E+00  0.00000000000E+00 -0.94960024823E+03  0.22199493900E+04  0.20065977830E+04 0.  0.
        3    1    3    3  502    0 -0.44605912374E+02  0.32937668407E+03 -0.15220932334E+04  0.15579622937E+04  0.10100000352E+00 0. -1.
       -3    1    3    3    0  502  0.44605912374E+02 -0.32937668407E+03  0.57249298512E+03  0.66198709628E+03  0.10100000352E+00 0.  1.
</event>
<event>
 5   0  0.1979765E-05  0.1998319E+04  0.7818609E-02  0.8607407E-01
       -2   -1    0    0    0  501  0.00000000000E+00  0.00000000000E+00  0.49094862184E+03  0.49094862184E+03  0.25500000920E-02 0. -1.
        2   -1    0    0  501    0  0.00000000000E+00  0.00000000000E+00 -0.20334498427E+04  0.20334498427E+04  0.25500000920E-02 0.  1.
    10030    2    1    2    0    0  0.00000000000E+00  0.00000000000E+00 -0.15425012209E+04  0.25243984645E+04  0.19983186912E+04 0.  0.
        2    1    3    3  502    0 -0.27122567378E+03  0.93205073622E+03 -0.47220848864E+03  0.10794733891E+04  0.25500000920E-02 0. -1.
       -2    1    3    3    0  502  0.27122567378E+03 -0.93205073622E+03 -0.10702927322E+04  0.14449250754E+04  0.25500000920E-02 0.  1.
</event>
<event>
 5   0  0.1999142E-05  0.2009499E+04  0.7818609E-02  0.8602192E-01
        2   -1    0    0  501    0  0.00000000000E+00  0.00000000000E+00  0.14692761928E+04  0.14692761928E+04  0.25500000920E-02 0.  1.
       -2   -1    0    0    0  501  0.00000000000E+00  0.00000000000E+00 -0.68708755715E+03  0.68708755715E+03  0.25500000920E-02 0. -1.
    10030    2    1    2    0    0  0.00000000000E+00  0.00000000000E+00  0.78218863563E+03  0.21563637499E+04  0.20094988331E+04 0.  0.
        1    1    3    3  502    0  0.67112449386E+03  0.42801357202E+02 -0.40997761890E+03  0.78760503456E+03  0.50400001928E-02 0. -1.
       -1    1    3    3    0  502 -0.67112449386E+03 -0.42801357202E+02  0.11921662545E+04  0.13687587154E+04  0.50400001928E-02 0.  1.
</event>
<event>
 5   0  0.9370269E-06  0.1997864E+04  0.7818609E-02  0.8607620E-01
        1   -1    0    0  501    0  0.00000000000E+00  0.00000000000E+00  0.12192392122E+04  0.12192392122E+04  0.50400001928E-02 0. -1.
       -1   -1    0    0    0  501  0.00000000000E+00  0.00000000000E+00 -0.81843297315E+03  0.81843297317E+03  0.50400001928E-02 0.  1.
    10030    2    1    2    0    0  0.00000000000E+00  0.00000000000E+00  0.40080623906E+03  0.20376721854E+04  0.19978644333E+04 0.  0.
        4    1    3    3  502    0 -0.77106450020E+03  0.25544687247E+03  0.79342657447E+03  0.11354826771E+04  0.12699999809E+01 0. -1.
       -4    1    3    3    0  502  0.77106450020E+03 -0.25544687247E+03 -0.39262033541E+03  0.90218950825E+03  0.12699999809E+01 0.  1.
</event>
<event>
 5   0  0.1999142E-05  0.1999767E+04  0.7818609E-02  0.8606729E-01
        2   -1    0    0  501    0  0.00000000000E+00  0.00000000000E+00  0.14228082341E+04  0.14228082341E+04  0.25500000920E-02 0. -1.
       -2   -1    0    0    0  501  0.00000000000E+00  0.00000000000E+00 -0.70267192608E+03  0.70267192609E+03  0.25500000920E-02 0.  1.
    10030    2    1    2    0    0  0.00000000000E+00  0.00000000000E+00  0.72013630805E+03  0.21254801602E+04  0.19997673888E+04 0.  0.
        1    1    3    3  502    0  0.16271158638E+03  0.46889344136E+03  0.12826383019E+04  0.13753171028E+04  0.50400001928E-02 0. -1.
       -1    1    3    3    0  502 -0.16271158638E+03 -0.46889344136E+03 -0.56250199383E+03  0.75016305746E+03  0.50400001928E-02 0.  1.
</event>
<event>
 5   0  0.9333353E-06  0.1980866E+04  0.7818609E-02  0.8615619E-01
       -1   -1    0    0    0  501  0.00000000000E+00  0.00000000000E+00  0.92835739971E+03  0.92835739972E+03  0.50400001928E-02 0. -1.
        1   -1    0    0  501    0  0.00000000000E+00  0.00000000000E+00 -0.10566596025E+04  0.10566596025E+04  0.50400001928E-02 0.  1.
    10030    2    1    2    0    0  0.00000000000E+00  0.00000000000E+00 -0.12830220278E+03  0.19850170022E+04  0.19808662357E+04 0.  0.
        2    1    3    3  502    0  0.16038229541E+02  0.86228944682E+03  0.42385748565E+03  0.96096591149E+03  0.25500000920E-02 0. -1.
       -2    1    3    3    0  502 -0.16038229541E+02 -0.86228944682E+03 -0.55215968844E+03  0.10240510907E+04  0.25500000920E-02 0.  1.
</event>
<event>
 5   0  0.2003576E-05  0.2002541E+04  0.7818609E-02  0.8605434E-01
       -2   -1    0    0    0  501  0.00000000000E+00  0.00000000000E+00  0.85113142313E+03  0.85113142313E+03  0.25500000920E-02 0. -1.
        2   -1    0    0  501    0  0.00000000000E+00  0.00000000000E+00 -0.11778937072E+04  0.11778937072E+04  0.25500000920E-02 0.  1.
    10030    2    1    2    0    0  0.00000000000E+00  0.00000000000E+00 -0.32676228405E+03  0.20290251303E+04  0.20025407335E+04 0.  0.
        4    1    3    3  502    0  0.34895972653E+03 -0.79868104286E+03 -0.66272390199E+03  0.10949287110E+04  0.12699999809E+01 0.  1.
       -4    1    3    3    0  502 -0.34895972653E+03  0.79868104286E+03  0.33596161794E+03  0.93409641932E+03  0.12699999809E+01 0. -1.
</event>
<event>
 5   0  0.2038882E-05  0.2001589E+04  0.7818609E-02  0.8605878E-01
       -2   -1    0    0    0  501  0.00000000000E+00  0.00000000000E+00  0.78192660735E+03  0.78192660735E+03  0.25500000920E-02 0. -1.
        2   -1    0    0  501    0  0.00000000000E+00  0.00000000000E+00 -0.12809256866E+04  0.12809256866E+04  0.25500000920E-02 0.  1.
    10030    2    1    2    0    0  0.00000000000E+00  0.00000000000E+00 -0.49899907929E+03  0.20628522940E+04  0.20015892450E+04 0.  0.
        3    1    3    3  502    0 -0.35242850649E+03 -0.78296945785E+03 -0.77937883623E+03  0.11596026926E+04  0.10100000352E+00 0.  1.
       -3    1    3    3    0  502  0.35242850649E+03  0.78296945785E+03  0.28037975694E+03  0.90324960139E+03  0.10100000352E+00 0. -1.
</event>
<event>
 5   0  0.9333353E-06  0.1999490E+04  0.7818609E-02  0.8606859E-01
       -1   -1    0    0    0  501  0.00000000000E+00  0.00000000000E+00  0.56162312143E+03  0.56162312146E+03  0.50400001928E-02 0.  1.
        1   -1    0    0  501    0  0.00000000000E+00  0.00000000000E+00 -0.17796447488E+04  0.17796447488E+04  0.50400001928E-02 0. -1.
    10030    2    1    2    0    0  0.00000000000E+00  0.00000000000E+00 -0.12180216274E+04  0.23412678703E+04  0.19994895738E+04 0.  0.
        2    1    3    3  502    0  0.76635096433E+03 -0.63877732781E+03 -0.53349369375E+03  0.11313468948E+04  0.25500000920E-02 0. -1.
       -2    1    3    3    0  502 -0.76635096433E+03  0.63877732781E+03 -0.68452793365E+03  0.12099209755E+04  0.25500000920E-02 0.  1.
</event>
<event>
 5   0  0.9370269E-06  0.2002981E+04  0.7818609E-02  0.8605228E-01
       -1   -1    0    0    0  501  0.00000000000E+00  0.00000000000E+00  0.80387149500E+03  0.80387149502E+03  0.50400001928E-02 0. -1.
        1   -1    0    0  501    0  0.00000000000E+00  0.00000000000E+00 -0.12476908696E+04  0.12476908697E+04  0.50400001928E-02 0.  1.
    10030    2    1    2    0    0  0.00000000000E+00  0.00000000000E+00 -0.44381937464E+03  0.20515623647E+04  0.20029809033E+04 0.  0.
        4    1    3    3  502    0  0.72522806290E+03  0.64734344786E+03 -0.46852379369E+03  0.10791317996E+04  0.12699999809E+01 0. -1.
       -4    1    3    3    0  502 -0.72522806290E+03 -0.64734344786E+03  0.24704419047E+02  0.97243056510E+03  0.12699999809E+01 0.  1.
</event>
<event>
 5   0  0.9220260E-06  0.2011791E+04  0.7818609E-02  0.8601128E-01
       -1   -1    0    0    0  501  0.00000000000E+00  0.00000000000E+00  0.44272162887E+03  0.44272162890E+03  0.50400001928E-02 0.  1.
        1   -1    0    0  501    0  0.00000000000E+00  0.00000000000E+00 -0.22854671959E+04  0.22854671959E+04  0.50400001928E-02 0. -1.
    10030    2    1    2    0    0  0.00000000000E+00  0.00000000000E+00 -0.18427455670E+04  0.27281888248E+04  0.20117910028E+04 0.  0.
        3    1    3    3  502    0 -0.94404551432E+03  0.11423358170E+03 -0.47663311554E+03  0.10636965645E+04  0.10100000352E+00 0. -1.
       -3    1    3    3    0  502  0.94404551432E+03 -0.11423358170E+03 -0.13661124515E+04  0.16644922603E+04  0.10100000352E+00 0.  1.
</event>
<event>
 5   0  0.9220260E-06  0.1999707E+04  0.7818609E-02  0.8606758E-01
       -1   -1    0    0    0  501  0.00000000000E+00  0.00000000000E+00  0.75695870343E+03  0.75695870345E+03  0.50400001928E-02 0.  1.
        1   -1    0    0  501    0  0.00000000000E+00  0.00000000000E+00 -0.13206887676E+04  0.13206887676E+04  0.50400001928E-02 0. -1.
    10030    2    1    2    0    0  0.00000000000E+00  0.00000000000E+00 -0.56373006420E+03  0.20776474711E+04  0.19997068357E+04 0.  0.
        3    1    3    3  502    0  0.47097255841E+03 -0.76497092728E+03 -0.73796388511E+03  0.11625774711E+04  0.10100000352E+00 0. -1.
       -3    1    3    3    0  502 -0.47097255841E+03  0.76497092728E+03  0.17423382090E+03  0.91507000001E+03  0.10100000352E+00 0.  1.
</event>
<event>
 5   0  0.1999142E-05  0.1996124E+04  0.7818609E-02  0.8608435E-01
        2   -1    0    0  501    0  0.00000000000E+00  0.00000000000E+00  0.19661576278E+04  0.19661576278E+04  0.25500000920E-02 0.  1.
       -2   -1    0    0    0  501  0.00000000000E+00  0.00000000000E+00 -0.50663664539E+03  0.50663664540E+03  0.25500000920E-02 0. -1.
    10030    2    1    2    0    0  0.00000000000E+00  0.00000000000E+00  0.14595209825E+04  0.24727942732E+04  0.19961237486E+04 0.  0.
        1    1    3    3  502    0 -0.21381531512E+03 -0.66074951405E+03 -0.15822583592E+03  0.71227966732E+03  0.50400001928E-02 0. -1.
       -1    1    3    3    0  502  0.21381531512E+03  0.66074951405E+03  0.16177468184E+04  0.17605146059E+04  0.50400001928E-02 0.  1.
</event>
<event>
 5   0  0.2020029E-05  0.2002543E+04  0.7818609E-02  0.8605433E-01
       -2   -1    0    0    0  501  0.00000000000E+00  0.00000000000E+00  0.75332152723E+03  0.75332152723E+03  0.25500000920E-02 0. -1.
        2   -1    0    0  501    0  0.00000000000E+00  0.00000000000E+00 -0.13308323226E+04  0.13308323226E+04  0.25500000920E-02 0.  1.
    10030    2    1    2    0    0  0.00000000000E+00  0.00000000000E+00 -0.57751079539E+03  0.20841538499E+04  0.20025430210E+04 0.  0.
        5    1    3    3  502    0  0.61568328415E+03  0.71137700795E+03  0.67844198875E+02  0.94326458597E+03  0.46999998093E+01 0.  1.
       -5    1    3    3    0  502 -0.61568328415E+03 -0.71137700795E+03 -0.64535499427E+03  0.11408892639E+04  0.46999998093E+01 0. -1.
</event>
<event>
 5   0  0.1979765E-05  0.1996676E+04  0.7818609E-02  0.8608176E-01
       -2   -1    0    0    0  501  0.00000000000E+00  0.00000000000E+00  0.97205352489E+03  0.97205352489E+03  0.25500000920E-02 0.  1.
        2   -1    0    0  501    0  0.00000000000E+00  0.00000000000E+00 -0.10253336517E+04  0.10253336517E+04  0.25500000920E-02 0. -1.
    10030    2    1    2    0    0  0.00000000000E+00  0.00000000000E+00 -0.53280126824E+02  0.19973871766E+04  0.19966764288E+04 0.  0.
        2    1    3    3  502    0 -0.40817656121E+03 -0.36090181954E+03  0.81021074449E+03  0.97637066679E+03  0.25500000920E-02 0.  1.
       -2    1    3    3    0  502  0.40817656121E+03  0.36090181954E+03 -0.86349087132E+03  0.10210165098E+04  0.25500000920E-02 0. -1.
</event>
<event>
 5   0  0.9140695E-06  0.2004303E+04  0.7818609E-02  0.8604611E-01
        1   -1    0    0  501    0  0.00000000000E+00  0.00000000000E+00  0.13794524650E+04  0.13794524650E+04  0.50400001928E-02 0. -1.
       -1   -1    0    0    0  501  0.00000000000E+00  0.00000000000E+00 -0.72804805005E+03  0.72804805007E+03  0.50400001928E-02 0.  1.
    10030    2    1    2    0    0  0.00000000000E+00  0.00000000000E+00  0.65140441491E+03  0.21075005150E+04  0.20043030482E+04 0.  0.
        1    1    3    3  502    0 -0.29377255243E+03  0.43406458062E+03  0.12238436212E+04  0.13313555430E+04  0.50400001928E-02 0. -1.
       -1    1    3    3    0  502  0.29377255243E+03 -0.43406458062E+03 -0.57243920628E+03  0.77614497204E+03  0.50400001928E-02 0.  1.
</event>
<event>
 5   0  0.1979765E-05  0.2002964E+04  0.7818609E-02  0.8605236E-01
       -2   -1    0    0    0  501  0.00000000000E+00  0.00000000000E+00  0.95294852691E+03  0.95294852692E+03  0.25500000920E-02 0.  1.
        2   -1    0    0  501    0  0.00000000000E+00  0.00000000000E+00 -0.10524874322E+04  0.10524874322E+04  0.25500000920E-02 0. -1.
    10030    2    1    2    0    0  0.00000000000E+00  0.00000000000E+00 -0.99538905270E+02  0.20054359591E+04  0.20029641516E+04 0.  0.
        2    1    3    3  502    0 -0.74979610479E+03 -0.36201007378E+03 -0.60698194792E+03  0.10303749693E+04  0.25500000920E-02 0.  1.
       -2    1    3    3    0  502  0.74979610479E+03  0.36201007378E+03  0.50744304265E+03  0.97506098979E+03  0.25500000920E-02 0. -1.
</event>
<event>
 5   0  0.9140695E-06  0.1996205E+04  0.7818609E-02  0.8608397E-01
       -1   -1    0    0    0  501  0.00000000000E+00  0.00000000000E+00  0.83409849497E+03  0.83409849498E+03  0.50400001928E-02 0.  1.
        1   -1    0    0  501    0  0.00000000000E+00  0.00000000000E+00 -0.11943538335E+04  0.11943538336E+04  0.50400001928E-02 0. -1.
    10030    2    1    2    0    0  0.00000000000E+00  0.00000000000E+00 -0.36025533857E+03  0.20284523285E+04  0.19962051348E+04 0.  0.
        1    1    3    3  502    0 -0.66556235154E+03 -0.39155357441E+03 -0.82273681077E+03  0.11283542463E+04  0.50400001928E-02 0. -1.
       -1    1    3    3    0  502  0.66556235154E+03  0.39155357441E+03  0.46248147220E+03  0.90009808219E+03  0.50400001928E-02 0.  1.
</event>
<event>
 5   0  0.9342635E-06  0.2000889E+04  0.7818609E-02  0.8606205E-01
       -1   -1    0    0    0  501  0.00000000000E+00  0.00000000000E+00  0.88811612690E+03  0.88811612691E+03  0.50400001928E-02 0.  1.
        1   -1    0    0  501    0  0.00000000000E+00  0.00000000000E+00 -0.11269801958E+04  0.11269801958E+04  0.50400001928E-02 0. -1.
    10030    2    1    2    0    0  0.00000000000E+00  0.00000000000E+00 -0.23886406892E+03  0.20150963227E+04  0.20008890890E+04 0.  0.
        5    1    3    3  502    0  0.35001242337E+02  0.97390450443E+03 -0.34720629141E+03  0.10345479059E+04  0.46999998093E+01 0. -1.
       -5    1    3    3    0  502 -0.35001242337E+02 -0.97390450443E+03  0.10834222249E+03  0.98054841690E+03  0.46999998093E+01 0.  1.
</event>
<event>
 5   0  0.2003576E-05  0.2001772E+04  0.7818609E-02  0.8605793E-01
       -2   -1    0    0    0  501  0.00000000000E+00  0.00000000000E+00  0.65293873619E+03  0.65293873620E+03  0.25500000920E-02 0. -1.
        2   -1    0    0  501    0  0.00000000000E+00  0.00000000000E+00 -0.15342520278E+04  0.15342520278E+04  0.25500000920E-02 0.  1.
    10030    2    1    2    0    0  0.00000000000E+00  0.00000000000E+00 -0.88131329157E+03  0.21871907640E+04  0.20017717952E+04 0.  0.
        4    1    3    3  502    0  0.31304968257E+03 -0.77055271224E+03 -0.10490248667E+04  0.13387331213E+04  0.12699999809E+01 0.  1.
       -4    1    3    3    0  502 -0.31304968257E+03  0.77055271224E+03  0.16771157515E+03  0.84845764269E+03  0.12699999809E+01 0. -1.
</event>
<event>
 5   0  0.9220260E-06  0.2000336E+04  0.7818609E-02  0.8606463E-01
        1   -1    0    0  501    0  0.00000000000E+00  0.00000000000E+00  0.65669448118E+03  0.65669448119E+03  0.50400001928E-02 0. -1.
       -1   -1    0    0    0  501  0.00000000000E+00  0.00000000000E+00 -0.15232905028E+04  0.15232905028E+04  0.50400001928E-02 0.  1.
    10030    2    1    2    0    0  0.00000000000E+00  0.00000000000E+00 -0.86659602160E+03  0.21799849840E+04  0.20003364381E+04 0.  0.
        3    1    3    3  502    0 -0.56508192592E+02  0.28867567179E+03 -0.14750835454E+04  0.15041270876E+04  0.10100000352E+00 0.  1.
       -3    1    3    3    0  502  0.56508192592E+02 -0.28867567179E+03  0.60848752383E+03  0.67585789643E+03  0.10100000352E+00 0. -1.
</event>
<event>
 5   0  0.7132000E-06  0.1999967E+04  0.7818609E-02  0.8606636E-01
       -3   -1    0    0    0  501  0.00000000000E+00  0.00000000000E+00  0.67444764578E+03  0.67444765335E+03  0.10100000352E+00 0.  1.
        3   -1    0    0  501    0  0.00000000000E+00  0.00000000000E+00 -0.14826451999E+04  0.14826452033E+04  0.10100000352E+00 0. -1.
    10030    2    1    2    0    0  0.00000000000E+00  0.00000000000E+00 -0.80819755409E+03  0.21570928567E+04  0.19999665762E+04 0.  0.
        2    1    3    3  502    0  0.73259837809E+03 -0.16063579383E+03 -0.11174713961E+04  0.13458256065E+04  0.25500000920E-02 0. -1.
       -2    1    3    3    0  502 -0.73259837809E+03  0.16063579383E+03  0.30927384205E+03  0.81126725019E+03  0.25500000920E-02 0.  1.
</event>
<event>
 5   0  0.9140695E-06  0.1999592E+04  0.7818609E-02  0.8606811E-01
        1   -1    0    0  501    0  0.00000000000E+00  0.00000000000E+00  0.17131188885E+04  0.17131188885E+04  0.50400001928E-02 0. -1.
       -1   -1    0    0    0  501  0.00000000000E+00  0.00000000000E+00 -0.58349276858E+03  0.58349276860E+03  0.50400001928E-02 0.  1.
    10030    2    1    2    0    0  0.00000000000E+00  0.00000000000E+00  0.11296261200E+04  0.22966116571E+04  0.19995924417E+04 0.  0.
        1    1    3    3  502    0 -0.50954733899E+02  0.41487086371E+03 -0.47832311965E+03  0.63522218576E+03  0.50400001928E-02 0.  1.
       -1    1    3    3    0  502  0.50954733899E+02 -0.41487086371E+03  0.16079492396E+04  0.16613894714E+04  0.50400001928E-02 0. -1.
</event>
<event>
 5   0  0.9333353E-06  0.2001658E+04  0.7818609E-02  0.8605846E-01
        1   -1    0    0  501    0  0.00000000000E+00  0.00000000000E+00  0.11453741485E+04  0.11453741486E+04  0.50400001928E-02 0.  1.
       -1   -1    0    0    0  501  0.00000000000E+00  0.00000000000E+00 -0.87452548590E+03  0.87452548591E+03  0.50400001928E-02 0. -1.
    10030    2    1    2    0    0  0.00000000000E+00  0.00000000000E+00  0.27084866265E+03  0.20198996345E+04  0.20016581964E+04 0.  0.
        2    1    3    3  502    0  0.97087475080E+03 -0.23574580203E+03  0.19499636689E+03  0.10179378409E+04  0.25500000920E-02 0.  1.
       -2    1    3    3    0  502 -0.97087475080E+03  0.23574580203E+03  0.75852295757E+02  0.10019617935E+04  0.25500000920E-02 0. -1.
</event>
<event>
 5   0  0.9370269E-06  0.1999814E+04  0.7818609E-02  0.8606708E-01
        1   -1    0    0  501    0  0.00000000000E+00  0.00000000000E+00  0.28964141935E+04  0.28964141935E+04  0.50400001928E-02 0.  1.
       -1   -1    0    0    0  501  0.00000000000E+00  0.00000000000E+00 -0.34519035029E+03  0.34519035032E+03  0.50400001928E-02 0. -1.
    10030    2    1    2    0    0  0.00000000000E+00  0.00000000000E+00  0.25512238432E+04  0.32416045438E+04  0.19998142215E+04 0.  0.
        4    1    3    3  502    0 -0.58091761360E+02  0.37933541033E+03 -0.22106625887E+03  0.44287911441E+03  0.12699999809E+01 0. -1.
       -4    1    3    3    0  502  0.58091761360E+02 -0.37933541033E+03  0.27722901021E+04  0.27987254294E+04  0.12699999809E+01 0.  1.
</event>
<event>
 5   0  0.9342635E-06  0.2002247E+04  0.7818609E-02  0.8605571E-01
       -1   -1    0    0    0  501  0.00000000000E+00  0.00000000000E+00  0.11901594227E+04  0.11901594227E+04  0.50400001928E-02 0. -1.
        1   -1    0    0  501    0  0.00000000000E+00  0.00000000000E+00 -0.84211290127E+03  0.84211290129E+03  0.50400001928E-02 0.  1.
    10030    2    1    2    0    0  0.00000000000E+00  0.00000000000E+00  0.34804652140E+03  0.20322723240E+04  0.20022473418E+04 0.  0.
        5    1    3    3  502    0 -0.29113821110E+03 -0.51502127371E+03  0.99373398167E+03  0.11565196439E+04  0.46999998093E+01 0. -1.
       -5    1    3    3    0  502  0.29113821110E+03  0.51502127371E+03 -0.64568746028E+03  0.87575268009E+03  0.46999998093E+01 0.  1.
</event>
<event>
 5   0  0.1999142E-05  0.1999861E+04  0.7818609E-02  0.8606686E-01
       -2   -1    0    0    0  501  0.00000000000E+00  0.00000000000E+00  0.83436354718E+03  0.83436354718E+03  0.25500000920E-02 0. -1.
        2   -1    0    0  501    0  0.00000000000E+00  0.00000000000E+00 -0.11983518462E+04  0.11983518462E+04  0.25500000920E-02 0.  1.
    10030    2    1    2    0    0  0.00000000000E+00  0.00000000000E+00 -0.36398829907E+03  0.20327153934E+04  0.19998610924E+04 0.  0.
        1    1    3    3  502    0  0.16383512357E+03  0.98292897141E+03 -0.97748328145E+02  0.10012722139E+04  0.50400001928E-02 0.  1.
       -1    1    3    3    0  502 -0.16383512357E+03 -0.98292897141E+03 -0.26623997092E+03  0.10314431796E+04  0.50400001928E-02 0. -1.
</event>
<event>
 5   0  0.9333353E-06  0.2008192E+04  0.7818609E-02  0.8602800E-01
       -1   -1    0    0    0  501  0.00000000000E+00  0.00000000000E+00  0.71465694370E+03  0.71465694371E+03  0.50400001928E-02 0. -1.
        1   -1    0    0  501    0  0.00000000000E+00  0.00000000000E+00 -0.14107593080E+04  0.14107593080E+04  0.50400001928E-02 0.  1.
    10030    2    1    2    0    0  0.00000000000E+00  0.00000000000E+00 -0.69610236426E+03  0.21254162517E+04  0.20081921575E+04 0.  0.
        2    1    3    3  502    0 -0.70190345494E+03 -0.43508687617E+03  0.25646406382E+03  0.86472126486E+03  0.25500000920E-02 0. -1.
       -2    1    3    3    0  502  0.70190345494E+03  0.43508687617E+03 -0.95256642807E+03  0.12606949868E+04  0.25500000920E-02 0.  1.
</event>
<event>
 5   0  0.2038882E-05  0.1984929E+04  0.7818609E-02  0.8613699E-01
       -2   -1    0    0    0  501  0.00000000000E+00  0.00000000000E+00  0.11065336933E+04  0.11065336933E+04  0.25500000920E-02 0. -1.
        2   -1    0    0  501    0  0.00000000000E+00  0.00000000000E+00 -0.89015439706E+03  0.89015439706E+03  0.25500000920E-02 0.  1.
    10030    2    1    2    0    0  0.00000000000E+00  0.00000000000E+00  0.21637929629E+03  0.19966880904E+04  0.19849290492E+04 0.  0.
        3    1    3    3  502    0 -0.24608376895E+03 -0.74642751380E+02 -0.85605939893E+03  0.89384924141E+03  0.10100000352E+00 0.  1.
       -3    1    3    3    0  502  0.24608376895E+03  0.74642751380E+02  0.10724386952E+04  0.11028388490E+04  0.10100000352E+00 0. -1.
</event>
<event>
 5   0  0.9370269E-06  0.1996008E+04  0.7818609E-02  0.8608490E-01
        1   -1    0    0  501    0  0.00000000000E+00  0.00000000000E+00  0.10021395669E+04  0.10021395669E+04  0.50400001928E-02 0.  1.
       -1   -1    0    0    0  501  0.00000000000E+00  0.00000000000E+00 -0.99388502842E+03  0.99388502844E+03  0.50400001928E-02 0. -1.
    10030    2    1    2    0    0  0.00000000000E+00  0.00000000000E+00  0.82545384954E+01  0.19960245954E+04  0.19960075270E+04 0.  0.
        4    1    3    3  502    0 -0.77197772364E+03  0.10317484365E+03 -0.61990951246E+03  0.99543160021E+03  0.12699999809E+01 0.  1.
       -4    1    3    3    0  502  0.77197772364E+03 -0.10317484365E+03  0.62816405095E+03  0.10005929952E+04  0.12699999809E+01 0. -1.
</event>
<event>
 5   0  0.1999142E-05  0.1999610E+04  0.7818609E-02  0.8606803E-01
        2   -1    0    0  501    0  0.00000000000E+00  0.00000000000E+00  0.84384895181E+03  0.84384895181E+03  0.25500000920E-02 0. -1.
       -2   -1    0    0    0  501  0.00000000000E+00  0.00000000000E+00 -0.11845842085E+04  0.11845842085E+04  0.25500000920E-02 0.  1.
    10030    2    1    2    0    0  0.00000000000E+00  0.00000000000E+00 -0.34073525665E+03  0.20284331603E+04  0.19996101046E+04 0.  0.
        1    1    3    3  502    0 -0.20907741080E+03  0.55607342686E+03  0.64538747471E+03  0.87718641822E+03  0.50400001928E-02 0. -1.
       -1    1    3    3    0  502  0.20907741080E+03 -0.55607342686E+03 -0.98612273136E+03  0.11512467421E+04  0.50400001928E-02 0.  1.
</event>
<event>
 5   0  0.9220260E-06  0.2001060E+04  0.7818609E-02  0.8606125E-01
        1   -1    0    0  501    0  0.00000000000E+00  0.00000000000E+00  0.11940858503E+04  0.11940858503E+04  0.50400001928E-02 0.  1.
       -1   -1    0    0    0  501  0.00000000000E+00  0.00000000000E+00 -0.83834860752E+03  0.83834860754E+03  0.50400001928E-02 0. -1.
    10030    2    1    2    0    0  0.00000000000E+00  0.00000000000E+00  0.35573724276E+03  0.20324344578E+04  0.20010599290E+04 0.  0.
        3    1    3    3  502    0 -0.71693634074E+03 -0.31357646473E+03 -0.45539094447E+03  0.90537773245E+03  0.10100000352E+00 0. -1.
       -3    1    3    3    0  502  0.71693634074E+03  0.31357646473E+03  0.81112818723E+03  0.11270567254E+04  0.10100000352E+00 0.  1.
</event>
<event>
 5   0  0.2003576E-05  0.2014428E+04  0.7818609E-02  0.8599905E-01
       -2   -1    0    0    0  501  0.00000000000E+00  0.00000000000E+00  0.48130542895E+03  0.48130542895E+03  0.25500000920E-02 0. -1.
        2   -1    0    0  501    0  0.00000000000E+00  0.00000000000E+00 -0.21077671122E+04  0.21077671122E+04  0.25500000920E-02 0.  1.
    10030    2    1    2    0    0  0.00000000000E+00  0.00000000000E+00 -0.16264616832E+04  0.25890725411E+04  0.20144277143E+04 0.  0.
        4    1    3    3  502    0  0.12112342100E+03 -0.81735609343E+03 -0.72962779797E+02  0.82949806915E+03  0.12699999809E+01 0. -1.
       -4    1    3    3    0  502 -0.12112342100E+03  0.81735609343E+03 -0.15534989034E+04  0.17595744720E+04  0.12699999809E+01 0.  1.
</event>
<event>
 5   0  0.7132000E-06  0.1997384E+04  0.7818609E-02  0.8607845E-01
       -3   -1    0    0    0  501  0.00000000000E+00  0.00000000000E+00  0.75203847738E+03  0.75203848416E+03  0.10100000352E+00 0.  1.
        3   -1    0    0  501    0  0.00000000000E+00  0.00000000000E+00 -0.13262432366E+04  0.13262432404E+04  0.10100000352E+00 0. -1.
    10030    2    1    2    0    0  0.00000000000E+00  0.00000000000E+00 -0.57420475920E+03  0.20782817246E+04  0.19973842448E+04 0.  0.
        5    1    3    3  502    0  0.81224350969E+03  0.56888305976E+03 -0.16400434018E+03  0.10051303240E+04  0.46999998093E+01 0.  1.
       -5    1    3    3    0  502 -0.81224350969E+03 -0.56888305976E+03 -0.41020041902E+03  0.10731514005E+04  0.46999998093E+01 0. -1.
</event>
<event>
 5   0  0.2003576E-05  0.1999226E+04  0.7818609E-02  0.8606982E-01
       -2   -1    0    0    0  501  0.00000000000E+00  0.00000000000E+00  0.62133716204E+03  0.62133716204E+03  0.25500000920E-02 0.  1.
        2   -1    0    0  501    0  0.00000000000E+00  0.00000000000E+00 -0.16081873696E+04  0.16081873697E+04  0.25500000920E-02 0. -1.
    10030    2    1    2    0    0  0.00000000000E+00  0.00000000000E+00 -0.98685020761E+03  0.22295245317E+04  0.19992264267E+04 0.  0.
        4    1    3    3  502    0 -0.86754535472E+02  0.21911644581E+03 -0.15767635724E+04  0.15942783140E+04  0.12699999809E+01 0. -1.
       -4    1    3    3    0  502  0.86754535472E+02 -0.21911644581E+03  0.58991336480E+03  0.63524621771E+03  0.12699999809E+01 0.  1.
</event>
<event>
 5   0  0.2020029E-05  0.2000774E+04  0.7818609E-02  0.8606259E-01
        2   -1    0    0  501    0  0.00000000000E+00  0.00000000000E+00  0.11884906072E+04  0.11884906072E+04  0.25500000920E-02 0. -1.
       -2   -1    0    0    0  501  0.00000000000E+00  0.00000000000E+00 -0.84205463957E+03  0.84205463957E+03  0.25500000920E-02 0.  1.
    10030    2    1    2    0    0  0.00000000000E+00  0.00000000000E+00  0.34643596768E+03  0.20305452468E+04  0.20007738802E+04 0.  0.
        5    1    3    3  502    0  0.39529279328E+03 -0.91888677762E+03  0.16109718103E+03  0.10132046655E+04  0.46999998093E+01 0. -1.
       -5    1    3    3    0  502 -0.39529279328E+03  0.91888677762E+03  0.18533878665E+03  0.10173405813E+04  0.46999998093E+01 0.  1.
</event>
<event>
 5   0  0.1979765E-05  0.1996600E+04  0.7818609E-02  0.8608212E-01
       -2   -1    0    0    0  501  0.00000000000E+00  0.00000000000E+00  0.54547109949E+03  0.54547109950E+03  0.25500000920E-02 0.  1.
        2   -1    0    0  501    0  0.00000000000E+00  0.00000000000E+00 -0.18270493654E+04  0.18270493654E+04  0.25500000920E-02 0. -1.
    10030    2    1    2    0    0  0.00000000000E+00  0.00000000000E+00 -0.12815782659E+04  0.23725204649E+04  0.19965997357E+04 0.  0.
        2    1    3    3  502    0  0.61685429926E+03  0.68865348919E+03 -0.10883305970E+04  0.14280113245E+04  0.25500000920E-02 0.  1.
       -2    1    3    3    0  502 -0.61685429926E+03 -0.68865348919E+03 -0.19324766894E+03  0.94450914037E+03  0.25500000920E-02 0. -1.
</event>
<event>
 5   0  0.2038882E-05  0.2023404E+04  0.7818609E-02  0.8595756E-01
        2   -1    0    0  501    0  0.00000000000E+00  0.00000000000E+00  0.22119393209E+04  0.22119393209E+04  0.25500000920E-02 0.  1.
       -2   -1    0    0    0  501  0.00000000000E+00  0.00000000000E+00 -0.46273465647E+03  0.46273465648E+03  0.25500000920E-02 0. -1.
    10030    2    1    2    0    0  0.00000000000E+00  0.00000000000E+00  0.17492046645E+04  0.26746739774E+04  0.20234040445E+04 0.  0.
        3    1    3    3  502    0 -0.10870134465E+03  0.82625658888E+03  0.11636927806E+03  0.84146167594E+03  0.10100000352E+00 0. -1.
       -3    1    3    3    0  502  0.10870134465E+03 -0.82625658888E+03  0.16328353864E+04  0.18332123015E+04  0.10100000352E+00 0.  1.
</event>
<event>
 5   0  0.2038882E-05  0.1999086E+04  0.7818609E-02  0.8607048E-01
       -2   -1    0    0    0  501  0.00000000000E+00  0.00000000000E+00  0.94266905827E+03  0.94266905827E+03  0.25500000920E-02 0. -1.
        2   -1    0    0  501    0  0.00000000000E+00  0.00000000000E+00 -0.10598480605E+04  0.10598480605E+04  0.25500000920E-02 0.  1.
    10030    2    1    2    0    0  0.00000000000E+00  0.00000000000E+00 -0.11717900224E+03  0.20025171188E+04  0.19990857642E+04 0.  0.
        3    1    3    3  502    0  0.44669538317E+03  0.62752732993E+03 -0.69667474760E+03  0.10385966634E+04  0.10100000352E+00 0.  1.
       -3    1    3    3    0  502 -0.44669538317E+03 -0.62752732993E+03  0.57949574536E+03  0.96392045535E+03  0.10100000352E+00 0. -1.
</event>
<event>
 5   0  0.1979765E-05  0.2008812E+04  0.7818609E-02  0.8602512E-01
        2   -1    0    0  501    0  0.00000000000E+00  0.00000000000E+00  0.16956466444E+04  0.16956466444E+04  0.25500000920E-02 0.  1.
       -2   -1    0    0    0  501  0.00000000000E+00  0.00000000000E+00 -0.59495407344E+03  0.59495407345E+03  0.25500000920E-02 0. -1.
    10030    2    1    2    0    0  0.00000000000E+00  0.00000000000E+00  0.11006925710E+04  0.22906007179E+04  0.20088124633E+04 0.  0.
        2    1    3    3  502    0 -0.34046996313E+01  0.55830123195E+02  0.16938693597E+04  0.16947926134E+04  0.25500000920E-02 0.  1.
       -2    1    3    3    0  502  0.34046996313E+01 -0.55830123195E+02 -0.59317678874E+03  0.59580810446E+03  0.25500000920E-02 0. -1.
</event>
<event>
 5   0  0.7132000E-06  0.1998494E+04  0.7818609E-02  0.8607325E-01
        3   -1    0    0  501    0  0.00000000000E+00  0.00000000000E+00  0.13164698597E+04  0.13164698635E+04  0.10100000352E+00 0. -1.
       -3   -1    0    0    0  501  0.00000000000E+00  0.00000000000E+00 -0.75846365636E+03  0.75846366308E+03  0.10100000352E+00 0.  1.
    10030    2    1    2    0    0  0.00000000000E+00  0.00000000000E+00  0.55800620331E+03  0.20749335266E+04  0.19984939872E+04 0.  0.
        1    1    3    3  502    0  0.57759362380E+03 -0.75668754108E+03 -0.36433363491E+02  0.95263729671E+03  0.50400001928E-02 0. -1.
       -1    1    3    3    0  502 -0.57759362380E+03  0.75668754108E+03  0.59443956680E+03  0.11222962299E+04  0.50400001928E-02 0.  1.
</event>
<event>
 5   0  0.7132000E-06  0.2002801E+04  0.7818609E-02  0.8605312E-01
        4   -1    0    0  501    0  0.00000000000E+00  0.00000000000E+00  0.10471644828E+04  0.10471652529E+04  0.12699999809E+01 0. -1.
       -4   -1    0    0    0  501  0.00000000000E+00  0.00000000000E+00 -0.95763489110E+03  0.95763573322E+03  0.12699999809E+01 0.  1.
    10030    2    1    2    0    0  0.00000000000E+00  0.00000000000E+00  0.89529591655E+02  0.20048009861E+04  0.20028009003E+04 0.  0.
        4    1    3    3  502    0 -0.49738243012E+03  0.65304080468E+03  0.61887890452E+03  0.10280390487E+04  0.12699999809E+01 0. -1.
       -4    1    3    3    0  502  0.49738243012E+03 -0.65304080468E+03 -0.52934931287E+03  0.97676193737E+03  0.12699999809E+01 0.  1.
</event>
<event>
 5   0  0.2038882E-05  0.1997939E+04  0.7818609E-02  0.8607585E-01
       -2   -1    0    0    0  501  0.00000000000E+00  0.00000000000E+00  0.14929792787E+04  0.14929792787E+04  0.25500000920E-02 0. -1.
        2   -1    0    0  501    0  0.00000000000E+00  0.00000000000E+00 -0.66842222078E+03  0.66842222079E+03  0.25500000920E-02 0.  1.
    10030    2    1    2    0    0  0.00000000000E+00  0.00000000000E+00  0.82455705793E+03  0.21614014995E+04  0.19979394636E+04 0.  0.
        3    1    3    3  502    0  0.45909269906E+03  0.83166950874E+03  0.77963925829E+02  0.95316245312E+03  0.10100000352E+00 0.  1.
       -3    1    3    3    0  502 -0.45909269906E+03 -0.83166950874E+03  0.74659313210E+03  0.12082390464E+04  0.10100000352E+00 0. -1.
</event>
<event>
 5   0  0.9370269E-06  0.2007242E+04  0.7818609E-02  0.8603242E-01
       -1   -1    0    0    0  501  0.00000000000E+00  0.00000000000E+00  0.50058515781E+03  0.50058515784E+03  0.50400001928E-02 0.  1.
        1   -1    0    0  501    0  0.00000000000E+00  0.00000000000E+00 -0.20121550618E+04  0.20121550618E+04  0.50400001928E-02 0. -1.
    10030    2    1    2    0    0  0.00000000000E+00  0.00000000000E+00 -0.15115699040E+04  0.25127402196E+04  0.20072418481E+04 0.  0.
        4    1    3    3  502    0  0.64791263828E+03 -0.75536176217E+03 -0.59308863372E+03  0.11584981308E+04  0.12699999809E+01 0.  1.
       -4    1    3    3    0  502 -0.64791263828E+03  0.75536176217E+03 -0.91848127028E+03  0.13542420889E+04  0.12699999809E+01 0. -1.
</event>
<event>
 5   0  0.1999142E-05  0.2008470E+04  0.7818609E-02  0.8602671E-01
       -2   -1    0    0    0  501  0.00000000000E+00  0.00000000000E+00  0.97452424918E+03  0.97452424919E+03  0.25500000920E-02 0.  1.
        2   -1    0    0  501    0  0.00000000000E+00  0.00000000000E+00 -0.10348519375E+04  0.10348519375E+04  0.25500000920E-02 0. -1.
    10030    2    1    2    0    0  0.00000000000E+00  0.00000000000E+00 -0.60327688321E+02  0.20093761867E+04  0.20084703706E+04 0.  0.
        1    1    3    3  502    0  0.12647431123E+03 -0.61486911139E+03  0.75404459043E+03  0.98114373051E+03  0.50400001928E-02 0.  1.
       -1    1    3    3    0  502 -0.12647431123E+03  0.61486911139E+03 -0.81437227875E+03  0.10282324562E+04  0.50400001928E-02 0. -1.
</event>
<event>
 5   0  0.1979765E-05  0.1997625E+04  0.7818609E-02  0.8607732E-01
        2   -1    0    0  501    0  0.00000000000E+00  0.00000000000E+00  0.12004127593E+04  0.12004127593E+04  0.25500000920E-02 0. -1.
       -2   -1    0    0    0  501  0.00000000000E+00  0.00000000000E+00 -0.83106968844E+03  0.83106968845E+03  0.25500000920E-02 0.  1.
    10030    2    1    2    0    0  0.00000000000E+00  0.00000000000E+00  0.36934307083E+03  0.20314824477E+04  0.19976252480E+04 0.  0.
        2    1    3    3  502    0  0.49884857856E+03 -0.21501260820E+03 -0.66771492215E+03  0.86076915795E+03  0.25500000920E-02 0.  1.
       -2    1    3    3    0  502 -0.49884857856E+03  0.21501260820E+03  0.10370579930E+04  0.11707132898E+04  0.25500000920E-02 0. -1.
</event>
<event>
 5   0  0.9333353E-06  0.1994940E+04  0.7818609E-02  0.8608990E-01
        1   -1    0    0  501    0  0.00000000000E+00  0.00000000000E+00  0.11706576318E+04  0.11706576318E+04  0.50400001928E-02 0.  1.
       -1   -1    0    0    0  501  0.00000000000E+00  0.00000000000E+00 -0.84990394007E+03  0.84990394008E+03  0.50400001928E-02 0. -1.
    10030    2    1    2    0    0  0.00000000000E+00  0.00000000000E+00  0.32075369174E+03  0.20205615719E+04  0.19949401332E+04 0.  0.
        2    1    3    3  502    0 -0.83466673836E+03 -0.54576697012E+03  0.13970928519E+03  0.10069999177E+04  0.25500000920E-02 0. -1.
       -2    1    3    3    0  502  0.83466673836E+03  0.54576697012E+03  0.18104440655E+03  0.10135616542E+04  0.25500000920E-02 0.  1.
</event>
<event>
 5   0  0.2020029E-05  0.1998575E+04  0.7818609E-02  0.8607287E-01
       -2   -1    0    0    0  501  0.00000000000E+00  0.00000000000E+00  0.74574742881E+03  0.74574742881E+03  0.25500000920E-02 0.  1.
        2   -1    0    0  501    0  0.00000000000E+00  0.00000000000E+00 -0.13390265037E+04  0.13390265037E+04  0.25500000920E-02 0. -1.
    10030    2    1    2    0    0  0.00000000000E+00  0.00000000000E+00 -0.59327907485E+03  0.20847739325E+04  0.19985750646E+04 0.  0.
        5    1    3    3  502    0 -0.60623824340E+03  0.74502700802E+03 -0.58414148546E+03  0.11242034582E+04  0.46999998093E+01 0. -1.
       -5    1    3    3    0  502  0.60623824340E+03 -0.74502700802E+03 -0.91375893924E+01  0.96057047424E+03  0.46999998093E+01 0.  1.
</event>
<event>
 5   0  0.9220260E-06  0.2002232E+04  0.7818609E-02  0.8605578E-01
       -1   -1    0    0    0  501  0.00000000000E+00  0.00000000000E+00  0.74003575367E+03  0.74003575369E+03  0.50400001928E-02 0.  1.
        1   -1    0    0  501    0  0.00000000000E+00  0.00000000000E+00 -0.13543033674E+04  0.13543033674E+04  0.50400001928E-02 0. -1.
    10030    2    1    2    0    0  0.00000000000E+00  0.00000000000E+00 -0.61426761376E+03  0.20943391211E+04  0.20022316682E+04 0.  0.
        3    1    3    3  502    0  0.43811783407E+03 -0.85130586666E+03 -0.61310334289E+03  0.11369101259E+04  0.10100000352E+00 0. -1.
       -3    1    3    3    0  502 -0.43811783407E+03  0.85130586666E+03 -0.11642708686E+01  0.95742899521E+03  0.10100000352E+00 0.  1.
</event>
<event>
 5   0  0.9220260E-06  0.2013257E+04  0.7818609E-02  0.8600447E-01
       -1   -1    0    0    0  501  0.00000000000E+00  0.00000000000E+00  0.86692253693E+03  0.86692253694E+03  0.50400001928E-02 0. -1.
        1   -1    0    0  501    0  0.00000000000E+00  0.00000000000E+00 -0.11688487567E+04  0.11688487567E+04  0.50400001928E-02 0.  1.
    10030    2    1    2    0    0  0.00000000000E+00  0.00000000000E+00 -0.30192621975E+03  0.20357712936E+04  0.20132573899E+04 0.  0.
        3    1    3    3  502    0  0.47140189792E+03 -0.57783337475E+03  0.53275663506E+03  0.91648284258E+03  0.10100000352E+00 0. -1.
       -3    1    3    3    0  502 -0.47140189792E+03  0.57783337475E+03 -0.83468285482E+03  0.11192884511E+04  0.10100000352E+00 0.  1.
</event>
<event>
 5   0  0.9370269E-06  0.2004482E+04  0.7818609E-02  0.8604528E-01
       -1   -1    0    0    0  501  0.00000000000E+00  0.00000000000E+00  0.11579600431E+04  0.11579600431E+04  0.50400001928E-02 0. -1.
        1   -1    0    0  501    0  0.00000000000E+00  0.00000000000E+00 -0.86746232828E+03  0.86746232830E+03  0.50400001928E-02 0.  1.
    10030    2    1    2    0    0  0.00000000000E+00  0.00000000000E+00  0.29049771481E+03  0.20254223714E+04  0.20044816937E+04 0.  0.
        4    1    3    3  502    0 -0.67220171579E+03 -0.52322520699E+03  0.67884265969E+03  0.10892422749E+04  0.12699999809E+01 0. -1.
       -4    1    3    3    0  502  0.67220171579E+03  0.52322520699E+03 -0.38834494488E+03  0.93618009649E+03  0.12699999809E+01 0.  1.
</event>
<event>
 5   0  0.2003576E-05  0.2001461E+04  0.7818609E-02  0.8605938E-01
       -2   -1    0    0    0  501  0.00000000000E+00  0.00000000000E+00  0.83744070416E+03  0.83744070417E+03  0.25500000920E-02 0.  1.
        2   -1    0    0  501    0  0.00000000000E+00  0.00000000000E+00 -0.11958600895E+04  0.11958600895E+04  0.25500000920E-02 0. -1.
    10030    2    1    2    0    0  0.00000000000E+00  0.00000000000E+00 -0.35841938536E+03  0.20333007937E+04  0.20014613816E+04 0.  0.
        4    1    3    3  502    0  0.22428275840E+03  0.93685741571E+03 -0.45454839005E+03  0.10651856293E+04  0.12699999809E+01 0. -1.
       -4    1    3    3    0  502 -0.22428275840E+03 -0.93685741571E+03  0.96129004693E+02  0.96811516439E+03  0.12699999809E+01 0.  1.
</event>
<event>
 5   0  0.1979765E-05  0.1997092E+04  0.7818609E-02  0.8607982E-01
        2   -1    0    0  501    0  0.00000000000E+00  0.00000000000E+00  0.22826299856E+04  0.22826299856E+04  0.25500000920E-02 0.  1.
       -2   -1    0    0    0  501  0.00000000000E+00  0.00000000000E+00 -0.43681801368E+03  0.43681801369E+03  0.25500000920E-02 0. -1.
    10030    2    1    2    0    0  0.00000000000E+00  0.00000000000E+00  0.18458119719E+04  0.27194479993E+04  0.19970917818E+04 0.  0.
        2    1    3    3  502    0 -0.28822066959E+02  0.10580768726E+03 -0.42859330365E+03  0.44240049522E+03  0.25500000920E-02 0. -1.
       -2    1    3    3    0  502  0.28822066959E+02 -0.10580768726E+03  0.22744052755E+04  0.22770475040E+04  0.25500000920E-02 0.  1.
</event>
<event>
 5   0  0.2003576E-05  0.2004049E+04  0.7818609E-02  0.8604730E-01
       -2   -1    0    0    0  501  0.00000000000E+00  0.00000000000E+00  0.55062296553E+03  0.55062296554E+03  0.25500000920E-02 0. -1.
        2   -1    0    0  501    0  0.00000000000E+00  0.00000000000E+00 -0.18234851706E+04  0.18234851706E+04  0.25500000920E-02 0.  1.
    10030    2    1    2    0    0  0.00000000000E+00  0.00000000000E+00 -0.12728622050E+04  0.23741081361E+04  0.20040487142E+04 0.  0.
        4    1    3    3  502    0 -0.29851508601E+03 -0.86880122404E+03 -0.11104776056E+04  0.14412109314E+04  0.12699999809E+01 0. -1.
       -4    1    3    3    0  502  0.29851508601E+03  0.86880122404E+03 -0.16238459945E+03  0.93289720468E+03  0.12699999809E+01 0.  1.
</event>
<event>
 5   0  0.1999142E-05  0.1998836E+04  0.7818609E-02  0.8607165E-01
        2   -1    0    0  501    0  0.00000000000E+00  0.00000000000E+00  0.13205727436E+04  0.13205727436E+04  0.25500000920E-02 0. -1.
       -2   -1    0    0    0  501  0.00000000000E+00  0.00000000000E+00 -0.75636579510E+03  0.75636579511E+03  0.25500000920E-02 0.  1.
    10030    2    1    2    0    0  0.00000000000E+00  0.00000000000E+00  0.56420694850E+03  0.20769385387E+04  0.19988357143E+04 0.  0.
        1    1    3    3  502    0 -0.90147123068E+03 -0.38806677770E+03  0.47812764265E+03  0.10917198571E+04  0.50400001928E-02 0. -1.
       -1    1    3    3    0  502  0.90147123068E+03  0.38806677770E+03  0.86079305851E+02  0.98521868162E+03  0.50400001928E-02 0.  1.
</event>
<event>
 5   0  0.2038882E-05  0.2043297E+04  0.7818609E-02  0.8586641E-01
       -2   -1    0    0    0  501  0.00000000000E+00  0.00000000000E+00  0.14924355058E+04  0.14924355058E+04  0.25500000920E-02 0. -1.
        2   -1    0    0  501    0  0.00000000000E+00  0.00000000000E+00 -0.69937043416E+03  0.69937043416E+03  0.25500000920E-02 0.  1.
    10030    2    1    2    0    0  0.00000000000E+00  0.00000000000E+00  0.79306507166E+03  0.21918059400E+04  0.20432966184E+04 0.  0.
        3    1    3    3  502    0 -0.83439009607E+03  0.48522746676E+03  0.37364112378E+02  0.96594441559E+03  0.10100000352E+00 0. -1.
       -3    1    3    3    0  502  0.83439009607E+03 -0.48522746676E+03  0.75570095928E+03  0.12258615244E+04  0.10100000352E+00 0.  1.
</event>
<event>
 5   0  0.9140695E-06  0.1998430E+04  0.7818609E-02  0.8607355E-01
       -1   -1    0    0    0  501  0.00000000000E+00  0.00000000000E+00  0.13877147411E+04  0.13877147411E+04  0.50400001928E-02 0.  1.
        1   -1    0    0  501    0  0.00000000000E+00  0.00000000000E+00 -0.71947838739E+03  0.71947838740E+03  0.50400001928E-02 0. -1.
    10030    2    1    2    0    0  0.00000000000E+00  0.00000000000E+00  0.66823635374E+03  0.21071931285E+04  0.19984301480E+04 0.  0.
        1    1    3    3  502    0 -0.80358575928E+03  0.29781698782E+03  0.87587650605E+03  0.12253998060E+04  0.50400001928E-02 0.  1.
       -1    1    3    3    0  502  0.80358575928E+03 -0.29781698782E+03 -0.20764015231E+03  0.88179332251E+03  0.50400001928E-02 0. -1.
</event>
<event>
 5   0  0.1979765E-05  0.1991394E+04  0.7818609E-02  0.8610655E-01
       -2   -1    0    0    0  501  0.00000000000E+00  0.00000000000E+00  0.42951589645E+03  0.42951589646E+03  0.25500000920E-02 0. -1.
        2   -1    0    0  501    0  0.00000000000E+00  0.00000000000E+00 -0.23082098502E+04  0.23082098502E+04  0.25500000920E-02 0.  1.
    10030    2    1    2    0    0  0.00000000000E+00  0.00000000000E+00 -0.18786939537E+04  0.27377257466E+04  0.19913943085E+04 0.  0.
        2    1    3    3  502    0  0.64519018768E+03 -0.59281689812E+03 -0.28910360963E+03  0.92265006914E+03  0.25500000920E-02 0. -1.
       -2    1    3    3    0  502 -0.64519018768E+03  0.59281689812E+03 -0.15895903441E+04  0.18150756775E+04  0.25500000920E-02 0.  1.
</event>
<event>
 5   0  0.9333353E-06  0.1993547E+04  0.7818609E-02  0.8609644E-01
        1   -1    0    0  501    0  0.00000000000E+00  0.00000000000E+00  0.11624918861E+04  0.11624918861E+04  0.50400001928E-02 0.  1.
       -1   -1    0    0    0  501  0.00000000000E+00  0.00000000000E+00 -0.85467859885E+03  0.85467859886E+03  0.50400001928E-02 0. -1.
    10030    2    1    2    0    0  0.00000000000E+00  0.00000000000E+00  0.30781328727E+03  0.20171704850E+04  0.19935465246E+04 0.  0.
        2    1    3    3  502    0  0.81998008871E+03 -0.46576694323E+03 -0.17279838061E+03  0.95873117799E+03  0.25500000920E-02 0. -1.
       -2    1    3    3    0  502 -0.81998008871E+03  0.46576694323E+03  0.48061166789E+03  0.10584393070E+04  0.25500000920E-02 0.  1.
</event>
<event>
 5   0  0.1979765E-05  0.2004464E+04  0.7818609E-02  0.8604537E-01
        2   -1    0    0  501    0  0.00000000000E+00  0.00000000000E+00  0.98830840289E+03  0.98830840289E+03  0.25500000920E-02 0.  1.
       -2   -1    0    0    0  501  0.00000000000E+00  0.00000000000E+00 -0.10163515034E+04  0.10163515034E+04  0.25500000920E-02 0. -1.
    10030    2    1    2    0    0  0.00000000000E+00  0.00000000000E+00 -0.28043100465E+02  0.20046599062E+04  0.20044637498E+04 0.  0.
        2    1    3    3  502    0  0.51547235485E+03  0.83784226602E+03 -0.20581445444E+03  0.10050129357E+04  0.25500000920E-02 0. -1.
       -2    1    3    3    0  502 -0.51547235485E+03 -0.83784226602E+03  0.17777135398E+03  0.99964697050E+03  0.25500000920E-02 0.  1.
</event>
<event>
 5   0  0.2003576E-05  0.1998260E+04  0.7818609E-02  0.8607435E-01
        2   -1    0    0  501    0  0.00000000000E+00  0.00000000000E+00  0.10925265362E+04  0.10925265362E+04  0.25500000920E-02 0. -1.
       -2   -1    0    0    0  501  0.00000000000E+00  0.00000000000E+00 -0.91371726117E+03  0.91371726117E+03  0.25500000920E-02 0.  1.
    10030    2    1    2    0    0  0.00000000000E+00  0.00000000000E+00  0.17880927500E+03  0.20062437973E+04  0.19982595971E+04 0.  0.
        4    1    3    3  502    0  0.12435206629E+02 -0.68093744879E+03 -0.64456234323E+03  0.93770606842E+03  0.12699999809E+01 0.  1.
       -4    1    3    3    0  502 -0.12435206629E+02  0.68093744879E+03  0.82337161823E+03  0.10685377289E+04  0.12699999809E+01 0. -1.
</event>
<event>
 5   0  0.9140695E-06  0.2002102E+04  0.7818609E-02  0.8605639E-01
       -1   -1    0    0    0  501  0.00000000000E+00  0.00000000000E+00  0.12423708805E+04  0.12423708805E+04  0.50400001928E-02 0. -1.
        1   -1    0    0  501    0  0.00000000000E+00  0.00000000000E+00 -0.80660536257E+03  0.80660536259E+03  0.50400001928E-02 0.  1.
    10030    2    1    2    0    0  0.00000000000E+00  0.00000000000E+00  0.43576551797E+03  0.20489762431E+04  0.20021019101E+04 0.  0.
        1    1    3    3  502    0 -0.67601288392E+03 -0.44562180732E+03 -0.38456814965E+03  0.89636202292E+03  0.50400001928E-02 0.  1.
       -1    1    3    3    0  502  0.67601288392E+03  0.44562180732E+03  0.82033366762E+03  0.11526142202E+04  0.50400001928E-02 0. -1.
</event>
<event>
 5   0  0.9220260E-06  0.2000162E+04  0.7818609E-02  0.8606545E-01
        1   -1    0    0  501    0  0.00000000000E+00  0.00000000000E+00  0.14225908085E+04  0.14225908085E+04  0.50400001928E-02 0.  1.
       -1   -1    0    0    0  501  0.00000000000E+00  0.00000000000E+00 -0.70305661930E+03  0.70305661932E+03  0.50400001928E-02 0. -1.
    10030    2    1    2    0    0  0.00000000000E+00  0.00000000000E+00  0.71953418923E+03  0.21256474279E+04  0.20001618780E+04 0.  0.
        3    1    3    3  502    0 -0.64353797812E+02  0.85885198338E+03  0.89998263656E+03  0.12456873191E+04  0.10100000352E+00 0.  1.
       -3    1    3    3    0  502  0.64353797812E+02 -0.85885198338E+03 -0.18044844733E+03  0.87996010875E+03  0.10100000352E+00 0. -1.
</event>
<event>
 5   0  0.2038882E-05  0.2005873E+04  0.7818609E-02  0.8603880E-01
        2   -1    0    0  501    0  0.00000000000E+00  0.00000000000E+00  0.10018198792E+04  0.10018198792E+04  0.25500000920E-02 0. -1.
       -2   -1    0    0    0  501  0.00000000000E+00  0.00000000000E+00 -0.10040547887E+04  0.10040547887E+04  0.25500000920E-02 0.  1.
    10030    2    1    2    0    0  0.00000000000E+00  0.00000000000E+00 -0.22349095006E+01  0.20058746679E+04  0.20058734229E+04 0.  0.
        3    1    3    3  502    0 -0.20619016275E+03  0.69477320827E+03 -0.69441280271E+03  0.10037097912E+04  0.10100000352E+00 0.  1.
       -3    1    3    3    0  502  0.20619016275E+03 -0.69477320827E+03  0.69217789321E+03  0.10021648768E+04  0.10100000352E+00 0. -1.
</event>
<event>
 5   0  0.9342635E-06  0.2000516E+04  0.7818609E-02  0.8606380E-01
       -1   -1    0    0    0  501  0.00000000000E+00  0.00000000000E+00  0.71287966919E+03  0.71287966920E+03  0.50400001928E-02 0. -1.
        1   -1    0    0  501    0  0.00000000000E+00  0.00000000000E+00 -0.14034847946E+04  0.14034847946E+04  0.50400001928E-02 0.  1.
    10030    2    1    2    0    0  0.00000000000E+00  0.00000000000E+00 -0.69060512544E+03  0.21163644638E+04  0.20005157096E+04 0.  0.
        5    1    3    3  502    0 -0.16388405782E+03 -0.81767059982E+03 -0.92960050828E+03  0.12488484252E+04  0.46999998093E+01 0.  1.
       -5    1    3    3    0  502  0.16388405782E+03  0.81767059982E+03  0.23899538284E+03  0.86751603861E+03  0.46999998093E+01 0. -1.
</event>
<event>
 5   0  0.9370269E-06  0.1981235E+04  0.7818609E-02  0.8615444E-01
        1   -1    0    0  501    0  0.00000000000E+00  0.00000000000E+00  0.97810535782E+03  0.97810535784E+03  0.50400001928E-02 0.  1.
       -1   -1    0    0    0  501  0.00000000000E+00  0.00000000000E+00 -0.10032898651E+04  0.10032898651E+04  0.50400001928E-02 0. -1.
    10030    2    1    2    0    0  0.00000000000E+00  0.00000000000E+00 -0.25184507238E+02  0.19813952229E+04  0.19812351627E+04 0.  0.
        4    1    3    3  502    0  0.39568680854E+03  0.52712094922E+03  0.72699236165E+03  0.98129712745E+03  0.12699999809E+01 0.  1.
       -4    1    3    3    0  502 -0.39568680854E+03 -0.52712094922E+03 -0.75217686888E+03  0.10000980955E+04  0.12699999809E+01 0. -1.
</event>
<event>
 5   0  0.2003576E-05  0.1997846E+04  0.7818609E-02  0.8607628E-01
        2   -1    0    0  501    0  0.00000000000E+00  0.00000000000E+00  0.10230684601E+04  0.10230684601E+04  0.25500000920E-02 0. -1.
       -2   -1    0    0    0  501  0.00000000000E+00  0.00000000000E+00 -0.97534716884E+03  0.97534716884E+03  0.25500000920E-02 0.  1.
    10030    2    1    2    0    0  0.00000000000E+00  0.00000000000E+00  0.47721291236E+02  0.19984156289E+04  0.19978457659E+04 0.  0.
        4    1    3    3  502    0  0.96348666383E+02 -0.59618362699E+03 -0.77205930449E+03  0.98020159414E+03  0.12699999809E+01 0.  1.
       -4    1    3    3    0  502 -0.96348666383E+02  0.59618362699E+03  0.81978059573E+03  0.10182140348E+04  0.12699999809E+01 0. -1.
</event>
<event>
 5   0  0.1999142E-05  0.1998140E+04  0.7818609E-02  0.8607491E-01
       -2   -1    0    0    0  501  0.00000000000E+00  0.00000000000E+00  0.10256041105E+04  0.10256041105E+04  0.25500000920E-02 0. -1.
        2   -1    0    0  501    0  0.00000000000E+00  0.00000000000E+00 -0.97322269711E+03  0.97322269711E+03  0.25500000920E-02 0.  1.
    10030    2    1    2    0    0  0.00000000000E+00  0.00000000000E+00  0.52381413381E+02  0.19988268076E+04  0.19981403340E+04 0.  0.
        1    1    3    3  502    0  0.46773964200E+03  0.11068399948E+03  0.90233970056E+03  0.10223738336E+04  0.50400001928E-02 0. -1.
       -1    1    3    3    0  502 -0.46773964200E+03 -0.11068399948E+03 -0.84995828718E+03  0.97645297399E+03  0.50400001928E-02 0.  1.
</event>
<event>
 5   0  0.9333353E-06  0.1999263E+04  0.7818609E-02  0.8606965E-01
        1   -1    0    0  501    0  0.00000000000E+00  0.00000000000E+00  0.16785769041E+04  0.16785769041E+04  0.50400001928E-02 0.  1.
       -1   -1    0    0    0  501  0.00000000000E+00  0.00000000000E+00 -0.59530373828E+03  0.59530373830E+03  0.50400001928E-02 0. -1.
    10030    2    1    2    0    0  0.00000000000E+00  0.00000000000E+00  0.10832731658E+04  0.22738806424E+04  0.19992629702E+04 0.  0.
        2    1    3    3  502    0 -0.52958938809E+03 -0.18191960783E+03  0.14834522425E+04  0.15856198219E+04  0.25500000920E-02 0.  1.
       -2    1    3    3    0  502  0.52958938809E+03  0.18191960783E+03 -0.40017907668E+03  0.68826082055E+03  0.25500000920E-02 0. -1.
</event>
<event>
 5   0  0.1979765E-05  0.1996919E+04  0.7818609E-02  0.8608062E-01
       -2   -1    0    0    0  501  0.00000000000E+00  0.00000000000E+00  0.11163942998E+04  0.11163942998E+04  0.25500000920E-02 0. -1.
        2   -1    0    0  501    0  0.00000000000E+00  0.00000000000E+00 -0.89298346720E+03  0.89298346720E+03  0.25500000920E-02 0.  1.
    10030    2    1    2    0    0  0.00000000000E+00  0.00000000000E+00  0.22341083257E+03  0.20093777670E+04  0.19969192799E+04 0.  0.
        2    1    3    3  502    0 -0.47574166111E+03  0.20437894909E+03 -0.74733075871E+03  0.90917773062E+03  0.25500000920E-02 0.  1.
       -2    1    3    3    0  502  0.47574166111E+03 -0.20437894909E+03  0.97074159128E+03  0.11002000364E+04  0.25500000920E-02 0. -1.
</event>
<event>
 5   0  0.1999142E-05  0.2001773E+04  0.7818609E-02  0.8605792E-01
        2   -1    0    0  501    0  0.00000000000E+00  0.00000000000E+00  0.21548748429E+04  0.21548748429E+04  0.25500000920E-02 0.  1.
       -2   -1    0    0    0  501  0.00000000000E+00  0.00000000000E+00 -0.46488731091E+03  0.46488731092E+03  0.25500000920E-02 0. -1.
    10030    2    1    2    0    0  0.00000000000E+00  0.00000000000E+00  0.16899875320E+04  0.26197621538E+04  0.20017731850E+04 0.  0.
        1    1    3    3  502    0  0.88463928063E+03  0.15661354207E+03  0.26758308609E+03  0.93739808319E+03  0.50400001928E-02 0.  1.
       -1    1    3    3    0  502 -0.88463928063E+03 -0.15661354207E+03  0.14224044459E+04  0.16823640706E+04  0.50400001928E-02 0. -1.
</event>
<event>
 5   0  0.2038882E-05  0.2002432E+04  0.7818609E-02  0.8605485E-01
       -2   -1    0    0    0  501  0.00000000000E+00  0.00000000000E+00  0.39139801983E+03  0.39139801984E+03  0.25500000920E-02 0. -1.
        2   -1    0    0  501    0  0.00000000000E+00  0.00000000000E+00 -0.25611605091E+04  0.25611605091E+04  0.25500000920E-02 0.  1.
    10030    2    1    2    0    0  0.00000000000E+00  0.00000000000E+00 -0.21697624893E+04  0.29525585290E+04  0.20024316735E+04 0.  0.
        3    1    3    3  502    0 -0.33078298710E+03 -0.80903388284E+03 -0.36482448755E+03  0.94712730140E+03  0.10100000352E+00 0. -1.
       -3    1    3    3    0  502  0.33078298710E+03  0.80903388284E+03 -0.18049380018E+04  0.20054312276E+04  0.10100000352E+00 0.  1.
</event>
<event>
 5   0  0.1979765E-05  0.2010379E+04  0.7818609E-02  0.8601784E-01
       -2   -1    0    0    0  501  0.00000000000E+00  0.00000000000E+00  0.13912189392E+04  0.13912189392E+04  0.25500000920E-02 0. -1.
        2   -1    0    0  501    0  0.00000000000E+00  0.00000000000E+00 -0.72627349451E+03  0.72627349452E+03  0.25500000920E-02 0.  1.
    10030    2    1    2    0    0  0.00000000000E+00  0.00000000000E+00  0.66494544469E+03  0.21174924337E+04  0.20103785122E+04 0.  0.
        2    1    3    3  502    0  0.95002905281E+03 -0.62342416382E+01  0.67831359887E+03  0.11673488790E+04  0.25500000920E-02 0.  1.
       -2    1    3    3    0  502 -0.95002905281E+03  0.62342416382E+01 -0.13368154180E+02  0.95014355469E+03  0.25500000920E-02 0. -1.
</event>
<event>
 5   0  0.9342635E-06  0.2020766E+04  0.7818609E-02  0.8596973E-01
       -1   -1    0    0    0  501  0.00000000000E+00  0.00000000000E+00  0.76138115413E+03  0.76138115414E+03  0.50400001928E-02 0.  1.
        1   -1    0    0  501    0  0.00000000000E+00  0.00000000000E+00 -0.13408178801E+04  0.13408178801E+04  0.50400001928E-02 0. -1.
    10030    2    1    2    0    0  0.00000000000E+00  0.00000000000E+00 -0.57943672595E+03  0.21021990342E+04  0.20207656619E+04 0.  0.
        5    1    3    3  502    0  0.26049099855E+03  0.19050900291E+03  0.70631067534E+03  0.77656042947E+03  0.46999998093E+01 0.  1.
       -5    1    3    3    0  502 -0.26049099855E+03 -0.19050900291E+03 -0.12857474013E+04  0.13256386048E+04  0.46999998093E+01 0. -1.
</event>
<event>
 5   0  0.2003576E-05  0.2003523E+04  0.7818609E-02  0.8604975E-01
        2   -1    0    0  501    0  0.00000000000E+00  0.00000000000E+00  0.28480346405E+04  0.28480346405E+04  0.25500000920E-02 0. -1.
       -2   -1    0    0    0  501  0.00000000000E+00  0.00000000000E+00 -0.35235737322E+03  0.35235737323E+03  0.25500000920E-02 0.  1.
    10030    2    1    2    0    0  0.00000000000E+00  0.00000000000E+00  0.24956772673E+04  0.32003920137E+04  0.20035229021E+04 0.  0.
        4    1    3    3  502    0  0.37321404409E+03  0.92925707221E+03  0.12906104028E+04  0.16335495872E+04  0.12699999809E+01 0.  1.
       -4    1    3    3    0  502 -0.37321404409E+03 -0.92925707221E+03  0.12050668645E+04  0.15668424266E+04  0.12699999809E+01 0. -1.
</event>
<event>
 5   0  0.9220260E-06  0.1999069E+04  0.7818609E-02  0.8607056E-01
        1   -1    0    0  501    0  0.00000000000E+00  0.00000000000E+00  0.56660513461E+03  0.56660513464E+03  0.50400001928E-02 0. -1.
       -1   -1    0    0    0  501  0.00000000000E+00  0.00000000000E+00 -0.17632548493E+04  0.17632548493E+04  0.50400001928E-02 0.  1.
    10030    2    1    2    0    0  0.00000000000E+00  0.00000000000E+00 -0.11966497147E+04  0.23298599839E+04  0.19990690346E+04 0.  0.
        3    1    3    3  502    0 -0.69153697369E+03  0.60872091854E+03 -0.10501686377E+04  0.13970034790E+04  0.10100000352E+00 0.  1.
       -3    1    3    3    0  502  0.69153697369E+03 -0.60872091854E+03 -0.14648107703E+03  0.93285650493E+03  0.10100000352E+00 0. -1.
</event>
<event>
 5   0  0.9140695E-06  0.1994694E+04  0.7818609E-02  0.8609105E-01
       -1   -1    0    0    0  501  0.00000000000E+00  0.00000000000E+00  0.10493757125E+04  0.10493757125E+04  0.50400001928E-02 0. -1.
        1   -1    0    0  501    0  0.00000000000E+00  0.00000000000E+00 -0.94789819140E+03  0.94789819141E+03  0.50400001928E-02 0.  1.
    10030    2    1    2    0    0  0.00000000000E+00  0.00000000000E+00  0.10147752111E+03  0.19972739039E+04  0.19946943024E+04 0.  0.
        1    1    3    3  502    0 -0.46282699429E+03  0.80765779975E+03  0.40922605831E+03  0.10168509797E+04  0.50400001928E-02 0. -1.
       -1    1    3    3    0  502  0.46282699429E+03 -0.80765779975E+03 -0.30774853720E+03  0.98042292421E+03  0.50400001928E-02 0.  1.
</event>
<event>
 5   0  0.2038882E-05  0.2001424E+04  0.7818609E-02  0.8605955E-01
       -2   -1    0    0    0  501  0.00000000000E+00  0.00000000000E+00  0.69000548513E+03  0.69000548513E+03  0.25500000920E-02 0. -1.
        2   -1    0    0  501    0  0.00000000000E+00  0.00000000000E+00 -0.14513285214E+04  0.14513285214E+04  0.25500000920E-02 0.  1.
    10030    2    1    2    0    0  0.00000000000E+00  0.00000000000E+00 -0.76132303623E+03  0.21413340065E+04  0.20014241334E+04 0.  0.
        3    1    3    3  502    0 -0.46807842451E+03  0.82499558560E+03 -0.72187489343E+03  0.11919809142E+04  0.10100000352E+00 0.  1.
       -3    1    3    3    0  502  0.46807842451E+03 -0.82499558560E+03 -0.39448142801E+02  0.94935309234E+03  0.10100000352E+00 0. -1.
</event>
<event>
 5   0  0.7132000E-06  0.1999481E+04  0.7818609E-02  0.8606863E-01
       -3   -1    0    0    0  501  0.00000000000E+00  0.00000000000E+00  0.10415292426E+04  0.10415292475E+04  0.10100000352E+00 0.  1.
        3   -1    0    0  501    0  0.00000000000E+00  0.00000000000E+00 -0.95962883566E+03  0.95962884098E+03  0.10100000352E+00 0. -1.
    10030    2    1    2    0    0  0.00000000000E+00  0.00000000000E+00  0.81900406910E+02  0.20011580884E+04  0.19994814374E+04 0.  0.
        2    1    3    3  502    0 -0.98743239297E+03 -0.56519895626E+02  0.18689523508E+03  0.10065520643E+04  0.25500000920E-02 0.  1.
       -2    1    3    3    0  502  0.98743239297E+03  0.56519895626E+02 -0.10499482817E+03  0.99460602413E+03  0.25500000920E-02 0. -1.
</event>
<event>
 5   0  0.9220260E-06  0.1997990E+04  0.7818609E-02  0.8607561E-01
        1   -1    0    0  501    0  0.00000000000E+00  0.00000000000E+00  0.86705140884E+03  0.86705140886E+03  0.50400001928E-02 0.  1.
       -1   -1    0    0    0  501  0.00000000000E+00  0.00000000000E+00 -0.11510166034E+04  0.11510166034E+04  0.50400001928E-02 0. -1.
    10030    2    1    2    0    0  0.00000000000E+00  0.00000000000E+00 -0.28396519452E+03  0.20180680122E+04  0.19979895571E+04 0.  0.
        3    1    3    3  502    0  0.72215085604E+02 -0.97810485494E+03 -0.33385590110E+03  0.10360327692E+04  0.10100000352E+00 0. -1.
       -3    1    3    3    0  502 -0.72215085604E+02  0.97810485494E+03  0.49890706578E+02  0.98203524308E+03  0.10100000352E+00 0.  1.
</event>
<event>
 5   0  0.9370269E-06  0.2002300E+04  0.7818609E-02  0.8605546E-01
        1   -1    0    0  501    0  0.00000000000E+00  0.00000000000E+00  0.12426279503E+04  0.12426279503E+04  0.50400001928E-02 0.  1.
       -1   -1    0    0    0  501  0.00000000000E+00  0.00000000000E+00 -0.80659788260E+03  0.80659788262E+03  0.50400001928E-02 0. -1.
    10030    2    1    2    0    0  0.00000000000E+00  0.00000000000E+00  0.43603006768E+03  0.20492258329E+04  0.20022997514E+04 0.  0.
        4    1    3    3  502    0 -0.46620253458E+02  0.97683297193E+03  0.43733468438E+03  0.10712793016E+04  0.12699999809E+01 0. -1.
       -4    1    3    3    0  502  0.46620253458E+02 -0.97683297193E+03 -0.13046167018E+01  0.97794653126E+03  0.12699999809E+01 0.  1.
</event>
<event>
 5   0  0.9342635E-06  0.2003351E+04  0.7818609E-02  0.8605055E-01
       -1   -1    0    0    0  501  0.00000000000E+00  0.00000000000E+00  0.40027603053E+03  0.40027603056E+03  0.50400001928E-02 0. -1.
        1   -1    0    0  501    0  0.00000000000E+00  0.00000000000E+00 -0.25066554078E+04  0.25066554079E+04  0.50400001928E-02 0.  1.
    10030    2    1    2    0    0  0.00000000000E+00  0.00000000000E+00 -0.21063793773E+04  0.29069314384E+04  0.20033512689E+04 0.  0.
        5    1    3    3  502    0  0.60958037109E+02 -0.93983150633E+03 -0.15481026824E+04  0.18120825444E+04  0.46999998093E+01 0.  1.
       -5    1    3    3    0  502 -0.60958037109E+02  0.93983150633E+03 -0.55827669493E+03  0.10948488940E+04  0.46999998093E+01 0. -1.
</event>
<event>
 5   0  0.9370269E-06  0.2000151E+04  0.7818609E-02  0.8606550E-01
        1   -1    0    0  501    0  0.00000000000E+00  0.00000000000E+00  0.15707853226E+04  0.15707853226E+04  0.50400001928E-02 0. -1.
       -1   -1    0    0    0  501  0.00000000000E+00  0.00000000000E+00 -0.63672065386E+03  0.63672065388E+03  0.50400001928E-02 0.  1.
    10030    2    1    2    0    0  0.00000000000E+00  0.00000000000E+00  0.93406466875E+03  0.22075059765E+04  0.20001514520E+04 0.  0.
        4    1    3    3  502    0  0.53590511411E+03  0.75062349090E+03  0.89379709040E+03  0.12843304747E+04  0.12699999809E+01 0. -1.
       -4    1    3    3    0  502 -0.53590511411E+03 -0.75062349090E+03  0.40267578343E+02  0.92317550183E+03  0.12699999809E+01 0.  1.
</event>
<event>
 5   0  0.2038882E-05  0.1993108E+04  0.7818609E-02  0.8609850E-01
       -2   -1    0    0    0  501  0.00000000000E+00  0.00000000000E+00  0.58694991363E+03  0.58694991363E+03  0.25500000920E-02 0. -1.
        2   -1    0    0  501    0  0.00000000000E+00  0.00000000000E+00 -0.16920011391E+04  0.16920011391E+04  0.25500000920E-02 0.  1.
    10030    2    1    2    0    0  0.00000000000E+00  0.00000000000E+00 -0.11050512255E+04  0.22789510527E+04  0.19931080477E+04 0.  0.
        3    1    3    3  502    0  0.24780751223E+03 -0.92390929677E+03 -0.23297628898E+03  0.98452776152E+03  0.10100000352E+00 0. -1.
       -3    1    3    3    0  502 -0.24780751223E+03  0.92390929677E+03 -0.87207493651E+03  0.12944232912E+04  0.10100000352E+00 0.  1.
</event>
<event>
 5   0  0.9140695E-06  0.1999667E+04  0.7818609E-02  0.8606776E-01
        1   -1    0    0  501    0  0.00000000000E+00  0.00000000000E+00  0.12681158462E+04  0.12681158462E+04  0.50400001928E-02 0.  1.
       -1   -1    0    0    0  501  0.00000000000E+00  0.00000000000E+00 -0.78830924276E+03  0.78830924278E+03  0.50400001928E-02 0. -1.
    10030    2    1    2    0    0  0.00000000000E+00  0.00000000000E+00  0.47980660345E+03  0.20564250890E+04  0.19996674148E+04 0.  0.
        1    1    3    3  502    0 -0.11863744221E+03 -0.67118172265E+03 -0.51237012687E+03  0.85269155880E+03  0.50400001928E-02 0. -1.
       -1    1    3    3    0  502  0.11863744221E+03  0.67118172265E+03  0.99217673031E+03  0.12037335302E+04  0.50400001928E-02 0.  1.
</event>
<event>
 5   0  0.2038882E-05  0.2001240E+04  0.7818609E-02  0.8606041E-01
       -2   -1    0    0    0  501  0.00000000000E+00  0.00000000000E+00  0.11242055887E+04  0.11242055888E+04  0.25500000920E-02 0.  1.
        2   -1    0    0  501    0  0.00000000000E+00  0.00000000000E+00 -0.89062023055E+03  0.89062023055E+03  0.25500000920E-02 0. -1.
    10030    2    1    2    0    0  0.00000000000E+00  0.00000000000E+00  0.23358535820E+03  0.20148258193E+04  0.20012398563E+04 0.  0.
        3    1    3    3  502    0 -0.14279858534E+03 -0.43472637430E+03 -0.77911457524E+03  0.90354744648E+03  0.10100000352E+00 0. -1.
       -3    1    3    3    0  502  0.14279858534E+03  0.43472637430E+03  0.10126999334E+04  0.11112783728E+04  0.10100000352E+00 0.  1.
</event>
<event>
 5   0  0.2003576E-05  0.1994693E+04  0.7818609E-02  0.8609106E-01
        2   -1    0    0  501    0  0.00000000000E+00  0.00000000000E+00  0.11397642077E+04  0.11397642077E+04  0.25500000920E-02 0. -1.
       -2   -1    0    0    0  501  0.00000000000E+00  0.00000000000E+00 -0.87272470560E+03  0.87272470560E+03  0.25500000920E-02 0.  1.
    10030    2    1    2    0    0  0.00000000000E+00  0.00000000000E+00  0.26703950215E+03  0.20124889133E+04  0.19946933425E+04 0.  0.
        4    1    3    3  502    0  0.58356192709E+03  0.73798440063E+03  0.46743049092E+03  0.10505514624E+04  0.12699999809E+01 0. -1.
       -4    1    3    3    0  502 -0.58356192709E+03 -0.73798440063E+03 -0.20039098878E+03  0.96193745098E+03  0.12699999809E+01 0.  1.
</event>
<event>
 5   0  0.9370269E-06  0.1999732E+04  0.7818609E-02  0.8606746E-01
       -1   -1    0    0    0  501  0.00000000000E+00  0.00000000000E+00  0.10131601904E+04  0.10131601904E+04  0.50400001928E-02 0.  1.
        1   -1    0    0  501    0  0.00000000000E+00  0.00000000000E+00 -0.98674602591E+03  0.98674602592E+03  0.50400001928E-02 0. -1.
    10030    2    1    2    0    0  0.00000000000E+00  0.00000000000E+00  0.26414164512E+02  0.19999062164E+04  0.19997317735E+04 0.  0.
        4    1    3    3  502    0 -0.38715812337E+03 -0.75919903214E+03  0.53618251817E+03  0.10068604117E+04  0.12699999809E+01 0.  1.
       -4    1    3    3    0  502  0.38715812337E+03  0.75919903214E+03 -0.50976835366E+03  0.99304580468E+03  0.12699999809E+01 0. -1.
</event>
<event>
 5   0  0.9140695E-06  0.1998247E+04  0.7818609E-02  0.8607441E-01
        1   -1    0    0  501    0  0.00000000000E+00  0.00000000000E+00  0.10819847762E+04  0.10819847763E+04  0.50400001928E-02 0. -1.
       -1   -1    0    0    0  501  0.00000000000E+00  0.00000000000E+00 -0.92260830568E+03  0.92260830569E+03  0.50400001928E-02 0.  1.
    10030    2    1    2    0    0  0.00000000000E+00  0.00000000000E+00  0.15937647057E+03  0.20045930819E+04  0.19982473733E+04 0.  0.
        1    1    3    3  502    0  0.11013731601E+03  0.48386739370E+03  0.94961578293E+03  0.10714606938E+04  0.50400001928E-02 0. -1.
       -1    1    3    3    0  502 -0.11013731601E+03 -0.48386739370E+03 -0.79023931236E+03  0.93313238819E+03  0.50400001928E-02 0.  1.
</event>
<event>
 5   0  0.1979765E-05  0.1998774E+04  0.7818609E-02  0.8607194E-01
        2   -1    0    0  501    0  0.00000000000E+00  0.00000000000E+00  0.17269005102E+04  0.17269005102E+04  0.25500000920E-02 0. -1.
       -2   -1    0    0    0  501  0.00000000000E+00  0.00000000000E+00 -0.57836225062E+03  0.57836225062E+03  0.25500000920E-02 0.  1.
    10030    2    1    2    0    0  0.00000000000E+00  0.00000000000E+00  0.11485382596E+04  0.23052627609E+04  0.19987736897E+04 0.  0.
        2    1    3    3  502    0  0.68160009789E+03  0.72982914292E+03  0.61959980137E+03  0.11752162291E+04  0.25500000920E-02 0.  1.
       -2    1    3    3    0  502 -0.68160009789E+03 -0.72982914292E+03  0.52893845826E+03  0.11300465318E+04  0.25500000920E-02 0. -1.
</event>
<event>
 5   0  0.2038882E-05  0.2000740E+04  0.7818609E-02  0.8606275E-01
       -2   -1    0    0    0  501  0.00000000000E+00  0.00000000000E+00  0.39918057153E+03  0.39918057154E+03  0.25500000920E-02 0.  1.
        2   -1    0    0  501    0  0.00000000000E+00  0.00000000000E+00 -0.25069849527E+04  0.25069849527E+04  0.25500000920E-02 0. -1.
    10030    2    1    2    0    0  0.00000000000E+00  0.00000000000E+00 -0.21078043812E+04  0.29061655243E+04  0.20007395495E+04 0.  0.
        3    1    3    3  502    0 -0.95372330820E+03  0.18749175503E+03 -0.71017215798E+03  0.12037798017E+04  0.10100000352E+00 0.  1.
       -3    1    3    3    0  502  0.95372330820E+03 -0.18749175503E+03 -0.13976322232E+04  0.17023857226E+04  0.10100000352E+00 0. -1.
</event>
<event>
 5   0  0.9370269E-06  0.2002628E+04  0.7818609E-02  0.8605393E-01
        1   -1    0    0  501    0  0.00000000000E+00  0.00000000000E+00  0.19682998811E+04  0.19682998811E+04  0.50400001928E-02 0. -1.
       -1   -1    0    0    0  501  0.00000000000E+00  0.00000000000E+00 -0.50938871575E+03  0.50938871578E+03  0.50400001928E-02 0.  1.
    10030    2    1    2    0    0  0.00000000000E+00  0.00000000000E+00  0.14589111654E+04  0.24776885969E+04  0.20026280221E+04 0.  0.
        4    1    3    3  502    0  0.41694388879E+03 -0.12725887065E+03  0.18447318648E+04  0.18955406333E+04  0.12699999809E+01 0. -1.
       -4    1    3    3    0  502 -0.41694388879E+03  0.12725887065E+03 -0.38582069942E+03  0.58214796363E+03  0.12699999809E+01 0.  1.
</event>
<event>
 5   0  0.9333353E-06  0.1996494E+04  0.7818609E-02  0.8608262E-01
       -1   -1    0    0    0  501  0.00000000000E+00  0.00000000000E+00  0.52330105414E+03  0.52330105417E+03  0.50400001928E-02 0. -1.
        1   -1    0    0  501    0  0.00000000000E+00  0.00000000000E+00 -0.19042516830E+04  0.19042516830E+04  0.50400001928E-02 0.  1.
    10030    2    1    2    0    0  0.00000000000E+00  0.00000000000E+00 -0.13809506288E+04  0.24275527371E+04  0.19964938398E+04 0.  0.
        2    1    3    3  502    0  0.69323431353E+03  0.24040416503E+03  0.13251469102E+03  0.74560587401E+03  0.25500000920E-02 0. -1.
       -2    1    3    3    0  502 -0.69323431353E+03 -0.24040416503E+03 -0.15134653198E+04  0.16819468631E+04  0.25500000920E-02 0.  1.
</event>
<event>
 5   0  0.9140695E-06  0.2001278E+04  0.7818609E-02  0.8606023E-01
       -1   -1    0    0    0  501  0.00000000000E+00  0.00000000000E+00  0.10277718178E+04  0.10277718179E+04  0.50400001928E-02 0. -1.
        1   -1    0    0  501    0  0.00000000000E+00  0.00000000000E+00 -0.97422292051E+03  0.97422292053E+03  0.50400001928E-02 0.  1.
    10030    2    1    2    0    0  0.00000000000E+00  0.00000000000E+00  0.53548897325E+02  0.20019947384E+04  0.20012784534E+04 0.  0.
        1    1    3    3  502    0 -0.32658039131E+03 -0.94344867567E+03 -0.40545301359E+02  0.99919671591E+03  0.50400001928E-02 0.  1.
       -1    1    3    3    0  502  0.32658039131E+03  0.94344867567E+03  0.94094198684E+02  0.10027980225E+04  0.50400001928E-02 0. -1.
</event>
<event>
 5   0  0.1979765E-05  0.2000221E+04  0.7818609E-02  0.8606518E-01
        2   -1    0    0  501    0  0.00000000000E+00  0.00000000000E+00  0.12245299443E+04  0.12245299443E+04  0.25500000920E-02 0.  1.
       -2   -1    0    0    0  501  0.00000000000E+00  0.00000000000E+00 -0.81682002783E+03  0.81682002784E+03  0.25500000920E-02 0. -1.
    10030    2    1    2    0    0  0.00000000000E+00  0.00000000000E+00  0.40770991651E+03  0.20413499722E+04  0.20002205711E+04 0.  0.
        2    1    3    3  502    0  0.61090527202E+03 -0.35892401201E+03 -0.51648348822E+03  0.87680493349E+03  0.25500000920E-02 0. -1.
       -2    1    3    3    0  502 -0.61090527202E+03  0.35892401201E+03  0.92419340473E+03  0.11645450387E+04  0.25500000920E-02 0.  1.
</event>
<event>
 5   0  0.9342635E-06  0.2000491E+04  0.7818609E-02  0.8606391E-01
       -1   -1    0    0    0  501  0.00000000000E+00  0.00000000000E+00  0.10730211598E+04  0.10730211598E+04  0.50400001928E-02 0.  1.
        1   -1    0    0  501    0  0.00000000000E+00  0.00000000000E+00 -0.93240560389E+03  0.93240560390E+03  0.50400001928E-02 0. -1.
    10030    2    1    2    0    0  0.00000000000E+00  0.00000000000E+00  0.14061555589E+03  0.20054267637E+04  0.20004908822E+04 0.  0.
        5    1    3    3  502    0  0.15472211541E+03  0.46100775220E+03  0.94653635530E+03  0.10641523587E+04  0.46999998093E+01 0.  1.
       -5    1    3    3    0  502 -0.15472211541E+03 -0.46100775220E+03 -0.80592079942E+03  0.94127440500E+03  0.46999998093E+01 0. -1.
</event>
<event>
 5   0  0.9220260E-06  0.2000167E+04  0.7818609E-02  0.8606542E-01
        1   -1    0    0  501    0  0.00000000000E+00  0.00000000000E+00  0.15299676295E+04  0.15299676295E+04  0.50400001928E-02 0. -1.
       -1   -1    0    0    0  501  0.00000000000E+00  0.00000000000E+00 -0.65371794085E+03  0.65371794087E+03  0.50400001928E-02 0.  1.
    10030    2    1    2    0    0  0.00000000000E+00  0.00000000000E+00  0.87624968866E+03  0.21836855704E+04  0.20001672814E+04 0.  0.
        3    1    3    3  502    0 -0.24171358536E+03 -0.60327514106E+03 -0.39175057648E+03  0.75883784668E+03  0.10100000352E+00 0.  1.
       -3    1    3    3    0  502  0.24171358536E+03  0.60327514106E+03  0.12680002651E+04  0.14248477237E+04  0.10100000352E+00 0. -1.
</event>
<event>
 5   0  0.2038882E-05  0.1994627E+04  0.7818609E-02  0.8609137E-01
       -2   -1    0    0    0  501  0.00000000000E+00  0.00000000000E+00  0.73756251409E+03  0.73756251410E+03  0.25500000920E-02 0. -1.
        2   -1    0    0  501    0  0.00000000000E+00  0.00000000000E+00 -0.13485425644E+04  0.13485425644E+04  0.25500000920E-02 0.  1.
    10030    2    1    2    0    0  0.00000000000E+00  0.00000000000E+00 -0.61098005028E+03  0.20861050785E+04  0.19946272275E+04 0.  0.
        3    1    3    3  502    0  0.99642394393E+03  0.29102724636E+02 -0.33732943078E+03  0.10523776887E+04  0.10100000352E+00 0. -1.
       -3    1    3    3    0  502 -0.99642394393E+03 -0.29102724636E+02 -0.27365061950E+03  0.10337273898E+04  0.10100000352E+00 0.  1.
</event>
<event>
 5   0  0.2038882E-05  0.2000466E+04  0.7818609E-02  0.8606403E-01
       -2   -1    0    0    0  501  0.00000000000E+00  0.00000000000E+00  0.76072841707E+03  0.76072841707E+03  0.25500000920E-02 0.  1.
        2   -1    0    0  501    0  0.00000000000E+00  0.00000000000E+00 -0.13151424678E+04  0.13151424678E+04  0.25500000920E-02 0. -1.
    10030    2    1    2    0    0  0.00000000000E+00  0.00000000000E+00 -0.55441405070E+03  0.20758708848E+04  0.20004661934E+04 0.  0.
        3    1    3    3  502    0 -0.48114947472E+03  0.24994801386E+03 -0.11494175744E+04  0.12708814253E+04  0.10100000352E+00 0. -1.
       -3    1    3    3    0  502  0.48114947472E+03 -0.24994801386E+03  0.59500352365E+03  0.80498945957E+03  0.10100000352E+00 0.  1.
</event>
<event>
 5   0  0.9140695E-06  0.1984694E+04  0.7818609E-02  0.8613811E-01
        1   -1    0    0  501    0  0.00000000000E+00  0.00000000000E+00  0.15521475401E+04  0.15521475401E+04  0.50400001928E-02 0. -1.
       -1   -1    0    0    0  501  0.00000000000E+00  0.00000000000E+00 -0.63444494194E+03  0.63444494196E+03  0.50400001928E-02 0.  1.
    10030    2    1    2    0    0  0.00000000000E+00  0.00000000000E+00  0.91770259817E+03  0.21865924821E+04  0.19846935844E+04 0.  0.
        1    1    3    3  502    0  0.47709461646E+03 -0.11594985634E+03  0.14089526196E+04  0.14920493043E+04  0.50400001928E-02 0. -1.
       -1    1    3    3    0  502 -0.47709461646E+03  0.11594985634E+03 -0.49125002140E+03  0.69454317778E+03  0.50400001928E-02 0.  1.
</event>
<event>
 5   0  0.1999142E-05  0.2000413E+04  0.7818609E-02  0.8606428E-01
       -2   -1    0    0    0  501  0.00000000000E+00  0.00000000000E+00  0.48273658329E+03  0.48273658330E+03  0.25500000920E-02 0. -1.
        2   -1    0    0  501    0  0.00000000000E+00  0.00000000000E+00 -0.20723789609E+04  0.20723789609E+04  0.25500000920E-02 0.  1.
    10030    2    1    2    0    0  0.00000000000E+00  0.00000000000E+00 -0.15896423776E+04  0.25551155442E+04  0.20004130962E+04 0.  0.
        1    1    3    3  502    0 -0.12815212706E+03  0.27189013122E+03  0.42368371806E+03  0.51947579742E+03  0.50400001928E-02 0. -1.
       -1    1    3    3    0  502  0.12815212706E+03 -0.27189013122E+03 -0.20133260956E+04  0.20356397467E+04  0.50400001928E-02 0.  1.
</event>
<event>
 5   0  0.9333353E-06  0.2000904E+04  0.7818609E-02  0.8606198E-01
       -1   -1    0    0    0  501  0.00000000000E+00  0.00000000000E+00  0.13299107226E+04  0.13299107226E+04  0.50400001928E-02 0.  1.
        1   -1    0    0  501    0  0.00000000000E+00  0.00000000000E+00 -0.75260971997E+03  0.75260971999E+03  0.50400001928E-02 0. -1.
    10030    2    1    2    0    0  0.00000000000E+00  0.00000000000E+00  0.57730100258E+03  0.20825204426E+04  0.20009035324E+04 0.  0.
        2    1    3    3  502    0  0.68556768121E+03  0.14547968985E+03  0.10317311047E+04  0.12472515617E+04  0.25500000920E-02 0.  1.
       -2    1    3    3    0  502 -0.68556768121E+03 -0.14547968985E+03 -0.45443010211E+03  0.83526888089E+03  0.25500000920E-02 0. -1.
</event>
<event>
 5   0  0.9140695E-06  0.1999301E+04  0.7818609E-02  0.8606947E-01
       -1   -1    0    0    0  501  0.00000000000E+00  0.00000000000E+00  0.14047745277E+04  0.14047745277E+04  0.50400001928E-02 0. -1.
        1   -1    0    0  501    0  0.00000000000E+00  0.00000000000E+00 -0.71136074771E+03  0.71136074773E+03  0.50400001928E-02 0.  1.
    10030    2    1    2    0    0  0.00000000000E+00  0.00000000000E+00  0.69341377996E+03  0.21161352754E+04  0.19993013364E+04 0.  0.
        1    1    3    3  502    0 -0.55980912644E+03 -0.48050769048E+03  0.10606835605E+04  0.12920230316E+04  0.50400001928E-02 0. -1.
       -1    1    3    3    0  502  0.55980912644E+03  0.48050769048E+03 -0.36726978054E+03  0.82411224380E+03  0.50400001928E-02 0.  1.
</event>
<event>
 5   0  0.7132000E-06  0.1999054E+04  0.7818609E-02  0.8607063E-01
        4   -1    0    0  501    0  0.00000000000E+00  0.00000000000E+00  0.79467471201E+03  0.79467572683E+03  0.12699999809E+01 0. -1.
       -4   -1    0    0    0  501  0.00000000000E+00  0.00000000000E+00 -0.12571838107E+04  0.12571844521E+04  0.12699999809E+01 0.  1.
    10030    2    1    2    0    0  0.00000000000E+00  0.00000000000E+00 -0.46250909867E+03  0.20518601790E+04  0.19990536580E+04 0.  0.
        5    1    3    3  502    0  0.69405273273E+03 -0.57416384446E+03 -0.67589339703E+03  0.11261559795E+04  0.46999998093E+01 0.  1.
       -5    1    3    3    0  502 -0.69405273273E+03  0.57416384446E+03  0.21338429836E+03  0.92570419945E+03  0.46999998093E+01 0. -1.
</event>
<event>
 5   0  0.1999142E-05  0.1999406E+04  0.7818609E-02  0.8606898E-01
        2   -1    0    0  501    0  0.00000000000E+00  0.00000000000E+00  0.50267007986E+03  0.50267007986E+03  0.25500000920E-02 0.  1.
       -2   -1    0    0    0  501  0.00000000000E+00  0.00000000000E+00 -0.19881949859E+04  0.19881949859E+04  0.25500000920E-02 0. -1.
    10030    2    1    2    0    0  0.00000000000E+00  0.00000000000E+00 -0.14855249061E+04  0.24908650658E+04  0.19994060442E+04 0.  0.
        1    1    3    3  502    0  0.71597097534E+03 -0.29421368400E+03 -0.15309036373E+04  0.17154713860E+04  0.50400001928E-02 0.  1.
       -1    1    3    3    0  502 -0.71597097534E+03  0.29421368400E+03  0.45378731249E+02  0.77539367979E+03  0.50400001928E-02 0. -1.
</event>
<event>
 5   0  0.9370269E-06  0.1998924E+04  0.7818609E-02  0.8607124E-01
       -1   -1    0    0    0  501  0.00000000000E+00  0.00000000000E+00  0.10318149811E+04  0.10318149811E+04  0.50400001928E-02 0.  1.
        1   -1    0    0  501    0  0.00000000000E+00  0.00000000000E+00 -0.96812357277E+03  0.96812357278E+03  0.50400001928E-02 0. -1.
    10030    2    1    2    0    0  0.00000000000E+00  0.00000000000E+00  0.63691408308E+02  0.19999385539E+04  0.19989241166E+04 0.  0.
        4    1    3    3  502    0 -0.55280579387E+03 -0.46895236543E+03  0.72024446482E+03  0.10218924938E+04  0.12699999809E+01 0.  1.
       -4    1    3    3    0  502  0.55280579387E+03  0.46895236543E+03 -0.65655305652E+03  0.97804606011E+03  0.12699999809E+01 0. -1.
</event>
<event>
 5   0  0.9333353E-06  0.1999431E+04  0.7818609E-02  0.8606887E-01
        1   -1    0    0  501    0  0.00000000000E+00  0.00000000000E+00  0.13705627324E+04  0.13705627325E+04  0.50400001928E-02 0. -1.
       -1   -1    0    0    0  501  0.00000000000E+00  0.00000000000E+00 -0.72921239954E+03  0.72921239956E+03  0.50400001928E-02 0.  1.
    10030    2    1    2    0    0  0.00000000000E+00  0.00000000000E+00  0.64135033290E+03  0.20997751320E+04  0.19994312580E+04 0.  0.
        2    1    3    3  502    0  0.42267391954E+03 -0.24768959846E+03  0.12358616593E+04  0.13294199564E+04  0.25500000920E-02 0. -1.
       -2    1    3    3    0  502 -0.42267391954E+03  0.24768959846E+03 -0.59451132639E+03  0.77035517566E+03  0.25500000920E-02 0.  1.
</event>
<event>
 5   0  0.1979765E-05  0.1996928E+04  0.7818609E-02  0.8608058E-01
        2   -1    0    0  501    0  0.00000000000E+00  0.00000000000E+00  0.21438234303E+04  0.21438234303E+04  0.25500000920E-02 0. -1.
       -2   -1    0    0    0  501  0.00000000000E+00  0.00000000000E+00 -0.46502429699E+03  0.46502429699E+03  0.25500000920E-02 0.  1.
    10030    2    1    2    0    0  0.00000000000E+00  0.00000000000E+00  0.16787991333E+04  0.26088477273E+04  0.19969276237E+04 0.  0.
        2    1    3    3  502    0 -0.30005137537E+03 -0.53214372703E+03  0.18711674632E+04  0.19683687280E+04  0.25500000920E-02 0. -1.
       -2    1    3    3    0  502  0.30005137537E+03  0.53214372703E+03 -0.19236832995E+03  0.64047899923E+03  0.25500000920E-02 0.  1.
</event>
<event>
 5   0  0.7132000E-06  0.1976861E+04  0.7818609E-02  0.8617516E-01
        3   -1    0    0  501    0  0.00000000000E+00  0.00000000000E+00  0.12711188068E+04  0.12711188108E+04  0.10100000352E+00 0.  1.
       -3   -1    0    0    0  501  0.00000000000E+00  0.00000000000E+00 -0.76861039810E+03  0.76861040473E+03  0.10100000352E+00 0. -1.
    10030    2    1    2    0    0  0.00000000000E+00  0.00000000000E+00  0.50250840866E+03  0.20397292155E+04  0.19768612930E+04 0.  0.
        5    1    3    3  502    0 -0.60096515006E+03  0.19755110699E+03  0.10348719077E+04  0.12129169414E+04  0.46999998093E+01 0.  1.
       -5    1    3    3    0  502  0.60096515006E+03 -0.19755110699E+03 -0.53236349904E+03  0.82681227408E+03  0.46999998093E+01 0. -1.
</event>
<event>
 5   0  0.9220260E-06  0.1994019E+04  0.7818609E-02  0.8609422E-01
        1   -1    0    0  501    0  0.00000000000E+00  0.00000000000E+00  0.19427639167E+04  0.19427639167E+04  0.50400001928E-02 0.  1.
       -1   -1    0    0    0  501  0.00000000000E+00  0.00000000000E+00 -0.51165667201E+03  0.51165667204E+03  0.50400001928E-02 0. -1.
    10030    2    1    2    0    0  0.00000000000E+00  0.00000000000E+00  0.14311072446E+04  0.24544205887E+04  0.19940191776E+04 0.  0.
        3    1    3    3  502    0 -0.24777026345E+02  0.96811319560E+03  0.10072801504E+04  0.13973082595E+04  0.10100000352E+00 0.  1.
       -3    1    3    3    0  502  0.24777026345E+02 -0.96811319560E+03  0.42382709429E+03  0.10571123292E+04  0.10100000352E+00 0. -1.
</event>
<event>
 5   0  0.2020029E-05  0.2000422E+04  0.7818609E-02  0.8606423E-01
        2   -1    0    0  501    0  0.00000000000E+00  0.00000000000E+00  0.14712845881E+04  0.14712845881E+04  0.25500000920E-02 0. -1.
       -2   -1    0    0    0  501  0.00000000000E+00  0.00000000000E+00 -0.67996492429E+03  0.67996492429E+03  0.25500000920E-02 0.  1.
    10030    2    1    2    0    0  0.00000000000E+00  0.00000000000E+00  0.79131966381E+03  0.21512495124E+04  0.20004218691E+04 0.  0.
        5    1    3    3  502    0 -0.92849736162E+03 -0.25765850960E+03  0.68402807019E+03  0.11816986709E+04  0.46999998093E+01 0. -1.
       -5    1    3    3    0  502  0.92849736162E+03  0.25765850960E+03  0.10729159361E+03  0.96955084145E+03  0.46999998093E+01 0.  1.
</event>
<event>
 5   0  0.9220260E-06  0.2000670E+04  0.7818609E-02  0.8606308E-01
        1   -1    0    0  501    0  0.00000000000E+00  0.00000000000E+00  0.16851984847E+04  0.16851984847E+04  0.50400001928E-02 0. -1.
       -1   -1    0    0    0  501  0.00000000000E+00  0.00000000000E+00 -0.59379939421E+03  0.59379939423E+03  0.50400001928E-02 0.  1.
    10030    2    1    2    0    0  0.00000000000E+00  0.00000000000E+00  0.10913990905E+04  0.22789978789E+04  0.20006697272E+04 0.  0.
        3    1    3    3  502    0 -0.87839904897E+02  0.51186130325E+03  0.15195963604E+04  0.16058925715E+04  0.10100000352E+00 0. -1.
       -3    1    3    3    0  502  0.87839904897E+02 -0.51186130325E+03 -0.42819726990E+03  0.67310530737E+03  0.10100000352E+00 0.  1.
</event>
<event>
 5   0  0.1979765E-05  0.1997775E+04  0.7818609E-02  0.8607662E-01
       -2   -1    0    0    0  501  0.00000000000E+00  0.00000000000E+00  0.42601477550E+03  0.42601477550E+03  0.25500000920E-02 0. -1.
        2   -1    0    0  501    0  0.00000000000E+00  0.00000000000E+00 -0.23421162293E+04  0.23421162293E+04  0.25500000920E-02 0.  1.
    10030    2    1    2    0    0  0.00000000000E+00  0.00000000000E+00 -0.19161014538E+04  0.27681310048E+04  0.19977748818E+04 0.  0.
        2    1    3    3  502    0 -0.29242718779E+03 -0.89694692129E+03 -0.14128775513E+04  0.16988968229E+04  0.25500000920E-02 0.  1.
       -2    1    3    3    0  502  0.29242718779E+03  0.89694692129E+03 -0.50322390250E+03  0.10692341819E+04  0.25500000920E-02 0. -1.
</event>
<event>
 5   0  0.1979765E-05  0.2000783E+04  0.7818609E-02  0.8606255E-01
       -2   -1    0    0    0  501  0.00000000000E+00  0.00000000000E+00  0.19134102974E+04  0.19134102974E+04  0.25500000920E-02 0.  1.
        2   -1    0    0  501    0  0.00000000000E+00  0.00000000000E+00 -0.52303649465E+03  0.52303649466E+03  0.25500000920E-02 0. -1.
    10030    2    1    2    0    0  0.00000000000E+00  0.00000000000E+00  0.13903738028E+04  0.24364467921E+04  0.20007832614E+04 0.  0.
        2    1    3    3  502    0 -0.74006803085E+03  0.21641630675E+03  0.14713478942E+04  0.16611445855E+04  0.25500000920E-02 0.  1.
       -2    1    3    3    0  502  0.74006803085E+03 -0.21641630675E+03 -0.80974091393E+02  0.77530220663E+03  0.25500000920E-02 0. -1.
</event>
<event>
 5   0  0.9140695E-06  0.1999404E+04  0.7818609E-02  0.8606900E-01
       -1   -1    0    0    0  501  0.00000000000E+00  0.00000000000E+00  0.61074606714E+03  0.61074606716E+03  0.50400001928E-02 0. -1.
        1   -1    0    0  501    0  0.00000000000E+00  0.00000000000E+00 -0.16363653514E+04  0.16363653514E+04  0.50400001928E-02 0.  1.
    10030    2    1    2    0    0  0.00000000000E+00  0.00000000000E+00 -0.10256192843E+04  0.22471114186E+04  0.19994036139E+04 0.  0.
        1    1    3    3  502    0 -0.37637259835E+03  0.91540966083E+03 -0.67084533219E+03  0.11956858449E+04  0.50400001928E-02 0.  1.
       -1    1    3    3    0  502  0.37637259835E+03 -0.91540966083E+03 -0.35477395210E+03  0.10514255737E+04  0.50400001928E-02 0. -1.
</event>
<event>
 5   0  0.2038882E-05  0.1999691E+04  0.7818609E-02  0.8606765E-01
        2   -1    0    0  501    0  0.00000000000E+00  0.00000000000E+00  0.13253044227E+04  0.13253044227E+04  0.25500000920E-02 0.  1.
       -2   -1    0    0    0  501  0.00000000000E+00  0.00000000000E+00 -0.75431061426E+03  0.75431061426E+03  0.25500000920E-02 0. -1.
    10030    2    1    2    0    0  0.00000000000E+00  0.00000000000E+00  0.57099380844E+03  0.20796150370E+04  0.19996911693E+04 0.  0.
        3    1    3    3  502    0  0.15614984810E+03 -0.32758326001E+03 -0.68340383298E+03  0.77377928147E+03  0.10100000352E+00 0. -1.
       -3    1    3    3    0  502 -0.15614984810E+03  0.32758326001E+03  0.12543976414E+04  0.13058357555E+04  0.10100000352E+00 0.  1.
</event>
<event>
 5   0  0.1979765E-05  0.1997165E+04  0.7818609E-02  0.8607947E-01
        2   -1    0    0  501    0  0.00000000000E+00  0.00000000000E+00  0.90182013643E+03  0.90182013643E+03  0.25500000920E-02 0. -1.
       -2   -1    0    0    0  501  0.00000000000E+00  0.00000000000E+00 -0.11057269663E+04  0.11057269663E+04  0.25500000920E-02 0.  1.
    10030    2    1    2    0    0  0.00000000000E+00  0.00000000000E+00 -0.20390682983E+03  0.20075471027E+04  0.19971648340E+04 0.  0.
        2    1    3    3  502    0 -0.24869992573E+03  0.53266618763E+02  0.86871544551E+03  0.90518258435E+03  0.25500000920E-02 0. -1.
       -2    1    3    3    0  502  0.24869992573E+03 -0.53266618763E+02 -0.10726222753E+04  0.11023645183E+04  0.25500000920E-02 0.  1.
</event>
<event>
 5   0  0.9220260E-06  0.1999456E+04  0.7818609E-02  0.8606875E-01
        1   -1    0    0  501    0  0.00000000000E+00  0.00000000000E+00  0.16340705149E+04  0.16340705149E+04  0.50400001928E-02 0.  1.
       -1   -1    0    0    0  501  0.00000000000E+00  0.00000000000E+00 -0.61163582126E+03  0.61163582128E+03  0.50400001928E-02 0. -1.
    10030    2    1    2    0    0  0.00000000000E+00  0.00000000000E+00  0.10224346937E+04  0.22457063362E+04  0.19994559874E+04 0.  0.
        3    1    3    3  502    0  0.32295272093E+03  0.72449985164E+03 -0.17221114562E+03  0.81169894904E+03  0.10100000352E+00 0. -1.
       -3    1    3    3    0  502 -0.32295272093E+03 -0.72449985164E+03  0.11946458393E+04  0.14340073872E+04  0.10100000352E+00 0.  1.
</event>
<event>
 5   0  0.9220260E-06  0.2000145E+04  0.7818609E-02  0.8606553E-01
        1   -1    0    0  501    0  0.00000000000E+00  0.00000000000E+00  0.91513458702E+03  0.91513458703E+03  0.50400001928E-02 0. -1.
       -1   -1    0    0    0  501  0.00000000000E+00  0.00000000000E+00 -0.10928939650E+04  0.10928939650E+04  0.50400001928E-02 0.  1.
    10030    2    1    2    0    0  0.00000000000E+00  0.00000000000E+00 -0.17775937794E+03  0.20080285520E+04  0.20001450620E+04 0.  0.
        3    1    3    3  502    0  0.79515983210E+02  0.61310134280E+03  0.70030323811E+03  0.93415238780E+03  0.10100000352E+00 0. -1.
       -3    1    3    3    0  502 -0.79515983210E+02 -0.61310134280E+03 -0.87806261604E+03  0.10738761642E+04  0.10100000352E+00 0.  1.
</event>
<event>
 5   0  0.9370269E-06  0.1997941E+04  0.7818609E-02  0.8607584E-01
        1   -1    0    0  501    0  0.00000000000E+00  0.00000000000E+00  0.17853968104E+04  0.17853968104E+04  0.50400001928E-02 0. -1.
       -1   -1    0    0    0  501  0.00000000000E+00  0.00000000000E+00 -0.55894674771E+03  0.55894674773E+03  0.50400001928E-02 0.  1.
    10030    2    1    2    0    0  0.00000000000E+00  0.00000000000E+00  0.12264500627E+04  0.23443435582E+04  0.19979406804E+04 0.  0.
        4    1    3    3  502    0  0.85451816220E+03 -0.14850148325E+03  0.11948311978E+04  0.14764407148E+04  0.12699999809E+01 0. -1.
       -4    1    3    3    0  502 -0.85451816220E+03  0.14850148325E+03  0.31618864900E+02  0.86790284340E+03  0.12699999809E+01 0.  1.
</event>
<event>
 5   0  0.2038882E-05  0.1997812E+04  0.7818609E-02  0.8607644E-01
        2   -1    0    0  501    0  0.00000000000E+00  0.00000000000E+00  0.22978091549E+04  0.22978091549E+04  0.25500000920E-02 0. -1.
       -2   -1    0    0    0  501  0.00000000000E+00  0.00000000000E+00 -0.43424550183E+03  0.43424550184E+03  0.25500000920E-02 0.  1.
    10030    2    1    2    0    0  0.00000000000E+00  0.00000000000E+00  0.18635636530E+04  0.27320546567E+04  0.19978120929E+04 0.  0.
        3    1    3    3  502    0 -0.99257526739E+03 -0.10983627052E+03  0.96366629012E+03  0.13877760614E+04  0.10100000352E+00 0. -1.
       -3    1    3    3    0  502  0.99257526739E+03  0.10983627052E+03  0.89989736292E+03  0.13442785953E+04  0.10100000352E+00 0.  1.
</event>
<event>
 5   0  0.1979765E-05  0.2012325E+04  0.7818609E-02  0.8600880E-01
       -2   -1    0    0    0  501  0.00000000000E+00  0.00000000000E+00  0.11036627798E+04  0.11036627798E+04  0.25500000920E-02 0.  1.
        2   -1    0    0  501    0  0.00000000000E+00  0.00000000000E+00 -0.91727560999E+03  0.91727560999E+03  0.25500000920E-02 0. -1.
    10030    2    1    2    0    0  0.00000000000E+00  0.00000000000E+00  0.18638716982E+03  0.20209383898E+04  0.20123249733E+04 0.  0.
        2    1    3    3  502    0  0.81586384541E+03 -0.42659312906E+03  0.50082185059E+03  0.10480639475E+04  0.25500000920E-02 0.  1.
       -2    1    3    3    0  502 -0.81586384541E+03  0.42659312906E+03 -0.31443468077E+03  0.97287444230E+03  0.25500000920E-02 0. -1.
</event>
<event>
 5   0  0.2003576E-05  0.2004200E+04  0.7818609E-02  0.8604659E-01
        2   -1    0    0  501    0  0.00000000000E+00  0.00000000000E+00  0.13585241941E+04  0.13585241941E+04  0.25500000920E-02 0.  1.
       -2   -1    0    0    0  501  0.00000000000E+00  0.00000000000E+00 -0.73918786006E+03  0.73918786006E+03  0.25500000920E-02 0. -1.
    10030    2    1    2    0    0  0.00000000000E+00  0.00000000000E+00  0.61933633405E+03  0.20977120542E+04  0.20042001815E+04 0.  0.
        4    1    3    3  502    0 -0.78592768054E+03 -0.10698400803E+03 -0.33134047269E+03  0.85960224451E+03  0.12699999809E+01 0. -1.
       -4    1    3    3    0  502  0.78592768054E+03  0.10698400803E+03  0.95067680674E+03  0.12381098097E+04  0.12699999809E+01 0.  1.
</event>
<event>
 5   0  0.9333353E-06  0.2006873E+04  0.7818609E-02  0.8603414E-01
        1   -1    0    0  501    0  0.00000000000E+00  0.00000000000E+00  0.12273661184E+04  0.12273661184E+04  0.50400001928E-02 0.  1.
       -1   -1    0    0    0  501  0.00000000000E+00  0.00000000000E+00 -0.82036254804E+03  0.82036254806E+03  0.50400001928E-02 0. -1.
    10030    2    1    2    0    0  0.00000000000E+00  0.00000000000E+00  0.40700357035E+03  0.20477286665E+04  0.20068733854E+04 0.  0.
        2    1    3    3  502    0  0.36371315868E+03  0.40347106128E+03 -0.65736149859E+03  0.85276039948E+03  0.25500000920E-02 0. -1.
       -2    1    3    3    0  502 -0.36371315868E+03 -0.40347106128E+03  0.10643650689E+04  0.11949682670E+04  0.25500000920E-02 0.  1.
</event>
<event>
 5   0  0.7132000E-06  0.2005093E+04  0.7818609E-02  0.8604243E-01
       -3   -1    0    0    0  501  0.00000000000E+00  0.00000000000E+00  0.10726291559E+04  0.10726291606E+04  0.10100000352E+00 0. -1.
        3   -1    0    0  501    0  0.00000000000E+00  0.00000000000E+00 -0.93704261643E+03  0.93704262187E+03  0.10100000352E+00 0.  1.
    10030    2    1    2    0    0  0.00000000000E+00  0.00000000000E+00  0.13558653943E+03  0.20096717825E+04  0.20050927569E+04 0.  0.
        4    1    3    3  502    0  0.61295876680E+03 -0.84576391937E+01  0.86289403399E+03  0.10584789598E+04  0.12699999809E+01 0. -1.
       -4    1    3    3    0  502 -0.61295876680E+03  0.84576391937E+01 -0.72730749456E+03  0.95119282273E+03  0.12699999809E+01 0.  1.
</event>
<event>
 5   0  0.1999142E-05  0.2005595E+04  0.7818609E-02  0.8604009E-01
        2   -1    0    0  501    0  0.00000000000E+00  0.00000000000E+00  0.18178778795E+04  0.18178778795E+04  0.25500000920E-02 0.  1.
       -2   -1    0    0    0  501  0.00000000000E+00  0.00000000000E+00 -0.55317399197E+03  0.55317399198E+03  0.25500000920E-02 0. -1.
    10030    2    1    2    0    0  0.00000000000E+00  0.00000000000E+00  0.12647038875E+04  0.23710518715E+04  0.20055949377E+04 0.  0.
        1    1    3    3  502    0  0.83880557616E+03 -0.50161712545E+03  0.36697549697E+03  0.10439758381E+04  0.50400001928E-02 0. -1.
       -1    1    3    3    0  502 -0.83880557616E+03  0.50161712545E+03  0.89772839054E+03  0.13270760334E+04  0.50400001928E-02 0.  1.
</event>
<event>
 5   0  0.1979765E-05  0.1998662E+04  0.7818609E-02  0.8607246E-01
        2   -1    0    0  501    0  0.00000000000E+00  0.00000000000E+00  0.10742237844E+04  0.10742237844E+04  0.25500000920E-02 0.  1.
       -2   -1    0    0    0  501  0.00000000000E+00  0.00000000000E+00 -0.92965984031E+03  0.92965984032E+03  0.25500000920E-02 0. -1.
    10030    2    1    2    0    0  0.00000000000E+00  0.00000000000E+00  0.14456394404E+03  0.20038836247E+04  0.19986622644E+04 0.  0.
        2    1    3    3  502    0  0.71446950707E+03  0.60303402078E+03 -0.28155074252E+03  0.97641565297E+03  0.25500000920E-02 0. -1.
       -2    1    3    3    0  502 -0.71446950707E+03 -0.60303402078E+03  0.42611468656E+03  0.10274679717E+04  0.25500000920E-02 0.  1.
</event>
<event>
 5   0  0.9140695E-06  0.2004501E+04  0.7818609E-02  0.8604519E-01
        1   -1    0    0  501    0  0.00000000000E+00  0.00000000000E+00  0.26279037896E+04  0.26279037896E+04  0.50400001928E-02 0. -1.
       -1   -1    0    0    0  501  0.00000000000E+00  0.00000000000E+00 -0.38224595631E+03  0.38224595635E+03  0.50400001928E-02 0.  1.
    10030    2    1    2    0    0  0.00000000000E+00  0.00000000000E+00  0.22456578333E+04  0.30101497460E+04  0.20045005335E+04 0.  0.
        1    1    3    3  502    0 -0.13299756426E+03 -0.77543010730E+03  0.19041570289E+03  0.80946793843E+03  0.50400001928E-02 0.  1.
       -1    1    3    3    0  502  0.13299756426E+03  0.77543010730E+03  0.20552421304E+04  0.22006818076E+04  0.50400001928E-02 0. -1.
</event>
<event>
 5   0  0.9220260E-06  0.2000675E+04  0.7818609E-02  0.8606305E-01
        1   -1    0    0  501    0  0.00000000000E+00  0.00000000000E+00  0.22162627316E+04  0.22162627316E+04  0.50400001928E-02 0. -1.
       -1   -1    0    0    0  501  0.00000000000E+00  0.00000000000E+00 -0.45151472417E+03  0.45151472420E+03  0.50400001928E-02 0.  1.
    10030    2    1    2    0    0  0.00000000000E+00  0.00000000000E+00  0.17647480074E+04  0.26677774558E+04  0.20006751420E+04 0.  0.
        3    1    3    3  502    0 -0.65431643419E+03 -0.75664345668E+03  0.87438124482E+03  0.13286014783E+04  0.10100000352E+00 0.  1.
       -3    1    3    3    0  502  0.65431643419E+03  0.75664345668E+03  0.89036676259E+03  0.13391759775E+04  0.10100000352E+00 0. -1.
</event>
<event>
 5   0  0.9370269E-06  0.1997307E+04  0.7818609E-02  0.8607881E-01
        1   -1    0    0  501    0  0.00000000000E+00  0.00000000000E+00  0.10309616700E+04  0.10309616700E+04  0.50400001928E-02 0. -1.
       -1   -1    0    0    0  501  0.00000000000E+00  0.00000000000E+00 -0.96735755074E+03  0.96735755075E+03  0.50400001928E-02 0.  1.
    10030    2    1    2    0    0  0.00000000000E+00  0.00000000000E+00  0.63604119252E+02  0.19983192208E+04  0.19973067426E+04 0.  0.
        4    1    3    3  502    0  0.57521674729E+02 -0.33344596971E+03  0.97185910328E+03  0.10290805057E+04  0.12699999809E+01 0. -1.
       -4    1    3    3    0  502 -0.57521674729E+02  0.33344596971E+03 -0.90825498402E+03  0.96923871501E+03  0.12699999809E+01 0.  1.
</event>
<event>
 5   0  0.7132000E-06  0.2002369E+04  0.7818609E-02  0.8605514E-01
        3   -1    0    0  501    0  0.00000000000E+00  0.00000000000E+00  0.67501203648E+03  0.67501204404E+03  0.10100000352E+00 0. -1.
       -3   -1    0    0    0  501  0.00000000000E+00  0.00000000000E+00 -0.14849666518E+04  0.14849666552E+04  0.10100000352E+00 0.  1.
    10030    2    1    2    0    0  0.00000000000E+00  0.00000000000E+00 -0.80995461528E+03  0.21599786992E+04  0.20023689726E+04 0.  0.
        5    1    3    3  502    0 -0.70252491160E+02 -0.11990447901E+03  0.66454543975E+03  0.67893683660E+03  0.46999998093E+01 0. -1.
       -5    1    3    3    0  502  0.70252491160E+02  0.11990447901E+03 -0.14745000550E+04  0.14810418626E+04  0.46999998093E+01 0.  1.
</event>
<event>
 5   0  0.9140695E-06  0.1997587E+04  0.7818609E-02  0.8607750E-01
        1   -1    0    0  501    0  0.00000000000E+00  0.00000000000E+00  0.11827887709E+04  0.11827887709E+04  0.50400001928E-02 0.  1.
       -1   -1    0    0    0  501  0.00000000000E+00  0.00000000000E+00 -0.84342064114E+03  0.84342064116E+03  0.50400001928E-02 0. -1.
    10030    2    1    2    0    0  0.00000000000E+00  0.00000000000E+00  0.33936812973E+03  0.20262094120E+04  0.19975870079E+04 0.  0.
        1    1    3    3  502    0  0.31931584429E+03  0.68228047365E+03  0.83491592916E+03  0.11245238379E+04  0.50400001928E-02 0.  1.
       -1    1    3    3    0  502 -0.31931584429E+03 -0.68228047365E+03 -0.49554779943E+03  0.90168557418E+03  0.50400001928E-02 0. -1.
</event>
<event>
 5   0  0.2038882E-05  0.1987278E+04  0.7818609E-02  0.8612592E-01
       -2   -1    0    0    0  501  0.00000000000E+00  0.00000000000E+00  0.40793014011E+03  0.40793014011E+03  0.25500000920E-02 0. -1.
        2   -1    0    0  501    0  0.00000000000E+00  0.00000000000E+00 -0.24203117717E+04  0.24203117717E+04  0.25500000920E-02 0.  1.
    10030    2    1    2    0    0  0.00000000000E+00  0.00000000000E+00 -0.20123816316E+04  0.28282419118E+04  0.19872776556E+04 0.  0.
        3    1    3    3  502    0  0.47081682847E+03 -0.42422639841E+03  0.82961927242E+02  0.63915507872E+03  0.10100000352E+00 0. -1.
       -3    1    3    3    0  502 -0.47081682847E+03  0.42422639841E+03 -0.20953435588E+04  0.21890868331E+04  0.10100000352E+00 0.  1.
</event>
<event>
 5   0  0.9333353E-06  0.2001450E+04  0.7818609E-02  0.8605943E-01
        1   -1    0    0  501    0  0.00000000000E+00  0.00000000000E+00  0.11821685165E+04  0.11821685165E+04  0.50400001928E-02 0. -1.
       -1   -1    0    0    0  501  0.00000000000E+00  0.00000000000E+00 -0.84713001812E+03  0.84713001813E+03  0.50400001928E-02 0.  1.
    10030    2    1    2    0    0  0.00000000000E+00  0.00000000000E+00  0.33503849839E+03  0.20292985347E+04  0.20014499113E+04 0.  0.
        2    1    3    3  502    0 -0.88168854943E+03 -0.35720274891E+03  0.48245663480E+03  0.10666456330E+04  0.25500000920E-02 0. -1.
       -2    1    3    3    0  502  0.88168854943E+03  0.35720274891E+03 -0.14741813641E+03  0.96265290161E+03  0.25500000920E-02 0.  1.
</event>
<event>
 5   0  0.1999142E-05  0.1997528E+04  0.7818609E-02  0.8607777E-01
        2   -1    0    0  501    0  0.00000000000E+00  0.00000000000E+00  0.65222932460E+03  0.65222932461E+03  0.25500000920E-02 0.  1.
       -2   -1    0    0    0  501  0.00000000000E+00  0.00000000000E+00 -0.15294150759E+04  0.15294150759E+04  0.25500000920E-02 0. -1.
    10030    2    1    2    0    0  0.00000000000E+00  0.00000000000E+00 -0.87718575129E+03  0.21816444005E+04  0.19975278341E+04 0.  0.
        1    1    3    3  502    0 -0.40735207284E+03 -0.76150306070E+03 -0.98653986608E+03  0.13111382574E+04  0.50400001928E-02 0. -1.
       -1    1    3    3    0  502  0.40735207284E+03  0.76150306070E+03  0.10935411479E+03  0.87050614308E+03  0.50400001928E-02 0.  1.
</event>
<event>
 5   0  0.9333353E-06  0.1998165E+04  0.7818609E-02  0.8607479E-01
       -1   -1    0    0    0  501  0.00000000000E+00  0.00000000000E+00  0.95072361245E+03  0.95072361246E+03  0.50400001928E-02 0. -1.
        1   -1    0    0  501    0  0.00000000000E+00  0.00000000000E+00 -0.10499016572E+04  0.10499016572E+04  0.50400001928E-02 0.  1.
    10030    2    1    2    0    0  0.00000000000E+00  0.00000000000E+00 -0.99178044774E+02  0.20006252697E+04  0.19981654549E+04 0.  0.
        2    1    3    3  502    0  0.47177171657E+03 -0.67534592569E+03 -0.61553314933E+03  0.10283684796E+04  0.25500000920E-02 0. -1.
       -2    1    3    3    0  502 -0.47177171657E+03  0.67534592569E+03  0.51635510455E+03  0.97225679010E+03  0.25500000920E-02 0.  1.
</event>
<event>
 5   0  0.9220260E-06  0.2006209E+04  0.7818609E-02  0.8603723E-01
        1   -1    0    0  501    0  0.00000000000E+00  0.00000000000E+00  0.72202879304E+03  0.72202879306E+03  0.50400001928E-02 0. -1.
       -1   -1    0    0    0  501  0.00000000000E+00  0.00000000000E+00 -0.13935997176E+04  0.13935997176E+04  0.50400001928E-02 0.  1.
    10030    2    1    2    0    0  0.00000000000E+00  0.00000000000E+00 -0.67157092451E+03  0.21156285106E+04  0.20062094827E+04 0.  0.
        3    1    3    3  502    0  0.45721511272E+02  0.99438424380E+03 -0.20522405674E+03  0.10163697184E+04  0.10100000352E+00 0.  1.
       -3    1    3    3    0  502 -0.45721511272E+02 -0.99438424380E+03 -0.46634686778E+03  0.10992587922E+04  0.10100000352E+00 0. -1.
</event>
<event>
 5   0  0.2003576E-05  0.2003856E+04  0.7818609E-02  0.8604820E-01
        2   -1    0    0  501    0  0.00000000000E+00  0.00000000000E+00  0.18131574953E+04  0.18131574953E+04  0.25500000920E-02 0.  1.
       -2   -1    0    0    0  501  0.00000000000E+00  0.00000000000E+00 -0.55365290475E+03  0.55365290476E+03  0.25500000920E-02 0. -1.
    10030    2    1    2    0    0  0.00000000000E+00  0.00000000000E+00  0.12595045906E+04  0.23668104001E+04  0.20038561965E+04 0.  0.
        4    1    3    3  502    0  0.62880367508E+03  0.23755199197E+03 -0.24781322513E+03  0.71640632195E+03  0.12699999809E+01 0. -1.
       -4    1    3    3    0  502 -0.62880367508E+03 -0.23755199197E+03  0.15073178157E+04  0.16504040781E+04  0.12699999809E+01 0.  1.
</event>
<event>
 5   0  0.9370269E-06  0.2000314E+04  0.7818609E-02  0.8606474E-01
       -1   -1    0    0    0  501  0.00000000000E+00  0.00000000000E+00  0.79958184640E+03  0.79958184642E+03  0.50400001928E-02 0. -1.
        1   -1    0    0  501    0  0.00000000000E+00  0.00000000000E+00 -0.12510464153E+04  0.12510464153E+04  0.50400001928E-02 0.  1.
    10030    2    1    2    0    0  0.00000000000E+00  0.00000000000E+00 -0.45146456886E+03  0.20506282617E+04  0.20003139780E+04 0.  0.
        4    1    3    3  502    0 -0.49470460875E+03 -0.81550342943E+03 -0.53418910289E+03  0.10932237209E+04  0.12699999809E+01 0.  1.
       -4    1    3    3    0  502  0.49470460875E+03  0.81550342943E+03  0.82724534033E+02  0.95740454081E+03  0.12699999809E+01 0. -1.
</event>
<event>
 5   0  0.1979765E-05  0.1993330E+04  0.7818609E-02  0.8609745E-01
       -2   -1    0    0    0  501  0.00000000000E+00  0.00000000000E+00  0.57390650959E+03  0.57390650960E+03  0.25500000920E-02 0.  1.
        2   -1    0    0  501    0  0.00000000000E+00  0.00000000000E+00 -0.17308417044E+04  0.17308417044E+04  0.25500000920E-02 0. -1.
    10030    2    1    2    0    0  0.00000000000E+00  0.00000000000E+00 -0.11569351948E+04  0.23047482140E+04  0.19933301997E+04 0.  0.
        2    1    3    3  502    0  0.30699191507E+02  0.61775187088E+02  0.57114296459E+03  0.57529375114E+03  0.25500000920E-02 0.  1.
       -2    1    3    3    0  502 -0.30699191507E+02 -0.61775187088E+02 -0.17280781594E+04  0.17294544629E+04  0.25500000920E-02 0. -1.
</event>
<event>
 5   0  0.9342635E-06  0.1942160E+04  0.7818609E-02  0.8634151E-01
       -1   -1    0    0    0  501  0.00000000000E+00  0.00000000000E+00  0.94159953674E+03  0.94159953676E+03  0.50400001928E-02 0.  1.
        1   -1    0    0  501    0  0.00000000000E+00  0.00000000000E+00 -0.10014832804E+04  0.10014832804E+04  0.50400001928E-02 0. -1.
    10030    2    1    2    0    0  0.00000000000E+00  0.00000000000E+00 -0.59883743619E+02  0.19430828171E+04  0.19421598213E+04 0.  0.
        5    1    3    3  502    0  0.22703793778E+03  0.93649608696E+03 -0.15001122606E+03  0.97524181823E+03  0.46999998093E+01 0.  1.
       -5    1    3    3    0  502 -0.22703793778E+03 -0.93649608696E+03  0.90127482437E+02  0.96784099891E+03  0.46999998093E+01 0. -1.
</event>
<event>
 5   0  0.2038882E-05  0.1999380E+04  0.7818609E-02  0.8606910E-01
        2   -1    0    0  501    0  0.00000000000E+00  0.00000000000E+00  0.19243802871E+04  0.19243802872E+04  0.25500000920E-02 0. -1.
       -2   -1    0    0    0  501  0.00000000000E+00  0.00000000000E+00 -0.51932591226E+03  0.51932591227E+03  0.25500000920E-02 0.  1.
    10030    2    1    2    0    0  0.00000000000E+00  0.00000000000E+00  0.14050543749E+04  0.24437061994E+04  0.19993804522E+04 0.  0.
        3    1    3    3  502    0 -0.23325768772E+03  0.93138780291E+03  0.36229829280E+03  0.10262321626E+04  0.10100000352E+00 0.  1.
       -3    1    3    3    0  502  0.23325768772E+03 -0.93138780291E+03  0.10427560821E+04  0.14174740369E+04  0.10100000352E+00 0. -1.
</event>
<event>
 5   0  0.9333353E-06  0.1995912E+04  0.7818609E-02  0.8608534E-01
        1   -1    0    0  501    0  0.00000000000E+00  0.00000000000E+00  0.11724080632E+04  0.11724080633E+04  0.50400001928E-02 0. -1.
       -1   -1    0    0    0  501  0.00000000000E+00  0.00000000000E+00 -0.84946238422E+03  0.84946238423E+03  0.50400001928E-02 0.  1.
    10030    2    1    2    0    0  0.00000000000E+00  0.00000000000E+00  0.32294567902E+03  0.20218704475E+04  0.19959123715E+04 0.  0.
        2    1    3    3  502    0 -0.16763172690E+03  0.88479445227E+03 -0.27418427474E+03  0.94134936934E+03  0.25500000920E-02 0.  1.
       -2    1    3    3    0  502  0.16763172690E+03 -0.88479445227E+03  0.59712995377E+03  0.10805210781E+04  0.25500000920E-02 0. -1.
</event>
<event>
 5   0  0.1979765E-05  0.1999427E+04  0.7818609E-02  0.8606889E-01
        2   -1    0    0  501    0  0.00000000000E+00  0.00000000000E+00  0.12762491711E+04  0.12762491711E+04  0.25500000920E-02 0.  1.
       -2   -1    0    0    0  501  0.00000000000E+00  0.00000000000E+00 -0.78309682557E+03  0.78309682558E+03  0.25500000920E-02 0. -1.
    10030    2    1    2    0    0  0.00000000000E+00  0.00000000000E+00  0.49315234550E+03  0.20593459967E+04  0.19994265923E+04 0.  0.
        2    1    3    3  502    0 -0.50721811639E+03 -0.41457245780E+03  0.10243803336E+04  0.12159340477E+04  0.25500000920E-02 0.  1.
       -2    1    3    3    0  502  0.50721811639E+03  0.41457245780E+03 -0.53122798811E+03  0.84341194900E+03  0.25500000920E-02 0. -1.
</event>
<event>
 5   0  0.1999142E-05  0.1995470E+04  0.7818609E-02  0.8608741E-01
        2   -1    0    0  501    0  0.00000000000E+00  0.00000000000E+00  0.18216440221E+04  0.18216440221E+04  0.25500000920E-02 0.  1.
       -2   -1    0    0    0  501  0.00000000000E+00  0.00000000000E+00 -0.54647089585E+03  0.54647089586E+03  0.25500000920E-02 0. -1.
    10030    2    1    2    0    0  0.00000000000E+00  0.00000000000E+00  0.12751731262E+04  0.23681149179E+04  0.19954703112E+04 0.  0.
        1    1    3    3  502    0 -0.29441274696E+03  0.49744131552E+03  0.16026875489E+04  0.17037412091E+04  0.50400001928E-02 0.  1.
       -1    1    3    3    0  502  0.29441274696E+03 -0.49744131552E+03 -0.32751442268E+03  0.66437370888E+03  0.50400001928E-02 0. -1.
</event>
<event>
 5   0  0.9220260E-06  0.2001552E+04  0.7818609E-02  0.8605895E-01
       -1   -1    0    0    0  501  0.00000000000E+00  0.00000000000E+00  0.41331709971E+03  0.41331709974E+03  0.50400001928E-02 0.  1.
        1   -1    0    0  501    0  0.00000000000E+00  0.00000000000E+00 -0.24232061620E+04  0.24232061620E+04  0.50400001928E-02 0. -1.
    10030    2    1    2    0    0  0.00000000000E+00  0.00000000000E+00 -0.20098890623E+04  0.28365232617E+04  0.20015519408E+04 0.  0.
        3    1    3    3  502    0  0.49174344625E+03 -0.19170758056E+03  0.20005080371E+03  0.56443223476E+03  0.10100000352E+00 0.  1.
       -3    1    3    3    0  502 -0.49174344625E+03  0.19170758056E+03 -0.22099398660E+04  0.22720910270E+04  0.10100000352E+00 0. -1.
</event>
<event>
 5   0  0.9370269E-06  0.1964988E+04  0.7818609E-02  0.8623167E-01
        1   -1    0    0  501    0  0.00000000000E+00  0.00000000000E+00  0.98985896840E+03  0.98985896841E+03  0.50400001928E-02 0. -1.
       -1   -1    0    0    0  501  0.00000000000E+00  0.00000000000E+00 -0.97518375312E+03  0.97518375313E+03  0.50400001928E-02 0.  1.
    10030    2    1    2    0    0  0.00000000000E+00  0.00000000000E+00  0.14675215283E+02  0.19650427215E+04  0.19649879225E+04 0.  0.
        4    1    3    3  502    0 -0.96178917332E+03  0.16563178554E+02 -0.19261800772E+03  0.98102806413E+03  0.12699999809E+01 0.  1.
       -4    1    3    3    0  502  0.96178917332E+03 -0.16563178554E+02  0.20729322300E+03  0.98401465742E+03  0.12699999809E+01 0. -1.
</event>
<event>
 5   0  0.1979765E-05  0.1999344E+04  0.7818609E-02  0.8606927E-01
       -2   -1    0    0    0  501  0.00000000000E+00  0.00000000000E+00  0.68361744752E+03  0.68361744752E+03  0.25500000920E-02 0. -1.
        2   -1    0    0  501    0  0.00000000000E+00  0.00000000000E+00 -0.14618474413E+04  0.14618474413E+04  0.25500000920E-02 0.  1.
    10030    2    1    2    0    0  0.00000000000E+00  0.00000000000E+00 -0.77822999380E+03  0.21454648888E+04  0.19993443090E+04 0.  0.
        2    1    3    3  502    0 -0.24401155383E+03  0.53448058253E+03  0.47877952059E+03  0.75791883527E+03  0.25500000920E-02 0. -1.
       -2    1    3    3    0  502  0.24401155383E+03 -0.53448058253E+03 -0.12570095144E+04  0.13875460536E+04  0.25500000920E-02 0.  1.
</event>
<event>
 5   0  0.2003576E-05  0.2001143E+04  0.7818609E-02  0.8606086E-01
        2   -1    0    0  501    0  0.00000000000E+00  0.00000000000E+00  0.83745560622E+03  0.83745560622E+03  0.25500000920E-02 0.  1.
       -2   -1    0    0    0  501  0.00000000000E+00  0.00000000000E+00 -0.11954583510E+04  0.11954583510E+04  0.25500000920E-02 0. -1.
    10030    2    1    2    0    0  0.00000000000E+00  0.00000000000E+00 -0.35800274480E+03  0.20329139572E+04  0.20011429715E+04 0.  0.
        4    1    3    3  502    0 -0.40218773842E+03 -0.16771301216E+03 -0.10940004537E+04  0.11775912861E+04  0.12699999809E+01 0. -1.
       -4    1    3    3    0  502  0.40218773842E+03  0.16771301216E+03  0.73599770892E+03  0.85532267117E+03  0.12699999809E+01 0.  1.
</event>
<event>
 5   0  0.2038882E-05  0.2003060E+04  0.7818609E-02  0.8605191E-01
       -2   -1    0    0    0  501  0.00000000000E+00  0.00000000000E+00  0.10039378529E+04  0.10039378529E+04  0.25500000920E-02 0. -1.
        2   -1    0    0  501    0  0.00000000000E+00  0.00000000000E+00 -0.99912805161E+03  0.99912805161E+03  0.25500000920E-02 0.  1.
    10030    2    1    2    0    0  0.00000000000E+00  0.00000000000E+00  0.48098012902E+01  0.20030659045E+04  0.20030601298E+04 0.  0.
        3    1    3    3  502    0  0.98072652489E+03  0.29669372530E+02  0.20329767084E+03  0.10020153399E+04  0.10100000352E+00 0. -1.
       -3    1    3    3    0  502 -0.98072652489E+03 -0.29669372530E+02 -0.19848786955E+03  0.10010505646E+04  0.10100000352E+00 0.  1.
</event>
<event>
 5   0  0.2020029E-05  0.1995333E+04  0.7818609E-02  0.8608806E-01
       -2   -1    0    0    0  501  0.00000000000E+00  0.00000000000E+00  0.75085876636E+03  0.75085876637E+03  0.25500000920E-02 0. -1.
        2   -1    0    0  501    0  0.00000000000E+00  0.00000000000E+00 -0.13256004846E+04  0.13256004846E+04  0.25500000920E-02 0.  1.
    10030    2    1    2    0    0  0.00000000000E+00  0.00000000000E+00 -0.57474171829E+03  0.20764592510E+04  0.19953333001E+04 0.  0.
        5    1    3    3  502    0 -0.75170123673E+03  0.63807445944E+03 -0.12912621713E+03  0.99442920062E+03  0.46999998093E+01 0.  1.
       -5    1    3    3    0  502  0.75170123673E+03 -0.63807445944E+03 -0.44561550116E+03  0.10820300504E+04  0.46999998093E+01 0. -1.
</event>
<event>
 5   0  0.9370269E-06  0.1999207E+04  0.7818609E-02  0.8606991E-01
       -1   -1    0    0    0  501  0.00000000000E+00  0.00000000000E+00  0.20252935464E+04  0.20252935465E+04  0.50400001928E-02 0. -1.
        1   -1    0    0  501    0  0.00000000000E+00  0.00000000000E+00 -0.49336421182E+03  0.49336421184E+03  0.50400001928E-02 0.  1.
    10030    2    1    2    0    0  0.00000000000E+00  0.00000000000E+00  0.15319293346E+04  0.25186577583E+04  0.19992071971E+04 0.  0.
        4    1    3    3  502    0  0.84272132873E+03 -0.53760511621E+03  0.76257423165E+03  0.12572667062E+04  0.12699999809E+01 0.  1.
       -4    1    3    3    0  502 -0.84272132873E+03  0.53760511621E+03  0.76935510298E+03  0.12613910521E+04  0.12699999809E+01 0. -1.
</event>
<event>
 5   0  0.9220260E-06  0.2018067E+04  0.7818609E-02  0.8598220E-01
       -1   -1    0    0    0  501  0.00000000000E+00  0.00000000000E+00  0.56403033662E+03  0.56403033664E+03  0.50400001928E-02 0.  1.
        1   -1    0    0  501    0  0.00000000000E+00  0.00000000000E+00 -0.18051311158E+04  0.18051311158E+04  0.50400001928E-02 0. -1.
    10030    2    1    2    0    0  0.00000000000E+00  0.00000000000E+00 -0.12411007792E+04  0.23691614524E+04  0.20180671058E+04 0.  0.
        3    1    3    3  502    0 -0.27681827104E+03  0.21726172922E+03 -0.17307599532E+04  0.17661712941E+04  0.10100000352E+00 0. -1.
       -3    1    3    3    0  502  0.27681827104E+03 -0.21726172922E+03  0.48965917403E+03  0.60299015837E+03  0.10100000352E+00 0.  1.
</event>
<event>
 5   0  0.9140695E-06  0.1999983E+04  0.7818609E-02  0.8606629E-01
       -1   -1    0    0    0  501  0.00000000000E+00  0.00000000000E+00  0.64882657579E+03  0.64882657581E+03  0.50400001928E-02 0.  1.
        1   -1    0    0  501    0  0.00000000000E+00  0.00000000000E+00 -0.15412170830E+04  0.15412170830E+04  0.50400001928E-02 0. -1.
    10030    2    1    2    0    0  0.00000000000E+00  0.00000000000E+00 -0.89239050718E+03  0.21900436588E+04  0.19999826024E+04 0.  0.
        1    1    3    3  502    0 -0.72793403720E+03 -0.21343733510E+03  0.26729069538E+03  0.80429333852E+03  0.50400001928E-02 0.  1.
       -1    1    3    3    0  502  0.72793403720E+03  0.21343733510E+03 -0.11596812026E+04  0.13857503203E+04  0.50400001928E-02 0. -1.
</event>
<event>
 5   0  0.2003576E-05  0.2001313E+04  0.7818609E-02  0.8606007E-01
       -2   -1    0    0    0  501  0.00000000000E+00  0.00000000000E+00  0.77081450471E+03  0.77081450472E+03  0.25500000920E-02 0. -1.
        2   -1    0    0  501    0  0.00000000000E+00  0.00000000000E+00 -0.12990334974E+04  0.12990334974E+04  0.25500000920E-02 0.  1.
    10030    2    1    2    0    0  0.00000000000E+00  0.00000000000E+00 -0.52821899269E+03  0.20698480021E+04  0.20013134306E+04 0.  0.
        4    1    3    3  502    0 -0.34612046409E+03  0.68696866614E+03  0.39779660886E+03  0.86600755126E+03  0.12699999809E+01 0. -1.
       -4    1    3    3    0  502  0.34612046409E+03 -0.68696866614E+03 -0.92601560155E+03  0.12038404509E+04  0.12699999809E+01 0.  1.
</event>
<event>
 5   0  0.2003576E-05  0.2000722E+04  0.7818609E-02  0.8606283E-01
       -2   -1    0    0    0  501  0.00000000000E+00  0.00000000000E+00  0.99450221504E+03  0.99450221504E+03  0.25500000920E-02 0. -1.
        2   -1    0    0  501    0  0.00000000000E+00  0.00000000000E+00 -0.10062545331E+04  0.10062545331E+04  0.25500000920E-02 0.  1.
    10030    2    1    2    0    0  0.00000000000E+00  0.00000000000E+00 -0.11752318047E+02  0.20007567481E+04  0.20007222316E+04 0.  0.
        4    1    3    3  502    0  0.52479774065E+03  0.83466281256E+03  0.16337825981E+03  0.99938418436E+03  0.12699999809E+01 0. -1.
       -4    1    3    3    0  502 -0.52479774065E+03 -0.83466281256E+03 -0.17513057786E+03  0.10013725638E+04  0.12699999809E+01 0.  1.
</event>
<event>
 5   0  0.9342635E-06  0.1994838E+04  0.7818609E-02  0.8609038E-01
       -1   -1    0    0    0  501  0.00000000000E+00  0.00000000000E+00  0.16947856126E+04  0.16947856126E+04  0.50400001928E-02 0.  1.
        1   -1    0    0  501    0  0.00000000000E+00  0.00000000000E+00 -0.58700304756E+03  0.58700304758E+03  0.50400001928E-02 0. -1.
    10030    2    1    2    0    0  0.00000000000E+00  0.00000000000E+00  0.11077825651E+04  0.22817886602E+04  0.19948376572E+04 0.  0.
        5    1    3    3  502    0  0.48880074039E+03 -0.86626951304E+03  0.46926828930E+03  0.10998108248E+04  0.46999998093E+01 0. -1.
       -5    1    3    3    0  502 -0.48880074039E+03  0.86626951304E+03  0.63851427575E+03  0.11819778354E+04  0.46999998093E+01 0.  1.
</event>
<event>
 5   0  0.1979765E-05  0.2001149E+04  0.7818609E-02  0.8606084E-01
        2   -1    0    0  501    0  0.00000000000E+00  0.00000000000E+00  0.10175853383E+04  0.10175853383E+04  0.25500000920E-02 0. -1.
       -2   -1    0    0    0  501  0.00000000000E+00  0.00000000000E+00 -0.98384769284E+03  0.98384769285E+03  0.25500000920E-02 0.  1.
    10030    2    1    2    0    0  0.00000000000E+00  0.00000000000E+00  0.33737645465E+02  0.20014330312E+04  0.20011486575E+04 0.  0.
        2    1    3    3  502    0 -0.95747147809E+03  0.16413619933E+03  0.25660408302E+03  0.10047576716E+04  0.25500000920E-02 0. -1.
       -2    1    3    3    0  502  0.95747147809E+03 -0.16413619933E+03 -0.22286643756E+03  0.99667535952E+03  0.25500000920E-02 0.  1.
</event>
<event>
 5   0  0.9333353E-06  0.2000654E+04  0.7818609E-02  0.8606315E-01
        1   -1    0    0  501    0  0.00000000000E+00  0.00000000000E+00  0.17326632827E+04  0.17326632827E+04  0.50400001928E-02 0. -1.
       -1   -1    0    0    0  501  0.00000000000E+00  0.00000000000E+00 -0.57752389744E+03  0.57752389746E+03  0.50400001928E-02 0.  1.
    10030    2    1    2    0    0  0.00000000000E+00  0.00000000000E+00  0.11551393853E+04  0.23101871802E+04  0.20006543450E+04 0.  0.
        2    1    3    3  502    0  0.52555899241E+03  0.14984527920E+03 -0.38990616052E+03  0.67133648510E+03  0.25500000920E-02 0.  1.
       -2    1    3    3    0  502 -0.52555899241E+03 -0.14984527920E+03  0.15450455458E+04  0.16388506951E+04  0.25500000920E-02 0. -1.
</event>
<event>
 5   0  0.9220260E-06  0.2033695E+04  0.7818609E-02  0.8591027E-01
       -1   -1    0    0    0  501  0.00000000000E+00  0.00000000000E+00  0.14014868746E+04  0.14014868746E+04  0.50400001928E-02 0.  1.
        1   -1    0    0  501    0  0.00000000000E+00  0.00000000000E+00 -0.73777309994E+03  0.73777309996E+03  0.50400001928E-02 0. -1.
    10030    2    1    2    0    0  0.00000000000E+00  0.00000000000E+00  0.66371377467E+03  0.21392599746E+04  0.20336954699E+04 0.  0.
        3    1    3    3  502    0  0.38357547490E+03 -0.57223732157E+03 -0.45489246566E+03  0.82553792321E+03  0.10100000352E+00 0. -1.
       -3    1    3    3    0  502 -0.38357547490E+03  0.57223732157E+03  0.11186062403E+04  0.13137220514E+04  0.10100000352E+00 0.  1.
</event>
<event>
 5   0  0.2020029E-05  0.1999628E+04  0.7818609E-02  0.8606795E-01
       -2   -1    0    0    0  501  0.00000000000E+00  0.00000000000E+00  0.90825002822E+03  0.90825002822E+03  0.25500000920E-02 0. -1.
        2   -1    0    0  501    0  0.00000000000E+00  0.00000000000E+00 -0.11006086083E+04  0.11006086083E+04  0.25500000920E-02 0.  1.
    10030    2    1    2    0    0  0.00000000000E+00  0.00000000000E+00 -0.19235858006E+03  0.20088586365E+04  0.19996277649E+04 0.  0.
        5    1    3    3  502    0 -0.79585550708E+03  0.45737122789E+02  0.51003638085E+03  0.94638103972E+03  0.46999998093E+01 0. -1.
       -5    1    3    3    0  502  0.79585550708E+03 -0.45737122789E+02 -0.70239496092E+03  0.10624775968E+04  0.46999998093E+01 0.  1.
</event>
<event>
 5   0  0.1999142E-05  0.1998992E+04  0.7818609E-02  0.8607092E-01
       -2   -1    0    0    0  501  0.00000000000E+00  0.00000000000E+00  0.75355036282E+03  0.75355036283E+03  0.25500000920E-02 0. -1.
        2   -1    0    0  501    0  0.00000000000E+00  0.00000000000E+00 -0.13257133715E+04  0.13257133715E+04  0.25500000920E-02 0.  1.
    10030    2    1    2    0    0  0.00000000000E+00  0.00000000000E+00 -0.57216300870E+03  0.20792637344E+04  0.19989915379E+04 0.  0.
        1    1    3    3  502    0 -0.38050694338E+03  0.74840192521E+03  0.27800633630E+03  0.88440855868E+03  0.50400001928E-02 0. -1.
       -1    1    3    3    0  502  0.38050694338E+03 -0.74840192521E+03 -0.85016934500E+03  0.11948551757E+04  0.50400001928E-02 0.  1.
</event>
<event>
 5   0  0.9370269E-06  0.1994191E+04  0.7818609E-02  0.8609341E-01
        1   -1    0    0  501    0  0.00000000000E+00  0.00000000000E+00  0.13493870538E+04  0.13493870538E+04  0.50400001928E-02 0.  1.
       -1   -1    0    0    0  501  0.00000000000E+00  0.00000000000E+00 -0.73677853395E+03  0.73677853397E+03  0.50400001928E-02 0. -1.
    10030    2    1    2    0    0  0.00000000000E+00  0.00000000000E+00  0.61260851985E+03  0.20861655878E+04  0.19941909791E+04 0.  0.
        4    1    3    3  502    0 -0.36107196025E+03 -0.90331138852E+03  0.53514762572E+03  0.11102833059E+04  0.12699999809E+01 0. -1.
       -4    1    3    3    0  502  0.36107196025E+03  0.90331138852E+03  0.77460894129E+02  0.97588228190E+03  0.12699999809E+01 0.  1.
</event>
<event>
 5   0  0.9370269E-06  0.1998576E+04  0.7818609E-02  0.8607287E-01
       -1   -1    0    0    0  501  0.00000000000E+00  0.00000000000E+00  0.46494110650E+03  0.46494110653E+03  0.50400001928E-02 0. -1.
        1   -1    0    0  501    0  0.00000000000E+00  0.00000000000E+00 -0.21477486140E+04  0.21477486140E+04  0.50400001928E-02 0.  1.
    10030    2    1    2    0    0  0.00000000000E+00  0.00000000000E+00 -0.16828075075E+04  0.26126897205E+04  0.19985761103E+04 0.  0.
        4    1    3    3  502    0 -0.64943491433E+03 -0.28382896886E+03 -0.17623145941E+04  0.18994943888E+04  0.12699999809E+01 0.  1.
       -4    1    3    3    0  502  0.64943491433E+03  0.28382896886E+03  0.79507086608E+02  0.71319533175E+03  0.12699999809E+01 0. -1.
</event>
<event>
 5   0  0.9220260E-06  0.1993920E+04  0.7818609E-02  0.8609468E-01
        1   -1    0    0  501    0  0.00000000000E+00  0.00000000000E+00  0.91599004564E+03  0.91599004566E+03  0.50400001928E-02 0.  1.
       -1   -1    0    0    0  501  0.00000000000E+00  0.00000000000E+00 -0.10850878101E+04  0.10850878102E+04  0.50400001928E-02 0. -1.
    10030    2    1    2    0    0  0.00000000000E+00  0.00000000000E+00 -0.16909776450E+03  0.20010778558E+04  0.19939203924E+04 0.  0.
        3    1    3    3  502    0  0.53612545504E+03 -0.81270742335E+03  0.13071059942E+03  0.98234878251E+03  0.10100000352E+00 0.  1.
       -3    1    3    3    0  502 -0.53612545504E+03  0.81270742335E+03 -0.29980836392E+03  0.10187290733E+04  0.10100000352E+00 0. -1.
</event>
<event>
 5   0  0.2003576E-05  0.1998730E+04  0.7818609E-02  0.8607215E-01
        2   -1    0    0  501    0  0.00000000000E+00  0.00000000000E+00  0.20437670326E+04  0.20437670326E+04  0.25500000920E-02 0.  1.
       -2   -1    0    0    0  501  0.00000000000E+00  0.00000000000E+00 -0.48867115884E+03  0.48867115884E+03  0.25500000920E-02 0. -1.
    10030    2    1    2    0    0  0.00000000000E+00  0.00000000000E+00  0.15550958738E+04  0.25324381914E+04  0.19987296007E+04 0.  0.
        4    1    3    3  502    0  0.81848505900E+03 -0.56302384959E+03  0.63982794968E+03  0.11816492987E+04  0.12699999809E+01 0. -1.
       -4    1    3    3    0  502 -0.81848505900E+03  0.56302384959E+03  0.91526792408E+03  0.13507888927E+04  0.12699999809E+01 0.  1.
</event>
<event>
 5   0  0.9342635E-06  0.2007360E+04  0.7818609E-02  0.8603187E-01
       -1   -1    0    0    0  501  0.00000000000E+00  0.00000000000E+00  0.10811212906E+04  0.10811212907E+04  0.50400001928E-02 0.  1.
        1   -1    0    0  501    0  0.00000000000E+00  0.00000000000E+00 -0.93178598476E+03  0.93178598478E+03  0.50400001928E-02 0. -1.
    10030    2    1    2    0    0  0.00000000000E+00  0.00000000000E+00  0.14933530588E+03  0.20129072754E+04  0.20073601236E+04 0.  0.
        5    1    3    3  502    0 -0.67752596695E+03  0.31323624693E+03 -0.59815087056E+03  0.95653799518E+03  0.46999998093E+01 0. -1.
       -5    1    3    3    0  502  0.67752596695E+03 -0.31323624693E+03  0.74748617644E+03  0.10563692802E+04  0.46999998093E+01 0.  1.
</event>
<event>
 5   0  0.2038882E-05  0.2017228E+04  0.7818609E-02  0.8598608E-01
        2   -1    0    0  501    0  0.00000000000E+00  0.00000000000E+00  0.11214005281E+04  0.11214005281E+04  0.25500000920E-02 0.  1.
       -2   -1    0    0    0  501  0.00000000000E+00  0.00000000000E+00 -0.90717109916E+03  0.90717109916E+03  0.25500000920E-02 0. -1.
    10030    2    1    2    0    0  0.00000000000E+00  0.00000000000E+00  0.21422942898E+03  0.20285716273E+04  0.20172279492E+04 0.  0.
        3    1    3    3  502    0 -0.18550821171E+03  0.65341981293E+03 -0.64268620530E+03  0.93510230308E+03  0.10100000352E+00 0. -1.
       -3    1    3    3    0  502  0.18550821171E+03 -0.65341981293E+03  0.85691563428E+03  0.10934693242E+04  0.10100000352E+00 0.  1.
</event>
<event>
 5   0  0.2038882E-05  0.2004572E+04  0.7818609E-02  0.8604486E-01
       -2   -1    0    0    0  501  0.00000000000E+00  0.00000000000E+00  0.51980249012E+03  0.51980249012E+03  0.25500000920E-02 0.  1.
        2   -1    0    0  501    0  0.00000000000E+00  0.00000000000E+00 -0.19326140865E+04  0.19326140865E+04  0.25500000920E-02 0. -1.
    10030    2    1    2    0    0  0.00000000000E+00  0.00000000000E+00 -0.14128115964E+04  0.24524165766E+04  0.20045723879E+04 0.  0.
        3    1    3    3  502    0  0.92120031312E+03  0.38005252653E+03 -0.83775975656E+03  0.13018799329E+04  0.10100000352E+00 0. -1.
       -3    1    3    3    0  502 -0.92120031312E+03 -0.38005252653E+03 -0.57505183981E+03  0.11505366437E+04  0.10100000352E+00 0.  1.
</event>
<event>
 5   0  0.7132000E-06  0.1999288E+04  0.7818609E-02  0.8606954E-01
       -3   -1    0    0    0  501  0.00000000000E+00  0.00000000000E+00  0.79521507009E+03  0.79521507650E+03  0.10100000352E+00 0. -1.
        3   -1    0    0  501    0  0.00000000000E+00  0.00000000000E+00 -0.12566256730E+04  0.12566256771E+04  0.10100000352E+00 0.  1.
    10030    2    1    2    0    0  0.00000000000E+00  0.00000000000E+00 -0.46141060292E+03  0.20518407536E+04  0.19992875565E+04 0.  0.
        2    1    3    3  502    0 -0.92369889599E+03 -0.35916526519E+03 -0.36478533114E+03  0.10560718138E+04  0.25500000920E-02 0. -1.
       -2    1    3    3    0  502  0.92369889599E+03  0.35916526519E+03 -0.96625271779E+02  0.99576893973E+03  0.25500000920E-02 0.  1.
</event>
<event>
 5   0  0.9342635E-06  0.2002515E+04  0.7818609E-02  0.8605446E-01
        1   -1    0    0  501    0  0.00000000000E+00  0.00000000000E+00  0.21005154135E+04  0.21005154135E+04  0.50400001928E-02 0.  1.
       -1   -1    0    0    0  501  0.00000000000E+00  0.00000000000E+00 -0.47727176860E+03  0.47727176862E+03  0.50400001928E-02 0. -1.
    10030    2    1    2    0    0  0.00000000000E+00  0.00000000000E+00  0.16232436449E+04  0.25777871821E+04  0.20025151249E+04 0.  0.
        5    1    3    3  502    0 -0.56682412584E+03  0.14494861084E+02  0.18739120661E+04  0.19578223137E+04  0.46999998093E+01 0.  1.
       -5    1    3    3    0  502  0.56682412584E+03 -0.14494861084E+02 -0.25066842122E+03  0.61996486838E+03  0.46999998093E+01 0. -1.
</event>
<event>
 5   0  0.2038882E-05  0.1994221E+04  0.7818609E-02  0.8609327E-01
        2   -1    0    0  501    0  0.00000000000E+00  0.00000000000E+00  0.83185053497E+03  0.83185053498E+03  0.25500000920E-02 0.  1.
       -2   -1    0    0    0  501  0.00000000000E+00  0.00000000000E+00 -0.11952017634E+04  0.11952017634E+04  0.25500000920E-02 0. -1.
    10030    2    1    2    0    0  0.00000000000E+00  0.00000000000E+00 -0.36335122839E+03  0.20270522983E+04  0.19942208767E+04 0.  0.
        3    1    3    3  502    0 -0.85804855424E+03  0.36750349261E+03 -0.53805158037E+03  0.10774069110E+04  0.10100000352E+00 0. -1.
       -3    1    3    3    0  502  0.85804855424E+03 -0.36750349261E+03  0.17470035199E+03  0.94964538734E+03  0.10100000352E+00 0.  1.
</event>
<event>
 5   0  0.7132000E-06  0.1977612E+04  0.7818609E-02  0.8617160E-01
       -3   -1    0    0    0  501  0.00000000000E+00  0.00000000000E+00  0.53290454942E+03  0.53290455899E+03  0.10100000352E+00 0.  1.
        3   -1    0    0  501    0  0.00000000000E+00  0.00000000000E+00 -0.18347321409E+04  0.18347321437E+04  0.10100000352E+00 0. -1.
    10030    2    1    2    0    0  0.00000000000E+00  0.00000000000E+00 -0.13018275915E+04  0.23676367027E+04  0.19776118117E+04 0.  0.
        1    1    3    3  502    0  0.93796736683E+03  0.29761586294E+03 -0.53496788376E+03  0.11200663462E+04  0.50400001928E-02 0.  1.
       -1    1    3    3    0  502 -0.93796736683E+03 -0.29761586294E+03 -0.76685970773E+03  0.12475703565E+04  0.50400001928E-02 0. -1.
</event>
<event>
 5   0  0.1979765E-05  0.1994693E+04  0.7818609E-02  0.8609106E-01
        2   -1    0    0  501    0  0.00000000000E+00  0.00000000000E+00  0.13166435779E+04  0.13166435779E+04  0.25500000920E-02 0.  1.
       -2   -1    0    0    0  501  0.00000000000E+00  0.00000000000E+00 -0.75548157762E+03  0.75548157762E+03  0.25500000920E-02 0. -1.
    10030    2    1    2    0    0  0.00000000000E+00  0.00000000000E+00  0.56116200031E+03  0.20721251556E+04  0.19946929262E+04 0.  0.
        2    1    3    3  502    0 -0.22324945713E+03 -0.26106614672E+03 -0.69209109783E+03  0.77264865286E+03  0.25500000920E-02 0. -1.
       -2    1    3    3    0  502  0.22324945713E+03  0.26106614672E+03  0.12532530981E+04  0.12994765027E+04  0.25500000920E-02 0.  1.
</event>
<event>
 5   0  0.1999142E-05  0.2003673E+04  0.7818609E-02  0.8604905E-01
        2   -1    0    0  501    0  0.00000000000E+00  0.00000000000E+00  0.16103293289E+04  0.16103293289E+04  0.25500000920E-02 0. -1.
       -2   -1    0    0    0  501  0.00000000000E+00  0.00000000000E+00 -0.62327382916E+03  0.62327382917E+03  0.25500000920E-02 0.  1.
    10030    2    1    2    0    0  0.00000000000E+00  0.00000000000E+00  0.98705549971E+03  0.22336031580E+04  0.20036727547E+04 0.  0.
        1    1    3    3  502    0 -0.38705239392E+03 -0.92391142030E+03  0.47575243826E+03  0.11089464598E+04  0.50400001928E-02 0.  1.
       -1    1    3    3    0  502  0.38705239392E+03  0.92391142030E+03  0.51130306145E+03  0.11246566982E+04  0.50400001928E-02 0. -1.
</event>
<event>
 5   0  0.9140695E-06  0.2001922E+04  0.7818609E-02  0.8605722E-01
       -1   -1    0    0    0  501  0.00000000000E+00  0.00000000000E+00  0.12877868531E+04  0.12877868531E+04  0.50400001928E-02 0.  1.
        1   -1    0    0  501    0  0.00000000000E+00  0.00000000000E+00 -0.77801943632E+03  0.77801943634E+03  0.50400001928E-02 0. -1.
    10030    2    1    2    0    0  0.00000000000E+00  0.00000000000E+00  0.50976741681E+03  0.20658062895E+04  0.20019222778E+04 0.  0.
        1    1    3    3  502    0  0.74324281466E+03  0.51366788125E+03 -0.18974750885E+03  0.92318399624E+03  0.50400001928E-02 0. -1.
       -1    1    3    3    0  502 -0.74324281466E+03 -0.51366788125E+03  0.69951492566E+03  0.11426222932E+04  0.50400001928E-02 0.  1.
</event>
<event>
 5   0  0.2003576E-05  0.2002696E+04  0.7818609E-02  0.8605361E-01
       -2   -1    0    0    0  501  0.00000000000E+00  0.00000000000E+00  0.88441304161E+03  0.88441304161E+03  0.25500000920E-02 0.  1.
        2   -1    0    0  501    0  0.00000000000E+00  0.00000000000E+00 -0.11337442991E+04  0.11337442991E+04  0.25500000920E-02 0. -1.
    10030    2    1    2    0    0  0.00000000000E+00  0.00000000000E+00 -0.24933125753E+03  0.20181573408E+04  0.20026964263E+04 0.  0.
        4    1    3    3  502    0  0.87934121614E+03  0.12299817842E+03  0.34186315921E+03  0.95144183155E+03  0.12699999809E+01 0.  1.
       -4    1    3    3    0  502 -0.87934121614E+03 -0.12299817842E+03 -0.59119441674E+03  0.10667155092E+04  0.12699999809E+01 0. -1.
</event>
<event>
 5   0  0.2003576E-05  0.1998538E+04  0.7818609E-02  0.8607305E-01
        2   -1    0    0  501    0  0.00000000000E+00  0.00000000000E+00  0.17543604956E+04  0.17543604956E+04  0.25500000920E-02 0.  1.
       -2   -1    0    0    0  501  0.00000000000E+00  0.00000000000E+00 -0.56917514615E+03  0.56917514616E+03  0.25500000920E-02 0. -1.
    10030    2    1    2    0    0  0.00000000000E+00  0.00000000000E+00  0.11851853494E+04  0.23235356417E+04  0.19985378570E+04 0.  0.
        4    1    3    3  502    0 -0.17948584505E+03  0.49718407989E+03  0.15785100994E+04  0.16646630063E+04  0.12699999809E+01 0.  1.
       -4    1    3    3    0  502  0.17948584505E+03 -0.49718407989E+03 -0.39332474996E+03  0.65887263542E+03  0.12699999809E+01 0. -1.
</event>
<event>
 5   0  0.2020029E-05  0.1996060E+04  0.7818609E-02  0.8608465E-01
       -2   -1    0    0    0  501  0.00000000000E+00  0.00000000000E+00  0.10983381283E+04  0.10983381283E+04  0.25500000920E-02 0. -1.
        2   -1    0    0  501    0  0.00000000000E+00  0.00000000000E+00 -0.90688282267E+03  0.90688282267E+03  0.25500000920E-02 0.  1.
    10030    2    1    2    0    0  0.00000000000E+00  0.00000000000E+00  0.19145530561E+03  0.20052209509E+04  0.19960601013E+04 0.  0.
        5    1    3    3  502    0 -0.43791456255E+03 -0.39793772211E+03  0.90310658631E+03  0.10796977313E+04  0.46999998093E+01 0. -1.
       -5    1    3    3    0  502  0.43791456255E+03  0.39793772211E+03 -0.71165128069E+03  0.92552321964E+03  0.46999998093E+01 0.  1.
</event>
<event>
 5   0  0.9370269E-06  0.1992249E+04  0.7818609E-02  0.8610253E-01
        1   -1    0    0  501    0  0.00000000000E+00  0.00000000000E+00  0.62429967221E+03  0.62429967223E+03  0.50400001928E-02 0. -1.
       -1   -1    0    0    0  501  0.00000000000E+00  0.00000000000E+00 -0.15894038224E+04  0.15894038224E+04  0.50400001928E-02 0.  1.
    10030    2    1    2    0    0  0.00000000000E+00  0.00000000000E+00 -0.96510415020E+03  0.22137034946E+04  0.19922492669E+04 0.  0.
        4    1    3    3  502    0 -0.82856088840E+03 -0.52868611175E+03 -0.66254772507E+03  0.11853241124E+04  0.12699999809E+01 0.  1.
       -4    1    3    3    0  502  0.82856088840E+03  0.52868611175E+03 -0.30255642513E+03  0.10283793822E+04  0.12699999809E+01 0. -1.
</event>
<event>
 5   0  0.9333353E-06  0.2015369E+04  0.7818609E-02  0.8599469E-01
        1   -1    0    0  501    0  0.00000000000E+00  0.00000000000E+00  0.36441290645E+03  0.36441290648E+03  0.50400001928E-02 0. -1.
       -1   -1    0    0    0  501  0.00000000000E+00  0.00000000000E+00 -0.27864771547E+04  0.27864771547E+04  0.50400001928E-02 0.  1.
    10030    2    1    2    0    0  0.00000000000E+00  0.00000000000E+00 -0.24220642483E+04  0.31508900612E+04  0.20153691858E+04 0.  0.
        2    1    3    3  502    0  0.69889437114E+03 -0.51369588909E+03 -0.20129538640E+04  0.21918759242E+04  0.25500000920E-02 0.  1.
       -2    1    3    3    0  502 -0.69889437114E+03  0.51369588909E+03 -0.40911038429E+03  0.95901413703E+03  0.25500000920E-02 0. -1.
</event>
<event>
 5   0  0.2038882E-05  0.1997566E+04  0.7818609E-02  0.8607760E-01
       -2   -1    0    0    0  501  0.00000000000E+00  0.00000000000E+00  0.19299258678E+04  0.19299258678E+04  0.25500000920E-02 0.  1.
        2   -1    0    0  501    0  0.00000000000E+00  0.00000000000E+00 -0.51689399935E+03  0.51689399936E+03  0.25500000920E-02 0. -1.
    10030    2    1    2    0    0  0.00000000000E+00  0.00000000000E+00  0.14130318684E+04  0.24468198671E+04  0.19975656187E+04 0.  0.
        3    1    3    3  502    0  0.16892438783E+03  0.85496565618E+03  0.10886300192E+03  0.87826697845E+03  0.10100000352E+00 0. -1.
       -3    1    3    3    0  502 -0.16892438783E+03 -0.85496565618E+03  0.13041688665E+04  0.15685528887E+04  0.10100000352E+00 0.  1.
</event>
<event>
 5   0  0.2003576E-05  0.2001454E+04  0.7818609E-02  0.8605941E-01
       -2   -1    0    0    0  501  0.00000000000E+00  0.00000000000E+00  0.11374148193E+04  0.11374148193E+04  0.25500000920E-02 0.  1.
        2   -1    0    0  501    0  0.00000000000E+00  0.00000000000E+00 -0.88046536990E+03  0.88046536991E+03  0.25500000920E-02 0. -1.
    10030    2    1    2    0    0  0.00000000000E+00  0.00000000000E+00  0.25694944938E+03  0.20178801892E+04  0.20014538312E+04 0.  0.
        4    1    3    3  502    0  0.63490212828E+03  0.26812830307E+03  0.86000478909E+03  0.11020904453E+04  0.12699999809E+01 0.  1.
       -4    1    3    3    0  502 -0.63490212828E+03 -0.26812830307E+03 -0.60305533972E+03  0.91578974392E+03  0.12699999809E+01 0. -1.
</event>
<event>
 5   0  0.2003576E-05  0.2001529E+04  0.7818609E-02  0.8605906E-01
       -2   -1    0    0    0  501  0.00000000000E+00  0.00000000000E+00  0.12093093692E+04  0.12093093692E+04  0.25500000920E-02 0. -1.
        2   -1    0    0  501    0  0.00000000000E+00  0.00000000000E+00 -0.82818326671E+03  0.82818326671E+03  0.25500000920E-02 0.  1.
    10030    2    1    2    0    0  0.00000000000E+00  0.00000000000E+00  0.38112610245E+03  0.20374926359E+04  0.20015291992E+04 0.  0.
        4    1    3    3  502    0 -0.66180934133E+03 -0.70268308988E+03  0.45945509125E+03  0.10690443035E+04  0.12699999809E+01 0. -1.
       -4    1    3    3    0  502  0.66180934133E+03  0.70268308988E+03 -0.78328988799E+02  0.96844833237E+03  0.12699999809E+01 0.  1.
</event>
<event>
 5   0  0.9220260E-06  0.2056587E+04  0.7818609E-02  0.8580612E-01
       -1   -1    0    0    0  501  0.00000000000E+00  0.00000000000E+00  0.14436756429E+04  0.14436756429E+04  0.50400001928E-02 0.  1.
        1   -1    0    0  501    0  0.00000000000E+00  0.00000000000E+00 -0.73242751812E+03  0.73242751813E+03  0.50400001928E-02 0. -1.
    10030    2    1    2    0    0  0.00000000000E+00  0.00000000000E+00  0.71124812477E+03  0.21761031610E+04  0.20565872392E+04 0.  0.
        3    1    3    3  502    0  0.78630433743E+03 -0.65124267321E+03  0.48519969936E+03  0.11304027110E+04  0.10100000352E+00 0.  1.
       -3    1    3    3    0  502 -0.78630433743E+03  0.65124267321E+03  0.22604842541E+03  0.10457004501E+04  0.10100000352E+00 0. -1.
</event>
<event>
 5   0  0.9140695E-06  0.1999324E+04  0.7818609E-02  0.8606937E-01
        1   -1    0    0  501    0  0.00000000000E+00  0.00000000000E+00  0.97799587859E+03  0.97799587860E+03  0.50400001928E-02 0.  1.
       -1   -1    0    0    0  501  0.00000000000E+00  0.00000000000E+00 -0.10218083596E+04  0.10218083596E+04  0.50400001928E-02 0. -1.
    10030    2    1    2    0    0  0.00000000000E+00  0.00000000000E+00 -0.43812481001E+02  0.19998042382E+04  0.19993242502E+04 0.  0.
        1    1    3    3  502    0  0.10230651672E+03  0.80285685693E+03 -0.60879970066E+03  0.10127600069E+04  0.50400001928E-02 0. -1.
       -1    1    3    3    0  502 -0.10230651672E+03 -0.80285685693E+03  0.56498721966E+03  0.98704423127E+03  0.50400001928E-02 0.  1.
</event>
<event>
 5   0  0.9333353E-06  0.1998506E+04  0.7818609E-02  0.8607319E-01
        1   -1    0    0  501    0  0.00000000000E+00  0.00000000000E+00  0.11304216841E+04  0.11304216841E+04  0.50400001928E-02 0. -1.
       -1   -1    0    0    0  501  0.00000000000E+00  0.00000000000E+00 -0.88330488024E+03  0.88330488026E+03  0.50400001928E-02 0.  1.
    10030    2    1    2    0    0  0.00000000000E+00  0.00000000000E+00  0.24711680387E+03  0.20137265644E+04  0.19985064327E+04 0.  0.
        2    1    3    3  502    0  0.73500892720E+03  0.52549232328E+03 -0.30645475193E+03  0.95409371651E+03  0.25500000920E-02 0.  1.
       -2    1    3    3    0  502 -0.73500892720E+03 -0.52549232328E+03  0.55357155580E+03  0.10596328479E+04  0.25500000920E-02 0. -1.
</event>
<event>
 5   0  0.1999142E-05  0.1998995E+04  0.7818609E-02  0.8607091E-01
       -2   -1    0    0    0  501  0.00000000000E+00  0.00000000000E+00  0.88284657331E+03  0.88284657332E+03  0.25500000920E-02 0.  1.
        2   -1    0    0  501    0  0.00000000000E+00  0.00000000000E+00 -0.11315617564E+04  0.11315617564E+04  0.25500000920E-02 0. -1.
    10030    2    1    2    0    0  0.00000000000E+00  0.00000000000E+00 -0.24871518307E+03  0.20144083297E+04  0.19989951667E+04 0.  0.
        1    1    3    3  502    0 -0.74499163654E+03  0.55748913700E+03 -0.49212185385E+03  0.10526113221E+04  0.50400001928E-02 0. -1.
       -1    1    3    3    0  502  0.74499163654E+03 -0.55748913700E+03  0.24340667078E+03  0.96179700758E+03  0.50400001928E-02 0.  1.
</event>
<event>
 5   0  0.2003576E-05  0.1995451E+04  0.7818609E-02  0.8608750E-01
       -2   -1    0    0    0  501  0.00000000000E+00  0.00000000000E+00  0.82107683423E+03  0.82107683423E+03  0.25500000920E-02 0. -1.
        2   -1    0    0  501    0  0.00000000000E+00  0.00000000000E+00 -0.12123787214E+04  0.12123787214E+04  0.25500000920E-02 0.  1.
    10030    2    1    2    0    0  0.00000000000E+00  0.00000000000E+00 -0.39130188718E+03  0.20334555556E+04  0.19954509089E+04 0.  0.
        4    1    3    3  502    0 -0.19975745308E+03  0.66213798550E+03  0.53715888426E+03  0.87571172867E+03  0.12699999809E+01 0. -1.
       -4    1    3    3    0  502  0.19975745308E+03 -0.66213798550E+03 -0.92846077143E+03  0.11577438270E+04  0.12699999809E+01 0.  1.
</event>
<event>
 5   0  0.9342635E-06  0.1992000E+04  0.7818609E-02  0.8610370E-01
       -1   -1    0    0    0  501  0.00000000000E+00  0.00000000000E+00  0.12188165407E+04  0.12188165407E+04  0.50400001928E-02 0.  1.
        1   -1    0    0  501    0  0.00000000000E+00  0.00000000000E+00 -0.81391736487E+03  0.81391736489E+03  0.50400001928E-02 0. -1.
    10030    2    1    2    0    0  0.00000000000E+00  0.00000000000E+00  0.40489917583E+03  0.20327339056E+04  0.19919999469E+04 0.  0.
        5    1    3    3  502    0 -0.35391508062E+03 -0.92566285327E+03  0.30391245036E+03  0.10365772859E+04  0.46999998093E+01 0. -1.
       -5    1    3    3    0  502  0.35391508062E+03  0.92566285327E+03  0.10098672547E+03  0.99615661968E+03  0.46999998093E+01 0.  1.
</event>
<event>
 5   0  0.1999142E-05  0.1986828E+04  0.7818609E-02  0.8612804E-01
        2   -1    0    0  501    0  0.00000000000E+00  0.00000000000E+00  0.10501940355E+04  0.10501940355E+04  0.25500000920E-02 0. -1.
       -2   -1    0    0    0  501  0.00000000000E+00  0.00000000000E+00 -0.93970396523E+03  0.93970396523E+03  0.25500000920E-02 0.  1.
    10030    2    1    2    0    0  0.00000000000E+00  0.00000000000E+00  0.11049007024E+03  0.19898980007E+04  0.19868281248E+04 0.  0.
        1    1    3    3  502    0 -0.25237012656E+02  0.57137620984E+03  0.86875853536E+03  0.10401197396E+04  0.50400001928E-02 0. -1.
       -1    1    3    3    0  502  0.25237012656E+02 -0.57137620984E+03 -0.75826846513E+03  0.94977826107E+03  0.50400001928E-02 0.  1.
</event>
<event>
 5   0  0.9220260E-06  0.1999156E+04  0.7818609E-02  0.8607016E-01
        1   -1    0    0  501    0  0.00000000000E+00  0.00000000000E+00  0.11110741491E+04  0.11110741491E+04  0.50400001928E-02 0.  1.
       -1   -1    0    0    0  501  0.00000000000E+00  0.00000000000E+00 -0.89927005341E+03  0.89927005342E+03  0.50400001928E-02 0. -1.
    10030    2    1    2    0    0  0.00000000000E+00  0.00000000000E+00  0.21180409570E+03  0.20103442025E+04  0.19991555311E+04 0.  0.
        3    1    3    3  502    0 -0.10489684531E+03  0.45339509077E+03  0.99549158437E+03  0.10988967018E+04  0.10100000352E+00 0.  1.
       -3    1    3    3    0  502  0.10489684531E+03 -0.45339509077E+03 -0.78368748867E+03  0.91144750073E+03  0.10100000352E+00 0. -1.
</event>
<event>
 5   0  0.9342635E-06  0.1999855E+04  0.7818609E-02  0.8606688E-01
        1   -1    0    0  501    0  0.00000000000E+00  0.00000000000E+00  0.10970050223E+04  0.10970050223E+04  0.50400001928E-02 0.  1.
       -1   -1    0    0    0  501  0.00000000000E+00  0.00000000000E+00 -0.91144062213E+03  0.91144062214E+03  0.50400001928E-02 0. -1.
    10030    2    1    2    0    0  0.00000000000E+00  0.00000000000E+00  0.18556440020E+03  0.20084456445E+04  0.19998549348E+04 0.  0.
        5    1    3    3  502    0  0.11463199253E+03  0.81767901548E+03 -0.47363822663E+03  0.95189008073E+03  0.46999998093E+01 0. -1.
       -5    1    3    3    0  502 -0.11463199253E+03 -0.81767901548E+03  0.65920262683E+03  0.10565555637E+04  0.46999998093E+01 0.  1.
</event>
<event>
 5   0  0.9342635E-06  0.1999723E+04  0.7818609E-02  0.8606750E-01
       -1   -1    0    0    0  501  0.00000000000E+00  0.00000000000E+00  0.81258044590E+03  0.81258044591E+03  0.50400001928E-02 0.  1.
        1   -1    0    0  501    0  0.00000000000E+00  0.00000000000E+00 -0.12303061872E+04  0.12303061872E+04  0.50400001928E-02 0. -1.
    10030    2    1    2    0    0  0.00000000000E+00  0.00000000000E+00 -0.41772574132E+03  0.20428866331E+04  0.19997227310E+04 0.  0.
        5    1    3    3  502    0  0.96591812464E+03  0.21589915567E+03 -0.64062830831E+02  0.99183486792E+03  0.46999998093E+01 0.  1.
       -5    1    3    3    0  502 -0.96591812464E+03 -0.21589915567E+03 -0.35366291049E+03  0.10510517652E+04  0.46999998093E+01 0. -1.
</event>
<event>
 5   0  0.7132000E-06  0.1995201E+04  0.7818609E-02  0.8608868E-01
       -4   -1    0    0    0  501  0.00000000000E+00  0.00000000000E+00  0.83650108065E+03  0.83650204472E+03  0.12699999809E+01 0. -1.
        4   -1    0    0  501    0  0.00000000000E+00  0.00000000000E+00 -0.11897233604E+04  0.11897240382E+04  0.12699999809E+01 0.  1.
    10030    2    1    2    0    0  0.00000000000E+00  0.00000000000E+00 -0.35322227975E+03  0.20262260830E+04  0.19952007820E+04 0.  0.
        4    1    3    3  502    0 -0.15803166110E+03 -0.37534042760E+03 -0.11014591078E+04  0.11743373542E+04  0.12699999809E+01 0.  1.
       -4    1    3    3    0  502  0.15803166110E+03  0.37534042760E+03  0.74823682802E+03  0.85188872877E+03  0.12699999809E+01 0. -1.
</event>
<event>
 5   0  0.2020029E-05  0.2000028E+04  0.7818609E-02  0.8606607E-01
       -2   -1    0    0    0  501  0.00000000000E+00  0.00000000000E+00  0.42770038408E+03  0.42770038409E+03  0.25500000920E-02 0.  1.
        2   -1    0    0  501    0  0.00000000000E+00  0.00000000000E+00 -0.23381512477E+04  0.23381512477E+04  0.25500000920E-02 0. -1.
    10030    2    1    2    0    0  0.00000000000E+00  0.00000000000E+00 -0.19104508636E+04  0.27658516317E+04  0.20000281865E+04 0.  0.
        5    1    3    3  502    0 -0.64757837257E+03  0.70602126285E+03 -0.13516695453E+04  0.16567608222E+04  0.46999998093E+01 0. -1.
       -5    1    3    3    0  502  0.64757837257E+03 -0.70602126285E+03 -0.55878131828E+03  0.11090908096E+04  0.46999998093E+01 0.  1.
</event>
<event>
 5   0  0.2003576E-05  0.2007830E+04  0.7818609E-02  0.8602968E-01
        2   -1    0    0  501    0  0.00000000000E+00  0.00000000000E+00  0.88707552659E+03  0.88707552660E+03  0.25500000920E-02 0. -1.
       -2   -1    0    0    0  501  0.00000000000E+00  0.00000000000E+00 -0.11361440524E+04  0.11361440524E+04  0.25500000920E-02 0.  1.
    10030    2    1    2    0    0  0.00000000000E+00  0.00000000000E+00 -0.24906852585E+03  0.20232195790E+04  0.20078302554E+04 0.  0.
        4    1    3    3  502    0  0.64185069630E+03  0.43749413436E+03  0.51632028485E+03  0.93271736522E+03  0.12699999809E+01 0. -1.
       -4    1    3    3    0  502 -0.64185069630E+03 -0.43749413436E+03 -0.76538881070E+03  0.10905022138E+04  0.12699999809E+01 0.  1.
</event>
<event>
 5   0  0.9140695E-06  0.1998807E+04  0.7818609E-02  0.8607179E-01
       -1   -1    0    0    0  501  0.00000000000E+00  0.00000000000E+00  0.69945193115E+03  0.69945193117E+03  0.50400001928E-02 0.  1.
        1   -1    0    0  501    0  0.00000000000E+00  0.00000000000E+00 -0.14279858299E+04  0.14279858299E+04  0.50400001928E-02 0. -1.
    10030    2    1    2    0    0  0.00000000000E+00  0.00000000000E+00 -0.72853389874E+03  0.21274377611E+04  0.19988070906E+04 0.  0.
        1    1    3    3  502    0  0.87584666107E+03 -0.23867222765E+03 -0.80918162378E+03  0.12160784129E+04  0.50400001928E-02 0. -1.
       -1    1    3    3    0  502 -0.87584666107E+03  0.23867222765E+03  0.80647725039E+02  0.91135934819E+03  0.50400001928E-02 0.  1.
</event>
<event>
 5   0  0.2020029E-05  0.2000823E+04  0.7818609E-02  0.8606236E-01
       -2   -1    0    0    0  501  0.00000000000E+00  0.00000000000E+00  0.21124111391E+04  0.21124111391E+04  0.25500000920E-02 0. -1.
        2   -1    0    0  501    0  0.00000000000E+00  0.00000000000E+00 -0.47378236986E+03  0.47378236987E+03  0.25500000920E-02 0.  1.
    10030    2    1    2    0    0  0.00000000000E+00  0.00000000000E+00  0.16386287692E+04  0.25861935089E+04  0.20008229863E+04 0.  0.
        5    1    3    3  502    0  0.66874685893E+03 -0.44240963726E+03  0.46092162925E+02  0.80317820311E+03  0.46999998093E+01 0.  1.
       -5    1    3    3    0  502 -0.66874685893E+03  0.44240963726E+03  0.15925366063E+04  0.17830153058E+04  0.46999998093E+01 0. -1.
</event>
<event>
 5   0  0.9342635E-06  0.2013741E+04  0.7818609E-02  0.8600223E-01
       -1   -1    0    0    0  501  0.00000000000E+00  0.00000000000E+00  0.63483946352E+03  0.63483946354E+03  0.50400001928E-02 0. -1.
        1   -1    0    0  501    0  0.00000000000E+00  0.00000000000E+00 -0.15969199404E+04  0.15969199404E+04  0.50400001928E-02 0.  1.
    10030    2    1    2    0    0  0.00000000000E+00  0.00000000000E+00 -0.96208047688E+03  0.22317594039E+04  0.20137405973E+04 0.  0.
        5    1    3    3  502    0 -0.82355794064E+03 -0.36325950857E+03 -0.98106402224E+03  0.13314330092E+04  0.46999998093E+01 0.  1.
       -5    1    3    3    0  502  0.82355794064E+03  0.36325950857E+03  0.18983545358E+02  0.90032639478E+03  0.46999998093E+01 0. -1.
</event>
<event>
 5   0  0.2038882E-05  0.2002402E+04  0.7818609E-02  0.8605498E-01
       -2   -1    0    0    0  501  0.00000000000E+00  0.00000000000E+00  0.75667529802E+03  0.75667529803E+03  0.25500000920E-02 0.  1.
        2   -1    0    0  501    0  0.00000000000E+00  0.00000000000E+00 -0.13247473118E+04  0.13247473118E+04  0.25500000920E-02 0. -1.
    10030    2    1    2    0    0  0.00000000000E+00  0.00000000000E+00 -0.56807201380E+03  0.20814226098E+04  0.20024021244E+04 0.  0.
        3    1    3    3  502    0 -0.15844038488E+03  0.31606316448E+03 -0.12576994045E+04  0.13064482698E+04  0.10100000352E+00 0. -1.
       -3    1    3    3    0  502  0.15844038488E+03 -0.31606316448E+03  0.68962739069E+03  0.77497434002E+03  0.10100000352E+00 0.  1.
</event>
<event>
 5   0  0.2020029E-05  0.1997672E+04  0.7818609E-02  0.8607710E-01
       -2   -1    0    0    0  501  0.00000000000E+00  0.00000000000E+00  0.71259312574E+03  0.71259312574E+03  0.25500000920E-02 0.  1.
        2   -1    0    0  501    0  0.00000000000E+00  0.00000000000E+00 -0.14000606981E+04  0.14000606981E+04  0.25500000920E-02 0. -1.
    10030    2    1    2    0    0  0.00000000000E+00  0.00000000000E+00 -0.68746757239E+03  0.21126538239E+04  0.19976722745E+04 0.  0.
        5    1    3    3  502    0  0.82483455647E+03 -0.31288199864E+02 -0.93852945317E+03  0.12498762425E+04  0.46999998093E+01 0. -1.
       -5    1    3    3    0  502 -0.82483455647E+03  0.31288199864E+02  0.25106188078E+03  0.86277758141E+03  0.46999998093E+01 0.  1.
</event>
<event>
 5   0  0.9370269E-06  0.1998294E+04  0.7818609E-02  0.8607419E-01
       -1   -1    0    0    0  501  0.00000000000E+00  0.00000000000E+00  0.71474785998E+03  0.71474786000E+03  0.50400001928E-02 0. -1.
        1   -1    0    0  501    0  0.00000000000E+00  0.00000000000E+00 -0.13967082677E+04  0.13967082677E+04  0.50400001928E-02 0.  1.
    10030    2    1    2    0    0  0.00000000000E+00  0.00000000000E+00 -0.68196040767E+03  0.21114561277E+04  0.19982935173E+04 0.  0.
        4    1    3    3  502    0 -0.52733361309E+03 -0.84617662096E+03 -0.40943332504E+03  0.10778371277E+04  0.12699999809E+01 0.  1.
       -4    1    3    3    0  502  0.52733361309E+03  0.84617662096E+03 -0.27252708263E+03  0.10336189999E+04  0.12699999809E+01 0. -1.
</event>
<event>
 5   0  0.2038882E-05  0.1999742E+04  0.7818609E-02  0.8606741E-01
       -2   -1    0    0    0  501  0.00000000000E+00  0.00000000000E+00  0.53088198010E+03  0.53088198010E+03  0.25500000920E-02 0.  1.
        2   -1    0    0  501    0  0.00000000000E+00  0.00000000000E+00 -0.18831724253E+04  0.18831724253E+04  0.25500000920E-02 0. -1.
    10030    2    1    2    0    0  0.00000000000E+00  0.00000000000E+00 -0.13522904452E+04  0.24140544054E+04  0.19997422894E+04 0.  0.
        3    1    3    3  502    0 -0.42464146545E+03 -0.85063372060E+03 -0.30241697055E+03  0.99767436325E+03  0.10100000352E+00 0.  1.
       -3    1    3    3    0  502  0.42464146545E+03  0.85063372060E+03 -0.10498734746E+04  0.14163800421E+04  0.10100000352E+00 0. -1.
</event>
<event>
 5   0  0.1979765E-05  0.1993276E+04  0.7818609E-02  0.8609771E-01
       -2   -1    0    0    0  501  0.00000000000E+00  0.00000000000E+00  0.66884982495E+03  0.66884982495E+03  0.25500000920E-02 0. -1.
        2   -1    0    0  501    0  0.00000000000E+00  0.00000000000E+00 -0.14850681498E+04  0.14850681498E+04  0.25500000920E-02 0.  1.
    10030    2    1    2    0    0  0.00000000000E+00  0.00000000000E+00 -0.81621832488E+03  0.21539179748E+04  0.19932762699E+04 0.  0.
        2    1    3    3  502    0 -0.26525756162E+03 -0.34903559284E+03 -0.13752841830E+04  0.14434659688E+04  0.25500000920E-02 0.  1.
       -2    1    3    3    0  502  0.26525756162E+03  0.34903559284E+03  0.55906585813E+03  0.71045200598E+03  0.25500000920E-02 0. -1.
</event>
<event>
 5   0  0.2003576E-05  0.1999956E+04  0.7818609E-02  0.8606641E-01
       -2   -1    0    0    0  501  0.00000000000E+00  0.00000000000E+00  0.97357986541E+03  0.97357986542E+03  0.25500000920E-02 0.  1.
        2   -1    0    0  501    0  0.00000000000E+00  0.00000000000E+00 -0.10270923588E+04  0.10270923588E+04  0.25500000920E-02 0. -1.
    10030    2    1    2    0    0  0.00000000000E+00  0.00000000000E+00 -0.53512493338E+02  0.20006722242E+04  0.19999564399E+04 0.  0.
        4    1    3    3  502    0  0.25079716552E+03  0.76675465057E+03 -0.61785088906E+03  0.10161462722E+04  0.12699999809E+01 0. -1.
       -4    1    3    3    0  502 -0.25079716552E+03 -0.76675465057E+03  0.56433839572E+03  0.98452595202E+03  0.12699999809E+01 0.  1.
</event>
<event>
 5   0  0.2020029E-05  0.1999482E+04  0.7818609E-02  0.8606863E-01
        2   -1    0    0  501    0  0.00000000000E+00  0.00000000000E+00  0.86740757568E+03  0.86740757569E+03  0.25500000920E-02 0. -1.
       -2   -1    0    0    0  501  0.00000000000E+00  0.00000000000E+00 -0.11522630087E+04  0.11522630087E+04  0.25500000920E-02 0.  1.
    10030    2    1    2    0    0  0.00000000000E+00  0.00000000000E+00 -0.28485543300E+03  0.20196705844E+04  0.19994815957E+04 0.  0.
        5    1    3    3  502    0  0.14343218682E+03  0.84288359372E+03  0.38090985340E+03  0.93602347791E+03  0.46999998093E+01 0. -1.
       -5    1    3    3    0  502 -0.14343218682E+03 -0.84288359372E+03 -0.66576528640E+03  0.10836471065E+04  0.46999998093E+01 0.  1.
</event>
<event>
 5   0  0.1999142E-05  0.2003262E+04  0.7818609E-02  0.8605097E-01
       -2   -1    0    0    0  501  0.00000000000E+00  0.00000000000E+00  0.67932906540E+03  0.67932906541E+03  0.25500000920E-02 0. -1.
        2   -1    0    0  501    0  0.00000000000E+00  0.00000000000E+00 -0.14768468885E+04  0.14768468885E+04  0.25500000920E-02 0.  1.
    10030    2    1    2    0    0  0.00000000000E+00  0.00000000000E+00 -0.79751782307E+03  0.21561759539E+04  0.20032623558E+04 0.  0.
        1    1    3    3  502    0  0.82157092337E+03  0.56435626428E+03 -0.29227139412E+03  0.10387007957E+04  0.50400001928E-02 0. -1.
       -1    1    3    3    0  502 -0.82157092337E+03 -0.56435626428E+03 -0.50524642895E+03  0.11174751582E+04  0.50400001928E-02 0.  1.
</event>
<event>
 5   0  0.1999142E-05  0.2002293E+04  0.7818609E-02  0.8605550E-01
        2   -1    0    0  501    0  0.00000000000E+00  0.00000000000E+00  0.83508572574E+03  0.83508572574E+03  0.25500000920E-02 0.  1.
       -2   -1    0    0    0  501  0.00000000000E+00  0.00000000000E+00 -0.12002288614E+04  0.12002288614E+04  0.25500000920E-02 0. -1.
    10030    2    1    2    0    0  0.00000000000E+00  0.00000000000E+00 -0.36514313570E+03  0.20353145872E+04  0.20022926757E+04 0.  0.
        1    1    3    3  502    0  0.11416163223E+03  0.10698833542E+02 -0.11935323953E+04  0.11990274901E+04  0.50400001928E-02 0. -1.
       -1    1    3    3    0  502 -0.11416163223E+03 -0.10698833542E+02  0.82838925960E+03  0.83628709709E+03  0.50400001928E-02 0.  1.
</event>
<event>
 5   0  0.9140695E-06  0.1992937E+04  0.7818609E-02  0.8609930E-01
       -1   -1    0    0    0  501  0.00000000000E+00  0.00000000000E+00  0.11235088601E+04  0.11235088601E+04  0.50400001928E-02 0. -1.
        1   -1    0    0  501    0  0.00000000000E+00  0.00000000000E+00 -0.88379335227E+03  0.88379335229E+03  0.50400001928E-02 0.  1.
    10030    2    1    2    0    0  0.00000000000E+00  0.00000000000E+00  0.23971550782E+03  0.20073022124E+04  0.19929371910E+04 0.  0.
        1    1    3    3  502    0 -0.69971847958E+03 -0.24155106980E+03 -0.55203133965E+03  0.92341294661E+03  0.50400001928E-02 0.  1.
       -1    1    3    3    0  502  0.69971847958E+03  0.24155106980E+03  0.79174684746E+03  0.10838892658E+04  0.50400001928E-02 0. -1.
</event>
<event>
 5   0  0.9333353E-06  0.2002646E+04  0.7818609E-02  0.8605384E-01
        1   -1    0    0  501    0  0.00000000000E+00  0.00000000000E+00  0.12163707217E+04  0.12163707217E+04  0.50400001928E-02 0. -1.
       -1   -1    0    0    0  501  0.00000000000E+00  0.00000000000E+00 -0.82429470917E+03  0.82429470919E+03  0.50400001928E-02 0.  1.
    10030    2    1    2    0    0  0.00000000000E+00  0.00000000000E+00  0.39207601253E+03  0.20406654309E+04  0.20026461997E+04 0.  0.
        2    1    3    3  502    0 -0.28539044623E+03 -0.30265330879E+03 -0.73207801004E+03  0.84201243750E+03  0.25500000920E-02 0.  1.
       -2    1    3    3    0  502  0.28539044623E+03  0.30265330879E+03  0.11241540226E+04  0.11986529934E+04  0.25500000920E-02 0. -1.
</event>
<event>
 5   0  0.1999142E-05  0.2000775E+04  0.7818609E-02  0.8606258E-01
       -2   -1    0    0    0  501  0.00000000000E+00  0.00000000000E+00  0.80786487529E+03  0.80786487529E+03  0.25500000920E-02 0. -1.
        2   -1    0    0  501    0  0.00000000000E+00  0.00000000000E+00 -0.12387907917E+04  0.12387907918E+04  0.25500000920E-02 0.  1.
    10030    2    1    2    0    0  0.00000000000E+00  0.00000000000E+00 -0.43092591646E+03  0.20466556670E+04  0.20007754182E+04 0.  0.
        1    1    3    3  502    0  0.29382629472E+03 -0.11372274804E+03  0.75578792750E+03  0.81882974193E+03  0.50400001928E-02 0. -1.
       -1    1    3    3    0  502 -0.29382629472E+03  0.11372274804E+03 -0.11867138440E+04  0.12278259251E+04  0.50400001928E-02 0.  1.
</event>
<event>
 5   0  0.9220260E-06  0.2003155E+04  0.7818609E-02  0.8605147E-01
       -1   -1    0    0    0  501  0.00000000000E+00  0.00000000000E+00  0.83152786841E+03  0.83152786842E+03  0.50400001928E-02 0. -1.
        1   -1    0    0  501    0  0.00000000000E+00  0.00000000000E+00 -0.12064024028E+04  0.12064024028E+04  0.50400001928E-02 0.  1.
    10030    2    1    2    0    0  0.00000000000E+00  0.00000000000E+00 -0.37487453435E+03  0.20379302712E+04  0.20031547304E+04 0.  0.
        3    1    3    3  502    0 -0.48290885316E+03 -0.10870869223E+03 -0.10732647442E+04  0.11819119094E+04  0.10100000352E+00 0.  1.
       -3    1    3    3    0  502  0.48290885316E+03  0.10870869223E+03  0.69839020988E+03  0.85601836177E+03  0.10100000352E+00 0. -1.
</event>
<event>
 5   0  0.2020029E-05  0.1999950E+04  0.7818609E-02  0.8606644E-01
       -2   -1    0    0    0  501  0.00000000000E+00  0.00000000000E+00  0.52707157255E+03  0.52707157256E+03  0.25500000920E-02 0. -1.
        2   -1    0    0  501    0  0.00000000000E+00  0.00000000000E+00 -0.18971810859E+04  0.18971810859E+04  0.25500000920E-02 0.  1.
    10030    2    1    2    0    0  0.00000000000E+00  0.00000000000E+00 -0.13701095134E+04  0.24242526585E+04  0.19999502178E+04 0.  0.
        5    1    3    3  502    0 -0.83544708055E+03  0.42046298366E+03 -0.25620621777E+03  0.96975494897E+03  0.46999998093E+01 0. -1.
       -5    1    3    3    0  502  0.83544708055E+03 -0.42046298366E+03 -0.11139032956E+04  0.14544977095E+04  0.46999998093E+01 0.  1.
</event>
<event>
 5   0  0.9220260E-06  0.2001914E+04  0.7818609E-02  0.8605726E-01
       -1   -1    0    0    0  501  0.00000000000E+00  0.00000000000E+00  0.12648914134E+04  0.12648914134E+04  0.50400001928E-02 0. -1.
        1   -1    0    0  501    0  0.00000000000E+00  0.00000000000E+00 -0.79209534492E+03  0.79209534494E+03  0.50400001928E-02 0.  1.
    10030    2    1    2    0    0  0.00000000000E+00  0.00000000000E+00  0.47279606844E+03  0.20569867583E+04  0.20019136848E+04 0.  0.
        3    1    3    3  502    0  0.30243241655E+03 -0.12140863439E+03 -0.73605728701E+03  0.80497562885E+03  0.10100000352E+00 0.  1.
       -3    1    3    3    0  502 -0.30243241655E+03  0.12140863439E+03  0.12088533555E+04  0.12520111295E+04  0.10100000352E+00 0. -1.
</event>
<event>
 5   0  0.1979765E-05  0.1999223E+04  0.7818609E-02  0.8606984E-01
       -2   -1    0    0    0  501  0.00000000000E+00  0.00000000000E+00  0.12465958455E+04  0.12465958455E+04  0.25500000920E-02 0. -1.
        2   -1    0    0  501    0  0.00000000000E+00  0.00000000000E+00 -0.80156118142E+03  0.80156118142E+03  0.25500000920E-02 0.  1.
    10030    2    1    2    0    0  0.00000000000E+00  0.00000000000E+00  0.44503466411E+03  0.20481570270E+04  0.19992226877E+04 0.  0.
        2    1    3    3  502    0 -0.90726004311E+02 -0.38967131493E+03 -0.71595469787E+03  0.82016222234E+03  0.25500000920E-02 0.  1.
       -2    1    3    3    0  502  0.90726004311E+02  0.38967131493E+03  0.11609893620E+04  0.12279948046E+04  0.25500000920E-02 0. -1.
</event>
<event>
 5   0  0.9370269E-06  0.1986926E+04  0.7818609E-02  0.8612758E-01
       -1   -1    0    0    0  501  0.00000000000E+00  0.00000000000E+00  0.99876955582E+03  0.99876955583E+03  0.50400001928E-02 0.  1.
        1   -1    0    0  501    0  0.00000000000E+00  0.00000000000E+00 -0.98818425341E+03  0.98818425342E+03  0.50400001928E-02 0. -1.
    10030    2    1    2    0    0  0.00000000000E+00  0.00000000000E+00  0.10585302414E+02  0.19869538093E+04  0.19869256130E+04 0.  0.
        4    1    3    3  502    0 -0.12141646561E+03 -0.32760056127E+03  0.93530727302E+03  0.99843146672E+03  0.12699999809E+01 0.  1.
       -4    1    3    3    0  502  0.12141646561E+03  0.32760056127E+03 -0.92472197061E+03  0.98852234253E+03  0.12699999809E+01 0. -1.
</event>
<event>
 5   0  0.9342635E-06  0.2003195E+04  0.7818609E-02  0.8605128E-01
       -1   -1    0    0    0  501  0.00000000000E+00  0.00000000000E+00  0.76783968173E+03  0.76783968174E+03  0.50400001928E-02 0. -1.
        1   -1    0    0  501    0  0.00000000000E+00  0.00000000000E+00 -0.13065198973E+04  0.13065198973E+04  0.50400001928E-02 0.  1.
    10030    2    1    2    0    0  0.00000000000E+00  0.00000000000E+00 -0.53868021559E+03  0.20743595791E+04  0.20031952697E+04 0.  0.
        5    1    3    3  502    0  0.97528313703E+02  0.30226244747E+03  0.71430076005E+03  0.78174294045E+03  0.46999998093E+01 0. -1.
       -5    1    3    3    0  502 -0.97528313703E+02 -0.30226244747E+03 -0.12529809756E+04  0.12926166386E+04  0.46999998093E+01 0.  1.
</event>
<event>
 5   0  0.9140695E-06  0.2017019E+04  0.7818609E-02  0.8598705E-01
        1   -1    0    0  501    0  0.00000000000E+00  0.00000000000E+00  0.10157218456E+04  0.10157218456E+04  0.50400001928E-02 0.  1.
       -1   -1    0    0    0  501  0.00000000000E+00  0.00000000000E+00 -0.10013481229E+04  0.10013481229E+04  0.50400001928E-02 0. -1.
    10030    2    1    2    0    0  0.00000000000E+00  0.00000000000E+00  0.14373722710E+02  0.20170699685E+04  0.20170187540E+04 0.  0.
        1    1    3    3  502    0 -0.71237862815E+03  0.63011209566E+02 -0.70391307456E+03  0.10034676572E+04  0.50400001928E-02 0. -1.
       -1    1    3    3    0  502  0.71237862815E+03 -0.63011209566E+02  0.71828679727E+03  0.10136023113E+04  0.50400001928E-02 0.  1.
</event>
<event>
 5   0  0.9333353E-06  0.2004679E+04  0.7818609E-02  0.8604436E-01
       -1   -1    0    0    0  501  0.00000000000E+00  0.00000000000E+00  0.95188043628E+03  0.95188043630E+03  0.50400001928E-02 0.  1.
        1   -1    0    0  501    0  0.00000000000E+00  0.00000000000E+00 -0.10554738865E+04  0.10554738865E+04  0.50400001928E-02 0. -1.
    10030    2    1    2    0    0  0.00000000000E+00  0.00000000000E+00 -0.10359345019E+03  0.20073543228E+04  0.20046794692E+04 0.  0.
        2    1    3    3  502    0  0.48294007770E+03 -0.53376318322E+03 -0.75025930054E+03  0.10397226902E+04  0.25500000920E-02 0. -1.
       -2    1    3    3    0  502 -0.48294007770E+03  0.53376318322E+03  0.64666585035E+03  0.96763163261E+03  0.25500000920E-02 0.  1.
</event>
<event>
 5   0  0.2038882E-05  0.2001907E+04  0.7818609E-02  0.8605730E-01
       -2   -1    0    0    0  501  0.00000000000E+00  0.00000000000E+00  0.63683048605E+03  0.63683048606E+03  0.25500000920E-02 0.  1.
        2   -1    0    0  501    0  0.00000000000E+00  0.00000000000E+00 -0.15732724987E+04  0.15732724987E+04  0.25500000920E-02 0. -1.
    10030    2    1    2    0    0  0.00000000000E+00  0.00000000000E+00 -0.93644201268E+03  0.22101029848E+04  0.20019069809E+04 0.  0.
        3    1    3    3  502    0 -0.37463997148E+03  0.50214911357E+03  0.39360481062E+03  0.73988755743E+03  0.10100000352E+00 0.  1.
       -3    1    3    3    0  502  0.37463997148E+03 -0.50214911357E+03 -0.13300468233E+04  0.14702154274E+04  0.10100000352E+00 0. -1.
</event>
<event>
 5   0  0.1999142E-05  0.2003128E+04  0.7818609E-02  0.8605160E-01
       -2   -1    0    0    0  501  0.00000000000E+00  0.00000000000E+00  0.38997421284E+03  0.38997421285E+03  0.25500000920E-02 0. -1.
        2   -1    0    0  501    0  0.00000000000E+00  0.00000000000E+00 -0.25722982085E+04  0.25722982085E+04  0.25500000920E-02 0.  1.
    10030    2    1    2    0    0  0.00000000000E+00  0.00000000000E+00 -0.21823239956E+04  0.29622724213E+04  0.20031275237E+04 0.  0.
        1    1    3    3  502    0 -0.42659217990E+03 -0.84002798200E+03 -0.58857496205E+03  0.11108773040E+04  0.50400001928E-02 0. -1.
       -1    1    3    3    0  502  0.42659217990E+03  0.84002798200E+03 -0.15937490336E+04  0.18513951173E+04  0.50400001928E-02 0.  1.
</event>
<event>
 5   0  0.9333353E-06  0.1993373E+04  0.7818609E-02  0.8609725E-01
        1   -1    0    0  501    0  0.00000000000E+00  0.00000000000E+00  0.10139003780E+04  0.10139003780E+04  0.50400001928E-02 0. -1.
       -1   -1    0    0    0  501  0.00000000000E+00  0.00000000000E+00 -0.97976467874E+03  0.97976467875E+03  0.50400001928E-02 0.  1.
    10030    2    1    2    0    0  0.00000000000E+00  0.00000000000E+00  0.34135699231E+02  0.19936650567E+04  0.19933727982E+04 0.  0.
        2    1    3    3  502    0  0.67205653017E+03 -0.44445071562E+03  0.60382869807E+03  0.10068790965E+04  0.25500000920E-02 0. -1.
       -2    1    3    3    0  502 -0.67205653017E+03  0.44445071562E+03 -0.56969299884E+03  0.98678596022E+03  0.25500000920E-02 0.  1.
</event>
<event>
 5   0  0.9370269E-06  0.1995180E+04  0.7818609E-02  0.8608877E-01
        1   -1    0    0  501    0  0.00000000000E+00  0.00000000000E+00  0.16079709075E+04  0.16079709076E+04  0.50400001928E-02 0.  1.
       -1   -1    0    0    0  501  0.00000000000E+00  0.00000000000E+00 -0.61890798363E+03  0.61890798365E+03  0.50400001928E-02 0. -1.
    10030    2    1    2    0    0  0.00000000000E+00  0.00000000000E+00  0.98906292391E+03  0.22268788912E+04  0.19951802246E+04 0.  0.
        4    1    3    3  502    0 -0.11607903222E+03  0.57708313616E+03  0.13934729795E+04  0.15127021668E+04  0.12699999809E+01 0.  1.
       -4    1    3    3    0  502  0.11607903222E+03 -0.57708313616E+03 -0.40441005561E+03  0.71417672445E+03  0.12699999809E+01 0. -1.
</event>
<event>
 5   0  0.9220260E-06  0.1995985E+04  0.7818609E-02  0.8608500E-01
       -1   -1    0    0    0  501  0.00000000000E+00  0.00000000000E+00  0.10228708377E+04  0.10228708377E+04  0.50400001928E-02 0.  1.
        1   -1    0    0  501    0  0.00000000000E+00  0.00000000000E+00 -0.97371892614E+03  0.97371892616E+03  0.50400001928E-02 0. -1.
    10030    2    1    2    0    0  0.00000000000E+00  0.00000000000E+00  0.49151911541E+02  0.19965897639E+04  0.19959846629E+04 0.  0.
        3    1    3    3  502    0 -0.46552579760E+03  0.76971212705E+02  0.90424567494E+03  0.10199505315E+04  0.10100000352E+00 0.  1.
       -3    1    3    3    0  502  0.46552579760E+03 -0.76971212705E+02 -0.85509376340E+03  0.97663923238E+03  0.10100000352E+00 0. -1.
</event>
<event>
 5   0  0.9370269E-06  0.1986747E+04  0.7818609E-02  0.8612842E-01
        1   -1    0    0  501    0  0.00000000000E+00  0.00000000000E+00  0.18528009184E+04  0.18528009184E+04  0.50400001928E-02 0.  1.
       -1   -1    0    0    0  501  0.00000000000E+00  0.00000000000E+00 -0.53259403086E+03  0.53259403088E+03  0.50400001928E-02 0. -1.
    10030    2    1    2    0    0  0.00000000000E+00  0.00000000000E+00  0.13202068876E+04  0.23853949493E+04  0.19867467977E+04 0.  0.
        4    1    3    3  502    0 -0.25469248439E+03  0.72802222355E+03 -0.91533098642E+02  0.77670106260E+03  0.12699999809E+01 0. -1.
       -4    1    3    3    0  502  0.25469248439E+03 -0.72802222355E+03  0.14117399862E+04  0.16086938867E+04  0.12699999809E+01 0.  1.
</event>
<event>
 5   0  0.1979765E-05  0.2027930E+04  0.7818609E-02  0.8593673E-01
        2   -1    0    0  501    0  0.00000000000E+00  0.00000000000E+00  0.12048163983E+04  0.12048163983E+04  0.25500000920E-02 0.  1.
       -2   -1    0    0    0  501  0.00000000000E+00  0.00000000000E+00 -0.85334549600E+03  0.85334549600E+03  0.25500000920E-02 0. -1.
    10030    2    1    2    0    0  0.00000000000E+00  0.00000000000E+00  0.35147090231E+03  0.20581618943E+04  0.20279296309E+04 0.  0.
        2    1    3    3  502    0 -0.39779019035E+03 -0.81260745160E+03  0.64033359483E+03  0.11084200551E+04  0.25500000920E-02 0.  1.
       -2    1    3    3    0  502  0.39779019035E+03  0.81260745160E+03 -0.28886269253E+03  0.94974183917E+03  0.25500000920E-02 0. -1.
</event>
<event>
 5   0  0.1999142E-05  0.1994648E+04  0.7818609E-02  0.8609127E-01
       -2   -1    0    0    0  501  0.00000000000E+00  0.00000000000E+00  0.13038423757E+04  0.13038423757E+04  0.25500000920E-02 0. -1.
        2   -1    0    0  501    0  0.00000000000E+00  0.00000000000E+00 -0.76286459725E+03  0.76286459726E+03  0.25500000920E-02 0.  1.
    10030    2    1    2    0    0  0.00000000000E+00  0.00000000000E+00  0.54097777847E+03  0.20667069730E+04  0.19946480279E+04 0.  0.
        1    1    3    3  502    0  0.60331013395E+03 -0.34698901145E+03 -0.46964952854E+03  0.83961608577E+03  0.50400001928E-02 0.  1.
       -1    1    3    3    0  502 -0.60331013395E+03  0.34698901145E+03  0.10106273070E+04  0.12270908872E+04  0.50400001928E-02 0. -1.
</event>
<event>
 5   0  0.9140695E-06  0.2010720E+04  0.7818609E-02  0.8601625E-01
       -1   -1    0    0    0  501  0.00000000000E+00  0.00000000000E+00  0.10043237032E+04  0.10043237032E+04  0.50400001928E-02 0.  1.
        1   -1    0    0  501    0  0.00000000000E+00  0.00000000000E+00 -0.10063977669E+04  0.10063977669E+04  0.50400001928E-02 0. -1.
    10030    2    1    2    0    0  0.00000000000E+00  0.00000000000E+00 -0.20740637006E+01  0.20107214702E+04  0.20107204005E+04 0.  0.
        1    1    3    3  502    0  0.78975356804E+03 -0.32945971774E+03  0.52668924632E+03  0.10048163843E+04  0.50400001928E-02 0. -1.
       -1    1    3    3    0  502 -0.78975356804E+03  0.32945971774E+03 -0.52876331002E+03  0.10059050859E+04  0.50400001928E-02 0.  1.
</event>
<event>
 5   0  0.1979765E-05  0.2007657E+04  0.7818609E-02  0.8603049E-01
        2   -1    0    0  501    0  0.00000000000E+00  0.00000000000E+00  0.14264049648E+04  0.14264049648E+04  0.25500000920E-02 0.  1.
       -2   -1    0    0    0  501  0.00000000000E+00  0.00000000000E+00 -0.70644147475E+03  0.70644147476E+03  0.25500000920E-02 0. -1.
    10030    2    1    2    0    0  0.00000000000E+00  0.00000000000E+00  0.71996349003E+03  0.21328464395E+04  0.20076569696E+04 0.  0.
        2    1    3    3  502    0  0.37293400092E+03 -0.20855881949E+03 -0.60500661623E+03  0.74068181827E+03  0.25500000920E-02 0. -1.
       -2    1    3    3    0  502 -0.37293400092E+03  0.20855881949E+03  0.13249701063E+04  0.13921646213E+04  0.25500000920E-02 0.  1.
</event>
<event>
 5   0  0.9220260E-06  0.2000932E+04  0.7818609E-02  0.8606185E-01
        1   -1    0    0  501    0  0.00000000000E+00  0.00000000000E+00  0.14514779384E+04  0.14514779385E+04  0.50400001928E-02 0. -1.
       -1   -1    0    0    0  501  0.00000000000E+00  0.00000000000E+00 -0.68959515569E+03  0.68959515570E+03  0.50400001928E-02 0.  1.
    10030    2    1    2    0    0  0.00000000000E+00  0.00000000000E+00  0.76188278276E+03  0.21410730942E+04  0.20009319378E+04 0.  0.
        3    1    3    3  502    0 -0.23001159151E+03 -0.90752727656E+02 -0.65638341077E+03  0.70141327471E+03  0.10100000352E+00 0.  1.
       -3    1    3    3    0  502  0.23001159151E+03  0.90752727656E+02  0.14182661935E+04  0.14396598194E+04  0.10100000352E+00 0. -1.
</event>
<event>
 5   0  0.1999142E-05  0.1999675E+04  0.7818609E-02  0.8606773E-01
        2   -1    0    0  501    0  0.00000000000E+00  0.00000000000E+00  0.12363719494E+04  0.12363719494E+04  0.25500000920E-02 0.  1.
       -2   -1    0    0    0  501  0.00000000000E+00  0.00000000000E+00 -0.80855544023E+03  0.80855544023E+03  0.25500000920E-02 0. -1.
    10030    2    1    2    0    0  0.00000000000E+00  0.00000000000E+00  0.42781650913E+03  0.20449273896E+04  0.19996752394E+04 0.  0.
        1    1    3    3  502    0 -0.12486312542E+03 -0.97372344260E+03  0.40779605855E+03  0.10630267015E+04  0.50400001928E-02 0. -1.
       -1    1    3    3    0  502  0.12486312542E+03  0.97372344260E+03  0.20020450581E+02  0.98190068807E+03  0.50400001928E-02 0.  1.
</event>
<event>
 5   0  0.9220260E-06  0.1997242E+04  0.7818609E-02  0.8607911E-01
       -1   -1    0    0    0  501  0.00000000000E+00  0.00000000000E+00  0.80438991362E+03  0.80438991363E+03  0.50400001928E-02 0. -1.
        1   -1    0    0  501    0  0.00000000000E+00  0.00000000000E+00 -0.12397512565E+04  0.12397512565E+04  0.50400001928E-02 0.  1.
    10030    2    1    2    0    0  0.00000000000E+00  0.00000000000E+00 -0.43536134292E+03  0.20441411702E+04  0.19972415039E+04 0.  0.
        3    1    3    3  502    0 -0.37872537486E+03  0.97743093011E+02 -0.11580914105E+04  0.12223593363E+04  0.10100000352E+00 0.  1.
       -3    1    3    3    0  502  0.37872537486E+03 -0.97743093011E+02  0.72273006755E+03  0.82178183390E+03  0.10100000352E+00 0. -1.
</event>
<event>
 5   0  0.2020029E-05  0.1999236E+04  0.7818609E-02  0.8606978E-01
        2   -1    0    0  501    0  0.00000000000E+00  0.00000000000E+00  0.14009284329E+04  0.14009284329E+04  0.25500000920E-02 0.  1.
       -2   -1    0    0    0  501  0.00000000000E+00  0.00000000000E+00 -0.71326692275E+03  0.71326692275E+03  0.25500000920E-02 0. -1.
    10030    2    1    2    0    0  0.00000000000E+00  0.00000000000E+00  0.68766151017E+03  0.21141953557E+04  0.19992357663E+04 0.  0.
        5    1    3    3  502    0  0.26002735823E+03 -0.92709494122E+03  0.59886971250E+02  0.96474234715E+03  0.46999998093E+01 0. -1.
       -5    1    3    3    0  502 -0.26002735823E+03  0.92709494122E+03  0.62777453892E+03  0.11494530085E+04  0.46999998093E+01 0.  1.
</event>
<event>
 5   0  0.1999142E-05  0.1998700E+04  0.7818609E-02  0.8607229E-01
       -2   -1    0    0    0  501  0.00000000000E+00  0.00000000000E+00  0.54526259375E+03  0.54526259376E+03  0.25500000920E-02 0. -1.
        2   -1    0    0  501    0  0.00000000000E+00  0.00000000000E+00 -0.18315954707E+04  0.18315954707E+04  0.25500000920E-02 0.  1.
    10030    2    1    2    0    0  0.00000000000E+00  0.00000000000E+00 -0.12863328769E+04  0.23768580645E+04  0.19987000746E+04 0.  0.
        1    1    3    3  502    0 -0.47005661148E+03 -0.23625586065E+03  0.36725673726E+03  0.64159766270E+03  0.50400001928E-02 0. -1.
       -1    1    3    3    0  502  0.47005661148E+03  0.23625586065E+03 -0.16535896142E+04  0.17352604018E+04  0.50400001928E-02 0.  1.
</event>
<event>
 5   0  0.9333353E-06  0.1998972E+04  0.7818609E-02  0.8607101E-01
       -1   -1    0    0    0  501  0.00000000000E+00  0.00000000000E+00  0.35477395330E+03  0.35477395333E+03  0.50400001928E-02 0.  1.
        1   -1    0    0  501    0  0.00000000000E+00  0.00000000000E+00 -0.28157997067E+04  0.28157997067E+04  0.50400001928E-02 0. -1.
    10030    2    1    2    0    0  0.00000000000E+00  0.00000000000E+00 -0.24610257534E+04  0.31705736601E+04  0.19989721296E+04 0.  0.
        2    1    3    3  502    0 -0.78258291099E+03  0.60249138996E+03 -0.98715858677E+03  0.13963931978E+04  0.25500000920E-02 0.  1.
       -2    1    3    3    0  502  0.78258291099E+03 -0.60249138996E+03 -0.14738671667E+04  0.17741804622E+04  0.25500000920E-02 0. -1.
</event>
<event>
 5   0  0.1979765E-05  0.2000788E+04  0.7818609E-02  0.8606252E-01
        2   -1    0    0  501    0  0.00000000000E+00  0.00000000000E+00  0.20261046140E+04  0.20261046140E+04  0.25500000920E-02 0. -1.
       -2   -1    0    0    0  501  0.00000000000E+00  0.00000000000E+00 -0.49394697419E+03  0.49394697419E+03  0.25500000920E-02 0.  1.
    10030    2    1    2    0    0  0.00000000000E+00  0.00000000000E+00  0.15321576398E+04  0.25200515881E+04  0.20007880882E+04 0.  0.
        2    1    3    3  502    0 -0.42207593873E+03  0.76620356893E+03  0.15475630560E+03  0.88834988672E+03  0.25500000920E-02 0.  1.
       -2    1    3    3    0  502  0.42207593873E+03 -0.76620356893E+03  0.13774013342E+04  0.16317017014E+04  0.25500000920E-02 0. -1.
</event>
<event>
 5   0  0.1999142E-05  0.1993319E+04  0.7818609E-02  0.8609751E-01
        2   -1    0    0  501    0  0.00000000000E+00  0.00000000000E+00  0.93765455281E+03  0.93765455282E+03  0.25500000920E-02 0.  1.
       -2   -1    0    0    0  501  0.00000000000E+00  0.00000000000E+00 -0.10593776154E+04  0.10593776154E+04  0.25500000920E-02 0. -1.
    10030    2    1    2    0    0  0.00000000000E+00  0.00000000000E+00 -0.12172306260E+03  0.19970321682E+04  0.19933190856E+04 0.  0.
        1    1    3    3  502    0  0.50310660821E+03  0.58475081342E+03 -0.69313177264E+03  0.10370542065E+04  0.50400001928E-02 0. -1.
       -1    1    3    3    0  502 -0.50310660821E+03 -0.58475081342E+03  0.57140871004E+03  0.95997796170E+03  0.50400001928E-02 0.  1.
</event>
<event>
 5   0  0.9333353E-06  0.2000217E+04  0.7818609E-02  0.8606519E-01
        1   -1    0    0  501    0  0.00000000000E+00  0.00000000000E+00  0.10691783324E+04  0.10691783324E+04  0.50400001928E-02 0. -1.
       -1   -1    0    0    0  501  0.00000000000E+00  0.00000000000E+00 -0.93550061405E+03  0.93550061406E+03  0.50400001928E-02 0.  1.
    10030    2    1    2    0    0  0.00000000000E+00  0.00000000000E+00  0.13367771837E+03  0.20046789465E+04  0.20002169748E+04 0.  0.
        2    1    3    3  502    0 -0.49063477767E+03 -0.23681854258E+03  0.90740607325E+03  0.10583908961E+04  0.25500000920E-02 0. -1.
       -2    1    3    3    0  502  0.49063477767E+03  0.23681854258E+03 -0.77372835488E+03  0.94628805039E+03  0.25500000920E-02 0.  1.
</event>
<event>
 5   0  0.9370269E-06  0.1998818E+04  0.7818609E-02  0.8607174E-01
       -1   -1    0    0    0  501  0.00000000000E+00  0.00000000000E+00  0.12647428092E+04  0.12647428092E+04  0.50400001928E-02 0.  1.
        1   -1    0    0  501    0  0.00000000000E+00  0.00000000000E+00 -0.78973996644E+03  0.78973996645E+03  0.50400001928E-02 0. -1.
    10030    2    1    2    0    0  0.00000000000E+00  0.00000000000E+00  0.47500284280E+03  0.20544827757E+04  0.19988175942E+04 0.  0.
        4    1    3    3  502    0  0.48346094852E+03 -0.70860439936E+03  0.76458021938E+03  0.11491036543E+04  0.12699999809E+01 0.  1.
       -4    1    3    3    0  502 -0.48346094852E+03  0.70860439936E+03 -0.28957737659E+03  0.90537912140E+03  0.12699999809E+01 0. -1.
</event>
<event>
 5   0  0.2020029E-05  0.2004117E+04  0.7818609E-02  0.8604698E-01
        2   -1    0    0  501    0  0.00000000000E+00  0.00000000000E+00  0.98382787169E+03  0.98382787170E+03  0.25500000920E-02 0.  1.
       -2   -1    0    0    0  501  0.00000000000E+00  0.00000000000E+00 -0.10206266017E+04  0.10206266017E+04  0.25500000920E-02 0. -1.
    10030    2    1    2    0    0  0.00000000000E+00  0.00000000000E+00 -0.36798730002E+02  0.20044544734E+04  0.20041166606E+04 0.  0.
        5    1    3    3  502    0 -0.73006118753E+02  0.70712119079E+03  0.68794098300E+03  0.98925990414E+03  0.46999998093E+01 0.  1.
       -5    1    3    3    0  502  0.73006118753E+02 -0.70712119079E+03 -0.72473971300E+03  0.10151945693E+04  0.46999998093E+01 0. -1.
</event>
<event>
 5   0  0.9220260E-06  0.1995944E+04  0.7818609E-02  0.8608519E-01
       -1   -1    0    0    0  501  0.00000000000E+00  0.00000000000E+00  0.66103906772E+03  0.66103906773E+03  0.50400001928E-02 0.  1.
        1   -1    0    0  501    0  0.00000000000E+00  0.00000000000E+00 -0.15066402709E+04  0.15066402709E+04  0.50400001928E-02 0. -1.
    10030    2    1    2    0    0  0.00000000000E+00  0.00000000000E+00 -0.84560120317E+03  0.21676793386E+04  0.19959439672E+04 0.  0.
        3    1    3    3  502    0 -0.50387996326E+03  0.79772013398E+03 -0.69718884294E+02  0.94610420280E+03  0.10100000352E+00 0.  1.
       -3    1    3    3    0  502  0.50387996326E+03 -0.79772013398E+03 -0.77588231887E+03  0.12215751358E+04  0.10100000352E+00 0. -1.
</event>
<event>
 5   0  0.9220260E-06  0.2024856E+04  0.7818609E-02  0.8595087E-01
       -1   -1    0    0    0  501  0.00000000000E+00  0.00000000000E+00  0.60567177930E+03  0.60567177932E+03  0.50400001928E-02 0.  1.
        1   -1    0    0  501    0  0.00000000000E+00  0.00000000000E+00 -0.16923533060E+04  0.16923533060E+04  0.50400001928E-02 0. -1.
    10030    2    1    2    0    0  0.00000000000E+00  0.00000000000E+00 -0.10866815267E+04  0.22980250854E+04  0.20248561807E+04 0.  0.
        3    1    3    3  502    0 -0.10054475102E+04  0.10141427941E+03 -0.47337044259E+03  0.11159252385E+04  0.10100000352E+00 0.  1.
       -3    1    3    3    0  502  0.10054475102E+04 -0.10141427941E+03 -0.61331108413E+03  0.11820998469E+04  0.10100000352E+00 0. -1.
</event>
<event>
 5   0  0.2038882E-05  0.2001996E+04  0.7818609E-02  0.8605688E-01
        2   -1    0    0  501    0  0.00000000000E+00  0.00000000000E+00  0.86232790676E+03  0.86232790677E+03  0.25500000920E-02 0.  1.
       -2   -1    0    0    0  501  0.00000000000E+00  0.00000000000E+00 -0.11619671665E+04  0.11619671666E+04  0.25500000920E-02 0. -1.
    10030    2    1    2    0    0  0.00000000000E+00  0.00000000000E+00 -0.29963925979E+03  0.20242950733E+04  0.20019957187E+04 0.  0.
        3    1    3    3  502    0 -0.19579848390E+03 -0.78875702620E+03  0.44108857954E+03  0.92468039770E+03  0.10100000352E+00 0.  1.
       -3    1    3    3    0  502  0.19579848390E+03  0.78875702620E+03 -0.74072783933E+03  0.10996146756E+04  0.10100000352E+00 0. -1.
</event>
<event>
 5   0  0.2020029E-05  0.2003894E+04  0.7818609E-02  0.8604802E-01
        2   -1    0    0  501    0  0.00000000000E+00  0.00000000000E+00  0.77737421606E+03  0.77737421606E+03  0.25500000920E-02 0. -1.
       -2   -1    0    0    0  501  0.00000000000E+00  0.00000000000E+00 -0.12913962104E+04  0.12913962104E+04  0.25500000920E-02 0.  1.
    10030    2    1    2    0    0  0.00000000000E+00  0.00000000000E+00 -0.51402199437E+03  0.20687704265E+04  0.20038943253E+04 0.  0.
        5    1    3    3  502    0 -0.20240786448E+03 -0.93791855803E+03  0.40799869810E+02  0.96038892355E+03  0.46999998093E+01 0. -1.
       -5    1    3    3    0  502  0.20240786448E+03  0.93791855803E+03 -0.55482186418E+03  0.11083815029E+04  0.46999998093E+01 0.  1.
</event>
<event>
 5   0  0.9342635E-06  0.1998411E+04  0.7818609E-02  0.8607364E-01
        1   -1    0    0  501    0  0.00000000000E+00  0.00000000000E+00  0.12723443149E+04  0.12723443149E+04  0.50400001928E-02 0. -1.
       -1   -1    0    0    0  501  0.00000000000E+00  0.00000000000E+00 -0.78470276894E+03  0.78470276895E+03  0.50400001928E-02 0.  1.
    10030    2    1    2    0    0  0.00000000000E+00  0.00000000000E+00  0.48764154597E+03  0.20570470839E+04  0.19984114761E+04 0.  0.
        5    1    3    3  502    0  0.61663022662E+03  0.40557342422E+03  0.93713177690E+03  0.11928791624E+04  0.46999998093E+01 0. -1.
       -5    1    3    3    0  502 -0.61663022662E+03 -0.40557342422E+03 -0.44949023093E+03  0.86416792148E+03  0.46999998093E+01 0.  1.
</event>
<event>
 5   0  0.9333353E-06  0.2000557E+04  0.7818609E-02  0.8606360E-01
       -1   -1    0    0    0  501  0.00000000000E+00  0.00000000000E+00  0.87978402021E+03  0.87978402023E+03  0.50400001928E-02 0. -1.
        1   -1    0    0  501    0  0.00000000000E+00  0.00000000000E+00 -0.11372760068E+04  0.11372760068E+04  0.50400001928E-02 0.  1.
    10030    2    1    2    0    0  0.00000000000E+00  0.00000000000E+00 -0.25749198662E+03  0.20170600271E+04  0.20005571798E+04 0.  0.
        2    1    3    3  502    0  0.17186020779E+03  0.20167857064E+03 -0.11012476584E+04  0.11326767332E+04  0.25500000920E-02 0.  1.
       -2    1    3    3    0  502 -0.17186020779E+03 -0.20167857064E+03  0.84375567174E+03  0.88438329387E+03  0.25500000920E-02 0. -1.
</event>
<event>
 5   0  0.2003576E-05  0.2002577E+04  0.7818609E-02  0.8605417E-01
        2   -1    0    0  501    0  0.00000000000E+00  0.00000000000E+00  0.19805876128E+04  0.19805876128E+04  0.25500000920E-02 0. -1.
       -2   -1    0    0    0  501  0.00000000000E+00  0.00000000000E+00 -0.50620238398E+03  0.50620238398E+03  0.25500000920E-02 0.  1.
    10030    2    1    2    0    0  0.00000000000E+00  0.00000000000E+00  0.14743852289E+04  0.24867899968E+04  0.20025765117E+04 0.  0.
        4    1    3    3  502    0  0.32742583430E+03  0.94527225732E+03  0.79030373364E+03  0.12748838856E+04  0.12699999809E+01 0. -1.
       -4    1    3    3    0  502 -0.32742583430E+03 -0.94527225732E+03  0.68408149522E+03  0.12119061112E+04  0.12699999809E+01 0.  1.
</event>
<event>
 5   0  0.2020029E-05  0.2001337E+04  0.7818609E-02  0.8605996E-01
        2   -1    0    0  501    0  0.00000000000E+00  0.00000000000E+00  0.14893315671E+04  0.14893315671E+04  0.25500000920E-02 0. -1.
       -2   -1    0    0    0  501  0.00000000000E+00  0.00000000000E+00 -0.67233986288E+03  0.67233986289E+03  0.25500000920E-02 0.  1.
    10030    2    1    2    0    0  0.00000000000E+00  0.00000000000E+00  0.81699170427E+03  0.21616714300E+04  0.20013365351E+04 0.  0.
        5    1    3    3  502    0  0.74049218129E+03 -0.34354841670E+03  0.10336203101E+04  0.13170980300E+04  0.46999998093E+01 0. -1.
       -5    1    3    3    0  502 -0.74049218129E+03  0.34354841670E+03 -0.21662860584E+03  0.84457340003E+03  0.46999998093E+01 0.  1.
</event>
<event>
 5   0  0.9140695E-06  0.2003756E+04  0.7818609E-02  0.8604867E-01
        1   -1    0    0  501    0  0.00000000000E+00  0.00000000000E+00  0.11576213387E+04  0.11576213387E+04  0.50400001928E-02 0.  1.
       -1   -1    0    0    0  501  0.00000000000E+00  0.00000000000E+00 -0.86708807216E+03  0.86708807217E+03  0.50400001928E-02 0. -1.
    10030    2    1    2    0    0  0.00000000000E+00  0.00000000000E+00  0.29053326658E+03  0.20247094109E+04  0.20037561278E+04 0.  0.
        1    1    3    3  502    0  0.33545755053E+03  0.13740694728E+03 -0.79849545646E+03  0.87693068790E+03  0.50400001928E-02 0. -1.
       -1    1    3    3    0  502 -0.33545755053E+03 -0.13740694728E+03  0.10890287230E+04  0.11477787230E+04  0.50400001928E-02 0.  1.
</event>
<event>
 5   0  0.1979765E-05  0.1938813E+04  0.7818609E-02  0.8635774E-01
       -2   -1    0    0    0  501  0.00000000000E+00  0.00000000000E+00  0.12308557800E+04  0.12308557800E+04  0.25500000920E-02 0. -1.
        2   -1    0    0  501    0  0.00000000000E+00  0.00000000000E+00 -0.76349225084E+03  0.76349225084E+03  0.25500000920E-02 0.  1.
    10030    2    1    2    0    0  0.00000000000E+00  0.00000000000E+00  0.46736352913E+03  0.19943480308E+04  0.19388128841E+04 0.  0.
        2    1    3    3  502    0  0.50266223008E+03 -0.64448531023E+03 -0.30251529722E+03  0.87151944196E+03  0.25500000920E-02 0.  1.
       -2    1    3    3    0  502 -0.50266223008E+03  0.64448531023E+03  0.76987882635E+03  0.11228285888E+04  0.25500000920E-02 0. -1.
</event>
<event>
 5   0  0.9333353E-06  0.2000865E+04  0.7818609E-02  0.8606216E-01
        1   -1    0    0  501    0  0.00000000000E+00  0.00000000000E+00  0.12209230202E+04  0.12209230203E+04  0.50400001928E-02 0. -1.
       -1   -1    0    0    0  501  0.00000000000E+00  0.00000000000E+00 -0.81976092937E+03  0.81976092938E+03  0.50400001928E-02 0.  1.
    10030    2    1    2    0    0  0.00000000000E+00  0.00000000000E+00  0.40116209088E+03  0.20406839496E+04  0.20008648028E+04 0.  0.
        2    1    3    3  502    0  0.18930759956E+03  0.97254923538E+03  0.34181286927E+03  0.10481056340E+04  0.25500000920E-02 0. -1.
       -2    1    3    3    0  502 -0.18930759956E+03 -0.97254923538E+03  0.59349221614E+02  0.99257831561E+03  0.25500000920E-02 0.  1.
</event>
<event>
 5   0  0.1999142E-05  0.1975323E+04  0.7818609E-02  0.8618246E-01
       -2   -1    0    0    0  501  0.00000000000E+00  0.00000000000E+00  0.52479845986E+03  0.52479845986E+03  0.25500000920E-02 0.  1.
        2   -1    0    0  501    0  0.00000000000E+00  0.00000000000E+00 -0.18587613689E+04  0.18587613689E+04  0.25500000920E-02 0. -1.
    10030    2    1    2    0    0  0.00000000000E+00  0.00000000000E+00 -0.13339629091E+04  0.23835598288E+04  0.19753228634E+04 0.  0.
        1    1    3    3  502    0  0.16100720558E+03  0.43940129678E+03  0.38252762368E+03  0.60442055124E+03  0.50400001928E-02 0.  1.
       -1    1    3    3    0  502 -0.16100720558E+03 -0.43940129678E+03 -0.17164905328E+04  0.17791392776E+04  0.50400001928E-02 0. -1.
</event>
<event>
 5   0  0.9220260E-06  0.1998405E+04  0.7818609E-02  0.8607367E-01
        1   -1    0    0  501    0  0.00000000000E+00  0.00000000000E+00  0.14211063267E+04  0.14211063267E+04  0.50400001928E-02 0. -1.
       -1   -1    0    0    0  501  0.00000000000E+00  0.00000000000E+00 -0.70255512676E+03  0.70255512677E+03  0.50400001928E-02 0.  1.
    10030    2    1    2    0    0  0.00000000000E+00  0.00000000000E+00  0.71855119998E+03  0.21236614535E+04  0.19984048995E+04 0.  0.
        3    1    3    3  502    0  0.66831414242E+03  0.73560118000E+03  0.46895633435E+03  0.10989417376E+04  0.10100000352E+00 0.  1.
       -3    1    3    3    0  502 -0.66831414242E+03 -0.73560118000E+03  0.24959486562E+03  0.10247197159E+04  0.10100000352E+00 0. -1.
</event>
<event>
 5   0  0.9220260E-06  0.1999882E+04  0.7818609E-02  0.8606676E-01
        1   -1    0    0  501    0  0.00000000000E+00  0.00000000000E+00  0.82198738998E+03  0.82198738999E+03  0.50400001928E-02 0.  1.
       -1   -1    0    0    0  501  0.00000000000E+00  0.00000000000E+00 -0.12164202288E+04  0.12164202288E+04  0.50400001928E-02 0. -1.
    10030    2    1    2    0    0  0.00000000000E+00  0.00000000000E+00 -0.39443283881E+03  0.20384076188E+04  0.19998820855E+04 0.  0.
        3    1    3    3  502    0 -0.45177685674E+03  0.42422234550E+03  0.60263962124E+03  0.86443128704E+03  0.10100000352E+00 0.  1.
       -3    1    3    3    0  502  0.45177685674E+03 -0.42422234550E+03 -0.99707246006E+03  0.11739763318E+04  0.10100000352E+00 0. -1.
</event>
<event>
 5   0  0.2003576E-05  0.2027725E+04  0.7818609E-02  0.8593767E-01
       -2   -1    0    0    0  501  0.00000000000E+00  0.00000000000E+00  0.65387689340E+03  0.65387689341E+03  0.25500000920E-02 0.  1.
        2   -1    0    0  501    0  0.00000000000E+00  0.00000000000E+00 -0.15720348395E+04  0.15720348395E+04  0.25500000920E-02 0. -1.
    10030    2    1    2    0    0  0.00000000000E+00  0.00000000000E+00 -0.91815794605E+03  0.22259117329E+04  0.20277250870E+04 0.  0.
        4    1    3    3  502    0 -0.68031262280E+03  0.60221726810E+03 -0.95296945993E+03  0.13166788930E+04  0.12699999809E+01 0. -1.
       -4    1    3    3    0  502  0.68031262280E+03 -0.60221726810E+03  0.34811513880E+02  0.90923283989E+03  0.12699999809E+01 0.  1.
</event>
<event>
 5   0  0.1999142E-05  0.1973181E+04  0.7818609E-02  0.8619263E-01
        2   -1    0    0  501    0  0.00000000000E+00  0.00000000000E+00  0.18853700605E+04  0.18853700605E+04  0.25500000920E-02 0.  1.
       -2   -1    0    0    0  501  0.00000000000E+00  0.00000000000E+00 -0.51627066524E+03  0.51627066524E+03  0.25500000920E-02 0. -1.
    10030    2    1    2    0    0  0.00000000000E+00  0.00000000000E+00  0.13690993952E+04  0.24016407257E+04  0.19731814466E+04 0.  0.
        1    1    3    3  502    0  0.86039121227E+02  0.96489307470E+03  0.45703905530E+03  0.10711237436E+04  0.50400001928E-02 0. -1.
       -1    1    3    3    0  502 -0.86039121227E+02 -0.96489307470E+03  0.91206033992E+03  0.13305169821E+04  0.50400001928E-02 0.  1.
</event>
<event>
 5   0  0.7132000E-06  0.2002795E+04  0.7818609E-02  0.8605315E-01
        4   -1    0    0  501    0  0.00000000000E+00  0.00000000000E+00  0.70605256705E+03  0.70605370924E+03  0.12699999809E+01 0. -1.
       -4   -1    0    0    0  501  0.00000000000E+00  0.00000000000E+00 -0.14202833573E+04  0.14202839251E+04  0.12699999809E+01 0.  1.
    10030    2    1    2    0    0  0.00000000000E+00  0.00000000000E+00 -0.71423079021E+03  0.21263376343E+04  0.20027945759E+04 0.  0.
        5    1    3    3  502    0 -0.79878716169E+02 -0.83229338264E+03 -0.94218161798E+03  0.12596909047E+04  0.46999998093E+01 0.  1.
       -5    1    3    3    0  502  0.79878716169E+02  0.83229338264E+03  0.22795082777E+03  0.86664672962E+03  0.46999998093E+01 0. -1.
</event>
<event>
 5   0  0.9370269E-06  0.2000483E+04  0.7818609E-02  0.8606395E-01
        1   -1    0    0  501    0  0.00000000000E+00  0.00000000000E+00  0.24652236176E+04  0.24652236176E+04  0.50400001928E-02 0. -1.
       -1   -1    0    0    0  501  0.00000000000E+00  0.00000000000E+00 -0.40583884046E+03  0.40583884049E+03  0.50400001928E-02 0.  1.
    10030    2    1    2    0    0  0.00000000000E+00  0.00000000000E+00  0.20593847772E+04  0.28710624581E+04  0.20004834361E+04 0.  0.
        4    1    3    3  502    0  0.88927551308E+03  0.29932232747E+03  0.15270144827E+04  0.17922554609E+04  0.12699999809E+01 0.  1.
       -4    1    3    3    0  502 -0.88927551308E+03 -0.29932232747E+03  0.53237029445E+03  0.10788069972E+04  0.12699999809E+01 0. -1.
</event>
<event>
 5   0  0.9342635E-06  0.2001128E+04  0.7818609E-02  0.8606094E-01
       -1   -1    0    0    0  501  0.00000000000E+00  0.00000000000E+00  0.45012121107E+03  0.45012121110E+03  0.50400001928E-02 0. -1.
        1   -1    0    0  501    0  0.00000000000E+00  0.00000000000E+00 -0.22241300094E+04  0.22241300094E+04  0.50400001928E-02 0.  1.
    10030    2    1    2    0    0  0.00000000000E+00  0.00000000000E+00 -0.17740087983E+04  0.26742512205E+04  0.20011277755E+04 0.  0.
        5    1    3    3  502    0 -0.30836165390E+03 -0.93946429441E+03 -0.10915432608E+04  0.14728098486E+04  0.46999998093E+01 0. -1.
       -5    1    3    3    0  502  0.30836165390E+03  0.93946429441E+03 -0.68246553750E+03  0.12014413718E+04  0.46999998093E+01 0.  1.
</event>
<event>
 5   0  0.1979765E-05  0.1997454E+04  0.7818609E-02  0.8607812E-01
        2   -1    0    0  501    0  0.00000000000E+00  0.00000000000E+00  0.81423706114E+03  0.81423706115E+03  0.25500000920E-02 0.  1.
       -2   -1    0    0    0  501  0.00000000000E+00  0.00000000000E+00 -0.12250186038E+04  0.12250186038E+04  0.25500000920E-02 0. -1.
    10030    2    1    2    0    0  0.00000000000E+00  0.00000000000E+00 -0.41078154266E+03  0.20392556650E+04  0.19974539272E+04 0.  0.
        2    1    3    3  502    0  0.80801632639E+03 -0.49553238173E+03 -0.52663891565E+03  0.10843390948E+04  0.25500000920E-02 0. -1.
       -2    1    3    3    0  502 -0.80801632639E+03  0.49553238173E+03  0.11585737299E+03  0.95491657014E+03  0.25500000920E-02 0.  1.
</event>
<event>
 5   0  0.9370269E-06  0.2000845E+04  0.7818609E-02  0.8606226E-01
        1   -1    0    0  501    0  0.00000000000E+00  0.00000000000E+00  0.14453829604E+04  0.14453829604E+04  0.50400001928E-02 0. -1.
       -1   -1    0    0    0  501  0.00000000000E+00  0.00000000000E+00 -0.69244273288E+03  0.69244273290E+03  0.50400001928E-02 0.  1.
    10030    2    1    2    0    0  0.00000000000E+00  0.00000000000E+00  0.75294022748E+03  0.21378256933E+04  0.20008447488E+04 0.  0.
        4    1    3    3  502    0 -0.17610499167E+03 -0.56282672221E+03 -0.48697404222E+03  0.76480861529E+03  0.12699999809E+01 0.  1.
       -4    1    3    3    0  502  0.17610499167E+03  0.56282672221E+03  0.12399142697E+04  0.13730170780E+04  0.12699999809E+01 0. -1.
</event>
<event>
 5   0  0.2020029E-05  0.2004117E+04  0.7818609E-02  0.8604698E-01
       -2   -1    0    0    0  501  0.00000000000E+00  0.00000000000E+00  0.68984081395E+03  0.68984081395E+03  0.25500000920E-02 0.  1.
        2   -1    0    0  501    0  0.00000000000E+00  0.00000000000E+00 -0.14555845546E+04  0.14555845546E+04  0.25500000920E-02 0. -1.
    10030    2    1    2    0    0  0.00000000000E+00  0.00000000000E+00 -0.76574374067E+03  0.21454253686E+04  0.20041173957E+04 0.  0.
        5    1    3    3  502    0  0.50783635564E+03 -0.72230865311E+03 -0.89006262890E+03  0.12537388595E+04  0.46999998093E+01 0.  1.
       -5    1    3    3    0  502 -0.50783635564E+03  0.72230865311E+03  0.12431888824E+03  0.89168650906E+03  0.46999998093E+01 0. -1.
</event>
<event>
 5   0  0.9342635E-06  0.2001175E+04  0.7818609E-02  0.8606071E-01
       -1   -1    0    0    0  501  0.00000000000E+00  0.00000000000E+00  0.41298449706E+03  0.41298449709E+03  0.50400001928E-02 0.  1.
        1   -1    0    0  501    0  0.00000000000E+00  0.00000000000E+00 -0.24242448952E+04  0.24242448952E+04  0.50400001928E-02 0. -1.
    10030    2    1    2    0    0  0.00000000000E+00  0.00000000000E+00 -0.20112603982E+04  0.28372293923E+04  0.20011752136E+04 0.  0.
        5    1    3    3  502    0  0.24062899922E+02  0.62918107663E+03  0.96876754005E+02  0.63706753630E+03  0.46999998093E+01 0.  1.
       -5    1    3    3    0  502 -0.24062899922E+02 -0.62918107663E+03 -0.21081371522E+04  0.22001618560E+04  0.46999998093E+01 0. -1.
</event>
<event>
 5   0  0.9140695E-06  0.2002009E+04  0.7818609E-02  0.8605682E-01
       -1   -1    0    0    0  501  0.00000000000E+00  0.00000000000E+00  0.13734924756E+04  0.13734924756E+04  0.50400001928E-02 0.  1.
        1   -1    0    0  501    0  0.00000000000E+00  0.00000000000E+00 -0.72953476217E+03  0.72953476219E+03  0.50400001928E-02 0. -1.
    10030    2    1    2    0    0  0.00000000000E+00  0.00000000000E+00  0.64395771339E+03  0.21030272378E+04  0.20020094970E+04 0.  0.
        1    1    3    3  502    0 -0.66258353200E+03  0.68190193305E+03  0.65082985590E+03  0.11522094794E+04  0.50400001928E-02 0. -1.
       -1    1    3    3    0  502  0.66258353200E+03 -0.68190193305E+03 -0.68721425018E+01  0.95081775832E+03  0.50400001928E-02 0.  1.
</event>
<event>
 5   0  0.1979765E-05  0.1997451E+04  0.7818609E-02  0.8607813E-01
        2   -1    0    0  501    0  0.00000000000E+00  0.00000000000E+00  0.14031253874E+04  0.14031253874E+04  0.25500000920E-02 0.  1.
       -2   -1    0    0    0  501  0.00000000000E+00  0.00000000000E+00 -0.71087928456E+03  0.71087928457E+03  0.25500000920E-02 0. -1.
    10030    2    1    2    0    0  0.00000000000E+00  0.00000000000E+00  0.69224610288E+03  0.21140046720E+04  0.19974511474E+04 0.  0.
        2    1    3    3  502    0  0.26698980098E+03 -0.17384401255E+03  0.13479000409E+04  0.13850414487E+04  0.25500000920E-02 0.  1.
       -2    1    3    3    0  502 -0.26698980098E+03  0.17384401255E+03 -0.65565393797E+03  0.72896322329E+03  0.25500000920E-02 0. -1.
</event>
<event>
 5   0  0.9342635E-06  0.2001284E+04  0.7818609E-02  0.8606020E-01
        1   -1    0    0  501    0  0.00000000000E+00  0.00000000000E+00  0.67711260193E+03  0.67711260195E+03  0.50400001928E-02 0.  1.
       -1   -1    0    0    0  501  0.00000000000E+00  0.00000000000E+00 -0.14787567674E+04  0.14787567674E+04  0.50400001928E-02 0. -1.
    10030    2    1    2    0    0  0.00000000000E+00  0.00000000000E+00 -0.80164416543E+03  0.21558693693E+04  0.20012844300E+04 0.  0.
        5    1    3    3  502    0 -0.66929214645E+03 -0.70303415574E+03 -0.66260262900E+03  0.11752758550E+04  0.46999998093E+01 0. -1.
       -5    1    3    3    0  502  0.66929214645E+03  0.70303415574E+03 -0.13904153643E+03  0.98059351430E+03  0.46999998093E+01 0.  1.
</event>
<event>
 5   0  0.1999142E-05  0.2001291E+04  0.7818609E-02  0.8606017E-01
       -2   -1    0    0    0  501  0.00000000000E+00  0.00000000000E+00  0.58707917287E+03  0.58707917288E+03  0.25500000920E-02 0. -1.
        2   -1    0    0  501    0  0.00000000000E+00  0.00000000000E+00 -0.17055477997E+04  0.17055477997E+04  0.25500000920E-02 0.  1.
    10030    2    1    2    0    0  0.00000000000E+00  0.00000000000E+00 -0.11184686268E+04  0.22926269726E+04  0.20012911748E+04 0.  0.
        1    1    3    3  502    0 -0.44876720285E+03  0.44628111246E+03 -0.14471337381E+04  0.15794793097E+04  0.50400001928E-02 0.  1.
       -1    1    3    3    0  502  0.44876720285E+03 -0.44628111246E+03  0.32866511129E+03  0.71314766289E+03  0.50400001928E-02 0. -1.
</event>
<event>
 5   0  0.9140695E-06  0.1999234E+04  0.7818609E-02  0.8606979E-01
        1   -1    0    0  501    0  0.00000000000E+00  0.00000000000E+00  0.22663555439E+04  0.22663555439E+04  0.50400001928E-02 0.  1.
       -1   -1    0    0    0  501  0.00000000000E+00  0.00000000000E+00 -0.44089916984E+03  0.44089916987E+03  0.50400001928E-02 0. -1.
    10030    2    1    2    0    0  0.00000000000E+00  0.00000000000E+00  0.18254563741E+04  0.27072547138E+04  0.19992341313E+04 0.  0.
        1    1    3    3  502    0  0.71728387841E+03 -0.53433699614E+03  0.15171417582E+04  0.17611732743E+04  0.50400001928E-02 0.  1.
       -1    1    3    3    0  502 -0.71728387841E+03  0.53433699614E+03  0.30831461583E+03  0.94608143943E+03  0.50400001928E-02 0. -1.
</event>
<event>
 5   0  0.9333353E-06  0.1990652E+04  0.7818609E-02  0.8611004E-01
       -1   -1    0    0    0  501  0.00000000000E+00  0.00000000000E+00  0.16618566486E+04  0.16618566487E+04  0.50400001928E-02 0. -1.
        1   -1    0    0  501    0  0.00000000000E+00  0.00000000000E+00 -0.59612451775E+03  0.59612451777E+03  0.50400001928E-02 0.  1.
    10030    2    1    2    0    0  0.00000000000E+00  0.00000000000E+00  0.10657321309E+04  0.22579811664E+04  0.19906516453E+04 0.  0.
        2    1    3    3  502    0  0.14498573823E+03 -0.96267689747E+03  0.76782023230E+03  0.12398853102E+04  0.25500000920E-02 0. -1.
       -2    1    3    3    0  502 -0.14498573823E+03  0.96267689747E+03  0.29791189859E+03  0.10180958563E+04  0.25500000920E-02 0.  1.
</event>
<event>
 5   0  0.2003576E-05  0.2002562E+04  0.7818609E-02  0.8605424E-01
       -2   -1    0    0    0  501  0.00000000000E+00  0.00000000000E+00  0.11437196194E+04  0.11437196194E+04  0.25500000920E-02 0.  1.
        2   -1    0    0  501    0  0.00000000000E+00  0.00000000000E+00 -0.87658160188E+03  0.87658160188E+03  0.25500000920E-02 0. -1.
    10030    2    1    2    0    0  0.00000000000E+00  0.00000000000E+00  0.26713801756E+03  0.20203012213E+04  0.20025619352E+04 0.  0.
        4    1    3    3  502    0 -0.78342766640E+02  0.20796173132E+03 -0.85138689013E+03  0.87991301864E+03  0.12699999809E+01 0. -1.
       -4    1    3    3    0  502  0.78342766640E+02 -0.20796173132E+03  0.11185249077E+04  0.11403882027E+04  0.12699999809E+01 0.  1.
</event>
<event>
 5   0  0.1979765E-05  0.2004221E+04  0.7818609E-02  0.8604650E-01
        2   -1    0    0  501    0  0.00000000000E+00  0.00000000000E+00  0.22983264809E+04  0.22983264809E+04  0.25500000920E-02 0.  1.
       -2   -1    0    0    0  501  0.00000000000E+00  0.00000000000E+00 -0.43693778988E+03  0.43693778988E+03  0.25500000920E-02 0. -1.
    10030    2    1    2    0    0  0.00000000000E+00  0.00000000000E+00  0.18613886910E+04  0.27352642708E+04  0.20042212383E+04 0.  0.
        2    1    3    3  502    0 -0.43054149179E+03 -0.32621663436E+03 -0.22124210031E+03  0.58372196776E+03  0.25500000920E-02 0. -1.
       -2    1    3    3    0  502  0.43054149179E+03  0.32621663436E+03  0.20826307913E+04  0.21515423030E+04  0.25500000920E-02 0.  1.
</event>
<event>
 5   0  0.2003576E-05  0.2000745E+04  0.7818609E-02  0.8606272E-01
        2   -1    0    0  501    0  0.00000000000E+00  0.00000000000E+00  0.13738586778E+04  0.13738586778E+04  0.25500000920E-02 0.  1.
       -2   -1    0    0    0  501  0.00000000000E+00  0.00000000000E+00 -0.72841959310E+03  0.72841959310E+03  0.25500000920E-02 0. -1.
    10030    2    1    2    0    0  0.00000000000E+00  0.00000000000E+00  0.64543908471E+03  0.21022782709E+04  0.20007454401E+04 0.  0.
        4    1    3    3  502    0  0.42625530785E+03 -0.58725601480E+03  0.10462725050E+04  0.12732835435E+04  0.12699999809E+01 0.  1.
       -4    1    3    3    0  502 -0.42625530785E+03  0.58725601480E+03 -0.40083342031E+03  0.82899472744E+03  0.12699999809E+01 0. -1.
</event>
<event>
 5   0  0.9333353E-06  0.2005472E+04  0.7818609E-02  0.8604067E-01
        1   -1    0    0  501    0  0.00000000000E+00  0.00000000000E+00  0.17124599015E+04  0.17124599015E+04  0.50400001928E-02 0.  1.
       -1   -1    0    0    0  501  0.00000000000E+00  0.00000000000E+00 -0.58715486573E+03  0.58715486575E+03  0.50400001928E-02 0. -1.
    10030    2    1    2    0    0  0.00000000000E+00  0.00000000000E+00  0.11253050358E+04  0.22996147673E+04  0.20054716787E+04 0.  0.
        2    1    3    3  502    0 -0.10815645636E+03 -0.94236156189E+03  0.93551617776E+03  0.13322663590E+04  0.25500000920E-02 0.  1.
       -2    1    3    3    0  502  0.10815645636E+03  0.94236156189E+03  0.18978885800E+03  0.96734840828E+03  0.25500000920E-02 0. -1.
</event>
<event>
 5   0  0.1999142E-05  0.2000662E+04  0.7818609E-02  0.8606311E-01
       -2   -1    0    0    0  501  0.00000000000E+00  0.00000000000E+00  0.90270609978E+03  0.90270609978E+03  0.25500000920E-02 0.  1.
        2   -1    0    0  501    0  0.00000000000E+00  0.00000000000E+00 -0.11085142277E+04  0.11085142277E+04  0.25500000920E-02 0. -1.
    10030    2    1    2    0    0  0.00000000000E+00  0.00000000000E+00 -0.20580812795E+03  0.20112203275E+04  0.20006624454E+04 0.  0.
        1    1    3    3  502    0  0.60749760783E+03 -0.19978161105E+03 -0.87618149872E+03  0.10847396251E+04  0.50400001928E-02 0. -1.
       -1    1    3    3    0  502 -0.60749760783E+03  0.19978161105E+03  0.67037337076E+03  0.92648070238E+03  0.50400001928E-02 0.  1.
</event>
<event>
 5   0  0.9370269E-06  0.2001456E+04  0.7818609E-02  0.8605940E-01
        1   -1    0    0  501    0  0.00000000000E+00  0.00000000000E+00  0.19579176422E+04  0.19579176422E+04  0.50400001928E-02 0.  1.
       -1   -1    0    0    0  501  0.00000000000E+00  0.00000000000E+00 -0.51149079259E+03  0.51149079261E+03  0.50400001928E-02 0. -1.
    10030    2    1    2    0    0  0.00000000000E+00  0.00000000000E+00  0.14464268497E+04  0.24694084349E+04  0.20014563165E+04 0.  0.
        4    1    3    3  502    0 -0.64340230739E+03 -0.19392996536E+03 -0.19170152372E+03  0.69880358307E+03  0.12699999809E+01 0. -1.
       -4    1    3    3    0  502  0.64340230739E+03  0.19392996536E+03  0.16381283734E+04  0.17706048518E+04  0.12699999809E+01 0.  1.
</event>
<event>
 5   0  0.9333353E-06  0.1994370E+04  0.7818609E-02  0.8609257E-01
       -1   -1    0    0    0  501  0.00000000000E+00  0.00000000000E+00  0.66412514364E+03  0.66412514366E+03  0.50400001928E-02 0.  1.
        1   -1    0    0  501    0  0.00000000000E+00  0.00000000000E+00 -0.14972748490E+04  0.14972748491E+04  0.50400001928E-02 0. -1.
    10030    2    1    2    0    0  0.00000000000E+00  0.00000000000E+00 -0.83314970541E+03  0.21613999927E+04  0.19943699499E+04 0.  0.
        2    1    3    3  502    0 -0.46160293053E+03 -0.50145693392E+03  0.37228968064E+03  0.77661826425E+03  0.25500000920E-02 0.  1.
       -2    1    3    3    0  502  0.46160293053E+03  0.50145693392E+03 -0.12054393860E+04  0.13847817285E+04  0.25500000920E-02 0. -1.
</event>
<event>
 5   0  0.9140695E-06  0.1999031E+04  0.7818609E-02  0.8607074E-01
        1   -1    0    0  501    0  0.00000000000E+00  0.00000000000E+00  0.16179007513E+04  0.16179007513E+04  0.50400001928E-02 0. -1.
       -1   -1    0    0    0  501  0.00000000000E+00  0.00000000000E+00 -0.61748609422E+03  0.61748609424E+03  0.50400001928E-02 0.  1.
    10030    2    1    2    0    0  0.00000000000E+00  0.00000000000E+00  0.10004146571E+04  0.22353868455E+04  0.19990309810E+04 0.  0.
        1    1    3    3  502    0  0.29041134079E+03 -0.68625733959E+03 -0.24469457911E+03  0.78432347923E+03  0.50400001928E-02 0.  1.
       -1    1    3    3    0  502 -0.29041134079E+03  0.68625733959E+03  0.12451092362E+04  0.14510633663E+04  0.50400001928E-02 0. -1.
</event>
<event>
 5   0  0.1999142E-05  0.1990715E+04  0.7818609E-02  0.8610974E-01
        2   -1    0    0  501    0  0.00000000000E+00  0.00000000000E+00  0.14011790385E+04  0.14011790385E+04  0.25500000920E-02 0.  1.
       -2   -1    0    0    0  501  0.00000000000E+00  0.00000000000E+00 -0.70707364243E+03  0.70707364244E+03  0.25500000920E-02 0. -1.
    10030    2    1    2    0    0  0.00000000000E+00  0.00000000000E+00  0.69410539608E+03  0.21082526810E+04  0.19907152147E+04 0.  0.
        1    1    3    3  502    0 -0.25719301391E+03 -0.23398565941E+03 -0.64066542210E+03  0.72893738984E+03  0.50400001928E-02 0. -1.
       -1    1    3    3    0  502  0.25719301391E+03  0.23398565941E+03  0.13347708182E+04  0.13793152911E+04  0.50400001928E-02 0.  1.
</event>
<event>
 5   0  0.9220260E-06  0.2000289E+04  0.7818609E-02  0.8606486E-01
        1   -1    0    0  501    0  0.00000000000E+00  0.00000000000E+00  0.11258318524E+04  0.11258318524E+04  0.50400001928E-02 0. -1.
       -1   -1    0    0    0  501  0.00000000000E+00  0.00000000000E+00 -0.88848849078E+03  0.88848849079E+03  0.50400001928E-02 0.  1.
    10030    2    1    2    0    0  0.00000000000E+00  0.00000000000E+00  0.23734336161E+03  0.20143203432E+04  0.20002886226E+04 0.  0.
        3    1    3    3  502    0 -0.52720208462E+03  0.62319636760E+03 -0.46328609667E+03  0.93858924359E+03  0.10100000352E+00 0.  1.
       -3    1    3    3    0  502  0.52720208462E+03 -0.62319636760E+03  0.70062945828E+03  0.10757310996E+04  0.10100000352E+00 0. -1.
</event>
<event>
 5   0  0.9342635E-06  0.2004380E+04  0.7818609E-02  0.8604575E-01
       -1   -1    0    0    0  501  0.00000000000E+00  0.00000000000E+00  0.74122694977E+03  0.74122694979E+03  0.50400001928E-02 0. -1.
        1   -1    0    0  501    0  0.00000000000E+00  0.00000000000E+00 -0.13550306967E+04  0.13550306968E+04  0.50400001928E-02 0.  1.
    10030    2    1    2    0    0  0.00000000000E+00  0.00000000000E+00 -0.61380374697E+03  0.20962576465E+04  0.20043804731E+04 0.  0.
        5    1    3    3  502    0 -0.53019521566E+02  0.91664913437E+03  0.11313788206E+03  0.92513727390E+03  0.46999998093E+01 0. -1.
       -5    1    3    3    0  502  0.53019521566E+02 -0.91664913437E+03 -0.72694162903E+03  0.11711203726E+04  0.46999998093E+01 0.  1.
</event>
<event>
 5   0  0.9220260E-06  0.1993347E+04  0.7818609E-02  0.8609737E-01
        1   -1    0    0  501    0  0.00000000000E+00  0.00000000000E+00  0.10741330936E+04  0.10741330936E+04  0.50400001928E-02 0. -1.
       -1   -1    0    0    0  501  0.00000000000E+00  0.00000000000E+00 -0.92479983770E+03  0.92479983771E+03  0.50400001928E-02 0.  1.
    10030    2    1    2    0    0  0.00000000000E+00  0.00000000000E+00  0.14933325594E+03  0.19989329314E+04  0.19933470452E+04 0.  0.
        3    1    3    3  502    0  0.63723769656E+03  0.71088204386E+03  0.36170804877E+03  0.10209103217E+04  0.10100000352E+00 0. -1.
       -3    1    3    3    0  502 -0.63723769656E+03 -0.71088204386E+03 -0.21237479283E+03  0.97802260967E+03  0.10100000352E+00 0.  1.
</event>
<event>
 5   0  0.1979765E-05  0.1999962E+04  0.7818609E-02  0.8606638E-01
       -2   -1    0    0    0  501  0.00000000000E+00  0.00000000000E+00  0.94294835357E+03  0.94294835357E+03  0.25500000920E-02 0. -1.
        2   -1    0    0  501    0  0.00000000000E+00  0.00000000000E+00 -0.10604632185E+04  0.10604632185E+04  0.25500000920E-02 0.  1.
    10030    2    1    2    0    0  0.00000000000E+00  0.00000000000E+00 -0.11751486492E+03  0.20034115721E+04  0.19999620455E+04 0.  0.
        2    1    3    3  502    0  0.57413180832E+03  0.14067631045E+03 -0.86671221956E+03  0.10490982934E+04  0.25500000920E-02 0.  1.
       -2    1    3    3    0  502 -0.57413180832E+03 -0.14067631045E+03  0.74919735464E+03  0.95431327867E+03  0.25500000920E-02 0. -1.
</event>
<event>
 5   0  0.1979765E-05  0.2000443E+04  0.7818609E-02  0.8606414E-01
       -2   -1    0    0    0  501  0.00000000000E+00  0.00000000000E+00  0.18965751296E+04  0.18965751296E+04  0.25500000920E-02 0. -1.
        2   -1    0    0  501    0  0.00000000000E+00  0.00000000000E+00 -0.52749989741E+03  0.52749989742E+03  0.25500000920E-02 0.  1.
    10030    2    1    2    0    0  0.00000000000E+00  0.00000000000E+00  0.13690752322E+04  0.24240750270E+04  0.20004431372E+04 0.  0.
        2    1    3    3  502    0 -0.29528144983E+03 -0.80352960716E+03  0.57697778513E+02  0.85800932271E+03  0.25500000920E-02 0.  1.
       -2    1    3    3    0  502  0.29528144983E+03  0.80352960716E+03  0.13113774537E+04  0.15660657043E+04  0.25500000920E-02 0. -1.
</event>
<event>
 5   0  0.2003576E-05  0.2004237E+04  0.7818609E-02  0.8604642E-01
        2   -1    0    0  501    0  0.00000000000E+00  0.00000000000E+00  0.15674998755E+04  0.15674998755E+04  0.25500000920E-02 0.  1.
       -2   -1    0    0    0  501  0.00000000000E+00  0.00000000000E+00 -0.64066422282E+03  0.64066422283E+03  0.25500000920E-02 0. -1.
    10030    2    1    2    0    0  0.00000000000E+00  0.00000000000E+00  0.92683565269E+03  0.22081640983E+04  0.20042366023E+04 0.  0.
        4    1    3    3  502    0  0.77327349157E+03  0.12062278623E+03  0.11529905193E+04  0.13935173123E+04  0.12699999809E+01 0.  1.
       -4    1    3    3    0  502 -0.77327349157E+03 -0.12062278623E+03 -0.22615486661E+03  0.81464678599E+03  0.12699999809E+01 0. -1.
</event>
<event>
 5   0  0.7132000E-06  0.2002006E+04  0.7818609E-02  0.8605684E-01
        3   -1    0    0  501    0  0.00000000000E+00  0.00000000000E+00  0.64486026159E+03  0.64486026950E+03  0.10100000352E+00 0. -1.
       -3   -1    0    0    0  501  0.00000000000E+00  0.00000000000E+00 -0.15538351209E+04  0.15538351242E+04  0.10100000352E+00 0.  1.
    10030    2    1    2    0    0  0.00000000000E+00  0.00000000000E+00 -0.90897485933E+03  0.21986953937E+04  0.20020055293E+04 0.  0.
        2    1    3    3  502    0  0.83430395049E+03 -0.13752119474E+03 -0.10428763402E+04  0.13425968203E+04  0.25500000920E-02 0.  1.
       -2    1    3    3    0  502 -0.83430395049E+03  0.13752119474E+03  0.13390148091E+03  0.85609857342E+03  0.25500000920E-02 0. -1.
</event>
<event>
 5   0  0.9220260E-06  0.1991036E+04  0.7818609E-02  0.8610823E-01
       -1   -1    0    0    0  501  0.00000000000E+00  0.00000000000E+00  0.12150761745E+04  0.12150761745E+04  0.50400001928E-02 0.  1.
        1   -1    0    0  501    0  0.00000000000E+00  0.00000000000E+00 -0.81563254689E+03  0.81563254691E+03  0.50400001928E-02 0. -1.
    10030    2    1    2    0    0  0.00000000000E+00  0.00000000000E+00  0.39944362761E+03  0.20307087214E+04  0.19910355847E+04 0.  0.
        3    1    3    3  502    0 -0.73809225670E+03  0.65832336452E+03  0.83944128753E+02  0.99258070636E+03  0.10100000352E+00 0.  1.
       -3    1    3    3    0  502  0.73809225670E+03 -0.65832336452E+03  0.31549949885E+03  0.10381280151E+04  0.10100000352E+00 0. -1.
</event>
<event>
 5   0  0.9370269E-06  0.1997510E+04  0.7818609E-02  0.8607786E-01
        1   -1    0    0  501    0  0.00000000000E+00  0.00000000000E+00  0.15804502368E+04  0.15804502369E+04  0.50400001928E-02 0.  1.
       -1   -1    0    0    0  501  0.00000000000E+00  0.00000000000E+00 -0.63115631684E+03  0.63115631686E+03  0.50400001928E-02 0. -1.
    10030    2    1    2    0    0  0.00000000000E+00  0.00000000000E+00  0.94929392001E+03  0.22116065537E+04  0.19975095999E+04 0.  0.
        4    1    3    3  502    0 -0.66306087559E+03 -0.68467114225E+03  0.80510922082E+03  0.12476484954E+04  0.12699999809E+01 0.  1.
       -4    1    3    3    0  502  0.66306087559E+03  0.68467114225E+03  0.14418469919E+03  0.96395805829E+03  0.12699999809E+01 0. -1.
</event>
<event>
 5   0  0.2020029E-05  0.2003489E+04  0.7818609E-02  0.8604991E-01
       -2   -1    0    0    0  501  0.00000000000E+00  0.00000000000E+00  0.11442841663E+04  0.11442841663E+04  0.25500000920E-02 0.  1.
        2   -1    0    0  501    0  0.00000000000E+00  0.00000000000E+00 -0.87696011268E+03  0.87696011269E+03  0.25500000920E-02 0. -1.
    10030    2    1    2    0    0  0.00000000000E+00  0.00000000000E+00  0.26732405358E+03  0.20212442790E+04  0.20034885289E+04 0.  0.
        5    1    3    3  502    0  0.23017268845E+03  0.16105109637E+03 -0.83639607238E+03  0.88232499797E+03  0.46999998093E+01 0. -1.
       -5    1    3    3    0  502 -0.23017268845E+03 -0.16105109637E+03  0.11037201260E+04  0.11389192810E+04  0.46999998093E+01 0.  1.
</event>
<event>
 5   0  0.9220260E-06  0.1998274E+04  0.7818609E-02  0.8607428E-01
       -1   -1    0    0    0  501  0.00000000000E+00  0.00000000000E+00  0.13134293801E+04  0.13134293801E+04  0.50400001928E-02 0.  1.
        1   -1    0    0  501    0  0.00000000000E+00  0.00000000000E+00 -0.76005243975E+03  0.76005243977E+03  0.50400001928E-02 0. -1.
    10030    2    1    2    0    0  0.00000000000E+00  0.00000000000E+00  0.55337694030E+03  0.20734818198E+04  0.19982744604E+04 0.  0.
        3    1    3    3  502    0  0.51760531896E+03  0.51812938836E+03  0.98190088972E+03  0.12249500793E+04  0.10100000352E+00 0.  1.
       -3    1    3    3    0  502 -0.51760531896E+03 -0.51812938836E+03 -0.42852394942E+03  0.84853174055E+03  0.10100000352E+00 0. -1.
</event>
<event>
 5   0  0.9333353E-06  0.2013993E+04  0.7818609E-02  0.8600106E-01
       -1   -1    0    0    0  501  0.00000000000E+00  0.00000000000E+00  0.15692205847E+04  0.15692205847E+04  0.50400001928E-02 0.  1.
        1   -1    0    0  501    0  0.00000000000E+00  0.00000000000E+00 -0.64620736576E+03  0.64620736578E+03  0.50400001928E-02 0. -1.
    10030    2    1    2    0    0  0.00000000000E+00  0.00000000000E+00  0.92301321890E+03  0.22154279504E+04  0.20139929497E+04 0.  0.
        2    1    3    3  502    0  0.58864254954E+03 -0.22784419360E+03  0.13246027500E+04  0.14673055145E+04  0.25500000920E-02 0.  1.
       -2    1    3    3    0  502 -0.58864254954E+03  0.22784419360E+03 -0.40158953106E+03  0.74812243594E+03  0.25500000920E-02 0. -1.
</event>
<event>
 5   0  0.2038882E-05  0.1996822E+04  0.7818609E-02  0.8608108E-01
       -2   -1    0    0    0  501  0.00000000000E+00  0.00000000000E+00  0.56022553358E+03  0.56022553358E+03  0.25500000920E-02 0. -1.
        2   -1    0    0  501    0  0.00000000000E+00  0.00000000000E+00 -0.17793275889E+04  0.17793275889E+04  0.25500000920E-02 0.  1.
    10030    2    1    2    0    0  0.00000000000E+00  0.00000000000E+00 -0.12191020553E+04  0.23395531225E+04  0.19968222233E+04 0.  0.
        3    1    3    3  502    0 -0.13032151323E+03 -0.65412426572E+03  0.26090791298E+03  0.71619494627E+03  0.10100000352E+00 0. -1.
       -3    1    3    3    0  502  0.13032151323E+03  0.65412426572E+03 -0.14800099683E+04  0.16233581762E+04  0.10100000352E+00 0.  1.
</event>
<event>
 5   0  0.9220260E-06  0.2003157E+04  0.7818609E-02  0.8605146E-01
       -1   -1    0    0    0  501  0.00000000000E+00  0.00000000000E+00  0.64782420218E+03  0.64782420220E+03  0.50400001928E-02 0.  1.
        1   -1    0    0  501    0  0.00000000000E+00  0.00000000000E+00 -0.15485052091E+04  0.15485052091E+04  0.50400001928E-02 0. -1.
    10030    2    1    2    0    0  0.00000000000E+00  0.00000000000E+00 -0.90068100696E+03  0.21963294113E+04  0.20031566606E+04 0.  0.
        3    1    3    3  502    0 -0.39121168062E+03  0.77001753113E+03  0.10569926764E+03  0.87014132340E+03  0.10100000352E+00 0. -1.
       -3    1    3    3    0  502  0.39121168062E+03 -0.77001753113E+03 -0.10063802746E+04  0.13261880879E+04  0.10100000352E+00 0.  1.
</event>
<event>
 5   0  0.9220260E-06  0.1990726E+04  0.7818609E-02  0.8610969E-01
        1   -1    0    0  501    0  0.00000000000E+00  0.00000000000E+00  0.74108403760E+03  0.74108403762E+03  0.50400001928E-02 0. -1.
       -1   -1    0    0    0  501  0.00000000000E+00  0.00000000000E+00 -0.13368899607E+04  0.13368899607E+04  0.50400001928E-02 0.  1.
    10030    2    1    2    0    0  0.00000000000E+00  0.00000000000E+00 -0.59580592307E+03  0.20779739983E+04  0.19907263096E+04 0.  0.
        3    1    3    3  502    0 -0.74760699463E+03 -0.64724987587E+03 -0.17935076753E+03  0.10049951882E+04  0.10100000352E+00 0.  1.
       -3    1    3    3    0  502  0.74760699463E+03  0.64724987587E+03 -0.41645515554E+03  0.10729788101E+04  0.10100000352E+00 0. -1.
</event>
<event>
 5   0  0.9220260E-06  0.1968687E+04  0.7818609E-02  0.8621402E-01
        1   -1    0    0  501    0  0.00000000000E+00  0.00000000000E+00  0.15471567002E+04  0.15471567002E+04  0.50400001928E-02 0. -1.
       -1   -1    0    0    0  501  0.00000000000E+00  0.00000000000E+00 -0.62626603457E+03  0.62626603459E+03  0.50400001928E-02 0.  1.
    10030    2    1    2    0    0  0.00000000000E+00  0.00000000000E+00  0.92089066563E+03  0.21734227348E+04  0.19686865586E+04 0.  0.
        3    1    3    3  502    0  0.52029107564E+03 -0.80876108457E+03  0.22851573543E+03  0.98844157483E+03  0.10100000352E+00 0.  1.
       -3    1    3    3    0  502 -0.52029107564E+03  0.80876108457E+03  0.69237493020E+03  0.11849811600E+04  0.10100000352E+00 0. -1.
</event>
<event>
 5   0  0.7132000E-06  0.2007261E+04  0.7818609E-02  0.8603234E-01
        4   -1    0    0  501    0  0.00000000000E+00  0.00000000000E+00  0.18871228573E+04  0.18871232847E+04  0.12699999809E+01 0.  1.
       -4   -1    0    0    0  501  0.00000000000E+00  0.00000000000E+00 -0.53376044978E+03  0.53376196066E+03  0.12699999809E+01 0. -1.
    10030    2    1    2    0    0  0.00000000000E+00  0.00000000000E+00  0.13533624076E+04  0.24208852454E+04  0.20072607118E+04 0.  0.
        5    1    3    3  502    0 -0.35250892524E+03 -0.91711305953E+03  0.92353545193E+03  0.13484430753E+04  0.46999998093E+01 0.  1.
       -5    1    3    3    0  502  0.35250892524E+03  0.91711305953E+03  0.42982695563E+03  0.10724421701E+04  0.46999998093E+01 0. -1.
</event>
<event>
 5   0  0.9370269E-06  0.1997377E+04  0.7818609E-02  0.8607848E-01
       -1   -1    0    0    0  501  0.00000000000E+00  0.00000000000E+00  0.64954025419E+03  0.64954025421E+03  0.50400001928E-02 0. -1.
        1   -1    0    0  501    0  0.00000000000E+00  0.00000000000E+00 -0.15355143792E+04  0.15355143792E+04  0.50400001928E-02 0.  1.
    10030    2    1    2    0    0  0.00000000000E+00  0.00000000000E+00 -0.88597412499E+03  0.21850546334E+04  0.19973766797E+04 0.  0.
        4    1    3    3  502    0 -0.59858775978E+03  0.65652556623E+03 -0.94196296237E+03  0.12948470800E+04  0.12699999809E+01 0.  1.
       -4    1    3    3    0  502  0.59858775978E+03 -0.65652556623E+03  0.55988837383E+02  0.89020755337E+03  0.12699999809E+01 0. -1.
</event>
<event>
 5   0  0.9370269E-06  0.1988492E+04  0.7818609E-02  0.8612020E-01
       -1   -1    0    0    0  501  0.00000000000E+00  0.00000000000E+00  0.11179401105E+04  0.11179401105E+04  0.50400001928E-02 0. -1.
        1   -1    0    0  501    0  0.00000000000E+00  0.00000000000E+00 -0.88423777121E+03  0.88423777122E+03  0.50400001928E-02 0.  1.
    10030    2    1    2    0    0  0.00000000000E+00  0.00000000000E+00  0.23370233932E+03  0.20021778818E+04  0.19884917618E+04 0.  0.
        4    1    3    3  502    0  0.69744652685E+03  0.60169777148E+03 -0.25995896877E+03  0.95710613015E+03  0.12699999809E+01 0.  1.
       -4    1    3    3    0  502 -0.69744652685E+03 -0.60169777148E+03  0.49366130810E+03  0.10450717516E+04  0.12699999809E+01 0. -1.
</event>
<event>
 5   0  0.2038882E-05  0.1989487E+04  0.7818609E-02  0.8611552E-01
       -2   -1    0    0    0  501  0.00000000000E+00  0.00000000000E+00  0.44947854248E+03  0.44947854248E+03  0.25500000920E-02 0.  1.
        2   -1    0    0  501    0  0.00000000000E+00  0.00000000000E+00 -0.22014722068E+04  0.22014722068E+04  0.25500000920E-02 0. -1.
    10030    2    1    2    0    0  0.00000000000E+00  0.00000000000E+00 -0.17519936644E+04  0.26509507493E+04  0.19894868875E+04 0.  0.
        3    1    3    3  502    0 -0.25499577122E+03 -0.23990685199E+01  0.40518486684E+03  0.47875190379E+03  0.10100000352E+00 0.  1.
       -3    1    3    3    0  502  0.25499577122E+03  0.23990685199E+01 -0.21571785312E+04  0.21721988455E+04  0.10100000352E+00 0. -1.
</event>
<event>
 5   0  0.2003576E-05  0.1991142E+04  0.7818609E-02  0.8610773E-01
       -2   -1    0    0    0  501  0.00000000000E+00  0.00000000000E+00  0.85020578147E+03  0.85020578147E+03  0.25500000920E-02 0. -1.
        2   -1    0    0  501    0  0.00000000000E+00  0.00000000000E+00 -0.11657905689E+04  0.11657905689E+04  0.25500000920E-02 0.  1.
    10030    2    1    2    0    0  0.00000000000E+00  0.00000000000E+00 -0.31558478747E+03  0.20159963504E+04  0.19911422668E+04 0.  0.
        4    1    3    3  502    0 -0.68290845329E+03 -0.72416344370E+03 -0.13796169180E+03  0.10048938701E+04  0.12699999809E+01 0.  1.
       -4    1    3    3    0  502  0.68290845329E+03  0.72416344370E+03 -0.17762309567E+03  0.10111024804E+04  0.12699999809E+01 0. -1.
</event>
<event>
 5   0  0.2003576E-05  0.1999680E+04  0.7818609E-02  0.8606770E-01
       -2   -1    0    0    0  501  0.00000000000E+00  0.00000000000E+00  0.53949213198E+03  0.53949213198E+03  0.25500000920E-02 0. -1.
        2   -1    0    0  501    0  0.00000000000E+00  0.00000000000E+00 -0.18530014540E+04  0.18530014540E+04  0.25500000920E-02 0.  1.
    10030    2    1    2    0    0  0.00000000000E+00  0.00000000000E+00 -0.13135093220E+04  0.23924935860E+04  0.19996796793E+04 0.  0.
        4    1    3    3  502    0 -0.62170529824E+03  0.72394125211E+03 -0.10138262443E+04  0.13922836209E+04  0.12699999809E+01 0.  1.
       -4    1    3    3    0  502  0.62170529824E+03 -0.72394125211E+03 -0.29968307772E+03  0.10002099651E+04  0.12699999809E+01 0. -1.
</event>
<event>
 5   0  0.9342635E-06  0.2003022E+04  0.7818609E-02  0.8605209E-01
       -1   -1    0    0    0  501  0.00000000000E+00  0.00000000000E+00  0.14973243842E+04  0.14973243842E+04  0.50400001928E-02 0.  1.
        1   -1    0    0  501    0  0.00000000000E+00  0.00000000000E+00 -0.66987804105E+03  0.66987804107E+03  0.50400001928E-02 0. -1.
    10030    2    1    2    0    0  0.00000000000E+00  0.00000000000E+00  0.82744634311E+03  0.21672024252E+04  0.20030224415E+04 0.  0.
        5    1    3    3  502    0 -0.59374246066E+03 -0.59203058463E+03 -0.17886673308E+03  0.85734807455E+03  0.46999998093E+01 0. -1.
       -5    1    3    3    0  502  0.59374246066E+03  0.59203058463E+03  0.10063130762E+04  0.13098543507E+04  0.46999998093E+01 0.  1.
</event>
<event>
 5   0  0.9220260E-06  0.2000548E+04  0.7818609E-02  0.8606364E-01
        1   -1    0    0  501    0  0.00000000000E+00  0.00000000000E+00  0.17036208367E+04  0.17036208367E+04  0.50400001928E-02 0. -1.
       -1   -1    0    0    0  501  0.00000000000E+00  0.00000000000E+00 -0.58730691680E+03  0.58730691682E+03  0.50400001928E-02 0.  1.
    10030    2    1    2    0    0  0.00000000000E+00  0.00000000000E+00  0.11163139199E+04  0.22909277535E+04  0.20005482259E+04 0.  0.
        3    1    3    3  502    0 -0.51343062182E+03 -0.85666769217E+03  0.62148025973E+03  0.11763197957E+04  0.10100000352E+00 0. -1.
       -3    1    3    3    0  502  0.51343062182E+03  0.85666769217E+03  0.49483366013E+03  0.11146079578E+04  0.10100000352E+00 0.  1.
</event>
<event>
 5   0  0.2003576E-05  0.1999622E+04  0.7818609E-02  0.8606798E-01
       -2   -1    0    0    0  501  0.00000000000E+00  0.00000000000E+00  0.14075119878E+04  0.14075119878E+04  0.25500000920E-02 0. -1.
        2   -1    0    0  501    0  0.00000000000E+00  0.00000000000E+00 -0.71020475553E+03  0.71020475554E+03  0.25500000920E-02 0.  1.
    10030    2    1    2    0    0  0.00000000000E+00  0.00000000000E+00  0.69730723223E+03  0.21177167433E+04  0.19996216714E+04 0.  0.
        4    1    3    3  502    0 -0.22047482289E+03  0.66342341841E+03  0.11056252750E+04  0.13081088033E+04  0.12699999809E+01 0. -1.
       -4    1    3    3    0  502  0.22047482289E+03 -0.66342341841E+03 -0.40831804275E+03  0.80960794003E+03  0.12699999809E+01 0.  1.
</event>
<event>
 5   0  0.2020029E-05  0.2001013E+04  0.7818609E-02  0.8606147E-01
        2   -1    0    0  501    0  0.00000000000E+00  0.00000000000E+00  0.14181314486E+04  0.14181314486E+04  0.25500000920E-02 0. -1.
       -2   -1    0    0    0  501  0.00000000000E+00  0.00000000000E+00 -0.70586773576E+03  0.70586773576E+03  0.25500000920E-02 0.  1.
    10030    2    1    2    0    0  0.00000000000E+00  0.00000000000E+00  0.71226371286E+03  0.21239991844E+04  0.20010129781E+04 0.  0.
        5    1    3    3  502    0  0.52779777853E+03 -0.84908494024E+03  0.31535991649E+03  0.10483270948E+04  0.46999998093E+01 0. -1.
       -5    1    3    3    0  502 -0.52779777853E+03  0.84908494024E+03  0.39690379636E+03  0.10756720896E+04  0.46999998093E+01 0.  1.
</event>
<event>
 5   0  0.9342635E-06  0.2002787E+04  0.7818609E-02  0.8605319E-01
       -1   -1    0    0    0  501  0.00000000000E+00  0.00000000000E+00  0.66246357253E+03  0.66246357255E+03  0.50400001928E-02 0. -1.
        1   -1    0    0  501    0  0.00000000000E+00  0.00000000000E+00 -0.15137267216E+04  0.15137267216E+04  0.50400001928E-02 0.  1.
    10030    2    1    2    0    0  0.00000000000E+00  0.00000000000E+00 -0.85126314906E+03  0.21761902941E+04  0.20027868702E+04 0.  0.
        5    1    3    3  502    0  0.30985908892E+03 -0.77720364663E+03 -0.10234571401E+04  0.13219473405E+04  0.46999998093E+01 0.  1.
       -5    1    3    3    0  502 -0.30985908892E+03  0.77720364663E+03  0.17219399108E+03  0.85424295366E+03  0.46999998093E+01 0. -1.
</event>
<event>
 5   0  0.9220260E-06  0.1999197E+04  0.7818609E-02  0.8606996E-01
       -1   -1    0    0    0  501  0.00000000000E+00  0.00000000000E+00  0.65215051138E+03  0.65215051140E+03  0.50400001928E-02 0. -1.
        1   -1    0    0  501    0  0.00000000000E+00  0.00000000000E+00 -0.15321569743E+04  0.15321569743E+04  0.50400001928E-02 0.  1.
    10030    2    1    2    0    0  0.00000000000E+00  0.00000000000E+00 -0.88000646294E+03  0.21843074857E+04  0.19991967931E+04 0.  0.
        3    1    3    3  502    0 -0.34727953516E+03 -0.93632184358E+03 -0.39243749652E+03  0.10729906193E+04  0.10100000352E+00 0. -1.
       -3    1    3    3    0  502  0.34727953516E+03  0.93632184358E+03 -0.48756896642E+03  0.11113168664E+04  0.10100000352E+00 0.  1.
</event>
<event>
 5   0  0.1979765E-05  0.2000010E+04  0.7818609E-02  0.8606616E-01
       -2   -1    0    0    0  501  0.00000000000E+00  0.00000000000E+00  0.10455943764E+04  0.10455943764E+04  0.25500000920E-02 0.  1.
        2   -1    0    0  501    0  0.00000000000E+00  0.00000000000E+00 -0.95640364342E+03  0.95640364342E+03  0.25500000920E-02 0. -1.
    10030    2    1    2    0    0  0.00000000000E+00  0.00000000000E+00  0.89190732988E+02  0.20019980198E+04  0.20000102711E+04 0.  0.
        2    1    3    3  502    0  0.76663437424E+03 -0.62338240774E+03 -0.10942887489E+03  0.99413709754E+03  0.25500000920E-02 0. -1.
       -2    1    3    3    0  502 -0.76663437424E+03  0.62338240774E+03  0.19861960788E+03  0.10078609223E+04  0.25500000920E-02 0.  1.
</event>
<event>
 5   0  0.2020029E-05  0.1997691E+04  0.7818609E-02  0.8607701E-01
        2   -1    0    0  501    0  0.00000000000E+00  0.00000000000E+00  0.10792282859E+04  0.10792282859E+04  0.25500000920E-02 0. -1.
       -2   -1    0    0    0  501  0.00000000000E+00  0.00000000000E+00 -0.92444932780E+03  0.92444932780E+03  0.25500000920E-02 0.  1.
    10030    2    1    2    0    0  0.00000000000E+00  0.00000000000E+00  0.15477895812E+03  0.20036776137E+04  0.19976905301E+04 0.  0.
        5    1    3    3  502    0 -0.52433703061E+03  0.82451531747E+03 -0.13039059916E+03  0.98578832858E+03  0.46999998093E+01 0.  1.
       -5    1    3    3    0  502  0.52433703061E+03 -0.82451531747E+03  0.28516955728E+03  0.10178892851E+04  0.46999998093E+01 0. -1.
</event>
<event>
 5   0  0.1999142E-05  0.2024252E+04  0.7818609E-02  0.8595365E-01
        2   -1    0    0  501    0  0.00000000000E+00  0.00000000000E+00  0.11312864329E+04  0.11312864329E+04  0.25500000920E-02 0.  1.
       -2   -1    0    0    0  501  0.00000000000E+00  0.00000000000E+00 -0.90551736292E+03  0.90551736292E+03  0.25500000920E-02 0. -1.
    10030    2    1    2    0    0  0.00000000000E+00  0.00000000000E+00  0.22576907001E+03  0.20368037959E+04  0.20242524620E+04 0.  0.
        1    1    3    3  502    0 -0.23959541371E+03  0.26903088627E+03 -0.83882152013E+03  0.91291024899E+03  0.50400001928E-02 0. -1.
       -1    1    3    3    0  502  0.23959541371E+03 -0.26903088627E+03  0.10645905901E+04  0.11238935469E+04  0.50400001928E-02 0.  1.
</event>
<event>
 5   0  0.2003576E-05  0.1994549E+04  0.7818609E-02  0.8609173E-01
       -2   -1    0    0    0  501  0.00000000000E+00  0.00000000000E+00  0.61369635027E+03  0.61369635028E+03  0.25500000920E-02 0.  1.
        2   -1    0    0  501    0  0.00000000000E+00  0.00000000000E+00 -0.16206000455E+04  0.16206000455E+04  0.25500000920E-02 0. -1.
    10030    2    1    2    0    0  0.00000000000E+00  0.00000000000E+00 -0.10069036952E+04  0.22342963957E+04  0.19945489046E+04 0.  0.
        4    1    3    3  502    0 -0.65786141314E+03  0.67351673383E+03 -0.13506346550E+03  0.95113100163E+03  0.12699999809E+01 0. -1.
       -4    1    3    3    0  502  0.65786141314E+03 -0.67351673383E+03 -0.87184022969E+03  0.12831653941E+04  0.12699999809E+01 0.  1.
</event>
<event>
 5   0  0.2020029E-05  0.1993979E+04  0.7818609E-02  0.8609441E-01
       -2   -1    0    0    0  501  0.00000000000E+00  0.00000000000E+00  0.10930711777E+04  0.10930711777E+04  0.25500000920E-02 0. -1.
        2   -1    0    0  501    0  0.00000000000E+00  0.00000000000E+00 -0.90935308378E+03  0.90935308378E+03  0.25500000920E-02 0.  1.
    10030    2    1    2    0    0  0.00000000000E+00  0.00000000000E+00  0.18371809396E+03  0.20024242615E+04  0.19939785819E+04 0.  0.
        5    1    3    3  502    0  0.45108093858E+03 -0.84603735187E+03  0.36635237059E+03  0.10263962994E+04  0.46999998093E+01 0. -1.
       -5    1    3    3    0  502 -0.45108093858E+03  0.84603735187E+03 -0.18263427664E+03  0.97602796215E+03  0.46999998093E+01 0.  1.
</event>
<event>
 5   0  0.2038882E-05  0.2005222E+04  0.7818609E-02  0.8604183E-01
       -2   -1    0    0    0  501  0.00000000000E+00  0.00000000000E+00  0.13742739832E+04  0.13742739832E+04  0.25500000920E-02 0.  1.
        2   -1    0    0  501    0  0.00000000000E+00  0.00000000000E+00 -0.73146202323E+03  0.73146202324E+03  0.25500000920E-02 0. -1.
    10030    2    1    2    0    0  0.00000000000E+00  0.00000000000E+00  0.64281195994E+03  0.21057360064E+04  0.20052224098E+04 0.  0.
        3    1    3    3  502    0  0.59914437154E+03 -0.52085992217E+01  0.11655844984E+04  0.13105679458E+04  0.10100000352E+00 0.  1.
       -3    1    3    3    0  502 -0.59914437154E+03  0.52085992217E+01 -0.52277253845E+03  0.79516806061E+03  0.10100000352E+00 0. -1.
</event>
<event>
 5   0  0.9370269E-06  0.2002910E+04  0.7818609E-02  0.8605261E-01
       -1   -1    0    0    0  501  0.00000000000E+00  0.00000000000E+00  0.41261751617E+03  0.41261751620E+03  0.50400001928E-02 0. -1.
        1   -1    0    0  501    0  0.00000000000E+00  0.00000000000E+00 -0.24306104314E+04  0.24306104314E+04  0.50400001928E-02 0.  1.
    10030    2    1    2    0    0  0.00000000000E+00  0.00000000000E+00 -0.20179929152E+04  0.28432279476E+04  0.20029103215E+04 0.  0.
        4    1    3    3  502    0 -0.63405636833E+03  0.62815594327E+03 -0.16537643897E+04  0.18792407076E+04  0.12699999809E+01 0.  1.
       -4    1    3    3    0  502  0.63405636833E+03 -0.62815594327E+03 -0.36422852549E+03  0.96398724004E+03  0.12699999809E+01 0. -1.
</event>
<event>
 5   0  0.2020029E-05  0.2001028E+04  0.7818609E-02  0.8606140E-01
       -2   -1    0    0    0  501  0.00000000000E+00  0.00000000000E+00  0.74289149486E+03  0.74289149487E+03  0.25500000920E-02 0. -1.
        2   -1    0    0  501    0  0.00000000000E+00  0.00000000000E+00 -0.13474754834E+04  0.13474754834E+04  0.25500000920E-02 0.  1.
    10030    2    1    2    0    0  0.00000000000E+00  0.00000000000E+00 -0.60458398857E+03  0.20903669783E+04  0.20010278121E+04 0.  0.
        5    1    3    3  502    0  0.26614945225E+03  0.40697328274E+03 -0.12157118058E+04  0.13093662851E+04  0.46999998093E+01 0.  1.
       -5    1    3    3    0  502 -0.26614945225E+03 -0.40697328274E+03  0.61112781723E+03  0.78100069320E+03  0.46999998093E+01 0. -1.
</event>
<event>
 5   0  0.9342635E-06  0.1963329E+04  0.7818609E-02  0.8623960E-01
       -1   -1    0    0    0  501  0.00000000000E+00  0.00000000000E+00  0.78089589166E+03  0.78089589168E+03  0.50400001928E-02 0. -1.
        1   -1    0    0  501    0  0.00000000000E+00  0.00000000000E+00 -0.12340506592E+04  0.12340506592E+04  0.50400001928E-02 0.  1.
    10030    2    1    2    0    0  0.00000000000E+00  0.00000000000E+00 -0.45315476752E+03  0.20149465509E+04  0.19633288974E+04 0.  0.
        5    1    3    3  502    0  0.94671932427E+03 -0.15248360354E+03 -0.44213334005E+03  0.10559510920E+04  0.46999998093E+01 0.  1.
       -5    1    3    3    0  502 -0.94671932427E+03  0.15248360354E+03 -0.11021427473E+02  0.95899545888E+03  0.46999998093E+01 0. -1.
</event>
<event>
 5   0  0.9342635E-06  0.2000838E+04  0.7818609E-02  0.8606229E-01
       -1   -1    0    0    0  501  0.00000000000E+00  0.00000000000E+00  0.93907317986E+03  0.93907317988E+03  0.50400001928E-02 0. -1.
        1   -1    0    0  501    0  0.00000000000E+00  0.00000000000E+00 -0.10657720669E+04  0.10657720669E+04  0.50400001928E-02 0.  1.
    10030    2    1    2    0    0  0.00000000000E+00  0.00000000000E+00 -0.12669888699E+03  0.20048452467E+04  0.20008377884E+04 0.  0.
        5    1    3    3  502    0  0.46123121491E+03  0.19228000485E+03  0.80505244213E+03  0.94754280033E+03  0.46999998093E+01 0. -1.
       -5    1    3    3    0  502 -0.46123121491E+03 -0.19228000485E+03 -0.93175132912E+03  0.10573024464E+04  0.46999998093E+01 0.  1.
</event>
<event>
 5   0  0.9342635E-06  0.2000876E+04  0.7818609E-02  0.8606211E-01
       -1   -1    0    0    0  501  0.00000000000E+00  0.00000000000E+00  0.91120411623E+03  0.91120411624E+03  0.50400001928E-02 0.  1.
        1   -1    0    0  501    0  0.00000000000E+00  0.00000000000E+00 -0.10984107268E+04  0.10984107268E+04  0.50400001928E-02 0. -1.
    10030    2    1    2    0    0  0.00000000000E+00  0.00000000000E+00 -0.18720661058E+03  0.20096148431E+04  0.20008761837E+04 0.  0.
        5    1    3    3  502    0  0.14320034865E+03  0.20791183700E+03  0.87867447422E+03  0.91423443026E+03  0.46999998093E+01 0.  1.
       -5    1    3    3    0  502 -0.14320034865E+03 -0.20791183700E+03 -0.10658810848E+04  0.10953804128E+04  0.46999998093E+01 0. -1.
</event>
<event>
 5   0  0.9140695E-06  0.2002933E+04  0.7818609E-02  0.8605251E-01
       -1   -1    0    0    0  501  0.00000000000E+00  0.00000000000E+00  0.63258989028E+03  0.63258989030E+03  0.50400001928E-02 0.  1.
        1   -1    0    0  501    0  0.00000000000E+00  0.00000000000E+00 -0.15854429907E+04  0.15854429907E+04  0.50400001928E-02 0. -1.
    10030    2    1    2    0    0  0.00000000000E+00  0.00000000000E+00 -0.95285310043E+03  0.22180328810E+04  0.20029330569E+04 0.  0.
        1    1    3    3  502    0 -0.43649637426E+03 -0.57747703701E+03  0.28993892575E+03  0.77979060888E+03  0.50400001928E-02 0.  1.
       -1    1    3    3    0  502  0.43649637426E+03  0.57747703701E+03 -0.12427920262E+04  0.14382422721E+04  0.50400001928E-02 0. -1.
</event>
<event>
 5   0  0.2038882E-05  0.1999828E+04  0.7818609E-02  0.8606701E-01
       -2   -1    0    0    0  501  0.00000000000E+00  0.00000000000E+00  0.69376474469E+03  0.69376474469E+03  0.25500000920E-02 0.  1.
        2   -1    0    0  501    0  0.00000000000E+00  0.00000000000E+00 -0.14411628203E+04  0.14411628203E+04  0.25500000920E-02 0. -1.
    10030    2    1    2    0    0  0.00000000000E+00  0.00000000000E+00 -0.74739807562E+03  0.21349275650E+04  0.19998279487E+04 0.  0.
        3    1    3    3  502    0 -0.31144568615E+03 -0.92689438815E+03 -0.59685729499E+03  0.11455873005E+04  0.10100000352E+00 0. -1.
       -3    1    3    3    0  502  0.31144568615E+03  0.92689438815E+03 -0.15054078063E+03  0.98934026454E+03  0.10100000352E+00 0.  1.
</event>
<event>
 5   0  0.7132000E-06  0.2000090E+04  0.7818609E-02  0.8606579E-01
        4   -1    0    0  501    0  0.00000000000E+00  0.00000000000E+00  0.70717671869E+03  0.70717785907E+03  0.12699999809E+01 0. -1.
       -4   -1    0    0    0  501  0.00000000000E+00  0.00000000000E+00 -0.14141978895E+04  0.14141984597E+04  0.12699999809E+01 0.  1.
    10030    2    1    2    0    0  0.00000000000E+00  0.00000000000E+00 -0.70702117081E+03  0.21213763188E+04  0.20000896355E+04 0.  0.
        1    1    3    3  502    0  0.89227585854E+03  0.25651701819E+03 -0.74771012541E+03  0.11920686306E+04  0.50400001928E-02 0. -1.
       -1    1    3    3    0  502 -0.89227585854E+03 -0.25651701819E+03  0.40688954605E+02  0.92930768823E+03  0.50400001928E-02 0.  1.
</event>
<event>
 5   0  0.9370269E-06  0.1994623E+04  0.7818609E-02  0.8609139E-01
       -1   -1    0    0    0  501  0.00000000000E+00  0.00000000000E+00  0.10256708513E+04  0.10256708513E+04  0.50400001928E-02 0.  1.
        1   -1    0    0  501    0  0.00000000000E+00  0.00000000000E+00 -0.96973629822E+03  0.96973629823E+03  0.50400001928E-02 0. -1.
    10030    2    1    2    0    0  0.00000000000E+00  0.00000000000E+00  0.55934553112E+02  0.19954071496E+04  0.19946230266E+04 0.  0.
        4    1    3    3  502    0 -0.37087468777E+03  0.43648323268E+03  0.84472132434E+03  0.10205985377E+04  0.12699999809E+01 0.  1.
       -4    1    3    3    0  502  0.37087468777E+03 -0.43648323268E+03 -0.78878677123E+03  0.97480861188E+03  0.12699999809E+01 0. -1.
</event>
<event>
 5   0  0.1979765E-05  0.2002206E+04  0.7818609E-02  0.8605590E-01
        2   -1    0    0  501    0  0.00000000000E+00  0.00000000000E+00  0.27726411483E+04  0.27726411483E+04  0.25500000920E-02 0. -1.
       -2   -1    0    0    0  501  0.00000000000E+00  0.00000000000E+00 -0.36146315566E+03  0.36146315567E+03  0.25500000920E-02 0.  1.
    10030    2    1    2    0    0  0.00000000000E+00  0.00000000000E+00  0.24111779926E+04  0.31341043039E+04  0.20022064019E+04 0.  0.
        2    1    3    3  502    0  0.13984909587E+03 -0.79231028808E+03  0.27307773375E+03  0.84963804699E+03  0.25500000920E-02 0.  1.
       -2    1    3    3    0  502 -0.13984909587E+03  0.79231028808E+03  0.21381002588E+04  0.22844662569E+04  0.25500000920E-02 0. -1.
</event>
<event>
 5   0  0.1979765E-05  0.1995489E+04  0.7818609E-02  0.8608733E-01
       -2   -1    0    0    0  501  0.00000000000E+00  0.00000000000E+00  0.75300190852E+03  0.75300190853E+03  0.25500000920E-02 0. -1.
        2   -1    0    0  501    0  0.00000000000E+00  0.00000000000E+00 -0.13220333111E+04  0.13220333111E+04  0.25500000920E-02 0.  1.
    10030    2    1    2    0    0  0.00000000000E+00  0.00000000000E+00 -0.56903140256E+03  0.20750352196E+04  0.19954885180E+04 0.  0.
        2    1    3    3  502    0  0.36017032546E+03  0.66019239118E+03 -0.96633379644E+03  0.12244907770E+04  0.25500000920E-02 0.  1.
       -2    1    3    3    0  502 -0.36017032546E+03 -0.66019239118E+03  0.39730239388E+03  0.85054444264E+03  0.25500000920E-02 0. -1.
</event>
<event>
 5   0  0.9140695E-06  0.2000418E+04  0.7818609E-02  0.8606425E-01
        1   -1    0    0  501    0  0.00000000000E+00  0.00000000000E+00  0.76891188679E+03  0.76891188681E+03  0.50400001928E-02 0.  1.
       -1   -1    0    0    0  501  0.00000000000E+00  0.00000000000E+00 -0.13010828833E+04  0.13010828833E+04  0.50400001928E-02 0. -1.
    10030    2    1    2    0    0  0.00000000000E+00  0.00000000000E+00 -0.53217099648E+03  0.20699947701E+04  0.20004180510E+04 0.  0.
        1    1    3    3  502    0  0.80719729115E+03 -0.12663226779E+03 -0.86305186257E+03  0.11884703259E+04  0.50400001928E-02 0. -1.
       -1    1    3    3    0  502 -0.80719729115E+03  0.12663226779E+03  0.33088086609E+03  0.88152444417E+03  0.50400001928E-02 0.  1.
</event>
<event>
 5   0  0.2020029E-05  0.2000233E+04  0.7818609E-02  0.8606512E-01
       -2   -1    0    0    0  501  0.00000000000E+00  0.00000000000E+00  0.59717039844E+03  0.59717039845E+03  0.25500000920E-02 0. -1.
        2   -1    0    0  501    0  0.00000000000E+00  0.00000000000E+00 -0.16749539961E+04  0.16749539961E+04  0.25500000920E-02 0.  1.
    10030    2    1    2    0    0  0.00000000000E+00  0.00000000000E+00 -0.10777835977E+04  0.22721243946E+04  0.20002329317E+04 0.  0.
        5    1    3    3  502    0  0.79585867141E+03  0.30657138118E+03  0.54444109087E+02  0.85461294609E+03  0.46999998093E+01 0. -1.
       -5    1    3    3    0  502 -0.79585867141E+03 -0.30657138118E+03 -0.11322277068E+04  0.14175114485E+04  0.46999998093E+01 0.  1.
</event>
<event>
 5   0  0.9220260E-06  0.1999332E+04  0.7818609E-02  0.8606933E-01
        1   -1    0    0  501    0  0.00000000000E+00  0.00000000000E+00  0.15879740705E+04  0.15879740705E+04  0.50400001928E-02 0. -1.
       -1   -1    0    0    0  501  0.00000000000E+00  0.00000000000E+00 -0.62931232648E+03  0.62931232650E+03  0.50400001928E-02 0.  1.
    10030    2    1    2    0    0  0.00000000000E+00  0.00000000000E+00  0.95866174402E+03  0.22172863970E+04  0.19993315450E+04 0.  0.
        3    1    3    3  502    0 -0.73026332437E+03  0.63699869619E+03  0.75161530991E+03  0.12263675820E+04  0.10100000352E+00 0. -1.
       -3    1    3    3    0  502  0.73026332437E+03 -0.63699869619E+03  0.20704643410E+03  0.99091881501E+03  0.10100000352E+00 0.  1.
</event>
<event>
 5   0  0.2003576E-05  0.1998253E+04  0.7818609E-02  0.8607438E-01
        2   -1    0    0  501    0  0.00000000000E+00  0.00000000000E+00  0.15115718599E+04  0.15115718599E+04  0.25500000920E-02 0.  1.
       -2   -1    0    0    0  501  0.00000000000E+00  0.00000000000E+00 -0.66040787462E+03  0.66040787462E+03  0.25500000920E-02 0. -1.
    10030    2    1    2    0    0  0.00000000000E+00  0.00000000000E+00  0.85116398530E+03  0.21719797345E+04  0.19982531965E+04 0.  0.
        4    1    3    3  502    0 -0.60405634498E+03  0.25240459917E+02  0.12901812869E+04  0.14248124489E+04  0.12699999809E+01 0.  1.
       -4    1    3    3    0  502  0.60405634498E+03 -0.25240459917E+02 -0.43901730157E+03  0.74716728562E+03  0.12699999809E+01 0. -1.
</event>
<event>
 5   0  0.7132000E-06  0.1998830E+04  0.7818609E-02  0.8607168E-01
        3   -1    0    0  501    0  0.00000000000E+00  0.00000000000E+00  0.11266212619E+04  0.11266212664E+04  0.10100000352E+00 0. -1.
       -3   -1    0    0    0  501  0.00000000000E+00  0.00000000000E+00 -0.88657153427E+03  0.88657154002E+03  0.10100000352E+00 0.  1.
    10030    2    1    2    0    0  0.00000000000E+00  0.00000000000E+00  0.24004972761E+03  0.20131928064E+04  0.19988300088E+04 0.  0.
        3    1    3    3  502    0  0.37167054070E+03 -0.27207998767E+03 -0.77328905357E+03  0.90007915268E+03  0.10100000352E+00 0.  1.
       -3    1    3    3    0  502 -0.37167054070E+03  0.27207998767E+03  0.10133387812E+04  0.11131136537E+04  0.10100000352E+00 0. -1.
</event>
<event>
 5   0  0.7132000E-06  0.2003328E+04  0.7818609E-02  0.8605066E-01
       -4   -1    0    0    0  501  0.00000000000E+00  0.00000000000E+00  0.74580041597E+03  0.74580149729E+03  0.12699999809E+01 0.  1.
        4   -1    0    0  501    0  0.00000000000E+00  0.00000000000E+00 -0.13453046956E+04  0.13453052951E+04  0.12699999809E+01 0. -1.
    10030    2    1    2    0    0  0.00000000000E+00  0.00000000000E+00 -0.59950427965E+03  0.20911067924E+04  0.20033277904E+04 0.  0.
        1    1    3    3  502    0 -0.54705830407E+03  0.83523750755E+03 -0.38349249666E+03  0.10695611142E+04  0.50400001928E-02 0.  1.
       -1    1    3    3    0  502  0.54705830407E+03 -0.83523750755E+03 -0.21601178298E+03  0.10215456781E+04  0.50400001928E-02 0. -1.
</event>
<event>
 5   0  0.9140695E-06  0.1998531E+04  0.7818609E-02  0.8607308E-01
        1   -1    0    0  501    0  0.00000000000E+00  0.00000000000E+00  0.19588829382E+04  0.19588829382E+04  0.50400001928E-02 0.  1.
       -1   -1    0    0    0  501  0.00000000000E+00  0.00000000000E+00 -0.50974526285E+03  0.50974526287E+03  0.50400001928E-02 0. -1.
    10030    2    1    2    0    0  0.00000000000E+00  0.00000000000E+00  0.14491376754E+04  0.24686282011E+04  0.19985307586E+04 0.  0.
        1    1    3    3  502    0  0.84438485342E+03  0.39770090394E+03  0.28371499183E+03  0.97552344221E+03  0.50400001928E-02 0. -1.
       -1    1    3    3    0  502 -0.84438485342E+03 -0.39770090394E+03  0.11654226835E+04  0.14931047589E+04  0.50400001928E-02 0.  1.
</event>
<event>
 5   0  0.9140695E-06  0.1998632E+04  0.7818609E-02  0.8607261E-01
       -1   -1    0    0    0  501  0.00000000000E+00  0.00000000000E+00  0.59848291338E+03  0.59848291340E+03  0.50400001928E-02 0.  1.
        1   -1    0    0  501    0  0.00000000000E+00  0.00000000000E+00 -0.16686062653E+04  0.16686062653E+04  0.50400001928E-02 0. -1.
    10030    2    1    2    0    0  0.00000000000E+00  0.00000000000E+00 -0.10701233519E+04  0.22670891787E+04  0.19986318710E+04 0.  0.
        1    1    3    3  502    0 -0.17797291388E+03  0.94289124417E+03 -0.85168563571E+03  0.12829990953E+04  0.50400001928E-02 0. -1.
       -1    1    3    3    0  502  0.17797291388E+03 -0.94289124417E+03 -0.21843771621E+03  0.98409008342E+03  0.50400001928E-02 0.  1.
</event>
<event>
 5   0  0.9220260E-06  0.1999367E+04  0.7818609E-02  0.8606917E-01
       -1   -1    0    0    0  501  0.00000000000E+00  0.00000000000E+00  0.73684873110E+03  0.73684873111E+03  0.50400001928E-02 0. -1.
        1   -1    0    0  501    0  0.00000000000E+00  0.00000000000E+00 -0.13562721469E+04  0.13562721469E+04  0.50400001928E-02 0.  1.
    10030    2    1    2    0    0  0.00000000000E+00  0.00000000000E+00 -0.61942341580E+03  0.20931208780E+04  0.19993673104E+04 0.  0.
        3    1    3    3  502    0  0.62469168537E+03 -0.31884135054E+03  0.43606017744E+03  0.82586197220E+03  0.10100000352E+00 0. -1.
       -3    1    3    3    0  502 -0.62469168537E+03  0.31884135054E+03 -0.10554835932E+04  0.12672589058E+04  0.10100000352E+00 0.  1.
</event>
<event>
 5   0  0.2003576E-05  0.2037548E+04  0.7818609E-02  0.8589264E-01
        2   -1    0    0  501    0  0.00000000000E+00  0.00000000000E+00  0.77301790069E+03  0.77301790069E+03  0.25500000920E-02 0.  1.
       -2   -1    0    0    0  501  0.00000000000E+00  0.00000000000E+00 -0.13426605600E+04  0.13426605600E+04  0.25500000920E-02 0. -1.
    10030    2    1    2    0    0  0.00000000000E+00  0.00000000000E+00 -0.56964265930E+03  0.21156784607E+04  0.20375481809E+04 0.  0.
        4    1    3    3  502    0  0.41951292389E+03  0.91903629635E+03 -0.42131625381E+03  0.10945902457E+04  0.12699999809E+01 0. -1.
       -4    1    3    3    0  502 -0.41951292389E+03 -0.91903629635E+03 -0.14832640548E+03  0.10210882150E+04  0.12699999809E+01 0.  1.
</event>
<event>
 5   0  0.1999142E-05  0.1995119E+04  0.7818609E-02  0.8608906E-01
       -2   -1    0    0    0  501  0.00000000000E+00  0.00000000000E+00  0.61756646498E+03  0.61756646499E+03  0.25500000920E-02 0. -1.
        2   -1    0    0  501    0  0.00000000000E+00  0.00000000000E+00 -0.16113650470E+04  0.16113650470E+04  0.25500000920E-02 0.  1.
    10030    2    1    2    0    0  0.00000000000E+00  0.00000000000E+00 -0.99379858198E+03  0.22289315119E+04  0.19951190600E+04 0.  0.
        1    1    3    3  502    0 -0.95083247970E+03  0.29201434723E+03 -0.58176349816E+03  0.11523035847E+04  0.50400001928E-02 0.  1.
       -1    1    3    3    0  502  0.95083247970E+03 -0.29201434723E+03 -0.41203508382E+03  0.10766279273E+04  0.50400001928E-02 0. -1.
</event>
<event>
 5   0  0.7132000E-06  0.2000733E+04  0.7818609E-02  0.8606278E-01
       -4   -1    0    0    0  501  0.00000000000E+00  0.00000000000E+00  0.96307332466E+03  0.96307416203E+03  0.12699999809E+01 0.  1.
        4   -1    0    0  501    0  0.00000000000E+00  0.00000000000E+00 -0.10391019624E+04  0.10391027385E+04  0.12699999809E+01 0. -1.
    10030    2    1    2    0    0  0.00000000000E+00  0.00000000000E+00 -0.76028637765E+02  0.20021769006E+04  0.20007328626E+04 0.  0.
        3    1    3    3  502    0  0.47742571430E+03  0.63981480928E+03 -0.64130487439E+03  0.10239971948E+04  0.10100000352E+00 0. -1.
       -3    1    3    3    0  502 -0.47742571430E+03 -0.63981480928E+03  0.56527623663E+03  0.97817970575E+03  0.10100000352E+00 0.  1.
</event>
<event>
 5   0  0.9333353E-06  0.2004207E+04  0.7818609E-02  0.8604656E-01
       -1   -1    0    0    0  501  0.00000000000E+00  0.00000000000E+00  0.37463643523E+03  0.37463643527E+03  0.50400001928E-02 0.  1.
        1   -1    0    0  501    0  0.00000000000E+00  0.00000000000E+00 -0.26804958731E+04  0.26804958731E+04  0.50400001928E-02 0. -1.
    10030    2    1    2    0    0  0.00000000000E+00  0.00000000000E+00 -0.23058594379E+04  0.30551323084E+04  0.20042069939E+04 0.  0.
        2    1    3    3  502    0  0.42830644008E+03 -0.14614915847E+03 -0.25158517070E+04  0.25562307788E+04  0.25500000920E-02 0. -1.
       -2    1    3    3    0  502 -0.42830644008E+03  0.14614915847E+03  0.20999226908E+03  0.49890152957E+03  0.25500000920E-02 0.  1.
</event>
<event>
 5   0  0.9342635E-06  0.2002174E+04  0.7818609E-02  0.8605605E-01
        1   -1    0    0  501    0  0.00000000000E+00  0.00000000000E+00  0.16320778746E+04  0.16320778746E+04  0.50400001928E-02 0.  1.
       -1   -1    0    0    0  501  0.00000000000E+00  0.00000000000E+00 -0.61404878215E+03  0.61404878217E+03  0.50400001928E-02 0. -1.
    10030    2    1    2    0    0  0.00000000000E+00  0.00000000000E+00  0.10180290924E+04  0.22461266568E+04  0.20021742495E+04 0.  0.
        5    1    3    3  502    0 -0.13429440577E+03  0.88326063010E+03  0.10156720370E+04  0.13526995619E+04  0.46999998093E+01 0. -1.
       -5    1    3    3    0  502  0.13429440577E+03 -0.88326063010E+03  0.23570554397E+01  0.89342709485E+03  0.46999998093E+01 0.  1.
</event>
<event>
 5   0  0.2003576E-05  0.2000527E+04  0.7818609E-02  0.8606374E-01
       -2   -1    0    0    0  501  0.00000000000E+00  0.00000000000E+00  0.66005287359E+03  0.66005287360E+03  0.25500000920E-02 0. -1.
        2   -1    0    0  501    0  0.00000000000E+00  0.00000000000E+00 -0.15158293615E+04  0.15158293615E+04  0.25500000920E-02 0.  1.
    10030    2    1    2    0    0  0.00000000000E+00  0.00000000000E+00 -0.85577648787E+03  0.21758822351E+04  0.20005274564E+04 0.  0.
        4    1    3    3  502    0 -0.40395149181E+03  0.12475501920E+02  0.56729667373E+03  0.69653397247E+03  0.12699999809E+01 0. -1.
       -4    1    3    3    0  502  0.40395149181E+03 -0.12475501920E+02 -0.14230731616E+04  0.14793482626E+04  0.12699999809E+01 0.  1.
</event>
<event>
 5   0  0.9220260E-06  0.1988969E+04  0.7818609E-02  0.8611796E-01
        1   -1    0    0  501    0  0.00000000000E+00  0.00000000000E+00  0.11845042258E+04  0.11845042258E+04  0.50400001928E-02 0. -1.
       -1   -1    0    0    0  501  0.00000000000E+00  0.00000000000E+00 -0.83494778712E+03  0.83494778713E+03  0.50400001928E-02 0.  1.
    10030    2    1    2    0    0  0.00000000000E+00  0.00000000000E+00  0.34955643863E+03  0.20194520129E+04  0.19889687601E+04 0.  0.
        3    1    3    3  502    0 -0.35547333940E+03  0.16562001048E+03  0.11026818409E+04  0.11703412047E+04  0.10100000352E+00 0. -1.
       -3    1    3    3    0  502  0.35547333940E+03 -0.16562001048E+03 -0.75312540227E+03  0.84911080822E+03  0.10100000352E+00 0.  1.
</event>
<event>
 5   0  0.2003576E-05  0.1992805E+04  0.7818609E-02  0.8609992E-01
       -2   -1    0    0    0  501  0.00000000000E+00  0.00000000000E+00  0.58335491696E+03  0.58335491697E+03  0.25500000920E-02 0.  1.
        2   -1    0    0  501    0  0.00000000000E+00  0.00000000000E+00 -0.17019107384E+04  0.17019107384E+04  0.25500000920E-02 0. -1.
    10030    2    1    2    0    0  0.00000000000E+00  0.00000000000E+00 -0.11185558214E+04  0.22852656554E+04  0.19928050557E+04 0.  0.
        4    1    3    3  502    0 -0.26877503649E+03  0.10280532694E+03 -0.16532200335E+04  0.16780783794E+04  0.12699999809E+01 0. -1.
       -4    1    3    3    0  502  0.26877503649E+03 -0.10280532694E+03  0.53466421206E+03  0.60718727593E+03  0.12699999809E+01 0.  1.
</event>
<event>
 5   0  0.9220260E-06  0.1998959E+04  0.7818609E-02  0.8607108E-01
       -1   -1    0    0    0  501  0.00000000000E+00  0.00000000000E+00  0.55790524087E+03  0.55790524089E+03  0.50400001928E-02 0. -1.
        1   -1    0    0  501    0  0.00000000000E+00  0.00000000000E+00 -0.17905534435E+04  0.17905534435E+04  0.50400001928E-02 0.  1.
    10030    2    1    2    0    0  0.00000000000E+00  0.00000000000E+00 -0.12326482026E+04  0.23484586844E+04  0.19989588792E+04 0.  0.
        3    1    3    3  502    0 -0.32237693935E+03 -0.26525631744E+03 -0.16832137794E+04  0.17342134938E+04  0.10100000352E+00 0.  1.
       -3    1    3    3    0  502  0.32237693935E+03  0.26525631744E+03  0.45056557674E+03  0.61424519055E+03  0.10100000352E+00 0. -1.
</event>
<event>
 5   0  0.9140695E-06  0.1999431E+04  0.7818609E-02  0.8606887E-01
       -1   -1    0    0    0  501  0.00000000000E+00  0.00000000000E+00  0.45860875517E+03  0.45860875520E+03  0.50400001928E-02 0. -1.
        1   -1    0    0  501    0  0.00000000000E+00  0.00000000000E+00 -0.21792673557E+04  0.21792673557E+04  0.50400001928E-02 0.  1.
    10030    2    1    2    0    0  0.00000000000E+00  0.00000000000E+00 -0.17206586005E+04  0.26378761109E+04  0.19994310083E+04 0.  0.
        1    1    3    3  502    0 -0.91778058110E+03 -0.28678933260E+03 -0.49935355173E+03  0.10834774045E+04  0.50400001928E-02 0.  1.
       -1    1    3    3    0  502  0.91778058110E+03  0.28678933260E+03 -0.12213050488E+04  0.15543987064E+04  0.50400001928E-02 0. -1.
</event>
<event>
 5   0  0.2003576E-05  0.1999164E+04  0.7818609E-02  0.8607012E-01
       -2   -1    0    0    0  501  0.00000000000E+00  0.00000000000E+00  0.90989303241E+03  0.90989303241E+03  0.25500000920E-02 0.  1.
        2   -1    0    0  501    0  0.00000000000E+00  0.00000000000E+00 -0.10981116298E+04  0.10981116298E+04  0.25500000920E-02 0. -1.
    10030    2    1    2    0    0  0.00000000000E+00  0.00000000000E+00 -0.18821859741E+03  0.20080046622E+04  0.19991639460E+04 0.  0.
        4    1    3    3  502    0  0.86196572950E+03 -0.49868749222E+03 -0.18102736854E+03  0.10121495220E+04  0.12699999809E+01 0. -1.
       -4    1    3    3    0  502 -0.86196572950E+03  0.49868749222E+03 -0.71912288678E+01  0.99585514027E+03  0.12699999809E+01 0.  1.
</event>
<event>
 5   0  0.1999142E-05  0.1995524E+04  0.7818609E-02  0.8608716E-01
       -2   -1    0    0    0  501  0.00000000000E+00  0.00000000000E+00  0.40993950705E+03  0.40993950706E+03  0.25500000920E-02 0.  1.
        2   -1    0    0  501    0  0.00000000000E+00  0.00000000000E+00 -0.24284784331E+04  0.24284784331E+04  0.25500000920E-02 0. -1.
    10030    2    1    2    0    0  0.00000000000E+00  0.00000000000E+00 -0.20185389261E+04  0.28384179402E+04  0.19955242437E+04 0.  0.
        1    1    3    3  502    0  0.92266740324E+03 -0.32654251794E+03 -0.73351572725E+03  0.12231068944E+04  0.50400001928E-02 0.  1.
       -1    1    3    3    0  502 -0.92266740324E+03  0.32654251794E+03 -0.12850231988E+04  0.16153110458E+04  0.50400001928E-02 0. -1.
</event>
<event>
 5   0  0.1979765E-05  0.1999910E+04  0.7818609E-02  0.8606663E-01
       -2   -1    0    0    0  501  0.00000000000E+00  0.00000000000E+00  0.19142877364E+04  0.19142877364E+04  0.25500000920E-02 0.  1.
        2   -1    0    0  501    0  0.00000000000E+00  0.00000000000E+00 -0.52234063706E+03  0.52234063707E+03  0.25500000920E-02 0. -1.
    10030    2    1    2    0    0  0.00000000000E+00  0.00000000000E+00  0.13919470994E+04  0.24366283735E+04  0.19999102738E+04 0.  0.
        2    1    3    3  502    0 -0.91742002806E+03  0.19208409226E+03  0.11204041360E+04  0.14607741901E+04  0.25500000920E-02 0.  1.
       -2    1    3    3    0  502  0.91742002806E+03 -0.19208409226E+03  0.27154296337E+03  0.97585418345E+03  0.25500000920E-02 0. -1.
</event>
<event>
 5   0  0.2003576E-05  0.2002343E+04  0.7818609E-02  0.8605526E-01
       -2   -1    0    0    0  501  0.00000000000E+00  0.00000000000E+00  0.79413729847E+03  0.79413729847E+03  0.25500000920E-02 0.  1.
        2   -1    0    0  501    0  0.00000000000E+00  0.00000000000E+00 -0.12621796169E+04  0.12621796169E+04  0.25500000920E-02 0. -1.
    10030    2    1    2    0    0  0.00000000000E+00  0.00000000000E+00 -0.46804231841E+03  0.20563169154E+04  0.20023425393E+04 0.  0.
        4    1    3    3  502    0 -0.81846869801E+03 -0.20798397217E+03  0.31824226351E+03  0.90245669896E+03  0.12699999809E+01 0.  1.
       -4    1    3    3    0  502  0.81846869801E+03  0.20798397217E+03 -0.78628458192E+03  0.11538602164E+04  0.12699999809E+01 0. -1.
</event>
<event>
 5   0  0.9140695E-06  0.1978635E+04  0.7818609E-02  0.8616675E-01
       -1   -1    0    0    0  501  0.00000000000E+00  0.00000000000E+00  0.10585025540E+04  0.10585025540E+04  0.50400001928E-02 0. -1.
        1   -1    0    0  501    0  0.00000000000E+00  0.00000000000E+00 -0.92465462713E+03  0.92465462714E+03  0.50400001928E-02 0.  1.
    10030    2    1    2    0    0  0.00000000000E+00  0.00000000000E+00  0.13384792689E+03  0.19831571812E+04  0.19786351704E+04 0.  0.
        1    1    3    3  502    0 -0.82681104583E+03 -0.16086697114E+03  0.58700734336E+03  0.10266802370E+04  0.50400001928E-02 0. -1.
       -1    1    3    3    0  502  0.82681104583E+03  0.16086697114E+03 -0.45315941647E+03  0.95647694414E+03  0.50400001928E-02 0.  1.
</event>
<event>
 5   0  0.9220260E-06  0.2000428E+04  0.7818609E-02  0.8606421E-01
        1   -1    0    0  501    0  0.00000000000E+00  0.00000000000E+00  0.12321269431E+04  0.12321269431E+04  0.50400001928E-02 0.  1.
       -1   -1    0    0    0  501  0.00000000000E+00  0.00000000000E+00 -0.81195202687E+03  0.81195202689E+03  0.50400001928E-02 0. -1.
    10030    2    1    2    0    0  0.00000000000E+00  0.00000000000E+00  0.42017491619E+03  0.20440789700E+04  0.20004279230E+04 0.  0.
        3    1    3    3  502    0  0.10000868703E+04  0.15433785064E+02  0.21417584788E+03  0.10228798825E+04  0.10100000352E+00 0.  1.
       -3    1    3    3    0  502 -0.10000868703E+04 -0.15433785064E+02  0.20599906831E+03  0.10211990875E+04  0.10100000352E+00 0. -1.
</event>
<event>
 5   0  0.1979765E-05  0.1998575E+04  0.7818609E-02  0.8607287E-01
       -2   -1    0    0    0  501  0.00000000000E+00  0.00000000000E+00  0.56028148781E+03  0.56028148782E+03  0.25500000920E-02 0.  1.
        2   -1    0    0  501    0  0.00000000000E+00  0.00000000000E+00 -0.17822745853E+04  0.17822745853E+04  0.25500000920E-02 0. -1.
    10030    2    1    2    0    0  0.00000000000E+00  0.00000000000E+00 -0.12219930975E+04  0.23425560731E+04  0.19985749487E+04 0.  0.
        2    1    3    3  502    0  0.64432252419E+03  0.63388938511E+03 -0.11104985922E+04  0.14318430050E+04  0.25500000920E-02 0.  1.
       -2    1    3    3    0  502 -0.64432252419E+03 -0.63388938511E+03 -0.11149450531E+03  0.91071306813E+03  0.25500000920E-02 0. -1.
</event>
<event>
 5   0  0.9333353E-06  0.1999314E+04  0.7818609E-02  0.8606941E-01
        1   -1    0    0  501    0  0.00000000000E+00  0.00000000000E+00  0.11032429379E+04  0.11032429379E+04  0.50400001928E-02 0. -1.
       -1   -1    0    0    0  501  0.00000000000E+00  0.00000000000E+00 -0.90579736168E+03  0.90579736170E+03  0.50400001928E-02 0.  1.
    10030    2    1    2    0    0  0.00000000000E+00  0.00000000000E+00  0.19744557625E+03  0.20090402996E+04  0.19993144250E+04 0.  0.
        2    1    3    3  502    0  0.85498443718E+03  0.33164130462E+02 -0.42072155154E+03  0.95346991106E+03  0.25500000920E-02 0.  1.
       -2    1    3    3    0  502 -0.85498443718E+03 -0.33164130462E+02  0.61816712778E+03  0.10555703886E+04  0.25500000920E-02 0. -1.
</event>
<event>
 5   0  0.9370269E-06  0.1997709E+04  0.7818609E-02  0.8607693E-01
        1   -1    0    0  501    0  0.00000000000E+00  0.00000000000E+00  0.84073674576E+03  0.84073674578E+03  0.50400001928E-02 0.  1.
       -1   -1    0    0    0  501  0.00000000000E+00  0.00000000000E+00 -0.11867092598E+04  0.11867092598E+04  0.50400001928E-02 0. -1.
    10030    2    1    2    0    0  0.00000000000E+00  0.00000000000E+00 -0.34597251399E+03  0.20274460055E+04  0.19977087688E+04 0.  0.
        4    1    3    3  502    0  0.88353976649E+02 -0.12352532408E+03 -0.11749223575E+04  0.11846978897E+04  0.12699999809E+01 0. -1.
       -4    1    3    3    0  502 -0.88353976649E+02  0.12352532408E+03  0.82894984347E+03  0.84274811585E+03  0.12699999809E+01 0.  1.
</event>
<event>
 5   0  0.9370269E-06  0.1998433E+04  0.7818609E-02  0.8607354E-01
        1   -1    0    0  501    0  0.00000000000E+00  0.00000000000E+00  0.14632205905E+04  0.14632205905E+04  0.50400001928E-02 0.  1.
       -1   -1    0    0    0  501  0.00000000000E+00  0.00000000000E+00 -0.68235330250E+03  0.68235330252E+03  0.50400001928E-02 0. -1.
    10030    2    1    2    0    0  0.00000000000E+00  0.00000000000E+00  0.78086728796E+03  0.21455738930E+04  0.19984327882E+04 0.  0.
        4    1    3    3  502    0 -0.74814548019E+03  0.10007420722E+02 -0.32060496754E+03  0.81400919289E+03  0.12699999809E+01 0. -1.
       -4    1    3    3    0  502  0.74814548019E+03 -0.10007420722E+02  0.11014722555E+04  0.13315647001E+04  0.12699999809E+01 0.  1.
</event>
<event>
 5   0  0.1979765E-05  0.2001992E+04  0.7818609E-02  0.8605690E-01
        2   -1    0    0  501    0  0.00000000000E+00  0.00000000000E+00  0.16800121714E+04  0.16800121714E+04  0.25500000920E-02 0. -1.
       -2   -1    0    0    0  501  0.00000000000E+00  0.00000000000E+00 -0.59641990733E+03  0.59641990733E+03  0.25500000920E-02 0.  1.
    10030    2    1    2    0    0  0.00000000000E+00  0.00000000000E+00  0.10835922640E+04  0.22764320787E+04  0.20019917118E+04 0.  0.
        2    1    3    3  502    0  0.56099434436E+03 -0.14961924553E+03  0.14689845930E+04  0.15795620619E+04  0.25500000920E-02 0. -1.
       -2    1    3    3    0  502 -0.56099434436E+03  0.14961924553E+03 -0.38539232896E+03  0.69687001676E+03  0.25500000920E-02 0.  1.
</event>
<event>
 5   0  0.9140695E-06  0.1997386E+04  0.7818609E-02  0.8607844E-01
        1   -1    0    0  501    0  0.00000000000E+00  0.00000000000E+00  0.91631845193E+03  0.91631845194E+03  0.50400001928E-02 0. -1.
       -1   -1    0    0    0  501  0.00000000000E+00  0.00000000000E+00 -0.10884732433E+04  0.10884732433E+04  0.50400001928E-02 0.  1.
    10030    2    1    2    0    0  0.00000000000E+00  0.00000000000E+00 -0.17215479134E+03  0.20047916952E+04  0.19973864096E+04 0.  0.
        1    1    3    3  502    0  0.31217712147E+02 -0.80671942582E+03  0.50399449357E+03  0.95172539481E+03  0.50400001928E-02 0. -1.
       -1    1    3    3    0  502 -0.31217712147E+02  0.80671942582E+03 -0.67614928492E+03  0.10530663004E+04  0.50400001928E-02 0.  1.
</event>
<event>
 5   0  0.1979765E-05  0.1996306E+04  0.7818609E-02  0.8608350E-01
       -2   -1    0    0    0  501  0.00000000000E+00  0.00000000000E+00  0.96892000011E+03  0.96892000011E+03  0.25500000920E-02 0. -1.
        2   -1    0    0  501    0  0.00000000000E+00  0.00000000000E+00 -0.10282681631E+04  0.10282681631E+04  0.25500000920E-02 0.  1.
    10030    2    1    2    0    0  0.00000000000E+00  0.00000000000E+00 -0.59348163015E+02  0.19971881632E+04  0.19963061776E+04 0.  0.
        2    1    3    3  502    0  0.60207609196E+03 -0.25887491621E+03 -0.78286641354E+03  0.10209758392E+04  0.25500000920E-02 0.  1.
       -2    1    3    3    0  502 -0.60207609196E+03  0.25887491621E+03  0.72351825053E+03  0.97621232404E+03  0.25500000920E-02 0. -1.
</event>
<event>
 5   0  0.1979765E-05  0.2001093E+04  0.7818609E-02  0.8606110E-01
        2   -1    0    0  501    0  0.00000000000E+00  0.00000000000E+00  0.67610116307E+03  0.67610116308E+03  0.25500000920E-02 0. -1.
       -2   -1    0    0    0  501  0.00000000000E+00  0.00000000000E+00 -0.14806856332E+04  0.14806856332E+04  0.25500000920E-02 0.  1.
    10030    2    1    2    0    0  0.00000000000E+00  0.00000000000E+00 -0.80458447010E+03  0.21567867963E+04  0.20010929801E+04 0.  0.
        2    1    3    3  502    0 -0.68516635462E+03 -0.66726795080E+03 -0.85495057211E+02  0.96021292247E+03  0.25500000920E-02 0. -1.
       -2    1    3    3    0  502  0.68516635462E+03  0.66726795080E+03 -0.71908941289E+03  0.11965738738E+04  0.25500000920E-02 0.  1.
</event>
<event>
 5   0  0.1979765E-05  0.2002488E+04  0.7818609E-02  0.8605459E-01
        2   -1    0    0  501    0  0.00000000000E+00  0.00000000000E+00  0.15721687459E+04  0.15721687459E+04  0.25500000920E-02 0. -1.
       -2   -1    0    0    0  501  0.00000000000E+00  0.00000000000E+00 -0.63764730845E+03  0.63764730845E+03  0.25500000920E-02 0.  1.
    10030    2    1    2    0    0  0.00000000000E+00  0.00000000000E+00  0.93452143743E+03  0.22098160543E+04  0.20024876222E+04 0.  0.
        2    1    3    3  502    0 -0.35648231762E+03 -0.53574782636E+03  0.13137405892E+04  0.14628806212E+04  0.25500000920E-02 0. -1.
       -2    1    3    3    0  502  0.35648231762E+03  0.53574782636E+03 -0.37921915174E+03  0.74693543314E+03  0.25500000920E-02 0.  1.
</event>
<event>
 5   0  0.1999142E-05  0.2000749E+04  0.7818609E-02  0.8606271E-01
        2   -1    0    0  501    0  0.00000000000E+00  0.00000000000E+00  0.98756580822E+03  0.98756580823E+03  0.25500000920E-02 0. -1.
       -2   -1    0    0    0  501  0.00000000000E+00  0.00000000000E+00 -0.10133491546E+04  0.10133491546E+04  0.25500000920E-02 0.  1.
    10030    2    1    2    0    0  0.00000000000E+00  0.00000000000E+00 -0.25783346414E+02  0.20009149629E+04  0.20007488367E+04 0.  0.
        1    1    3    3  502    0 -0.52836026874E+02  0.48287921325E+03  0.86170080622E+03  0.98918767673E+03  0.50400001928E-02 0. -1.
       -1    1    3    3    0  502  0.52836026874E+02 -0.48287921325E+03 -0.88748415263E+03  0.10117272861E+04  0.50400001928E-02 0.  1.
</event>
<event>
 5   0  0.9333353E-06  0.2014349E+04  0.7818609E-02  0.8599942E-01
       -1   -1    0    0    0  501  0.00000000000E+00  0.00000000000E+00  0.68212968278E+03  0.68212968280E+03  0.50400001928E-02 0.  1.
        1   -1    0    0  501    0  0.00000000000E+00  0.00000000000E+00 -0.14871072631E+04  0.14871072631E+04  0.50400001928E-02 0. -1.
    10030    2    1    2    0    0  0.00000000000E+00  0.00000000000E+00 -0.80497758030E+03  0.21692369459E+04  0.20143485355E+04 0.  0.
        2    1    3    3  502    0  0.21015605371E+03 -0.26546022510E+03 -0.14239855596E+04  0.14636835628E+04  0.25500000920E-02 0. -1.
       -2    1    3    3    0  502 -0.21015605371E+03  0.26546022510E+03  0.61900797928E+03  0.70555338313E+03  0.25500000920E-02 0.  1.
</event>
<event>
 5   0  0.2003576E-05  0.1999858E+04  0.7818609E-02  0.8606687E-01
       -2   -1    0    0    0  501  0.00000000000E+00  0.00000000000E+00  0.10556680037E+04  0.10556680037E+04  0.25500000920E-02 0.  1.
        2   -1    0    0  501    0  0.00000000000E+00  0.00000000000E+00 -0.94713268336E+03  0.94713268336E+03  0.25500000920E-02 0. -1.
    10030    2    1    2    0    0  0.00000000000E+00  0.00000000000E+00  0.10853532032E+03  0.20028006870E+04  0.19998576640E+04 0.  0.
        4    1    3    3  502    0 -0.36487548761E+03  0.16988536922E+03  0.97096211852E+03  0.10510776416E+04  0.12699999809E+01 0.  1.
       -4    1    3    3    0  502  0.36487548761E+03 -0.16988536922E+03 -0.86242679820E+03  0.95172304547E+03  0.12699999809E+01 0. -1.
</event>
<event>
 5   0  0.2020029E-05  0.2034919E+04  0.7818609E-02  0.8590467E-01
        2   -1    0    0  501    0  0.00000000000E+00  0.00000000000E+00  0.18519241880E+04  0.18519241880E+04  0.25500000920E-02 0.  1.
       -2   -1    0    0    0  501  0.00000000000E+00  0.00000000000E+00 -0.55899905732E+03  0.55899905733E+03  0.25500000920E-02 0. -1.
    10030    2    1    2    0    0  0.00000000000E+00  0.00000000000E+00  0.12929251307E+04  0.24109232454E+04  0.20349190405E+04 0.  0.
        5    1    3    3  502    0 -0.84615902093E+03 -0.17173745924E+02 -0.22617859982E+02  0.84664850076E+03  0.46999998093E+01 0. -1.
       -5    1    3    3    0  502  0.84615902093E+03  0.17173745924E+02  0.13155429907E+04  0.15642747446E+04  0.46999998093E+01 0.  1.
</event>
<event>
 5   0  0.9220260E-06  0.1993487E+04  0.7818609E-02  0.8609672E-01
        1   -1    0    0  501    0  0.00000000000E+00  0.00000000000E+00  0.15766293504E+04  0.15766293504E+04  0.50400001928E-02 0.  1.
       -1   -1    0    0    0  501  0.00000000000E+00  0.00000000000E+00 -0.63013995684E+03  0.63013995686E+03  0.50400001928E-02 0. -1.
    10030    2    1    2    0    0  0.00000000000E+00  0.00000000000E+00  0.94648939358E+03  0.22067693073E+04  0.19934865446E+04 0.  0.
        3    1    3    3  502    0  0.34605411894E+03 -0.68685974190E+03  0.11750861784E+04  0.14044063853E+04  0.10100000352E+00 0.  1.
       -3    1    3    3    0  502 -0.34605411894E+03  0.68685974190E+03 -0.22859678483E+03  0.80236292195E+03  0.10100000352E+00 0. -1.
</event>
<event>
 5   0  0.2020029E-05  0.2001641E+04  0.7818609E-02  0.8605854E-01
       -2   -1    0    0    0  501  0.00000000000E+00  0.00000000000E+00  0.15497883760E+04  0.15497883760E+04  0.25500000920E-02 0.  1.
        2   -1    0    0  501    0  0.00000000000E+00  0.00000000000E+00 -0.64630837750E+03  0.64630837751E+03  0.25500000920E-02 0. -1.
    10030    2    1    2    0    0  0.00000000000E+00  0.00000000000E+00  0.90347999851E+03  0.21960967535E+04  0.20016405379E+04 0.  0.
        5    1    3    3  502    0  0.85124861952E+03  0.65042367484E+02 -0.12126607386E+03  0.86231216648E+03  0.46999998093E+01 0. -1.
       -5    1    3    3    0  502 -0.85124861952E+03 -0.65042367484E+02  0.10247460724E+04  0.13337845870E+04  0.46999998093E+01 0.  1.
</event>
<event>
 5   0  0.9342635E-06  0.2001153E+04  0.7818609E-02  0.8606082E-01
       -1   -1    0    0    0  501  0.00000000000E+00  0.00000000000E+00  0.10099485730E+04  0.10099485730E+04  0.50400001928E-02 0.  1.
        1   -1    0    0  501    0  0.00000000000E+00  0.00000000000E+00 -0.99129125141E+03  0.99129125143E+03  0.50400001928E-02 0. -1.
    10030    2    1    2    0    0  0.00000000000E+00  0.00000000000E+00  0.18657321601E+02  0.20012398245E+04  0.20011528526E+04 0.  0.
        5    1    3    3  502    0  0.62561976713E+02 -0.80831460239E+03  0.59573678293E+03  0.10060869256E+04  0.46999998093E+01 0.  1.
       -5    1    3    3    0  502 -0.62561976713E+02  0.80831460239E+03 -0.57707946133E+03  0.99515289883E+03  0.46999998093E+01 0. -1.
</event>
<event>
 5   0  0.2020029E-05  0.1994368E+04  0.7818609E-02  0.8609258E-01
       -2   -1    0    0    0  501  0.00000000000E+00  0.00000000000E+00  0.49983931282E+03  0.49983931282E+03  0.25500000920E-02 0.  1.
        2   -1    0    0  501    0  0.00000000000E+00  0.00000000000E+00 -0.19893919723E+04  0.19893919723E+04  0.25500000920E-02 0. -1.
    10030    2    1    2    0    0  0.00000000000E+00  0.00000000000E+00 -0.14895526595E+04  0.24892312851E+04  0.19943683876E+04 0.  0.
        5    1    3    3  502    0  0.72955544464E+03  0.53247459726E+03 -0.21734145819E+03  0.92899932345E+03  0.46999998093E+01 0. -1.
       -5    1    3    3    0  502 -0.72955544464E+03 -0.53247459726E+03 -0.12722112013E+04  0.15602319617E+04  0.46999998093E+01 0.  1.
</event>
<event>
 5   0  0.1979765E-05  0.2013995E+04  0.7818609E-02  0.8600105E-01
        2   -1    0    0  501    0  0.00000000000E+00  0.00000000000E+00  0.76865554670E+03  0.76865554670E+03  0.25500000920E-02 0. -1.
       -2   -1    0    0    0  501  0.00000000000E+00  0.00000000000E+00 -0.13192439712E+04  0.13192439712E+04  0.25500000920E-02 0.  1.
    10030    2    1    2    0    0  0.00000000000E+00  0.00000000000E+00 -0.55058842453E+03  0.20878995179E+04  0.20139952293E+04 0.  0.
        2    1    3    3  502    0  0.52276265688E+03 -0.54395630703E+03 -0.96675909098E+03  0.12262921346E+04  0.25500000920E-02 0.  1.
       -2    1    3    3    0  502 -0.52276265688E+03  0.54395630703E+03  0.41617066645E+03  0.86160738333E+03  0.25500000920E-02 0. -1.
</event>
<event>
 5   0  0.9140695E-06  0.2000552E+04  0.7818609E-02  0.8606362E-01
       -1   -1    0    0    0  501  0.00000000000E+00  0.00000000000E+00  0.12769161537E+04  0.12769161537E+04  0.50400001928E-02 0. -1.
        1   -1    0    0  501    0  0.00000000000E+00  0.00000000000E+00 -0.78356942110E+03  0.78356942111E+03  0.50400001928E-02 0.  1.
    10030    2    1    2    0    0  0.00000000000E+00  0.00000000000E+00  0.49334673262E+03  0.20604855748E+04  0.20005523751E+04 0.  0.
        1    1    3    3  502    0  0.19153341127E+03  0.31541916590E+03  0.12042455978E+04  0.12595164778E+04  0.50400001928E-02 0. -1.
       -1    1    3    3    0  502 -0.19153341127E+03 -0.31541916590E+03 -0.71089886522E+03  0.80096909706E+03  0.50400001928E-02 0.  1.
</event>
<event>
 5   0  0.9220260E-06  0.1996400E+04  0.7818609E-02  0.8608305E-01
        1   -1    0    0  501    0  0.00000000000E+00  0.00000000000E+00  0.10422367297E+04  0.10422367297E+04  0.50400001928E-02 0.  1.
       -1   -1    0    0    0  501  0.00000000000E+00  0.00000000000E+00 -0.95602439393E+03  0.95602439395E+03  0.50400001928E-02 0. -1.
    10030    2    1    2    0    0  0.00000000000E+00  0.00000000000E+00  0.86212335804E+02  0.19982611237E+04  0.19964004988E+04 0.  0.
        3    1    3    3  502    0  0.45089957148E+03 -0.38107972313E+03 -0.76254867808E+03  0.96437164806E+03  0.10100000352E+00 0. -1.
       -3    1    3    3    0  502 -0.45089957148E+03  0.38107972313E+03  0.84876101388E+03  0.10338894756E+04  0.10100000352E+00 0.  1.
</event>
<event>
 5   0  0.2003576E-05  0.2005545E+04  0.7818609E-02  0.8604033E-01
        2   -1    0    0  501    0  0.00000000000E+00  0.00000000000E+00  0.15612687585E+04  0.15612687585E+04  0.25500000920E-02 0. -1.
       -2   -1    0    0    0  501  0.00000000000E+00  0.00000000000E+00 -0.64406094359E+03  0.64406094360E+03  0.25500000920E-02 0.  1.
    10030    2    1    2    0    0  0.00000000000E+00  0.00000000000E+00  0.91720781494E+03  0.22053297021E+04  0.20055445443E+04 0.  0.
        4    1    3    3  502    0 -0.96293010678E+03  0.21919874975E+03  0.64991230853E+03  0.11822309859E+04  0.12699999809E+01 0.  1.
       -4    1    3    3    0  502  0.96293010678E+03 -0.21919874975E+03  0.26729550641E+03  0.10230987162E+04  0.12699999809E+01 0. -1.
</event>
<event>
 5   0  0.2003576E-05  0.2003397E+04  0.7818609E-02  0.8605034E-01
        2   -1    0    0  501    0  0.00000000000E+00  0.00000000000E+00  0.17292990273E+04  0.17292990273E+04  0.25500000920E-02 0.  1.
       -2   -1    0    0    0  501  0.00000000000E+00  0.00000000000E+00 -0.58023529688E+03  0.58023529688E+03  0.25500000920E-02 0. -1.
    10030    2    1    2    0    0  0.00000000000E+00  0.00000000000E+00  0.11490637304E+04  0.23095343242E+04  0.20033974488E+04 0.  0.
        4    1    3    3  502    0 -0.59548747803E+03  0.43523414609E+03 -0.20680097353E+03  0.76603025657E+03  0.12699999809E+01 0. -1.
       -4    1    3    3    0  502  0.59548747803E+03 -0.43523414609E+03  0.13558647040E+04  0.15435040676E+04  0.12699999809E+01 0.  1.
</event>
<event>
 5   0  0.1999142E-05  0.1986292E+04  0.7818609E-02  0.8613057E-01
        2   -1    0    0  501    0  0.00000000000E+00  0.00000000000E+00  0.11036281728E+04  0.11036281728E+04  0.25500000920E-02 0. -1.
       -2   -1    0    0    0  501  0.00000000000E+00  0.00000000000E+00 -0.89372387256E+03  0.89372387257E+03  0.25500000920E-02 0.  1.
    10030    2    1    2    0    0  0.00000000000E+00  0.00000000000E+00  0.20990430023E+03  0.19973520454E+04  0.19862918662E+04 0.  0.
        1    1    3    3  502    0 -0.34854633090E+03 -0.44585665013E+03 -0.71572101922E+03  0.91243042180E+03  0.50400001928E-02 0.  1.
       -1    1    3    3    0  502  0.34854633090E+03  0.44585665013E+03  0.92562531946E+03  0.10849216236E+04  0.50400001928E-02 0. -1.
</event>
<event>
 5   0  0.2020029E-05  0.1999223E+04  0.7818609E-02  0.8606984E-01
       -2   -1    0    0    0  501  0.00000000000E+00  0.00000000000E+00  0.39610778293E+03  0.39610778294E+03  0.25500000920E-02 0. -1.
        2   -1    0    0  501    0  0.00000000000E+00  0.00000000000E+00 -0.25226034962E+04  0.25226034962E+04  0.25500000920E-02 0.  1.
    10030    2    1    2    0    0  0.00000000000E+00  0.00000000000E+00 -0.21264957132E+04  0.29187112791E+04  0.19992227270E+04 0.  0.
        5    1    3    3  502    0  0.63761994036E+03  0.37758033823E+03 -0.20426752595E+04  0.21729404975E+04  0.46999998093E+01 0.  1.
       -5    1    3    3    0  502 -0.63761994036E+03 -0.37758033823E+03 -0.83820453755E+02  0.74577078156E+03  0.46999998093E+01 0. -1.
</event>
<event>
 5   0  0.9220260E-06  0.1999239E+04  0.7818609E-02  0.8606977E-01
        1   -1    0    0  501    0  0.00000000000E+00  0.00000000000E+00  0.12892768961E+04  0.12892768961E+04  0.50400001928E-02 0.  1.
       -1   -1    0    0    0  501  0.00000000000E+00  0.00000000000E+00 -0.77503830302E+03  0.77503830304E+03  0.50400001928E-02 0. -1.
    10030    2    1    2    0    0  0.00000000000E+00  0.00000000000E+00  0.51423859307E+03  0.20643151991E+04  0.19992388329E+04 0.  0.
        3    1    3    3  502    0  0.15790994729E+03 -0.93422792571E+03  0.58611524960E+03  0.11141133087E+04  0.10100000352E+00 0.  1.
       -3    1    3    3    0  502 -0.15790994729E+03  0.93422792571E+03 -0.71876656531E+02  0.95020189043E+03  0.10100000352E+00 0. -1.
</event>
<event>
 5   0  0.9140695E-06  0.2004724E+04  0.7818609E-02  0.8604415E-01
        1   -1    0    0  501    0  0.00000000000E+00  0.00000000000E+00  0.17820081342E+04  0.17820081342E+04  0.50400001928E-02 0. -1.
       -1   -1    0    0    0  501  0.00000000000E+00  0.00000000000E+00 -0.56381877006E+03  0.56381877008E+03  0.50400001928E-02 0.  1.
    10030    2    1    2    0    0  0.00000000000E+00  0.00000000000E+00  0.12181893641E+04  0.23458269043E+04  0.20047240553E+04 0.  0.
        1    1    3    3  502    0  0.56604304360E+03  0.80750723171E+03  0.81925620169E+03  0.12820504594E+04  0.50400001928E-02 0.  1.
       -1    1    3    3    0  502 -0.56604304360E+03 -0.80750723171E+03  0.39893316242E+03  0.10637764448E+04  0.50400001928E-02 0. -1.
</event>
<event>
 5   0  0.1979765E-05  0.2001092E+04  0.7818609E-02  0.8606110E-01
       -2   -1    0    0    0  501  0.00000000000E+00  0.00000000000E+00  0.66242088022E+03  0.66242088023E+03  0.25500000920E-02 0. -1.
        2   -1    0    0  501    0  0.00000000000E+00  0.00000000000E+00 -0.15112635292E+04  0.15112635292E+04  0.25500000920E-02 0.  1.
    10030    2    1    2    0    0  0.00000000000E+00  0.00000000000E+00 -0.84884264897E+03  0.21736844094E+04  0.20010922190E+04 0.  0.
        2    1    3    3  502    0  0.23490604012E+03  0.83746783087E+03  0.11276071051E+03  0.87706795248E+03  0.25500000920E-02 0. -1.
       -2    1    3    3    0  502 -0.23490604012E+03 -0.83746783087E+03 -0.96160335948E+03  0.12966164569E+04  0.25500000920E-02 0.  1.
</event>
<event>
 5   0  0.9342635E-06  0.2001950E+04  0.7818609E-02  0.8605709E-01
        1   -1    0    0  501    0  0.00000000000E+00  0.00000000000E+00  0.22713476573E+04  0.22713476574E+04  0.50400001928E-02 0. -1.
       -1   -1    0    0    0  501  0.00000000000E+00  0.00000000000E+00 -0.44112623853E+03  0.44112623856E+03  0.50400001928E-02 0.  1.
    10030    2    1    2    0    0  0.00000000000E+00  0.00000000000E+00  0.18302214188E+04  0.27124738959E+04  0.20019500978E+04 0.  0.
        5    1    3    3  502    0 -0.42557027740E+03  0.90370819562E+03  0.82803277942E+03  0.12974817677E+04  0.46999998093E+01 0. -1.
       -5    1    3    3    0  502  0.42557027740E+03 -0.90370819562E+03  0.10021886394E+04  0.14149921282E+04  0.46999998093E+01 0.  1.
</event>
<event>
 5   0  0.9140695E-06  0.2019181E+04  0.7818609E-02  0.8597705E-01
        1   -1    0    0  501    0  0.00000000000E+00  0.00000000000E+00  0.83150562689E+03  0.83150562690E+03  0.50400001928E-02 0.  1.
       -1   -1    0    0    0  501  0.00000000000E+00  0.00000000000E+00 -0.12258165954E+04  0.12258165954E+04  0.50400001928E-02 0. -1.
    10030    2    1    2    0    0  0.00000000000E+00  0.00000000000E+00 -0.39431096846E+03  0.20573222223E+04  0.20191814149E+04 0.  0.
        1    1    3    3  502    0  0.71439213834E+03 -0.71304850225E+03 -0.21945735417E+03  0.10329355373E+04  0.50400001928E-02 0.  1.
       -1    1    3    3    0  502 -0.71439213834E+03  0.71304850225E+03 -0.17485361430E+03  0.10243866850E+04  0.50400001928E-02 0. -1.
</event>
<event>
 5   0  0.9333353E-06  0.2006455E+04  0.7818609E-02  0.8603608E-01
       -1   -1    0    0    0  501  0.00000000000E+00  0.00000000000E+00  0.80809371474E+03  0.80809371476E+03  0.50400001928E-02 0. -1.
        1   -1    0    0  501    0  0.00000000000E+00  0.00000000000E+00 -0.12454815988E+04  0.12454815988E+04  0.50400001928E-02 0.  1.
    10030    2    1    2    0    0  0.00000000000E+00  0.00000000000E+00 -0.43738788405E+03  0.20535753136E+04  0.20064554337E+04 0.  0.
        2    1    3    3  502    0  0.22127501329E+03 -0.31896443756E+03 -0.11654941701E+04  0.12284451980E+04  0.25500000920E-02 0.  1.
       -2    1    3    3    0  502 -0.22127501329E+03  0.31896443756E+03  0.72810628601E+03  0.82513011560E+03  0.25500000920E-02 0. -1.
</event>
<event>
 5   0  0.1979765E-05  0.1997857E+04  0.7818609E-02  0.8607623E-01
       -2   -1    0    0    0  501  0.00000000000E+00  0.00000000000E+00  0.58488297203E+03  0.58488297204E+03  0.25500000920E-02 0.  1.
        2   -1    0    0  501    0  0.00000000000E+00  0.00000000000E+00 -0.17060813386E+04  0.17060813386E+04  0.25500000920E-02 0. -1.
    10030    2    1    2    0    0  0.00000000000E+00  0.00000000000E+00 -0.11211983665E+04  0.22909643106E+04  0.19978567755E+04 0.  0.
        2    1    3    3  502    0  0.26128699420E+03  0.78638508515E+03 -0.12002805036E+04  0.14585423143E+04  0.25500000920E-02 0. -1.
       -2    1    3    3    0  502 -0.26128699420E+03 -0.78638508515E+03  0.79082137021E+02  0.83242199627E+03  0.25500000920E-02 0.  1.
</event>
<event>
 5   0  0.2038882E-05  0.2000066E+04  0.7818609E-02  0.8606590E-01
       -2   -1    0    0    0  501  0.00000000000E+00  0.00000000000E+00  0.61366851050E+03  0.61366851050E+03  0.25500000920E-02 0.  1.
        2   -1    0    0  501    0  0.00000000000E+00  0.00000000000E+00 -0.16296515534E+04  0.16296515534E+04  0.25500000920E-02 0. -1.
    10030    2    1    2    0    0  0.00000000000E+00  0.00000000000E+00 -0.10159830429E+04  0.22433200639E+04  0.20000658403E+04 0.  0.
        3    1    3    3  502    0 -0.75733478574E+03  0.48928411715E+03 -0.99316438172E+03  0.13413912272E+04  0.10100000352E+00 0. -1.
       -3    1    3    3    0  502  0.75733478574E+03 -0.48928411715E+03 -0.22818661150E+02  0.90192883671E+03  0.10100000352E+00 0.  1.
</event>
<event>
 5   0  0.9342635E-06  0.2005399E+04  0.7818609E-02  0.8604100E-01
       -1   -1    0    0    0  501  0.00000000000E+00  0.00000000000E+00  0.12390757937E+04  0.12390757937E+04  0.50400001928E-02 0. -1.
        1   -1    0    0  501    0  0.00000000000E+00  0.00000000000E+00 -0.81141666427E+03  0.81141666428E+03  0.50400001928E-02 0.  1.
    10030    2    1    2    0    0  0.00000000000E+00  0.00000000000E+00  0.42765912943E+03  0.20504924580E+04  0.20053994588E+04 0.  0.
        5    1    3    3  502    0 -0.60223463966E+03  0.25402835830E+03 -0.56364142277E+03  0.86309368639E+03  0.46999998093E+01 0.  1.
       -5    1    3    3    0  502  0.60223463966E+03 -0.25402835830E+03  0.99130055219E+03  0.11873987716E+04  0.46999998093E+01 0. -1.
</event>
<event>
 5   0  0.9140695E-06  0.2001697E+04  0.7818609E-02  0.8605828E-01
        1   -1    0    0  501    0  0.00000000000E+00  0.00000000000E+00  0.11233613851E+04  0.11233613851E+04  0.50400001928E-02 0.  1.
       -1   -1    0    0    0  501  0.00000000000E+00  0.00000000000E+00 -0.89169655179E+03  0.89169655181E+03  0.50400001928E-02 0. -1.
    10030    2    1    2    0    0  0.00000000000E+00  0.00000000000E+00  0.23166483328E+03  0.20150579369E+04  0.20016967538E+04 0.  0.
        1    1    3    3  502    0 -0.27467871147E+03  0.26764113709E+03  0.10464582260E+04  0.11145200723E+04  0.50400001928E-02 0.  1.
       -1    1    3    3    0  502  0.27467871147E+03 -0.26764113709E+03 -0.81479339269E+03  0.90053786461E+03  0.50400001928E-02 0. -1.
</event>
<event>
 5   0  0.9220260E-06  0.2002618E+04  0.7818609E-02  0.8605398E-01
        1   -1    0    0  501    0  0.00000000000E+00  0.00000000000E+00  0.24780956970E+04  0.24780956970E+04  0.50400001928E-02 0. -1.
       -1   -1    0    0    0  501  0.00000000000E+00  0.00000000000E+00 -0.40459273644E+03  0.40459273647E+03  0.50400001928E-02 0.  1.
    10030    2    1    2    0    0  0.00000000000E+00  0.00000000000E+00  0.20735029605E+04  0.28826884335E+04  0.20026178060E+04 0.  0.
        3    1    3    3  502    0  0.11182713510E+03 -0.29622696728E+03  0.24041353762E+04  0.24248964187E+04  0.10100000352E+00 0. -1.
       -3    1    3    3    0  502 -0.11182713510E+03  0.29622696728E+03 -0.33063241564E+03  0.45779201474E+03  0.10100000352E+00 0.  1.
</event>
<event>
 5   0  0.2020029E-05  0.1997722E+04  0.7818609E-02  0.8607687E-01
        2   -1    0    0  501    0  0.00000000000E+00  0.00000000000E+00  0.10751688715E+04  0.10751688715E+04  0.25500000920E-02 0. -1.
       -2   -1    0    0    0  501  0.00000000000E+00  0.00000000000E+00 -0.92796858136E+03  0.92796858136E+03  0.25500000920E-02 0.  1.
    10030    2    1    2    0    0  0.00000000000E+00  0.00000000000E+00  0.14720029014E+03  0.20031374529E+04  0.19977216347E+04 0.  0.
        5    1    3    3  502    0  0.94731377285E+02  0.86397784521E+03  0.56714290298E+03  0.10378366506E+04  0.46999998093E+01 0. -1.
       -5    1    3    3    0  502 -0.94731377285E+02 -0.86397784521E+03 -0.41994261284E+03  0.96530080230E+03  0.46999998093E+01 0.  1.
</event>
<event>
 5   0  0.7132000E-06  0.1998230E+04  0.7818609E-02  0.8607449E-01
        3   -1    0    0  501    0  0.00000000000E+00  0.00000000000E+00  0.90975675730E+03  0.90975676291E+03  0.10100000352E+00 0. -1.
       -3   -1    0    0    0  501  0.00000000000E+00  0.00000000000E+00 -0.10972504634E+04  0.10972504681E+04  0.10100000352E+00 0.  1.
    10030    2    1    2    0    0  0.00000000000E+00  0.00000000000E+00 -0.18749370614E+03  0.20070072310E+04  0.19982302509E+04 0.  0.
        2    1    3    3  502    0  0.30134209775E+03 -0.60303632762E+03 -0.83439423756E+03  0.10726945586E+04  0.25500000920E-02 0.  1.
       -2    1    3    3    0  502 -0.30134209775E+03  0.60303632762E+03  0.64690053142E+03  0.93431267243E+03  0.25500000920E-02 0. -1.
</event>
<event>
 5   0  0.1979765E-05  0.1971078E+04  0.7818609E-02  0.8620263E-01
        2   -1    0    0  501    0  0.00000000000E+00  0.00000000000E+00  0.13501087451E+04  0.13501087451E+04  0.25500000920E-02 0.  1.
       -2   -1    0    0    0  501  0.00000000000E+00  0.00000000000E+00 -0.71941369829E+03  0.71941369830E+03  0.25500000920E-02 0. -1.
    10030    2    1    2    0    0  0.00000000000E+00  0.00000000000E+00  0.63069504682E+03  0.20695224434E+04  0.19710775991E+04 0.  0.
        2    1    3    3  502    0 -0.61890089779E+03  0.56123035081E+03  0.86420744667E+03  0.12020284268E+04  0.25500000920E-02 0.  1.
       -2    1    3    3    0  502  0.61890089779E+03 -0.56123035081E+03 -0.23351239985E+03  0.86749401661E+03  0.25500000920E-02 0. -1.
</event>
<event>
 5   0  0.1979765E-05  0.1998536E+04  0.7818609E-02  0.8607305E-01
       -2   -1    0    0    0  501  0.00000000000E+00  0.00000000000E+00  0.10609866680E+04  0.10609866680E+04  0.25500000920E-02 0. -1.
        2   -1    0    0  501    0  0.00000000000E+00  0.00000000000E+00 -0.94113968198E+03  0.94113968199E+03  0.25500000920E-02 0.  1.
    10030    2    1    2    0    0  0.00000000000E+00  0.00000000000E+00  0.11984698606E+03  0.20021263500E+04  0.19985361196E+04 0.  0.
        2    1    3    3  502    0 -0.52261960124E+03  0.13042702892E+03 -0.78325006282E+03  0.95059093115E+03  0.25500000920E-02 0.  1.
       -2    1    3    3    0  502  0.52261960124E+03 -0.13042702892E+03  0.90309704887E+03  0.10515354189E+04  0.25500000920E-02 0. -1.
</event>
<event>
 5   0  0.2020029E-05  0.1999904E+04  0.7818609E-02  0.8606665E-01
        2   -1    0    0  501    0  0.00000000000E+00  0.00000000000E+00  0.27195610621E+04  0.27195610621E+04  0.25500000920E-02 0. -1.
       -2   -1    0    0    0  501  0.00000000000E+00  0.00000000000E+00 -0.36767122539E+03  0.36767122539E+03  0.25500000920E-02 0.  1.
    10030    2    1    2    0    0  0.00000000000E+00  0.00000000000E+00  0.23518898367E+04  0.30872322875E+04  0.19999043459E+04 0.  0.
        5    1    3    3  502    0  0.54346361729E+02 -0.68732072632E+03  0.57947823091E+02  0.69191281825E+03  0.46999998093E+01 0.  1.
       -5    1    3    3    0  502 -0.54346361729E+02  0.68732072632E+03  0.22939420136E+04  0.23953194692E+04  0.46999998093E+01 0. -1.
</event>
<event>
 5   0  0.1999142E-05  0.2013144E+04  0.7818609E-02  0.8600500E-01
       -2   -1    0    0    0  501  0.00000000000E+00  0.00000000000E+00  0.83062047938E+03  0.83062047939E+03  0.25500000920E-02 0.  1.
        2   -1    0    0  501    0  0.00000000000E+00  0.00000000000E+00 -0.12197951616E+04  0.12197951616E+04  0.25500000920E-02 0. -1.
    10030    2    1    2    0    0  0.00000000000E+00  0.00000000000E+00 -0.38917468225E+03  0.20504156410E+04  0.20131436530E+04 0.  0.
        1    1    3    3  502    0  0.31874675598E+03  0.38567914054E+03 -0.10841643892E+04  0.11940520578E+04  0.50400001928E-02 0. -1.
       -1    1    3    3    0  502 -0.31874675598E+03 -0.38567914054E+03  0.69498970694E+03  0.85636358323E+03  0.50400001928E-02 0.  1.
</event>
<event>
 5   0  0.1979765E-05  0.1994194E+04  0.7818609E-02  0.8609340E-01
       -2   -1    0    0    0  501  0.00000000000E+00  0.00000000000E+00  0.86377931564E+03  0.86377931565E+03  0.25500000920E-02 0.  1.
        2   -1    0    0  501    0  0.00000000000E+00  0.00000000000E+00 -0.11509916770E+04  0.11509916770E+04  0.25500000920E-02 0. -1.
    10030    2    1    2    0    0  0.00000000000E+00  0.00000000000E+00 -0.28721236138E+03  0.20147709927E+04  0.19941943768E+04 0.  0.
        2    1    3    3  502    0  0.42988201011E+03  0.25548173386E+03  0.72792631550E+03  0.88314561639E+03  0.25500000920E-02 0.  1.
       -2    1    3    3    0  502 -0.42988201011E+03 -0.25548173386E+03 -0.10151386769E+04  0.11316253763E+04  0.25500000920E-02 0. -1.
</event>
<event>
 5   0  0.1999142E-05  0.2000889E+04  0.7818609E-02  0.8606205E-01
        2   -1    0    0  501    0  0.00000000000E+00  0.00000000000E+00  0.92544674413E+03  0.92544674413E+03  0.25500000920E-02 0. -1.
       -2   -1    0    0    0  501  0.00000000000E+00  0.00000000000E+00 -0.10815195557E+04  0.10815195557E+04  0.25500000920E-02 0.  1.
    10030    2    1    2    0    0  0.00000000000E+00  0.00000000000E+00 -0.15607281157E+03  0.20069662998E+04  0.20008885542E+04 0.  0.
        1    1    3    3  502    0  0.33253403867E+02 -0.15336219208E+03 -0.10690978830E+04  0.10805535777E+04  0.50400001928E-02 0.  1.
       -1    1    3    3    0  502 -0.33253403867E+02  0.15336219208E+03  0.91302507138E+03  0.92641272218E+03  0.50400001928E-02 0. -1.
</event>
<event>
 5   0  0.9370269E-06  0.1987304E+04  0.7818609E-02  0.8612580E-01
       -1   -1    0    0    0  501  0.00000000000E+00  0.00000000000E+00  0.43983658714E+03  0.43983658717E+03  0.50400001928E-02 0. -1.
        1   -1    0    0  501    0  0.00000000000E+00  0.00000000000E+00 -0.22447973864E+04  0.22447973865E+04  0.50400001928E-02 0.  1.
    10030    2    1    2    0    0  0.00000000000E+00  0.00000000000E+00 -0.18049607993E+04  0.26846339736E+04  0.19873037225E+04 0.  0.
        4    1    3    3  502    0 -0.92970228951E+03  0.63094605460E+02 -0.13685190407E+04  0.16556488922E+04  0.12699999809E+01 0.  1.
       -4    1    3    3    0  502  0.92970228951E+03 -0.63094605460E+02 -0.43644175857E+03  0.10289850815E+04  0.12699999809E+01 0. -1.
</event>
<event>
 5   0  0.9370269E-06  0.2002543E+04  0.7818609E-02  0.8605432E-01
        1   -1    0    0  501    0  0.00000000000E+00  0.00000000000E+00  0.74895876638E+03  0.74895876639E+03  0.50400001928E-02 0. -1.
       -1   -1    0    0    0  501  0.00000000000E+00  0.00000000000E+00 -0.13385850280E+04  0.13385850281E+04  0.50400001928E-02 0.  1.
    10030    2    1    2    0    0  0.00000000000E+00  0.00000000000E+00 -0.58962626167E+03  0.20875437944E+04  0.20025433741E+04 0.  0.
        4    1    3    3  502    0  0.48446820615E+03  0.55345434286E+03 -0.10030034311E+04  0.12438000837E+04  0.12699999809E+01 0.  1.
       -4    1    3    3    0  502 -0.48446820615E+03 -0.55345434286E+03  0.41337716943E+03  0.84374371080E+03  0.12699999809E+01 0. -1.
</event>
<event>
 5   0  0.9370269E-06  0.2002626E+04  0.7818609E-02  0.8605394E-01
        1   -1    0    0  501    0  0.00000000000E+00  0.00000000000E+00  0.76193098824E+03  0.76193098826E+03  0.50400001928E-02 0. -1.
       -1   -1    0    0    0  501  0.00000000000E+00  0.00000000000E+00 -0.13159035459E+04  0.13159035459E+04  0.50400001928E-02 0.  1.
    10030    2    1    2    0    0  0.00000000000E+00  0.00000000000E+00 -0.55397255768E+03  0.20778345342E+04  0.20026259653E+04 0.  0.
        4    1    3    3  502    0  0.49913333120E+03 -0.74584235601E+03 -0.73774851415E+03  0.11617613289E+04  0.12699999809E+01 0.  1.
       -4    1    3    3    0  502 -0.49913333120E+03  0.74584235601E+03  0.18377595647E+03  0.91607320527E+03  0.12699999809E+01 0. -1.
</event>
<event>
 5   0  0.2003576E-05  0.1993630E+04  0.7818609E-02  0.8609605E-01
        2   -1    0    0  501    0  0.00000000000E+00  0.00000000000E+00  0.34675470129E+03  0.34675470130E+03  0.25500000920E-02 0.  1.
       -2   -1    0    0    0  501  0.00000000000E+00  0.00000000000E+00 -0.28655409876E+04  0.28655409876E+04  0.25500000920E-02 0. -1.
    10030    2    1    2    0    0  0.00000000000E+00  0.00000000000E+00 -0.25187862863E+04  0.32122956889E+04  0.19936296639E+04 0.  0.
        4    1    3    3  502    0 -0.32798783642E+03  0.85963969430E+03 -0.64144724506E+03  0.11216116110E+04  0.12699999809E+01 0.  1.
       -4    1    3    3    0  502  0.32798783642E+03 -0.85963969430E+03 -0.18773390413E+04  0.20906840779E+04  0.12699999809E+01 0. -1.
</event>
<event>
 5   0  0.9342635E-06  0.1997618E+04  0.7818609E-02  0.8607735E-01
       -1   -1    0    0    0  501  0.00000000000E+00  0.00000000000E+00  0.11930471886E+04  0.11930471886E+04  0.50400001928E-02 0. -1.
        1   -1    0    0  501    0  0.00000000000E+00  0.00000000000E+00 -0.83619414697E+03  0.83619414698E+03  0.50400001928E-02 0.  1.
    10030    2    1    2    0    0  0.00000000000E+00  0.00000000000E+00  0.35685304166E+03  0.20292413356E+04  0.19976176573E+04 0.  0.
        5    1    3    3  502    0  0.82682473585E+03 -0.18209456158E+03 -0.35986734395E+03  0.91995878626E+03  0.46999998093E+01 0.  1.
       -5    1    3    3    0  502 -0.82682473585E+03  0.18209456158E+03  0.71672038562E+03  0.11092825494E+04  0.46999998093E+01 0. -1.
</event>
<event>
 5   0  0.9333353E-06  0.1994427E+04  0.7818609E-02  0.8609231E-01
        1   -1    0    0  501    0  0.00000000000E+00  0.00000000000E+00  0.91128186415E+03  0.91128186416E+03  0.50400001928E-02 0.  1.
       -1   -1    0    0    0  501  0.00000000000E+00  0.00000000000E+00 -0.10912485453E+04  0.10912485453E+04  0.50400001928E-02 0. -1.
    10030    2    1    2    0    0  0.00000000000E+00  0.00000000000E+00 -0.17996668114E+03  0.20025304095E+04  0.19944272447E+04 0.  0.
        2    1    3    3  502    0 -0.32441010913E+03  0.75502352072E+03 -0.65719674866E+03  0.10522404679E+04  0.25500000920E-02 0.  1.
       -2    1    3    3    0  502  0.32441010913E+03 -0.75502352072E+03  0.47723006752E+03  0.95028994160E+03  0.25500000920E-02 0. -1.
</event>
<event>
 5   0  0.9370269E-06  0.2001837E+04  0.7818609E-02  0.8605762E-01
        1   -1    0    0  501    0  0.00000000000E+00  0.00000000000E+00  0.92356693350E+03  0.92356693352E+03  0.50400001928E-02 0.  1.
       -1   -1    0    0    0  501  0.00000000000E+00  0.00000000000E+00 -0.10847485816E+04  0.10847485816E+04  0.50400001928E-02 0. -1.
    10030    2    1    2    0    0  0.00000000000E+00  0.00000000000E+00 -0.16118164810E+03  0.20083155151E+04  0.20018370774E+04 0.  0.
        4    1    3    3  502    0 -0.91430602544E+03 -0.33338474812E+03  0.15412231493E+03  0.98532035364E+03  0.12699999809E+01 0.  1.
       -4    1    3    3    0  502  0.91430602544E+03  0.33338474812E+03 -0.31530396302E+03  0.10229951615E+04  0.12699999809E+01 0. -1.
</event>
<event>
 5   0  0.9370269E-06  0.1999721E+04  0.7818609E-02  0.8606751E-01
       -1   -1    0    0    0  501  0.00000000000E+00  0.00000000000E+00  0.18249504910E+04  0.18249504910E+04  0.50400001928E-02 0.  1.
        1   -1    0    0  501    0  0.00000000000E+00  0.00000000000E+00 -0.54780702189E+03  0.54780702191E+03  0.50400001928E-02 0. -1.
    10030    2    1    2    0    0  0.00000000000E+00  0.00000000000E+00  0.12771434691E+04  0.23727575129E+04  0.19997206741E+04 0.  0.
        4    1    3    3  502    0 -0.55764546022E+03 -0.96567153466E+02  0.16166078949E+04  0.17128094970E+04  0.12699999809E+01 0.  1.
       -4    1    3    3    0  502  0.55764546022E+03  0.96567153466E+02 -0.33946442576E+03  0.65994801590E+03  0.12699999809E+01 0. -1.
</event>
<event>
 5   0  0.2038882E-05  0.2000959E+04  0.7818609E-02  0.8606172E-01
        2   -1    0    0  501    0  0.00000000000E+00  0.00000000000E+00  0.61704183170E+03  0.61704183170E+03  0.25500000920E-02 0.  1.
       -2   -1    0    0    0  501  0.00000000000E+00  0.00000000000E+00 -0.16221906089E+04  0.16221906089E+04  0.25500000920E-02 0. -1.
    10030    2    1    2    0    0  0.00000000000E+00  0.00000000000E+00 -0.10051487772E+04  0.22392324406E+04  0.20009592346E+04 0.  0.
        3    1    3    3  502    0  0.82255158240E+03  0.47090346577E+03 -0.86106128912E+03  0.12805341595E+04  0.10100000352E+00 0. -1.
       -3    1    3    3    0  502 -0.82255158240E+03 -0.47090346577E+03 -0.14408748806E+03  0.95869828110E+03  0.10100000352E+00 0.  1.
</event>
<event>
 5   0  0.9333353E-06  0.1989139E+04  0.7818609E-02  0.8611716E-01
        1   -1    0    0  501    0  0.00000000000E+00  0.00000000000E+00  0.15307107603E+04  0.15307107603E+04  0.50400001928E-02 0.  1.
       -1   -1    0    0    0  501  0.00000000000E+00  0.00000000000E+00 -0.64621486935E+03  0.64621486937E+03  0.50400001928E-02 0. -1.
    10030    2    1    2    0    0  0.00000000000E+00  0.00000000000E+00  0.88449589094E+03  0.21769256297E+04  0.19891385613E+04 0.  0.
        2    1    3    3  502    0 -0.90464864378E+03 -0.39466436221E+03  0.30812656904E+03  0.10339686214E+04  0.25500000920E-02 0. -1.
       -2    1    3    3    0  502  0.90464864378E+03  0.39466436221E+03  0.57636932190E+03  0.11429570083E+04  0.25500000920E-02 0.  1.
</event>
<event>
 5   0  0.2038882E-05  0.2001831E+04  0.7818609E-02  0.8605765E-01
       -2   -1    0    0    0  501  0.00000000000E+00  0.00000000000E+00  0.65402056458E+03  0.65402056458E+03  0.25500000920E-02 0.  1.
        2   -1    0    0  501    0  0.00000000000E+00  0.00000000000E+00 -0.15318050964E+04  0.15318050964E+04  0.25500000920E-02 0. -1.
    10030    2    1    2    0    0  0.00000000000E+00  0.00000000000E+00 -0.87778453185E+03  0.21858256610E+04  0.20018311957E+04 0.  0.
        3    1    3    3  502    0 -0.22418585378E+03 -0.79839600734E+03  0.17310192081E+03  0.84714801939E+03  0.10100000352E+00 0.  1.
       -3    1    3    3    0  502  0.22418585378E+03  0.79839600734E+03 -0.10508864527E+04  0.13386776416E+04  0.10100000352E+00 0. -1.
</event>
<event>
 5   0  0.9342635E-06  0.1999486E+04  0.7818609E-02  0.8606861E-01
       -1   -1    0    0    0  501  0.00000000000E+00  0.00000000000E+00  0.56663124854E+03  0.56663124856E+03  0.50400001928E-02 0. -1.
        1   -1    0    0  501    0  0.00000000000E+00  0.00000000000E+00 -0.17639089521E+04  0.17639089521E+04  0.50400001928E-02 0.  1.
    10030    2    1    2    0    0  0.00000000000E+00  0.00000000000E+00 -0.11972777035E+04  0.23305402006E+04  0.19994858658E+04 0.  0.
        5    1    3    3  502    0 -0.97310054782E+03  0.20615873138E+03 -0.71541557905E+03  0.12252622737E+04  0.46999998093E+01 0. -1.
       -5    1    3    3    0  502  0.97310054782E+03 -0.20615873138E+03 -0.48186212447E+03  0.11052779269E+04  0.46999998093E+01 0.  1.
</event>
<event>
 5   0  0.2038882E-05  0.1996050E+04  0.7818609E-02  0.8608469E-01
        2   -1    0    0  501    0  0.00000000000E+00  0.00000000000E+00  0.11425036924E+04  0.11425036924E+04  0.25500000920E-02 0.  1.
       -2   -1    0    0    0  501  0.00000000000E+00  0.00000000000E+00 -0.87181709451E+03  0.87181709452E+03  0.25500000920E-02 0. -1.
    10030    2    1    2    0    0  0.00000000000E+00  0.00000000000E+00  0.27068659793E+03  0.20143207870E+04  0.19960503497E+04 0.  0.
        3    1    3    3  502    0  0.41339104831E+03 -0.69766486550E+03  0.72241194302E+03  0.10860513105E+04  0.10100000352E+00 0.  1.
       -3    1    3    3    0  502 -0.41339104831E+03  0.69766486550E+03 -0.45172534509E+03  0.92826947648E+03  0.10100000352E+00 0. -1.
</event>
<event>
 5   0  0.9220260E-06  0.2000079E+04  0.7818609E-02  0.8606584E-01
        1   -1    0    0  501    0  0.00000000000E+00  0.00000000000E+00  0.11410310391E+04  0.11410310391E+04  0.50400001928E-02 0. -1.
       -1   -1    0    0    0  501  0.00000000000E+00  0.00000000000E+00 -0.87646929075E+03  0.87646929077E+03  0.50400001928E-02 0.  1.
    10030    2    1    2    0    0  0.00000000000E+00  0.00000000000E+00  0.26456174831E+03  0.20175003298E+04  0.20000786640E+04 0.  0.
        3    1    3    3  502    0  0.13676068034E+03  0.38876952096E+03  0.10513890853E+04  0.11292759818E+04  0.10100000352E+00 0. -1.
       -3    1    3    3    0  502 -0.13676068034E+03 -0.38876952096E+03 -0.78682733697E+03  0.88822434808E+03  0.10100000352E+00 0.  1.
</event>
<event>
 5   0  0.9342635E-06  0.2005203E+04  0.7818609E-02  0.8604192E-01
        1   -1    0    0  501    0  0.00000000000E+00  0.00000000000E+00  0.11605359372E+04  0.11605359372E+04  0.50400001928E-02 0. -1.
       -1   -1    0    0    0  501  0.00000000000E+00  0.00000000000E+00 -0.86615961870E+03  0.86615961871E+03  0.50400001928E-02 0.  1.
    10030    2    1    2    0    0  0.00000000000E+00  0.00000000000E+00  0.29437631846E+03  0.20266955559E+04  0.20052025981E+04 0.  0.
        5    1    3    3  502    0  0.77905216669E+03  0.25329324242E+03  0.73140408035E+03  0.10982047914E+04  0.46999998093E+01 0. -1.
       -5    1    3    3    0  502 -0.77905216669E+03 -0.25329324242E+03 -0.43702776189E+03  0.92849076449E+03  0.46999998093E+01 0.  1.
</event>
<event>
 5   0  0.2020029E-05  0.1999109E+04  0.7818609E-02  0.8607038E-01
       -2   -1    0    0    0  501  0.00000000000E+00  0.00000000000E+00  0.60489241268E+03  0.60489241269E+03  0.25500000920E-02 0. -1.
        2   -1    0    0  501    0  0.00000000000E+00  0.00000000000E+00 -0.16517133205E+04  0.16517133205E+04  0.25500000920E-02 0.  1.
    10030    2    1    2    0    0  0.00000000000E+00  0.00000000000E+00 -0.10468209078E+04  0.22566057332E+04  0.19991086569E+04 0.  0.
        5    1    3    3  502    0  0.13266318598E+03  0.44378287172E+03  0.47642364038E+03  0.66448802341E+03  0.46999998093E+01 0. -1.
       -5    1    3    3    0  502 -0.13266318598E+03 -0.44378287172E+03 -0.15232445482E+04  0.15921177098E+04  0.46999998093E+01 0.  1.
</event>
<event>
 5   0  0.9140695E-06  0.2003486E+04  0.7818609E-02  0.8604993E-01
        1   -1    0    0  501    0  0.00000000000E+00  0.00000000000E+00  0.49768194738E+03  0.49768194740E+03  0.50400001928E-02 0. -1.
       -1   -1    0    0    0  501  0.00000000000E+00  0.00000000000E+00 -0.20163260619E+04  0.20163260619E+04  0.50400001928E-02 0.  1.
    10030    2    1    2    0    0  0.00000000000E+00  0.00000000000E+00 -0.15186441145E+04  0.25140080093E+04  0.20034860429E+04 0.  0.
        1    1    3    3  502    0  0.76916464306E+03  0.52790833071E+03 -0.30137815908E+03  0.98037250500E+03  0.50400001928E-02 0. -1.
       -1    1    3    3    0  502 -0.76916464306E+03 -0.52790833071E+03 -0.12172659554E+04  0.15336355043E+04  0.50400001928E-02 0.  1.
</event>
<event>
 5   0  0.9333353E-06  0.2002735E+04  0.7818609E-02  0.8605343E-01
       -1   -1    0    0    0  501  0.00000000000E+00  0.00000000000E+00  0.53806581689E+03  0.53806581691E+03  0.50400001928E-02 0. -1.
        1   -1    0    0  501    0  0.00000000000E+00  0.00000000000E+00 -0.18635949868E+04  0.18635949868E+04  0.50400001928E-02 0.  1.
    10030    2    1    2    0    0  0.00000000000E+00  0.00000000000E+00 -0.13255291699E+04  0.24016608038E+04  0.20027348891E+04 0.  0.
        2    1    3    3  502    0 -0.78703788031E+03  0.25753859817E+03  0.12393558439E+02  0.82819584331E+03  0.25500000920E-02 0.  1.
       -2    1    3    3    0  502  0.78703788031E+03 -0.25753859817E+03 -0.13379227284E+04  0.15734649604E+04  0.25500000920E-02 0. -1.
</event>
<event>
 5   0  0.1979765E-05  0.1998949E+04  0.7818609E-02  0.8607112E-01
        2   -1    0    0  501    0  0.00000000000E+00  0.00000000000E+00  0.11369277838E+04  0.11369277838E+04  0.25500000920E-02 0. -1.
       -2   -1    0    0    0  501  0.00000000000E+00  0.00000000000E+00 -0.87863946001E+03  0.87863946001E+03  0.25500000920E-02 0.  1.
    10030    2    1    2    0    0  0.00000000000E+00  0.00000000000E+00  0.25828832376E+03  0.20155672438E+04  0.19989493380E+04 0.  0.
        2    1    3    3  502    0  0.65564706847E+03 -0.44035926085E+03  0.74673936865E+03  0.10869264196E+04  0.25500000920E-02 0. -1.
       -2    1    3    3    0  502 -0.65564706847E+03  0.44035926085E+03 -0.48845104489E+03  0.92864082414E+03  0.25500000920E-02 0.  1.
</event>
<event>
 5   0  0.1979765E-05  0.1997360E+04  0.7818609E-02  0.8607856E-01
        2   -1    0    0  501    0  0.00000000000E+00  0.00000000000E+00  0.21975735992E+04  0.21975735992E+04  0.25500000920E-02 0. -1.
       -2   -1    0    0    0  501  0.00000000000E+00  0.00000000000E+00 -0.45384692314E+03  0.45384692315E+03  0.25500000920E-02 0.  1.
    10030    2    1    2    0    0  0.00000000000E+00  0.00000000000E+00  0.17437266760E+04  0.26514205223E+04  0.19973602743E+04 0.  0.
        2    1    3    3  502    0  0.32365949115E+03 -0.93709233787E+03  0.71221149904E+03  0.12207140268E+04  0.25500000920E-02 0.  1.
       -2    1    3    3    0  502 -0.32365949115E+03  0.93709233787E+03  0.10315151770E+04  0.14307064955E+04  0.25500000920E-02 0. -1.
</event>
<event>
 5   0  0.2003576E-05  0.2007349E+04  0.7818609E-02  0.8603192E-01
       -2   -1    0    0    0  501  0.00000000000E+00  0.00000000000E+00  0.39230116079E+03  0.39230116079E+03  0.25500000920E-02 0. -1.
        2   -1    0    0  501    0  0.00000000000E+00  0.00000000000E+00 -0.25678305266E+04  0.25678305266E+04  0.25500000920E-02 0.  1.
    10030    2    1    2    0    0  0.00000000000E+00  0.00000000000E+00 -0.21755293658E+04  0.29601316874E+04  0.20073493929E+04 0.  0.
        4    1    3    3  502    0  0.30938223216E+03 -0.23007883041E+03  0.27873874927E+03  0.47576311019E+03  0.12699999809E+01 0. -1.
       -4    1    3    3    0  502 -0.30938223216E+03  0.23007883041E+03 -0.24542681151E+04  0.24843685772E+04  0.12699999809E+01 0.  1.
</event>
<event>
 5   0  0.1999142E-05  0.1998562E+04  0.7818609E-02  0.8607293E-01
        2   -1    0    0  501    0  0.00000000000E+00  0.00000000000E+00  0.66645295933E+03  0.66645295934E+03  0.25500000920E-02 0. -1.
       -2   -1    0    0    0  501  0.00000000000E+00  0.00000000000E+00 -0.14983246318E+04  0.14983246318E+04  0.25500000920E-02 0.  1.
    10030    2    1    2    0    0  0.00000000000E+00  0.00000000000E+00 -0.83187167243E+03  0.21647775911E+04  0.19985623682E+04 0.  0.
        1    1    3    3  502    0  0.53521411137E+03  0.75156455604E+03 -0.27684736242E+00  0.92266109898E+03  0.50400001928E-02 0.  1.
       -1    1    3    3    0  502 -0.53521411137E+03 -0.75156455604E+03 -0.83159482507E+03  0.12421164921E+04  0.50400001928E-02 0. -1.
</event>
<event>
 5   0  0.7132000E-06  0.1997681E+04  0.7818609E-02  0.8607705E-01
        4   -1    0    0  501    0  0.00000000000E+00  0.00000000000E+00  0.45942079050E+03  0.45942254585E+03  0.12699999809E+01 0.  1.
       -4   -1    0    0    0  501  0.00000000000E+00  0.00000000000E+00 -0.21716039087E+04  0.21716042800E+04  0.12699999809E+01 0. -1.
    10030    2    1    2    0    0  0.00000000000E+00  0.00000000000E+00 -0.17121831182E+04  0.26310268259E+04  0.19976814382E+04 0.  0.
        3    1    3    3  502    0  0.91112912478E+03  0.33835396911E+03 -0.11594201969E+04  0.15129094136E+04  0.10100000352E+00 0.  1.
       -3    1    3    3    0  502 -0.91112912478E+03 -0.33835396911E+03 -0.55276292128E+03  0.11181174123E+04  0.10100000352E+00 0. -1.
</event>
<event>
 5   0  0.1979765E-05  0.1998455E+04  0.7818609E-02  0.8607343E-01
        2   -1    0    0  501    0  0.00000000000E+00  0.00000000000E+00  0.14830729095E+04  0.14830729095E+04  0.25500000920E-02 0. -1.
       -2   -1    0    0    0  501  0.00000000000E+00  0.00000000000E+00 -0.67323464879E+03  0.67323464879E+03  0.25500000920E-02 0.  1.
    10030    2    1    2    0    0  0.00000000000E+00  0.00000000000E+00  0.80983826070E+03  0.21563075583E+04  0.19984554730E+04 0.  0.
        2    1    3    3  502    0  0.62771074459E+03 -0.38069634996E+03 -0.32649209853E+03  0.80345975640E+03  0.25500000920E-02 0.  1.
       -2    1    3    3    0  502 -0.62771074459E+03  0.38069634996E+03  0.11363303592E+04  0.13528478019E+04  0.25500000920E-02 0. -1.
</event>
<event>
 5   0  0.2038882E-05  0.2001062E+04  0.7818609E-02  0.8606124E-01
       -2   -1    0    0    0  501  0.00000000000E+00  0.00000000000E+00  0.87661167033E+03  0.87661167033E+03  0.25500000920E-02 0. -1.
        2   -1    0    0  501    0  0.00000000000E+00  0.00000000000E+00 -0.11419674744E+04  0.11419674744E+04  0.25500000920E-02 0.  1.
    10030    2    1    2    0    0  0.00000000000E+00  0.00000000000E+00 -0.26535580407E+03  0.20185791447E+04  0.20010617334E+04 0.  0.
        3    1    3    3  502    0 -0.31436316714E+03  0.93079103434E+03  0.58362791621E+02  0.98417598838E+03  0.10100000352E+00 0. -1.
       -3    1    3    3    0  502  0.31436316714E+03 -0.93079103434E+03 -0.32371859569E+03  0.10344031563E+04  0.10100000352E+00 0.  1.
</event>
<event>
 5   0  0.7132000E-06  0.2011257E+04  0.7818609E-02  0.8601376E-01
       -3   -1    0    0    0  501  0.00000000000E+00  0.00000000000E+00  0.15345243235E+04  0.15345243268E+04  0.10100000352E+00 0.  1.
        3   -1    0    0  501    0  0.00000000000E+00  0.00000000000E+00 -0.65902387820E+03  0.65902388594E+03  0.10100000352E+00 0. -1.
    10030    2    1    2    0    0  0.00000000000E+00  0.00000000000E+00  0.87550044532E+03  0.21935482128E+04  0.20112565058E+04 0.  0.
        4    1    3    3  502    0 -0.63637549627E+03  0.36704316358E+03  0.11867177516E+04  0.13957059472E+04  0.12699999809E+01 0.  1.
       -4    1    3    3    0  502  0.63637549627E+03 -0.36704316358E+03 -0.31121730625E+03  0.79784226561E+03  0.12699999809E+01 0. -1.
</event>
<event>
 5   0  0.7132000E-06  0.2001972E+04  0.7818609E-02  0.8605699E-01
       -3   -1    0    0    0  501  0.00000000000E+00  0.00000000000E+00  0.11838100251E+04  0.11838100294E+04  0.10100000352E+00 0.  1.
        3   -1    0    0  501    0  0.00000000000E+00  0.00000000000E+00 -0.84639633942E+03  0.84639634545E+03  0.10100000352E+00 0. -1.
    10030    2    1    2    0    0  0.00000000000E+00  0.00000000000E+00  0.33741368571E+03  0.20302063749E+04  0.20019715106E+04 0.  0.
        4    1    3    3  502    0  0.95173169921E+03  0.30280540131E+03  0.23663309214E+03  0.10263923088E+04  0.12699999809E+01 0.  1.
       -4    1    3    3    0  502 -0.95173169921E+03 -0.30280540131E+03  0.10078059357E+03  0.10038140661E+04  0.12699999809E+01 0. -1.
</event>
<event>
 5   0  0.9220260E-06  0.2001604E+04  0.7818609E-02  0.8605871E-01
       -1   -1    0    0    0  501  0.00000000000E+00  0.00000000000E+00  0.60642763963E+03  0.60642763965E+03  0.50400001928E-02 0.  1.
        1   -1    0    0  501    0  0.00000000000E+00  0.00000000000E+00 -0.16516468821E+04  0.16516468821E+04  0.50400001928E-02 0. -1.
    10030    2    1    2    0    0  0.00000000000E+00  0.00000000000E+00 -0.10452192425E+04  0.22580745218E+04  0.20016036773E+04 0.  0.
        3    1    3    3  502    0 -0.72905035679E+03  0.28304303503E+03  0.18188781068E+03  0.80293895677E+03  0.10100000352E+00 0. -1.
       -3    1    3    3    0  502  0.72905035679E+03 -0.28304303503E+03 -0.12271070532E+04  0.14551355650E+04  0.10100000352E+00 0.  1.
</event>
<event>
 5   0  0.2020029E-05  0.1998162E+04  0.7818609E-02  0.8607480E-01
        2   -1    0    0  501    0  0.00000000000E+00  0.00000000000E+00  0.77635822253E+03  0.77635822253E+03  0.25500000920E-02 0.  1.
       -2   -1    0    0    0  501  0.00000000000E+00  0.00000000000E+00 -0.12856989304E+04  0.12856989304E+04  0.25500000920E-02 0. -1.
    10030    2    1    2    0    0  0.00000000000E+00  0.00000000000E+00 -0.50934070784E+03  0.20620571529E+04  0.19981620918E+04 0.  0.
        5    1    3    3  502    0  0.27599274290E+03  0.62393070589E+03  0.49851679902E+03  0.84498675066E+03  0.46999998093E+01 0.  1.
       -5    1    3    3    0  502 -0.27599274290E+03 -0.62393070589E+03 -0.10078575069E+04  0.12170704022E+04  0.46999998093E+01 0. -1.
</event>
<event>
 5   0  0.9370269E-06  0.2019950E+04  0.7818609E-02  0.8597350E-01
       -1   -1    0    0    0  501  0.00000000000E+00  0.00000000000E+00  0.54893889503E+03  0.54893889506E+03  0.50400001928E-02 0. -1.
        1   -1    0    0  501    0  0.00000000000E+00  0.00000000000E+00 -0.18582201809E+04  0.18582201809E+04  0.50400001928E-02 0.  1.
    10030    2    1    2    0    0  0.00000000000E+00  0.00000000000E+00 -0.13092812859E+04  0.24071590760E+04  0.20199498339E+04 0.  0.
        4    1    3    3  502    0  0.78833457932E+03  0.34243623493E+02 -0.14058831489E+04  0.16121889083E+04  0.12699999809E+01 0.  1.
       -4    1    3    3    0  502 -0.78833457932E+03 -0.34243623493E+02  0.96601863017E+02  0.79497016770E+03  0.12699999809E+01 0. -1.
</event>
<event>
 5   0  0.1999142E-05  0.2002478E+04  0.7818609E-02  0.8605463E-01
        2   -1    0    0  501    0  0.00000000000E+00  0.00000000000E+00  0.15510399137E+04  0.15510399137E+04  0.25500000920E-02 0. -1.
       -2   -1    0    0    0  501  0.00000000000E+00  0.00000000000E+00 -0.64632735981E+03  0.64632735982E+03  0.25500000920E-02 0.  1.
    10030    2    1    2    0    0  0.00000000000E+00  0.00000000000E+00  0.90471255388E+03  0.21973672735E+04  0.20024779973E+04 0.  0.
        1    1    3    3  502    0 -0.67458552611E+03  0.73685440942E+03  0.37907770587E+03  0.10685129666E+04  0.50400001928E-02 0.  1.
       -1    1    3    3    0  502  0.67458552611E+03 -0.73685440942E+03  0.52563484801E+03  0.11288543069E+04  0.50400001928E-02 0. -1.
</event>
<event>
 5   0  0.1979765E-05  0.1994667E+04  0.7818609E-02  0.8609118E-01
       -2   -1    0    0    0  501  0.00000000000E+00  0.00000000000E+00  0.54991821306E+03  0.54991821306E+03  0.25500000920E-02 0.  1.
        2   -1    0    0  501    0  0.00000000000E+00  0.00000000000E+00 -0.18087678340E+04  0.18087678340E+04  0.25500000920E-02 0. -1.
    10030    2    1    2    0    0  0.00000000000E+00  0.00000000000E+00 -0.12588496209E+04  0.23586860470E+04  0.19946672656E+04 0.  0.
        2    1    3    3  502    0  0.98836275760E+03 -0.63501355496E+02 -0.49060858278E+03  0.11052556918E+04  0.25500000920E-02 0. -1.
       -2    1    3    3    0  502 -0.98836275760E+03  0.63501355496E+02 -0.76824103814E+03  0.12534303552E+04  0.25500000920E-02 0.  1.
</event>
<event>
 5   0  0.9342635E-06  0.2000083E+04  0.7818609E-02  0.8606582E-01
        1   -1    0    0  501    0  0.00000000000E+00  0.00000000000E+00  0.13531899871E+04  0.13531899871E+04  0.50400001928E-02 0. -1.
       -1   -1    0    0    0  501  0.00000000000E+00  0.00000000000E+00 -0.73905596547E+03  0.73905596549E+03  0.50400001928E-02 0.  1.
    10030    2    1    2    0    0  0.00000000000E+00  0.00000000000E+00  0.61413402158E+03  0.20922459525E+04  0.20000831306E+04 0.  0.
        5    1    3    3  502    0  0.76747595259E+03 -0.64103921515E+03  0.31805976847E+03  0.10493496650E+04  0.46999998093E+01 0. -1.
       -5    1    3    3    0  502 -0.76747595259E+03  0.64103921515E+03  0.29607425311E+03  0.10428962875E+04  0.46999998093E+01 0.  1.
</event>
<event>
 5   0  0.2003576E-05  0.1995022E+04  0.7818609E-02  0.8608951E-01
        2   -1    0    0  501    0  0.00000000000E+00  0.00000000000E+00  0.13816786359E+04  0.13816786359E+04  0.25500000920E-02 0.  1.
       -2   -1    0    0    0  501  0.00000000000E+00  0.00000000000E+00 -0.72015918192E+03  0.72015918192E+03  0.25500000920E-02 0. -1.
    10030    2    1    2    0    0  0.00000000000E+00  0.00000000000E+00  0.66151945397E+03  0.21018378178E+04  0.19950223619E+04 0.  0.
        4    1    3    3  502    0  0.98089795782E+03  0.66438833084E+02  0.50846814231E+03  0.11068497580E+04  0.12699999809E+01 0.  1.
       -4    1    3    3    0  502 -0.98089795782E+03 -0.66438833084E+02  0.15305131165E+03  0.99498805978E+03  0.12699999809E+01 0. -1.
</event>
<event>
 5   0  0.2020029E-05  0.1994910E+04  0.7818609E-02  0.8609004E-01
        2   -1    0    0  501    0  0.00000000000E+00  0.00000000000E+00  0.39528784340E+03  0.39528784340E+03  0.25500000920E-02 0.  1.
       -2   -1    0    0    0  501  0.00000000000E+00  0.00000000000E+00 -0.25169408030E+04  0.25169408030E+04  0.25500000920E-02 0. -1.
    10030    2    1    2    0    0  0.00000000000E+00  0.00000000000E+00 -0.21216529596E+04  0.29122286464E+04  0.19949096240E+04 0.  0.
        5    1    3    3  502    0 -0.30841385651E+03  0.28127069305E+03  0.26163894796E+03  0.49265539553E+03  0.46999998093E+01 0.  1.
       -5    1    3    3    0  502  0.30841385651E+03 -0.28127069305E+03 -0.23832919076E+04  0.24195732509E+04  0.46999998093E+01 0. -1.
</event>
<event>
 5   0  0.9370269E-06  0.1999640E+04  0.7818609E-02  0.8606789E-01
       -1   -1    0    0    0  501  0.00000000000E+00  0.00000000000E+00  0.10356165945E+04  0.10356165945E+04  0.50400001928E-02 0.  1.
        1   -1    0    0  501    0  0.00000000000E+00  0.00000000000E+00 -0.96526025954E+03  0.96526025955E+03  0.50400001928E-02 0. -1.
    10030    2    1    2    0    0  0.00000000000E+00  0.00000000000E+00  0.70356334927E+02  0.20008768540E+04  0.19996395103E+04 0.  0.
        4    1    3    3  502    0 -0.84904339308E+03  0.21847392973E+03  0.51613387754E+03  0.10173501530E+04  0.12699999809E+01 0.  1.
       -4    1    3    3    0  502  0.84904339308E+03 -0.21847392973E+03 -0.44577754261E+03  0.98352670106E+03  0.12699999809E+01 0. -1.
</event>
<event>
 5   0  0.2038882E-05  0.2000848E+04  0.7818609E-02  0.8606224E-01
       -2   -1    0    0    0  501  0.00000000000E+00  0.00000000000E+00  0.10135009048E+04  0.10135009048E+04  0.25500000920E-02 0.  1.
        2   -1    0    0  501    0  0.00000000000E+00  0.00000000000E+00 -0.98751586833E+03  0.98751586833E+03  0.25500000920E-02 0. -1.
    10030    2    1    2    0    0  0.00000000000E+00  0.00000000000E+00  0.25985036479E+02  0.20010167731E+04  0.20008480463E+04 0.  0.
        3    1    3    3  502    0 -0.93630603670E+01 -0.83521138977E+03  0.56365904062E+03  0.10076592960E+04  0.10100000352E+00 0.  1.
       -3    1    3    3    0  502  0.93630603670E+01  0.83521138977E+03 -0.53767400414E+03  0.99335747716E+03  0.10100000352E+00 0. -1.
</event>
<event>
 5   0  0.9342635E-06  0.1999251E+04  0.7818609E-02  0.8606971E-01
       -1   -1    0    0    0  501  0.00000000000E+00  0.00000000000E+00  0.74531253619E+03  0.74531253620E+03  0.50400001928E-02 0.  1.
        1   -1    0    0  501    0  0.00000000000E+00  0.00000000000E+00 -0.13407146521E+04  0.13407146521E+04  0.50400001928E-02 0. -1.
    10030    2    1    2    0    0  0.00000000000E+00  0.00000000000E+00 -0.59540211593E+03  0.20860271883E+04  0.19992512976E+04 0.  0.
        5    1    3    3  502    0 -0.24125735955E+03 -0.19205330710E+03 -0.12898351250E+04  0.13261924166E+04  0.46999998093E+01 0. -1.
       -5    1    3    3    0  502  0.24125735955E+03  0.19205330710E+03  0.69443300902E+03  0.75983477173E+03  0.46999998093E+01 0.  1.
</event>
<event>
 5   0  0.9220260E-06  0.2003023E+04  0.7818609E-02  0.8605209E-01
        1   -1    0    0  501    0  0.00000000000E+00  0.00000000000E+00  0.14522086320E+04  0.14522086320E+04  0.50400001928E-02 0.  1.
       -1   -1    0    0    0  501  0.00000000000E+00  0.00000000000E+00 -0.69068922112E+03  0.69068922114E+03  0.50400001928E-02 0. -1.
    10030    2    1    2    0    0  0.00000000000E+00  0.00000000000E+00  0.76151941086E+03  0.21428978531E+04  0.20030225650E+04 0.  0.
        3    1    3    3  502    0  0.48564723619E+03 -0.77903273333E+03 -0.47546882413E+02  0.91924205400E+03  0.10100000352E+00 0. -1.
       -3    1    3    3    0  502 -0.48564723619E+03  0.77903273333E+03  0.80906629327E+03  0.12236557991E+04  0.10100000352E+00 0.  1.
</event>
<event>
 5   0  0.9220260E-06  0.2011238E+04  0.7818609E-02  0.8601384E-01
        1   -1    0    0  501    0  0.00000000000E+00  0.00000000000E+00  0.19969642182E+04  0.19969642182E+04  0.50400001928E-02 0.  1.
       -1   -1    0    0    0  501  0.00000000000E+00  0.00000000000E+00 -0.50640366828E+03  0.50640366830E+03  0.50400001928E-02 0. -1.
    10030    2    1    2    0    0  0.00000000000E+00  0.00000000000E+00  0.14905605499E+04  0.25033678865E+04  0.20112384300E+04 0.  0.
        3    1    3    3  502    0  0.21955558062E+03  0.72567181754E+03 -0.77030925435E+02  0.76206168610E+03  0.10100000352E+00 0. -1.
       -3    1    3    3    0  502 -0.21955558062E+03 -0.72567181754E+03  0.15675914753E+04  0.17413062004E+04  0.10100000352E+00 0.  1.
</event>
<event>
 5   0  0.9140695E-06  0.1998990E+04  0.7818609E-02  0.8607093E-01
        1   -1    0    0  501    0  0.00000000000E+00  0.00000000000E+00  0.14618920466E+04  0.14618920466E+04  0.50400001928E-02 0.  1.
       -1   -1    0    0    0  501  0.00000000000E+00  0.00000000000E+00 -0.68335430132E+03  0.68335430133E+03  0.50400001928E-02 0. -1.
    10030    2    1    2    0    0  0.00000000000E+00  0.00000000000E+00  0.77853774528E+03  0.21452463479E+04  0.19989899631E+04 0.  0.
        1    1    3    3  502    0  0.11937055629E+02 -0.92861094853E+03  0.78580220346E+03  0.12165302668E+04  0.50400001928E-02 0.  1.
       -1    1    3    3    0  502 -0.11937055629E+02  0.92861094853E+03 -0.72644581715E+01  0.92871608116E+03  0.50400001928E-02 0. -1.
</event>
<event>
 5   0  0.2038882E-05  0.1979152E+04  0.7818609E-02  0.8616430E-01
       -2   -1    0    0    0  501  0.00000000000E+00  0.00000000000E+00  0.42943017300E+03  0.42943017301E+03  0.25500000920E-02 0. -1.
        2   -1    0    0  501    0  0.00000000000E+00  0.00000000000E+00 -0.22803720068E+04  0.22803720068E+04  0.25500000920E-02 0.  1.
    10030    2    1    2    0    0  0.00000000000E+00  0.00000000000E+00 -0.18509418338E+04  0.27098021798E+04  0.19791518844E+04 0.  0.
        3    1    3    3  502    0 -0.70718234807E+03 -0.79574188735E+02 -0.18669422971E+04  0.19979770959E+04  0.10100000352E+00 0.  1.
       -3    1    3    3    0  502  0.70718234807E+03  0.79574188735E+02  0.16000463357E+02  0.71182508383E+03  0.10100000352E+00 0. -1.
</event>
<event>
 5   0  0.7132000E-06  0.1994554E+04  0.7818609E-02  0.8609171E-01
       -3   -1    0    0    0  501  0.00000000000E+00  0.00000000000E+00  0.14254382246E+04  0.14254382282E+04  0.10100000352E+00 0. -1.
        3   -1    0    0  501    0  0.00000000000E+00  0.00000000000E+00 -0.69772318252E+03  0.69772318983E+03  0.10100000352E+00 0.  1.
    10030    2    1    2    0    0  0.00000000000E+00  0.00000000000E+00  0.72771504208E+03  0.21231614180E+04  0.19945538911E+04 0.  0.
        2    1    3    3  502    0  0.50410655073E+03 -0.85902161823E+03  0.41729132021E+03  0.10798951806E+04  0.25500000920E-02 0.  1.
       -2    1    3    3    0  502 -0.50410655073E+03  0.85902161823E+03  0.31042372188E+03  0.10432662374E+04  0.25500000920E-02 0. -1.
</event>
<event>
 5   0  0.2038882E-05  0.1993251E+04  0.7818609E-02  0.8609783E-01
        2   -1    0    0  501    0  0.00000000000E+00  0.00000000000E+00  0.13287667422E+04  0.13287667422E+04  0.25500000920E-02 0.  1.
       -2   -1    0    0    0  501  0.00000000000E+00  0.00000000000E+00 -0.74750691865E+03  0.74750691866E+03  0.25500000920E-02 0. -1.
    10030    2    1    2    0    0  0.00000000000E+00  0.00000000000E+00  0.58125982355E+03  0.20762736609E+04  0.19932509457E+04 0.  0.
        3    1    3    3  502    0  0.24642980918E+02  0.72323651449E+03 -0.42317454771E+03  0.83830486127E+03  0.10100000352E+00 0. -1.
       -3    1    3    3    0  502 -0.24642980918E+02 -0.72323651449E+03  0.10044343713E+04  0.12379687996E+04  0.10100000352E+00 0.  1.
</event>
<event>
 5   0  0.2020029E-05  0.2001890E+04  0.7818609E-02  0.8605738E-01
        2   -1    0    0  501    0  0.00000000000E+00  0.00000000000E+00  0.21542047759E+04  0.21542047759E+04  0.25500000920E-02 0. -1.
       -2   -1    0    0    0  501  0.00000000000E+00  0.00000000000E+00 -0.46508611159E+03  0.46508611160E+03  0.25500000920E-02 0.  1.
    10030    2    1    2    0    0  0.00000000000E+00  0.00000000000E+00  0.16891186643E+04  0.26192908875E+04  0.20018898299E+04 0.  0.
        5    1    3    3  502    0  0.44357110302E+03  0.19538485127E+03  0.19903986139E+04  0.20485700612E+04  0.46999998093E+01 0. -1.
       -5    1    3    3    0  502 -0.44357110302E+03 -0.19538485127E+03 -0.30127994957E+03  0.57072082628E+03  0.46999998093E+01 0.  1.
</event>
<event>
 5   0  0.9333353E-06  0.2001667E+04  0.7818609E-02  0.8605842E-01
        1   -1    0    0  501    0  0.00000000000E+00  0.00000000000E+00  0.10177548642E+04  0.10177548642E+04  0.50400001928E-02 0. -1.
       -1   -1    0    0    0  501  0.00000000000E+00  0.00000000000E+00 -0.98419322233E+03  0.98419322235E+03  0.50400001928E-02 0.  1.
    10030    2    1    2    0    0  0.00000000000E+00  0.00000000000E+00  0.33561641903E+02  0.20019480866E+04  0.20016667449E+04 0.  0.
        2    1    3    3  502    0 -0.38780793482E+03  0.12389017480E+03 -0.89763629970E+03  0.98564430515E+03  0.25500000920E-02 0.  1.
       -2    1    3    3    0  502  0.38780793482E+03 -0.12389017480E+03  0.93119794161E+03  0.10163037814E+04  0.25500000920E-02 0. -1.
</event>
<event>
 5   0  0.9370269E-06  0.2002744E+04  0.7818609E-02  0.8605339E-01
       -1   -1    0    0    0  501  0.00000000000E+00  0.00000000000E+00  0.67413970456E+03  0.67413970458E+03  0.50400001928E-02 0. -1.
        1   -1    0    0  501    0  0.00000000000E+00  0.00000000000E+00 -0.14874456780E+04  0.14874456780E+04  0.50400001928E-02 0.  1.
    10030    2    1    2    0    0  0.00000000000E+00  0.00000000000E+00 -0.81330597346E+03  0.21615853826E+04  0.20027443071E+04 0.  0.
        4    1    3    3  502    0 -0.44944466104E+03 -0.81863050320E+03 -0.79668370407E+03  0.12275434580E+04  0.12699999809E+01 0.  1.
       -4    1    3    3    0  502  0.44944466104E+03  0.81863050320E+03 -0.16622269387E+02  0.93404192457E+03  0.12699999809E+01 0. -1.
</event>
<event>
 5   0  0.1979765E-05  0.2001171E+04  0.7818609E-02  0.8606073E-01
       -2   -1    0    0    0  501  0.00000000000E+00  0.00000000000E+00  0.10839521757E+04  0.10839521757E+04  0.25500000920E-02 0.  1.
        2   -1    0    0  501    0  0.00000000000E+00  0.00000000000E+00 -0.92363040661E+03  0.92363040662E+03  0.25500000920E-02 0. -1.
    10030    2    1    2    0    0  0.00000000000E+00  0.00000000000E+00  0.16032176906E+03  0.20075825823E+04  0.20011708461E+04 0.  0.
        2    1    3    3  502    0 -0.89481981019E+03  0.22888157804E+03  0.46620796214E+03  0.10346202847E+04  0.25500000920E-02 0.  1.
       -2    1    3    3    0  502  0.89481981019E+03 -0.22888157804E+03 -0.30588619308E+03  0.97296229763E+03  0.25500000920E-02 0. -1.
</event>
<event>
 5   0  0.2038882E-05  0.2002877E+04  0.7818609E-02  0.8605277E-01
        2   -1    0    0  501    0  0.00000000000E+00  0.00000000000E+00  0.18966065114E+04  0.18966065114E+04  0.25500000920E-02 0. -1.
       -2   -1    0    0    0  501  0.00000000000E+00  0.00000000000E+00 -0.52877548319E+03  0.52877548320E+03  0.25500000920E-02 0.  1.
    10030    2    1    2    0    0  0.00000000000E+00  0.00000000000E+00  0.13678310282E+04  0.24253819946E+04  0.20028769553E+04 0.  0.
        3    1    3    3  502    0 -0.80996388981E+03  0.13045961532E+02 -0.29072661587E+02  0.81059048215E+03  0.10100000352E+00 0.  1.
       -3    1    3    3    0  502  0.80996388981E+03 -0.13045961532E+02  0.13969036898E+04  0.16147915125E+04  0.10100000352E+00 0. -1.
</event>
<event>
 5   0  0.9140695E-06  0.2005839E+04  0.7818609E-02  0.8603896E-01
       -1   -1    0    0    0  501  0.00000000000E+00  0.00000000000E+00  0.18708698275E+04  0.18708698275E+04  0.50400001928E-02 0. -1.
        1   -1    0    0  501    0  0.00000000000E+00  0.00000000000E+00 -0.53763634645E+03  0.53763634648E+03  0.50400001928E-02 0.  1.
    10030    2    1    2    0    0  0.00000000000E+00  0.00000000000E+00  0.13332334811E+04  0.24085061740E+04  0.20058390950E+04 0.  0.
        1    1    3    3  502    0  0.26833773661E+03 -0.96404981162E+03  0.74672053301E+03  0.12485947039E+04  0.50400001928E-02 0.  1.
       -1    1    3    3    0  502 -0.26833773661E+03  0.96404981162E+03  0.58651294805E+03  0.11599114701E+04  0.50400001928E-02 0. -1.
</event>
<event>
 5   0  0.2020029E-05  0.1994772E+04  0.7818609E-02  0.8609069E-01
        2   -1    0    0  501    0  0.00000000000E+00  0.00000000000E+00  0.76501247280E+03  0.76501247280E+03  0.25500000920E-02 0.  1.
       -2   -1    0    0    0  501  0.00000000000E+00  0.00000000000E+00 -0.13003436522E+04  0.13003436522E+04  0.25500000920E-02 0. -1.
    10030    2    1    2    0    0  0.00000000000E+00  0.00000000000E+00 -0.53533117941E+03  0.20653561250E+04  0.19947722806E+04 0.  0.
        5    1    3    3  502    0  0.88590348929E+03  0.43447164766E+03 -0.41830038639E+03  0.10717219361E+04  0.46999998093E+01 0. -1.
       -5    1    3    3    0  502 -0.88590348929E+03 -0.43447164766E+03 -0.11703079303E+03  0.99363418896E+03  0.46999998093E+01 0.  1.
</event>
<event>
 5   0  0.9370269E-06  0.2001301E+04  0.7818609E-02  0.8606013E-01
       -1   -1    0    0    0  501  0.00000000000E+00  0.00000000000E+00  0.15029422819E+04  0.15029422819E+04  0.50400001928E-02 0. -1.
        1   -1    0    0  501    0  0.00000000000E+00  0.00000000000E+00 -0.66622744026E+03  0.66622744028E+03  0.50400001928E-02 0.  1.
    10030    2    1    2    0    0  0.00000000000E+00  0.00000000000E+00  0.83671484164E+03  0.21691697222E+04  0.20013009662E+04 0.  0.
        4    1    3    3  502    0 -0.49007884399E+03 -0.57475658531E+03 -0.29303227347E+03  0.81018018482E+03  0.12699999809E+01 0.  1.
       -4    1    3    3    0  502  0.49007884399E+03  0.57475658531E+03  0.11297471151E+04  0.13589895374E+04  0.12699999809E+01 0. -1.
</event>
<event>
 5   0  0.9342635E-06  0.1997481E+04  0.7818609E-02  0.8607799E-01
       -1   -1    0    0    0  501  0.00000000000E+00  0.00000000000E+00  0.67381341796E+03  0.67381341798E+03  0.50400001928E-02 0.  1.
        1   -1    0    0  501    0  0.00000000000E+00  0.00000000000E+00 -0.14803545096E+04  0.14803545096E+04  0.50400001928E-02 0. -1.
    10030    2    1    2    0    0  0.00000000000E+00  0.00000000000E+00 -0.80654109165E+03  0.21541679276E+04  0.19974811458E+04 0.  0.
        5    1    3    3  502    0  0.26073389624E+03  0.48037263529E+03 -0.13047350761E+04  0.14146009127E+04  0.46999998093E+01 0. -1.
       -5    1    3    3    0  502 -0.26073389624E+03 -0.48037263529E+03  0.49819398446E+03  0.73956701490E+03  0.46999998093E+01 0.  1.
</event>
<event>
 5   0  0.1979765E-05  0.2001845E+04  0.7818609E-02  0.8605758E-01
        2   -1    0    0  501    0  0.00000000000E+00  0.00000000000E+00  0.10795011004E+04  0.10795011004E+04  0.25500000920E-02 0.  1.
       -2   -1    0    0    0  501  0.00000000000E+00  0.00000000000E+00 -0.92806407444E+03  0.92806407444E+03  0.25500000920E-02 0. -1.
    10030    2    1    2    0    0  0.00000000000E+00  0.00000000000E+00  0.15143702600E+03  0.20075651749E+04  0.20018453383E+04 0.  0.
        2    1    3    3  502    0  0.79490202012E+03 -0.52362263111E+03  0.38611265670E+03  0.10271966049E+04  0.25500000920E-02 0.  1.
       -2    1    3    3    0  502 -0.79490202012E+03  0.52362263111E+03 -0.23467563070E+03  0.98036857001E+03  0.25500000920E-02 0. -1.
</event>
<event>
 5   0  0.9140695E-06  0.2000054E+04  0.7818609E-02  0.8606595E-01
       -1   -1    0    0    0  501  0.00000000000E+00  0.00000000000E+00  0.81606210437E+03  0.81606210439E+03  0.50400001928E-02 0.  1.
        1   -1    0    0  501    0  0.00000000000E+00  0.00000000000E+00 -0.12254632749E+04  0.12254632749E+04  0.50400001928E-02 0. -1.
    10030    2    1    2    0    0  0.00000000000E+00  0.00000000000E+00 -0.40940117053E+03  0.20415253793E+04  0.20000541382E+04 0.  0.
        1    1    3    3  502    0 -0.26629603503E+03  0.72047309102E+03  0.44893584776E+03  0.88968446574E+03  0.50400001928E-02 0.  1.
       -1    1    3    3    0  502  0.26629603503E+03 -0.72047309102E+03 -0.85833701828E+03  0.11518409136E+04  0.50400001928E-02 0. -1.
</event>
<event>
 5   0  0.9333353E-06  0.1961039E+04  0.7818609E-02  0.8625056E-01
       -1   -1    0    0    0  501  0.00000000000E+00  0.00000000000E+00  0.64139010037E+03  0.64139010039E+03  0.50400001928E-02 0.  1.
        1   -1    0    0  501    0  0.00000000000E+00  0.00000000000E+00 -0.14989613135E+04  0.14989613135E+04  0.50400001928E-02 0. -1.
    10030    2    1    2    0    0  0.00000000000E+00  0.00000000000E+00 -0.85757121308E+03  0.21403514138E+04  0.19610394665E+04 0.  0.
        2    1    3    3  502    0 -0.47347596484E+03 -0.41809242603E+03  0.38974730737E+03  0.74221541994E+03  0.25500000920E-02 0.  1.
       -2    1    3    3    0  502  0.47347596484E+03  0.41809242603E+03 -0.12473185205E+04  0.13981359939E+04  0.25500000920E-02 0. -1.
</event>
<event>
 5   0  0.2020029E-05  0.2006776E+04  0.7818609E-02  0.8603459E-01
        2   -1    0    0  501    0  0.00000000000E+00  0.00000000000E+00  0.74195047590E+03  0.74195047591E+03  0.25500000920E-02 0. -1.
       -2   -1    0    0    0  501  0.00000000000E+00  0.00000000000E+00 -0.13569476563E+04  0.13569476563E+04  0.25500000920E-02 0.  1.
    10030    2    1    2    0    0  0.00000000000E+00  0.00000000000E+00 -0.61499718042E+03  0.20988981322E+04  0.20067764792E+04 0.  0.
        5    1    3    3  502    0  0.17807327319E+03 -0.32769214538E+03  0.66675173615E+03  0.76398442420E+03  0.46999998093E+01 0. -1.
       -5    1    3    3    0  502 -0.17807327319E+03  0.32769214538E+03 -0.12817489166E+04  0.13349137080E+04  0.46999998093E+01 0.  1.
</event>
<event>
 5   0  0.2003576E-05  0.2000743E+04  0.7818609E-02  0.8606273E-01
        2   -1    0    0  501    0  0.00000000000E+00  0.00000000000E+00  0.10533261913E+04  0.10533261913E+04  0.25500000920E-02 0. -1.
       -2   -1    0    0    0  501  0.00000000000E+00  0.00000000000E+00 -0.95007904856E+03  0.95007904856E+03  0.25500000920E-02 0.  1.
    10030    2    1    2    0    0  0.00000000000E+00  0.00000000000E+00  0.10324714274E+03  0.20034052399E+04  0.20007430076E+04 0.  0.
        4    1    3    3  502    0  0.14756992087E+03 -0.12497172640E+03 -0.93118471346E+03  0.95105278372E+03  0.12699999809E+01 0.  1.
       -4    1    3    3    0  502 -0.14756992087E+03  0.12497172640E+03  0.10344318562E+04  0.10523524562E+04  0.12699999809E+01 0. -1.
</event>
<event>
 5   0  0.9333353E-06  0.2002174E+04  0.7818609E-02  0.8605605E-01
       -1   -1    0    0    0  501  0.00000000000E+00  0.00000000000E+00  0.88302462490E+03  0.88302462492E+03  0.50400001928E-02 0.  1.
        1   -1    0    0  501    0  0.00000000000E+00  0.00000000000E+00 -0.11349345243E+04  0.11349345243E+04  0.50400001928E-02 0. -1.
    10030    2    1    2    0    0  0.00000000000E+00  0.00000000000E+00 -0.25190989941E+03  0.20179591492E+04  0.20021739511E+04 0.  0.
        2    1    3    3  502    0 -0.38480867725E+03  0.54178558876E+03 -0.88056721319E+03  0.11031808370E+04  0.25500000920E-02 0. -1.
       -2    1    3    3    0  502  0.38480867725E+03 -0.54178558876E+03  0.62865731378E+03  0.91477831219E+03  0.25500000920E-02 0.  1.
</event>
<event>
 5   0  0.9220260E-06  0.1974578E+04  0.7818609E-02  0.8618599E-01
        1   -1    0    0  501    0  0.00000000000E+00  0.00000000000E+00  0.12581236066E+04  0.12581236066E+04  0.50400001928E-02 0.  1.
       -1   -1    0    0    0  501  0.00000000000E+00  0.00000000000E+00 -0.77475677650E+03  0.77475677652E+03  0.50400001928E-02 0. -1.
    10030    2    1    2    0    0  0.00000000000E+00  0.00000000000E+00  0.48336683009E+03  0.20328803831E+04  0.19745782232E+04 0.  0.
        3    1    3    3  502    0 -0.90424890483E+03  0.21707014665E+03  0.58306767293E+03  0.10976126147E+04  0.10100000352E+00 0.  1.
       -3    1    3    3    0  502  0.90424890483E+03 -0.21707014665E+03 -0.99700842841E+02  0.93526776846E+03  0.10100000352E+00 0. -1.
</event>
<event>
 5   0  0.9333353E-06  0.1981132E+04  0.7818609E-02  0.8615493E-01
        1   -1    0    0  501    0  0.00000000000E+00  0.00000000000E+00  0.27174673801E+04  0.27174673801E+04  0.50400001928E-02 0.  1.
       -1   -1    0    0    0  501  0.00000000000E+00  0.00000000000E+00 -0.36107903765E+03  0.36107903768E+03  0.50400001928E-02 0. -1.
    10030    2    1    2    0    0  0.00000000000E+00  0.00000000000E+00  0.23563883425E+04  0.30785464178E+04  0.19811315014E+04 0.  0.
        2    1    3    3  502    0 -0.74130617109E+03  0.52042468998E+03  0.18014044068E+04  0.20162922739E+04  0.25500000920E-02 0.  1.
       -2    1    3    3    0  502  0.74130617109E+03 -0.52042468998E+03  0.55498393570E+03  0.10622541439E+04  0.25500000920E-02 0. -1.
</event>
<event>
 5   0  0.2038882E-05  0.2004770E+04  0.7818609E-02  0.8604394E-01
        2   -1    0    0  501    0  0.00000000000E+00  0.00000000000E+00  0.12915960217E+04  0.12915960217E+04  0.25500000920E-02 0.  1.
       -2   -1    0    0    0  501  0.00000000000E+00  0.00000000000E+00 -0.77793374520E+03  0.77793374521E+03  0.25500000920E-02 0. -1.
    10030    2    1    2    0    0  0.00000000000E+00  0.00000000000E+00  0.51366227645E+03  0.20695297669E+04  0.20047704411E+04 0.  0.
        3    1    3    3  502    0  0.92617386641E+03 -0.34166767326E+02 -0.13735537068E+03  0.93692684179E+03  0.10100000352E+00 0. -1.
       -3    1    3    3    0  502 -0.92617386641E+03  0.34166767326E+02  0.65101764713E+03  0.11326029251E+04  0.10100000352E+00 0.  1.
</event>
<event>
 5   0  0.9342635E-06  0.1999111E+04  0.7818609E-02  0.8607036E-01
        1   -1    0    0  501    0  0.00000000000E+00  0.00000000000E+00  0.68855958319E+03  0.68855958321E+03  0.50400001928E-02 0. -1.
       -1   -1    0    0    0  501  0.00000000000E+00  0.00000000000E+00 -0.14510161490E+04  0.14510161490E+04  0.50400001928E-02 0.  1.
    10030    2    1    2    0    0  0.00000000000E+00  0.00000000000E+00 -0.76245656582E+03  0.21395757322E+04  0.19991108772E+04 0.  0.
        5    1    3    3  502    0  0.23416036533E+03 -0.33420519033E+03 -0.13577902437E+04  0.14177942805E+04  0.46999998093E+01 0.  1.
       -5    1    3    3    0  502 -0.23416036533E+03  0.33420519033E+03  0.59533367792E+03  0.72178145169E+03  0.46999998093E+01 0. -1.
</event>
<event>
 5   0  0.9370269E-06  0.2006922E+04  0.7818609E-02  0.8603391E-01
       -1   -1    0    0    0  501  0.00000000000E+00  0.00000000000E+00  0.45305695546E+03  0.45305695549E+03  0.50400001928E-02 0.  1.
        1   -1    0    0  501    0  0.00000000000E+00  0.00000000000E+00 -0.22225335310E+04  0.22225335310E+04  0.50400001928E-02 0. -1.
    10030    2    1    2    0    0  0.00000000000E+00  0.00000000000E+00 -0.17694765755E+04  0.26755904865E+04  0.20069222954E+04 0.  0.
        4    1    3    3  502    0  0.38616485304E+03  0.88053420006E+03 -0.12675931459E+04  0.15909926988E+04  0.12699999809E+01 0. -1.
       -4    1    3    3    0  502 -0.38616485304E+03 -0.88053420006E+03 -0.50188342960E+03  0.10845977877E+04  0.12699999809E+01 0.  1.
</event>
<event>
 5   0  0.9220260E-06  0.1997561E+04  0.7818609E-02  0.8607762E-01
       -1   -1    0    0    0  501  0.00000000000E+00  0.00000000000E+00  0.78034870765E+03  0.78034870767E+03  0.50400001928E-02 0. -1.
        1   -1    0    0  501    0  0.00000000000E+00  0.00000000000E+00 -0.12783543954E+04  0.12783543954E+04  0.50400001928E-02 0.  1.
    10030    2    1    2    0    0  0.00000000000E+00  0.00000000000E+00 -0.49800568774E+03  0.20587031031E+04  0.19975607129E+04 0.  0.
        3    1    3    3  502    0  0.23785717807E+03  0.76444630181E+03 -0.86444788239E+03  0.11782293228E+04  0.10100000352E+00 0. -1.
       -3    1    3    3    0  502 -0.23785717807E+03 -0.76444630181E+03  0.36644219466E+03  0.88047378027E+03  0.10100000352E+00 0.  1.
</event>
<event>
 5   0  0.1999142E-05  0.2010865E+04  0.7818609E-02  0.8601558E-01
       -2   -1    0    0    0  501  0.00000000000E+00  0.00000000000E+00  0.77675272283E+03  0.77675272283E+03  0.25500000920E-02 0.  1.
        2   -1    0    0  501    0  0.00000000000E+00  0.00000000000E+00 -0.13014367282E+04  0.13014367282E+04  0.25500000920E-02 0. -1.
    10030    2    1    2    0    0  0.00000000000E+00  0.00000000000E+00 -0.52468400533E+03  0.20781894510E+04  0.20108650101E+04 0.  0.
        1    1    3    3  502    0 -0.29385899881E+03  0.16860495124E+03  0.71598445111E+03  0.79209499116E+03  0.50400001928E-02 0.  1.
       -1    1    3    3    0  502  0.29385899881E+03 -0.16860495124E+03 -0.12406684564E+04  0.12860944598E+04  0.50400001928E-02 0. -1.
</event>
<event>
 5   0  0.9140695E-06  0.1999045E+04  0.7818609E-02  0.8607067E-01
       -1   -1    0    0    0  501  0.00000000000E+00  0.00000000000E+00  0.33706387654E+03  0.33706387657E+03  0.50400001928E-02 0.  1.
        1   -1    0    0  501    0  0.00000000000E+00  0.00000000000E+00 -0.29639635123E+04  0.29639635123E+04  0.50400001928E-02 0. -1.
    10030    2    1    2    0    0  0.00000000000E+00  0.00000000000E+00 -0.26268996358E+04  0.33010273889E+04  0.19990448033E+04 0.  0.
        1    1    3    3  502    0 -0.68307748546E+02  0.89309787822E+03 -0.20459197115E+04  0.22334003749E+04  0.50400001928E-02 0. -1.
       -1    1    3    3    0  502  0.68307748546E+02 -0.89309787822E+03 -0.58097992425E+03  0.10676270140E+04  0.50400001928E-02 0.  1.
</event>
<event>
 5   0  0.2038882E-05  0.2000475E+04  0.7818609E-02  0.8606398E-01
       -2   -1    0    0    0  501  0.00000000000E+00  0.00000000000E+00  0.79728759944E+03  0.79728759944E+03  0.25500000920E-02 0. -1.
        2   -1    0    0  501    0  0.00000000000E+00  0.00000000000E+00 -0.12548487752E+04  0.12548487752E+04  0.25500000920E-02 0.  1.
    10030    2    1    2    0    0  0.00000000000E+00  0.00000000000E+00 -0.45756117573E+03  0.20521363746E+04  0.20004753111E+04 0.  0.
        3    1    3    3  502    0 -0.55880295087E+03  0.11997379571E+03  0.61328372819E+03  0.83831461339E+03  0.10100000352E+00 0. -1.
       -3    1    3    3    0  502  0.55880295087E+03 -0.11997379571E+03 -0.10708449039E+04  0.12138217612E+04  0.10100000352E+00 0.  1.
</event>
<event>
 5   0  0.2038882E-05  0.1997373E+04  0.7818609E-02  0.8607850E-01
        2   -1    0    0  501    0  0.00000000000E+00  0.00000000000E+00  0.23159046429E+04  0.23159046429E+04  0.25500000920E-02 0.  1.
       -2   -1    0    0    0  501  0.00000000000E+00  0.00000000000E+00 -0.43066312622E+03  0.43066312623E+03  0.25500000920E-02 0. -1.
    10030    2    1    2    0    0  0.00000000000E+00  0.00000000000E+00  0.18852415166E+04  0.27465677691E+04  0.19973730083E+04 0.  0.
        3    1    3    3  502    0  0.29655980576E+03  0.36434073760E+03  0.21544822775E+04  0.22051044841E+04  0.10100000352E+00 0.  1.
       -3    1    3    3    0  502 -0.29655980576E+03 -0.36434073760E+03 -0.26924076088E+03  0.54146328499E+03  0.10100000352E+00 0. -1.
</event>
<event>
 5   0  0.2003576E-05  0.1991780E+04  0.7818609E-02  0.8610473E-01
        2   -1    0    0  501    0  0.00000000000E+00  0.00000000000E+00  0.10519445698E+04  0.10519445698E+04  0.25500000920E-02 0. -1.
       -2   -1    0    0    0  501  0.00000000000E+00  0.00000000000E+00 -0.94282280712E+03  0.94282280712E+03  0.25500000920E-02 0.  1.
    10030    2    1    2    0    0  0.00000000000E+00  0.00000000000E+00  0.10912176264E+03  0.19947673769E+04  0.19917804419E+04 0.  0.
        4    1    3    3  502    0  0.10382287602E+03  0.93153869860E+03  0.39159516785E+03  0.10158208134E+04  0.12699999809E+01 0. -1.
       -4    1    3    3    0  502 -0.10382287602E+03 -0.93153869860E+03 -0.28247340521E+03  0.97894656347E+03  0.12699999809E+01 0.  1.
</event>
<event>
 5   0  0.9220260E-06  0.2001678E+04  0.7818609E-02  0.8605837E-01
       -1   -1    0    0    0  501  0.00000000000E+00  0.00000000000E+00  0.11977721993E+04  0.11977721993E+04  0.50400001928E-02 0. -1.
        1   -1    0    0  501    0  0.00000000000E+00  0.00000000000E+00 -0.83628460629E+03  0.83628460630E+03  0.50400001928E-02 0.  1.
    10030    2    1    2    0    0  0.00000000000E+00  0.00000000000E+00  0.36148759299E+03  0.20340568056E+04  0.20016777484E+04 0.  0.
        3    1    3    3  502    0 -0.30547506984E+03  0.71318350514E+03  0.82321513924E+03  0.11312068361E+04  0.10100000352E+00 0. -1.
       -3    1    3    3    0  502  0.30547506984E+03 -0.71318350514E+03 -0.46172754625E+03  0.90284996952E+03  0.10100000352E+00 0.  1.
</event>
<event>
 5   0  0.2003576E-05  0.2004822E+04  0.7818609E-02  0.8604370E-01
       -2   -1    0    0    0  501  0.00000000000E+00  0.00000000000E+00  0.43037972418E+03  0.43037972419E+03  0.25500000920E-02 0.  1.
        2   -1    0    0  501    0  0.00000000000E+00  0.00000000000E+00 -0.23347461069E+04  0.23347461069E+04  0.25500000920E-02 0. -1.
    10030    2    1    2    0    0  0.00000000000E+00  0.00000000000E+00 -0.19043663827E+04  0.27651258311E+04  0.20048215736E+04 0.  0.
        4    1    3    3  502    0  0.48073730532E+03  0.43355456033E+03  0.10340500969E+03  0.65557007440E+03  0.12699999809E+01 0.  1.
       -4    1    3    3    0  502 -0.48073730532E+03 -0.43355456033E+03 -0.20077713924E+04  0.21095557567E+04  0.12699999809E+01 0. -1.
</event>
<event>
 5   0  0.9342635E-06  0.1999864E+04  0.7818609E-02  0.8606684E-01
        1   -1    0    0  501    0  0.00000000000E+00  0.00000000000E+00  0.14819177396E+04  0.14819177396E+04  0.50400001928E-02 0.  1.
       -1   -1    0    0    0  501  0.00000000000E+00  0.00000000000E+00 -0.67470931543E+03  0.67470931545E+03  0.50400001928E-02 0. -1.
    10030    2    1    2    0    0  0.00000000000E+00  0.00000000000E+00  0.80720842413E+03  0.21566270550E+04  0.19998636990E+04 0.  0.
        5    1    3    3  502    0 -0.56202152497E+03  0.65742378186E+02 -0.48542851118E+03  0.74555562119E+03  0.46999998093E+01 0. -1.
       -5    1    3    3    0  502  0.56202152497E+03 -0.65742378186E+02  0.12926369353E+04  0.14110714338E+04  0.46999998093E+01 0.  1.
</event>
<event>
 5   0  0.1999142E-05  0.2001082E+04  0.7818609E-02  0.8606115E-01
        2   -1    0    0  501    0  0.00000000000E+00  0.00000000000E+00  0.74181347307E+03  0.74181347307E+03  0.25500000920E-02 0.  1.
       -2   -1    0    0    0  501  0.00000000000E+00  0.00000000000E+00 -0.13495069207E+04  0.13495069207E+04  0.25500000920E-02 0. -1.
    10030    2    1    2    0    0  0.00000000000E+00  0.00000000000E+00 -0.60769344767E+03  0.20913203938E+04  0.20010821231E+04 0.  0.
        1    1    3    3  502    0 -0.52101365442E+03 -0.30303439461E+03  0.53078908467E+03  0.80313269442E+03  0.50400001928E-02 0.  1.
       -1    1    3    3    0  502  0.52101365442E+03  0.30303439461E+03 -0.11384825323E+04  0.12881876994E+04  0.50400001928E-02 0. -1.
</event>
<event>
 5   0  0.9333353E-06  0.2001425E+04  0.7818609E-02  0.8605955E-01
       -1   -1    0    0    0  501  0.00000000000E+00  0.00000000000E+00  0.16538684313E+04  0.16538684313E+04  0.50400001928E-02 0.  1.
        1   -1    0    0  501    0  0.00000000000E+00  0.00000000000E+00 -0.60550469477E+03  0.60550469479E+03  0.50400001928E-02 0. -1.
    10030    2    1    2    0    0  0.00000000000E+00  0.00000000000E+00  0.10483637365E+04  0.22593731261E+04  0.20014245923E+04 0.  0.
        2    1    3    3  502    0  0.71918243812E+03 -0.43527305373E+03  0.11370507848E+04  0.14140617023E+04  0.25500000920E-02 0.  1.
       -2    1    3    3    0  502 -0.71918243812E+03  0.43527305373E+03 -0.88687048331E+02  0.84531142377E+03  0.25500000920E-02 0. -1.
</event>
<event>
 5   0  0.2020029E-05  0.2000153E+04  0.7818609E-02  0.8606549E-01
       -2   -1    0    0    0  501  0.00000000000E+00  0.00000000000E+00  0.14639199077E+04  0.14639199077E+04  0.25500000920E-02 0.  1.
        2   -1    0    0  501    0  0.00000000000E+00  0.00000000000E+00 -0.68320226023E+03  0.68320226024E+03  0.25500000920E-02 0. -1.
    10030    2    1    2    0    0  0.00000000000E+00  0.00000000000E+00  0.78071764748E+03  0.21471221680E+04  0.20001533839E+04 0.  0.
        5    1    3    3  502    0  0.13764331369E+03  0.51698923777E+03 -0.51665624360E+03  0.74376025561E+03  0.46999998093E+01 0. -1.
       -5    1    3    3    0  502 -0.13764331369E+03 -0.51698923777E+03  0.12973738911E+04  0.14033619124E+04  0.46999998093E+01 0.  1.
</event>
<event>
 5   0  0.9220260E-06  0.1999923E+04  0.7818609E-02  0.8606656E-01
        1   -1    0    0  501    0  0.00000000000E+00  0.00000000000E+00  0.10807236838E+04  0.10807236838E+04  0.50400001928E-02 0. -1.
       -1   -1    0    0    0  501  0.00000000000E+00  0.00000000000E+00 -0.92523504221E+03  0.92523504223E+03  0.50400001928E-02 0.  1.
    10030    2    1    2    0    0  0.00000000000E+00  0.00000000000E+00  0.15548864155E+03  0.20059587260E+04  0.19999234217E+04 0.  0.
        3    1    3    3  502    0  0.71466298846E+03  0.62959529751E+03  0.38327806615E+03  0.10266623164E+04  0.10100000352E+00 0. -1.
       -3    1    3    3    0  502 -0.71466298846E+03 -0.62959529751E+03 -0.22778942460E+03  0.97929640961E+03  0.10100000352E+00 0.  1.
</event>
<event>
 5   0  0.9220260E-06  0.1998369E+04  0.7818609E-02  0.8607384E-01
        1   -1    0    0  501    0  0.00000000000E+00  0.00000000000E+00  0.11442095299E+04  0.11442095299E+04  0.50400001928E-02 0. -1.
       -1   -1    0    0    0  501  0.00000000000E+00  0.00000000000E+00 -0.87254094187E+03  0.87254094189E+03  0.50400001928E-02 0.  1.
    10030    2    1    2    0    0  0.00000000000E+00  0.00000000000E+00  0.27166858801E+03  0.20167504718E+04  0.19983689959E+04 0.  0.
        3    1    3    3  502    0  0.20875683611E+03  0.42345175862E+03 -0.75287855799E+03  0.88866019478E+03  0.10100000352E+00 0.  1.
       -3    1    3    3    0  502 -0.20875683611E+03 -0.42345175862E+03  0.10245471460E+04  0.11280902770E+04  0.10100000352E+00 0. -1.
</event>
<event>
 5   0  0.7132000E-06  0.1994201E+04  0.7818609E-02  0.8609337E-01
       -3   -1    0    0    0  501  0.00000000000E+00  0.00000000000E+00  0.16104534791E+04  0.16104534823E+04  0.10100000352E+00 0.  1.
        3   -1    0    0  501    0  0.00000000000E+00  0.00000000000E+00 -0.61734719707E+03  0.61734720533E+03  0.10100000352E+00 0. -1.
    10030    2    1    2    0    0  0.00000000000E+00  0.00000000000E+00  0.99310628206E+03  0.22278006876E+04  0.19942005457E+04 0.  0.
        4    1    3    3  502    0 -0.69041361384E+03 -0.39396193068E+02 -0.30591122486E+03  0.75617875439E+03  0.12699999809E+01 0. -1.
       -4    1    3    3    0  502  0.69041361384E+03  0.39396193068E+02  0.12990175069E+04  0.14716219332E+04  0.12699999809E+01 0.  1.
</event>
<event>
 5   0  0.9140695E-06  0.1999465E+04  0.7818609E-02  0.8606871E-01
        1   -1    0    0  501    0  0.00000000000E+00  0.00000000000E+00  0.24922415717E+04  0.24922415717E+04  0.50400001928E-02 0.  1.
       -1   -1    0    0    0  501  0.00000000000E+00  0.00000000000E+00 -0.40103055469E+03  0.40103055472E+03  0.50400001928E-02 0. -1.
    10030    2    1    2    0    0  0.00000000000E+00  0.00000000000E+00  0.20912110170E+04  0.28932721264E+04  0.19994649484E+04 0.  0.
        1    1    3    3  502    0 -0.79648463291E+03 -0.56506326653E+03  0.13552169205E+04  0.16704182612E+04  0.50400001928E-02 0. -1.
       -1    1    3    3    0  502  0.79648463291E+03  0.56506326653E+03  0.73599409656E+03  0.12228538653E+04  0.50400001928E-02 0.  1.
</event>
<event>
 5   0  0.9333353E-06  0.2001210E+04  0.7818609E-02  0.8606055E-01
       -1   -1    0    0    0  501  0.00000000000E+00  0.00000000000E+00  0.14281004285E+04  0.14281004285E+04  0.50400001928E-02 0.  1.
        1   -1    0    0  501    0  0.00000000000E+00  0.00000000000E+00 -0.70107813468E+03  0.70107813470E+03  0.50400001928E-02 0. -1.
    10030    2    1    2    0    0  0.00000000000E+00  0.00000000000E+00  0.72702229380E+03  0.21291785632E+04  0.20012096188E+04 0.  0.
        2    1    3    3  502    0  0.77731352664E+03 -0.22785863614E+03  0.98850491972E+03  0.12779975951E+04  0.25500000920E-02 0.  1.
       -2    1    3    3    0  502 -0.77731352664E+03  0.22785863614E+03 -0.26148262593E+03  0.85118096808E+03  0.25500000920E-02 0. -1.
</event>
<event>
 5   0  0.9342635E-06  0.2001216E+04  0.7818609E-02  0.8606052E-01
        1   -1    0    0  501    0  0.00000000000E+00  0.00000000000E+00  0.93582197913E+03  0.93582197914E+03  0.50400001928E-02 0. -1.
       -1   -1    0    0    0  501  0.00000000000E+00  0.00000000000E+00 -0.10698792069E+04  0.10698792069E+04  0.50400001928E-02 0.  1.
    10030    2    1    2    0    0  0.00000000000E+00  0.00000000000E+00 -0.13405722773E+03  0.20057011860E+04  0.20012161071E+04 0.  0.
        5    1    3    3  502    0 -0.96802368680E+03 -0.18326944207E+03 -0.24216818822E+03  0.10145565869E+04  0.46999998093E+01 0.  1.
       -5    1    3    3    0  502  0.96802368680E+03  0.18326944207E+03  0.10811096049E+03  0.99114459913E+03  0.46999998093E+01 0. -1.
</event>
<event>
 5   0  0.2020029E-05  0.2004546E+04  0.7818609E-02  0.8604498E-01
       -2   -1    0    0    0  501  0.00000000000E+00  0.00000000000E+00  0.65678871094E+03  0.65678871095E+03  0.25500000920E-02 0. -1.
        2   -1    0    0  501    0  0.00000000000E+00  0.00000000000E+00 -0.15294897887E+04  0.15294897887E+04  0.25500000920E-02 0.  1.
    10030    2    1    2    0    0  0.00000000000E+00  0.00000000000E+00 -0.87270107778E+03  0.21862784997E+04  0.20045464592E+04 0.  0.
        5    1    3    3  502    0 -0.77120505131E+02  0.41673678966E+03 -0.14269390275E+04  0.14885544002E+04  0.46999998093E+01 0.  1.
       -5    1    3    3    0  502  0.77120505131E+02 -0.41673678966E+03  0.55423794968E+03  0.69772409951E+03  0.46999998093E+01 0. -1.
</event>
<event>
 5   0  0.9342635E-06  0.2006851E+04  0.7818609E-02  0.8603424E-01
        1   -1    0    0  501    0  0.00000000000E+00  0.00000000000E+00  0.10585616214E+04  0.10585616214E+04  0.50400001928E-02 0. -1.
       -1   -1    0    0    0  501  0.00000000000E+00  0.00000000000E+00 -0.95116136407E+03  0.95116136408E+03  0.50400001928E-02 0.  1.
    10030    2    1    2    0    0  0.00000000000E+00  0.00000000000E+00  0.10740025729E+03  0.20097229855E+04  0.20068511811E+04 0.  0.
        5    1    3    3  502    0 -0.84811658103E+03 -0.10917116208E+03  0.57944734850E+03  0.10329575971E+04  0.46999998093E+01 0. -1.
       -5    1    3    3    0  502  0.84811658103E+03  0.10917116208E+03 -0.47204709120E+03  0.97676538839E+03  0.46999998093E+01 0.  1.
</event>
<event>
 5   0  0.1999142E-05  0.1999422E+04  0.7818609E-02  0.8606891E-01
       -2   -1    0    0    0  501  0.00000000000E+00  0.00000000000E+00  0.12103441527E+04  0.12103441527E+04  0.25500000920E-02 0.  1.
        2   -1    0    0  501    0  0.00000000000E+00  0.00000000000E+00 -0.82573369108E+03  0.82573369108E+03  0.25500000920E-02 0. -1.
    10030    2    1    2    0    0  0.00000000000E+00  0.00000000000E+00  0.38461046163E+03  0.20360778438E+04  0.19994218611E+04 0.  0.
        1    1    3    3  502    0 -0.21421670917E+03  0.79985703673E+03  0.76271902843E+03  0.11257887875E+04  0.50400001928E-02 0.  1.
       -1    1    3    3    0  502  0.21421670917E+03 -0.79985703673E+03 -0.37810856681E+03  0.91028905629E+03  0.50400001928E-02 0. -1.
</event>
<event>
 5   0  0.9140695E-06  0.1995010E+04  0.7818609E-02  0.8608957E-01
        1   -1    0    0  501    0  0.00000000000E+00  0.00000000000E+00  0.81726178451E+03  0.81726178452E+03  0.50400001928E-02 0.  1.
       -1   -1    0    0    0  501  0.00000000000E+00  0.00000000000E+00 -0.12174997432E+04  0.12174997432E+04  0.50400001928E-02 0. -1.
    10030    2    1    2    0    0  0.00000000000E+00  0.00000000000E+00 -0.40023795871E+03  0.20347615278E+04  0.19950097873E+04 0.  0.
        1    1    3    3  502    0  0.20151367368E+03 -0.31521393724E+03  0.74299426305E+03  0.83187021936E+03  0.50400001928E-02 0.  1.
       -1    1    3    3    0  502 -0.20151367368E+03  0.31521393724E+03 -0.11432322218E+04  0.12028913084E+04  0.50400001928E-02 0. -1.
</event>
<event>
 5   0  0.2003576E-05  0.2002140E+04  0.7818609E-02  0.8605621E-01
        2   -1    0    0  501    0  0.00000000000E+00  0.00000000000E+00  0.18952005627E+04  0.18952005627E+04  0.25500000920E-02 0.  1.
       -2   -1    0    0    0  501  0.00000000000E+00  0.00000000000E+00 -0.52877835439E+03  0.52877835440E+03  0.25500000920E-02 0. -1.
    10030    2    1    2    0    0  0.00000000000E+00  0.00000000000E+00  0.13664222083E+04  0.24239789171E+04  0.20021398900E+04 0.  0.
        4    1    3    3  502    0  0.85038038362E+03  0.44041456847E+03  0.10362434221E+04  0.14109974598E+04  0.12699999809E+01 0.  1.
       -4    1    3    3    0  502 -0.85038038362E+03 -0.44041456847E+03  0.33017878621E+03  0.10129814572E+04  0.12699999809E+01 0. -1.
</event>
<event>
 5   0  0.2038882E-05  0.2002597E+04  0.7818609E-02  0.8605408E-01
       -2   -1    0    0    0  501  0.00000000000E+00  0.00000000000E+00  0.12233775967E+04  0.12233775967E+04  0.25500000920E-02 0. -1.
        2   -1    0    0  501    0  0.00000000000E+00  0.00000000000E+00 -0.81953319522E+03  0.81953319523E+03  0.25500000920E-02 0.  1.
    10030    2    1    2    0    0  0.00000000000E+00  0.00000000000E+00  0.40384440149E+03  0.20429107919E+04  0.20025968649E+04 0.  0.
        3    1    3    3  502    0  0.38151736185E+03  0.92149480251E+03  0.11130625765E+03  0.10035423567E+04  0.10100000352E+00 0. -1.
       -3    1    3    3    0  502 -0.38151736185E+03 -0.92149480251E+03  0.29253814384E+03  0.10393684353E+04  0.10100000352E+00 0.  1.
</event>
<event>
 5   0  0.9220260E-06  0.2051083E+04  0.7818609E-02  0.8583103E-01
       -1   -1    0    0    0  501  0.00000000000E+00  0.00000000000E+00  0.76950879972E+03  0.76950879973E+03  0.50400001928E-02 0.  1.
        1   -1    0    0  501    0  0.00000000000E+00  0.00000000000E+00 -0.13667616130E+04  0.13667616130E+04  0.50400001928E-02 0. -1.
    10030    2    1    2    0    0  0.00000000000E+00  0.00000000000E+00 -0.59725281324E+03  0.21362704127E+04  0.20510827271E+04 0.  0.
        3    1    3    3  502    0 -0.40020770753E+03 -0.87786050782E+03 -0.66081912221E+03  0.11693960847E+04  0.10100000352E+00 0. -1.
       -3    1    3    3    0  502  0.40020770753E+03  0.87786050782E+03  0.63566308971E+02  0.96687432803E+03  0.10100000352E+00 0.  1.
</event>
<event>
 5   0  0.9342635E-06  0.1987117E+04  0.7818609E-02  0.8612668E-01
        1   -1    0    0  501    0  0.00000000000E+00  0.00000000000E+00  0.17861197865E+04  0.17861197865E+04  0.50400001928E-02 0.  1.
       -1   -1    0    0    0  501  0.00000000000E+00  0.00000000000E+00 -0.55268327377E+03  0.55268327379E+03  0.50400001928E-02 0. -1.
    10030    2    1    2    0    0  0.00000000000E+00  0.00000000000E+00  0.12334365127E+04  0.23388030603E+04  0.19871170383E+04 0.  0.
        5    1    3    3  502    0 -0.46700541870E+03 -0.86193250627E+03  0.42651716094E+03  0.10690933940E+04  0.46999998093E+01 0. -1.
       -5    1    3    3    0  502  0.46700541870E+03  0.86193250627E+03  0.80691935177E+03  0.12697096663E+04  0.46999998093E+01 0.  1.
</event>
<event>
 5   0  0.7132000E-06  0.2002598E+04  0.7818609E-02  0.8605407E-01
        3   -1    0    0  501    0  0.00000000000E+00  0.00000000000E+00  0.12127679244E+04  0.12127679286E+04  0.10100000352E+00 0. -1.
       -3   -1    0    0    0  501  0.00000000000E+00  0.00000000000E+00 -0.82670347674E+03  0.82670348291E+03  0.10100000352E+00 0.  1.
    10030    2    1    2    0    0  0.00000000000E+00  0.00000000000E+00  0.38606444765E+03  0.20394714115E+04  0.20025977830E+04 0.  0.
        1    1    3    3  502    0 -0.92434706367E+03 -0.34703445441E+03  0.36267995511E+03  0.10518493982E+04  0.50400001928E-02 0.  1.
       -1    1    3    3    0  502  0.92434706367E+03  0.34703445441E+03  0.23384492546E+02  0.98762201331E+03  0.50400001928E-02 0. -1.
</event>
<event>
 5   0  0.9370269E-06  0.2000390E+04  0.7818609E-02  0.8606438E-01
        1   -1    0    0  501    0  0.00000000000E+00  0.00000000000E+00  0.70182791618E+03  0.70182791620E+03  0.50400001928E-02 0. -1.
       -1   -1    0    0    0  501  0.00000000000E+00  0.00000000000E+00 -0.14254067548E+04  0.14254067548E+04  0.50400001928E-02 0.  1.
    10030    2    1    2    0    0  0.00000000000E+00  0.00000000000E+00 -0.72357883863E+03  0.21272346710E+04  0.20003902144E+04 0.  0.
        4    1    3    3  502    0 -0.78893787926E+03  0.38975221899E+03  0.14381569423E+03  0.89163576439E+03  0.12699999809E+01 0. -1.
       -4    1    3    3    0  502  0.78893787926E+03 -0.38975221899E+03 -0.86739453286E+03  0.12355989066E+04  0.12699999809E+01 0.  1.
</event>
<event>
 5   0  0.2020029E-05  0.2003324E+04  0.7818609E-02  0.8605068E-01
        2   -1    0    0  501    0  0.00000000000E+00  0.00000000000E+00  0.20580850292E+04  0.20580850292E+04  0.25500000920E-02 0.  1.
       -2   -1    0    0    0  501  0.00000000000E+00  0.00000000000E+00 -0.48750524128E+03  0.48750524128E+03  0.25500000920E-02 0. -1.
    10030    2    1    2    0    0  0.00000000000E+00  0.00000000000E+00  0.15705797879E+04  0.25455902705E+04  0.20033244757E+04 0.  0.
        5    1    3    3  502    0  0.58744270812E+03 -0.38218788865E+03  0.16946485675E+04  0.18338517865E+04  0.46999998093E+01 0.  1.
       -5    1    3    3    0  502 -0.58744270812E+03  0.38218788865E+03 -0.12406877955E+03  0.71173848400E+03  0.46999998093E+01 0. -1.
</event>
<event>
 5   0  0.1979765E-05  0.2006947E+04  0.7818609E-02  0.8603380E-01
        2   -1    0    0  501    0  0.00000000000E+00  0.00000000000E+00  0.10462309769E+04  0.10462309769E+04  0.25500000920E-02 0. -1.
       -2   -1    0    0    0  501  0.00000000000E+00  0.00000000000E+00 -0.96246351552E+03  0.96246351552E+03  0.25500000920E-02 0.  1.
    10030    2    1    2    0    0  0.00000000000E+00  0.00000000000E+00  0.83767461399E+02  0.20086944924E+04  0.20069470786E+04 0.  0.
        2    1    3    3  502    0 -0.27659929113E+03 -0.22672590465E+03 -0.89650784491E+03  0.96521402792E+03  0.25500000920E-02 0.  1.
       -2    1    3    3    0  502  0.27659929113E+03  0.22672590465E+03  0.98027530631E+03  0.10434804645E+04  0.25500000920E-02 0. -1.
</event>
<event>
 5   0  0.2038882E-05  0.2002022E+04  0.7818609E-02  0.8605676E-01
        2   -1    0    0  501    0  0.00000000000E+00  0.00000000000E+00  0.12151085311E+04  0.12151085311E+04  0.25500000920E-02 0.  1.
       -2   -1    0    0    0  501  0.00000000000E+00  0.00000000000E+00 -0.82463690449E+03  0.82463690449E+03  0.25500000920E-02 0. -1.
    10030    2    1    2    0    0  0.00000000000E+00  0.00000000000E+00  0.39047162662E+03  0.20397454356E+04  0.20020223153E+04 0.  0.
        3    1    3    3  502    0 -0.51042389057E+03  0.23868658920E+03 -0.64771059699E+03  0.85850618145E+03  0.10100000352E+00 0. -1.
       -3    1    3    3    0  502  0.51042389057E+03 -0.23868658920E+03  0.10381822236E+04  0.11812392542E+04  0.10100000352E+00 0.  1.
</event>
<event>
 5   0  0.1979765E-05  0.2008871E+04  0.7818609E-02  0.8602485E-01
       -2   -1    0    0    0  501  0.00000000000E+00  0.00000000000E+00  0.55283455238E+03  0.55283455239E+03  0.25500000920E-02 0.  1.
        2   -1    0    0  501    0  0.00000000000E+00  0.00000000000E+00 -0.18249408089E+04  0.18249408089E+04  0.25500000920E-02 0. -1.
    10030    2    1    2    0    0  0.00000000000E+00  0.00000000000E+00 -0.12721062565E+04  0.23777753613E+04  0.20088706631E+04 0.  0.
        2    1    3    3  502    0 -0.69486036665E+02  0.86934173515E+03 -0.12258647209E+04  0.15044359992E+04  0.25500000920E-02 0. -1.
       -2    1    3    3    0  502  0.69486036665E+02 -0.86934173515E+03 -0.46241535633E+02  0.87333936210E+03  0.25500000920E-02 0.  1.
</event>
<event>
 5   0  0.2038882E-05  0.2022991E+04  0.7818609E-02  0.8595946E-01
       -2   -1    0    0    0  501  0.00000000000E+00  0.00000000000E+00  0.97026526940E+03  0.97026526941E+03  0.25500000920E-02 0.  1.
        2   -1    0    0  501    0  0.00000000000E+00  0.00000000000E+00 -0.10544781683E+04  0.10544781683E+04  0.25500000920E-02 0. -1.
    10030    2    1    2    0    0  0.00000000000E+00  0.00000000000E+00 -0.84212898852E+02  0.20247434377E+04  0.20229913930E+04 0.  0.
        3    1    3    3  502    0  0.21795473637E+03  0.62140567325E+03 -0.81054365941E+03  0.10443324719E+04  0.10100000352E+00 0. -1.
       -3    1    3    3    0  502 -0.21795473637E+03 -0.62140567325E+03  0.72633076056E+03  0.98041096576E+03  0.10100000352E+00 0.  1.
</event>
<event>
 5   0  0.2020029E-05  0.1962215E+04  0.7818609E-02  0.8624493E-01
        2   -1    0    0  501    0  0.00000000000E+00  0.00000000000E+00  0.14079011152E+04  0.14079011152E+04  0.25500000920E-02 0. -1.
       -2   -1    0    0    0  501  0.00000000000E+00  0.00000000000E+00 -0.68369295795E+03  0.68369295795E+03  0.25500000920E-02 0.  1.
    10030    2    1    2    0    0  0.00000000000E+00  0.00000000000E+00  0.72420815724E+03  0.20915940731E+04  0.19622151543E+04 0.  0.
        5    1    3    3  502    0 -0.76144804324E+03  0.56826123433E+03  0.62282500301E+03  0.11360708725E+04  0.46999998093E+01 0.  1.
       -5    1    3    3    0  502  0.76144804324E+03 -0.56826123433E+03  0.10138315424E+03  0.95552320064E+03  0.46999998093E+01 0. -1.
</event>
<event>
 5   0  0.2003576E-05  0.2007891E+04  0.7818609E-02  0.8602940E-01
        2   -1    0    0  501    0  0.00000000000E+00  0.00000000000E+00  0.16943916521E+04  0.16943916521E+04  0.25500000920E-02 0. -1.
       -2   -1    0    0    0  501  0.00000000000E+00  0.00000000000E+00 -0.59484847920E+03  0.59484847920E+03  0.25500000920E-02 0.  1.
    10030    2    1    2    0    0  0.00000000000E+00  0.00000000000E+00  0.10995431729E+04  0.22892401313E+04  0.20078907315E+04 0.  0.
        4    1    3    3  502    0  0.15048507349E+03 -0.50760300225E+03  0.15222882681E+04  0.16117288076E+04  0.12699999809E+01 0. -1.
       -4    1    3    3    0  502 -0.15048507349E+03  0.50760300225E+03 -0.42274509523E+03  0.67751132365E+03  0.12699999809E+01 0.  1.
</event>
<event>
 5   0  0.2003576E-05  0.1991573E+04  0.7818609E-02  0.8610571E-01
        2   -1    0    0  501    0  0.00000000000E+00  0.00000000000E+00  0.14339158017E+04  0.14339158017E+04  0.25500000920E-02 0. -1.
       -2   -1    0    0    0  501  0.00000000000E+00  0.00000000000E+00 -0.69152664408E+03  0.69152664409E+03  0.25500000920E-02 0.  1.
    10030    2    1    2    0    0  0.00000000000E+00  0.00000000000E+00  0.74238915759E+03  0.21254424458E+04  0.19915732296E+04 0.  0.
        4    1    3    3  502    0 -0.90997863431E+03 -0.40303314096E+03  0.40646999018E+03  0.10750424612E+04  0.12699999809E+01 0. -1.
       -4    1    3    3    0  502  0.90997863431E+03  0.40303314096E+03  0.33591916741E+03  0.10503999845E+04  0.12699999809E+01 0.  1.
</event>
<event>
 5   0  0.9140695E-06  0.2003892E+04  0.7818609E-02  0.8604803E-01
       -1   -1    0    0    0  501  0.00000000000E+00  0.00000000000E+00  0.10501544778E+04  0.10501544779E+04  0.50400001928E-02 0.  1.
        1   -1    0    0  501    0  0.00000000000E+00  0.00000000000E+00 -0.95595088457E+03  0.95595088459E+03  0.50400001928E-02 0. -1.
    10030    2    1    2    0    0  0.00000000000E+00  0.00000000000E+00  0.94203593269E+02  0.20061053624E+04  0.20038923145E+04 0.  0.
        1    1    3    3  502    0 -0.13677930433E+03 -0.73007269644E+03  0.72028876077E+03  0.10346644959E+04  0.50400001928E-02 0.  1.
       -1    1    3    3    0  502  0.13677930433E+03  0.73007269644E+03 -0.62608516750E+03  0.97144086653E+03  0.50400001928E-02 0. -1.
</event>
<event>
 5   0  0.1979765E-05  0.1996818E+04  0.7818609E-02  0.8608110E-01
       -2   -1    0    0    0  501  0.00000000000E+00  0.00000000000E+00  0.15164675837E+04  0.15164675837E+04  0.25500000920E-02 0. -1.
        2   -1    0    0  501    0  0.00000000000E+00  0.00000000000E+00 -0.65733076848E+03  0.65733076849E+03  0.25500000920E-02 0.  1.
    10030    2    1    2    0    0  0.00000000000E+00  0.00000000000E+00  0.85913681521E+03  0.21737983522E+04  0.19968182713E+04 0.  0.
        2    1    3    3  502    0 -0.40854144554E+03 -0.26708895303E+02 -0.56174437625E+03  0.69510878434E+03  0.25500000920E-02 0.  1.
       -2    1    3    3    0  502  0.40854144554E+03  0.26708895303E+02  0.14208811915E+04  0.14786895678E+04  0.25500000920E-02 0. -1.
</event>
<event>
 5   0  0.9342635E-06  0.1999387E+04  0.7818609E-02  0.8606907E-01
        1   -1    0    0  501    0  0.00000000000E+00  0.00000000000E+00  0.10635090162E+04  0.10635090162E+04  0.50400001928E-02 0. -1.
       -1   -1    0    0    0  501  0.00000000000E+00  0.00000000000E+00 -0.93970735706E+03  0.93970735708E+03  0.50400001928E-02 0.  1.
    10030    2    1    2    0    0  0.00000000000E+00  0.00000000000E+00  0.12380165916E+03  0.20032163733E+04  0.19993871530E+04 0.  0.
        5    1    3    3  502    0  0.95227354362E+03  0.54048543593E+02 -0.23803685525E+03  0.98307160543E+03  0.46999998093E+01 0.  1.
       -5    1    3    3    0  502 -0.95227354362E+03 -0.54048543593E+02  0.36183851441E+03  0.10201447679E+04  0.46999998093E+01 0. -1.
</event>
<event>
 5   0  0.9370269E-06  0.1999134E+04  0.7818609E-02  0.8607026E-01
        1   -1    0    0  501    0  0.00000000000E+00  0.00000000000E+00  0.68317845469E+03  0.68317845471E+03  0.50400001928E-02 0. -1.
       -1   -1    0    0    0  501  0.00000000000E+00  0.00000000000E+00 -0.14624788154E+04  0.14624788154E+04  0.50400001928E-02 0.  1.
    10030    2    1    2    0    0  0.00000000000E+00  0.00000000000E+00 -0.77930036067E+03  0.21456572701E+04  0.19991338296E+04 0.  0.
        4    1    3    3  502    0  0.80323511178E+03 -0.17358458402E+03  0.22110392724E+03  0.85100341488E+03  0.12699999809E+01 0. -1.
       -4    1    3    3    0  502 -0.80323511178E+03  0.17358458402E+03 -0.10004042879E+04  0.12946538552E+04  0.12699999809E+01 0.  1.
</event>
<event>
 5   0  0.9342635E-06  0.1998280E+04  0.7818609E-02  0.8607425E-01
        1   -1    0    0  501    0  0.00000000000E+00  0.00000000000E+00  0.54872483943E+03  0.54872483945E+03  0.50400001928E-02 0.  1.
       -1   -1    0    0    0  501  0.00000000000E+00  0.00000000000E+00 -0.18192736970E+04  0.18192736970E+04  0.50400001928E-02 0. -1.
    10030    2    1    2    0    0  0.00000000000E+00  0.00000000000E+00 -0.12705488576E+04  0.23679985365E+04  0.19982799277E+04 0.  0.
        5    1    3    3  502    0  0.90576704120E+03  0.89403390835E+02 -0.14689200643E+03  0.92195783568E+03  0.46999998093E+01 0.  1.
       -5    1    3    3    0  502 -0.90576704120E+03 -0.89403390835E+02 -0.11236568512E+04  0.14460407008E+04  0.46999998093E+01 0. -1.
</event>
<event>
 5   0  0.1999142E-05  0.2001124E+04  0.7818609E-02  0.8606095E-01
        2   -1    0    0  501    0  0.00000000000E+00  0.00000000000E+00  0.15274944330E+04  0.15274944330E+04  0.25500000920E-02 0.  1.
       -2   -1    0    0    0  501  0.00000000000E+00  0.00000000000E+00 -0.65540274622E+03  0.65540274622E+03  0.25500000920E-02 0. -1.
    10030    2    1    2    0    0  0.00000000000E+00  0.00000000000E+00  0.87209168675E+03  0.21828971792E+04  0.20011237305E+04 0.  0.
        1    1    3    3  502    0  0.23227936805E+03  0.95154947766E+03  0.21322697885E+03  0.10024299765E+04  0.50400001928E-02 0. -1.
       -1    1    3    3    0  502 -0.23227936805E+03 -0.95154947766E+03  0.65886470791E+03  0.11804672027E+04  0.50400001928E-02 0.  1.
</event>
<event>
 5   0  0.2038882E-05  0.1996291E+04  0.7818609E-02  0.8608356E-01
       -2   -1    0    0    0  501  0.00000000000E+00  0.00000000000E+00  0.85025521851E+03  0.85025521852E+03  0.25500000920E-02 0. -1.
        2   -1    0    0  501    0  0.00000000000E+00  0.00000000000E+00 -0.11717597822E+04  0.11717597822E+04  0.25500000920E-02 0.  1.
    10030    2    1    2    0    0  0.00000000000E+00  0.00000000000E+00 -0.32150456367E+03  0.20220150007E+04  0.19962914313E+04 0.  0.
        3    1    3    3  502    0 -0.56123116732E+03 -0.29600509799E+03  0.61969267607E+03  0.88691513923E+03  0.10100000352E+00 0. -1.
       -3    1    3    3    0  502  0.56123116732E+03  0.29600509799E+03 -0.94119723975E+03  0.11350998615E+04  0.10100000352E+00 0.  1.
</event>
<event>
 5   0  0.2020029E-05  0.1999810E+04  0.7818609E-02  0.8606710E-01
        2   -1    0    0  501    0  0.00000000000E+00  0.00000000000E+00  0.15494642562E+04  0.15494642562E+04  0.25500000920E-02 0. -1.
       -2   -1    0    0    0  501  0.00000000000E+00  0.00000000000E+00 -0.64526151048E+03  0.64526151049E+03  0.25500000920E-02 0.  1.
    10030    2    1    2    0    0  0.00000000000E+00  0.00000000000E+00  0.90420274574E+03  0.21947257667E+04  0.19998096374E+04 0.  0.
        5    1    3    3  502    0 -0.76496939328E+03  0.46034033825E+03  0.94620081390E+03  0.13009263891E+04  0.46999998093E+01 0. -1.
       -5    1    3    3    0  502  0.76496939328E+03 -0.46034033825E+03 -0.41998068158E+02  0.89379937760E+03  0.46999998093E+01 0.  1.
</event>
<event>
 5   0  0.9342635E-06  0.1997179E+04  0.7818609E-02  0.8607941E-01
       -1   -1    0    0    0  501  0.00000000000E+00  0.00000000000E+00  0.58532267333E+03  0.58532267335E+03  0.50400001928E-02 0.  1.
        1   -1    0    0  501    0  0.00000000000E+00  0.00000000000E+00 -0.17036439306E+04  0.17036439306E+04  0.50400001928E-02 0. -1.
    10030    2    1    2    0    0  0.00000000000E+00  0.00000000000E+00 -0.11183212573E+04  0.22889666040E+04  0.19971794310E+04 0.  0.
        5    1    3    3  502    0 -0.71015317863E+02  0.48241053923E+03 -0.15579101612E+04  0.16324427292E+04  0.46999998093E+01 0. -1.
       -5    1    3    3    0  502  0.71015317863E+02 -0.48241053923E+03  0.43958890390E+03  0.65652387479E+03  0.46999998093E+01 0.  1.
</event>
<event>
 5   0  0.2038882E-05  0.2000697E+04  0.7818609E-02  0.8606295E-01
       -2   -1    0    0    0  501  0.00000000000E+00  0.00000000000E+00  0.70402551811E+03  0.70402551812E+03  0.25500000920E-02 0.  1.
        2   -1    0    0  501    0  0.00000000000E+00  0.00000000000E+00 -0.14213932629E+04  0.14213932629E+04  0.25500000920E-02 0. -1.
    10030    2    1    2    0    0  0.00000000000E+00  0.00000000000E+00 -0.71736774483E+03  0.21254187811E+04  0.20006970069E+04 0.  0.
        3    1    3    3  502    0 -0.14636466506E+03  0.30721547786E+03 -0.13580131445E+04  0.14000013128E+04  0.10100000352E+00 0. -1.
       -3    1    3    3    0  502  0.14636466506E+03 -0.30721547786E+03  0.64064539964E+03  0.72541746829E+03  0.10100000352E+00 0.  1.
</event>
<event>
 5   0  0.2003576E-05  0.2001246E+04  0.7818609E-02  0.8606038E-01
       -2   -1    0    0    0  501  0.00000000000E+00  0.00000000000E+00  0.52454709547E+03  0.52454709547E+03  0.25500000920E-02 0. -1.
        2   -1    0    0  501    0  0.00000000000E+00  0.00000000000E+00 -0.19087824376E+04  0.19087824376E+04  0.25500000920E-02 0.  1.
    10030    2    1    2    0    0  0.00000000000E+00  0.00000000000E+00 -0.13842353421E+04  0.24333295330E+04  0.20012458954E+04 0.  0.
        4    1    3    3  502    0  0.24559386964E+03 -0.18022380408E+03  0.46679427166E+03  0.55740063986E+03  0.12699999809E+01 0. -1.
       -4    1    3    3    0  502 -0.24559386964E+03  0.18022380408E+03 -0.18510296138E+04  0.18759288932E+04  0.12699999809E+01 0.  1.
</event>
<event>
 5   0  0.2020029E-05  0.2001798E+04  0.7818609E-02  0.8605780E-01
        2   -1    0    0  501    0  0.00000000000E+00  0.00000000000E+00  0.17894663500E+04  0.17894663500E+04  0.25500000920E-02 0. -1.
       -2   -1    0    0    0  501  0.00000000000E+00  0.00000000000E+00 -0.55983113620E+03  0.55983113620E+03  0.25500000920E-02 0.  1.
    10030    2    1    2    0    0  0.00000000000E+00  0.00000000000E+00  0.12296352138E+04  0.23492974862E+04  0.20017981715E+04 0.  0.
        5    1    3    3  502    0  0.43262847418E+02  0.74574536172E+03  0.13966186420E+04  0.15838477009E+04  0.46999998093E+01 0. -1.
       -5    1    3    3    0  502 -0.43262847418E+02 -0.74574536172E+03 -0.16698342821E+03  0.76544978528E+03  0.46999998093E+01 0.  1.
</event>
<event>
 5   0  0.9342635E-06  0.1992195E+04  0.7818609E-02  0.8610279E-01
       -1   -1    0    0    0  501  0.00000000000E+00  0.00000000000E+00  0.10603511230E+04  0.10603511230E+04  0.50400001928E-02 0.  1.
        1   -1    0    0  501    0  0.00000000000E+00  0.00000000000E+00 -0.93573712804E+03  0.93573712805E+03  0.50400001928E-02 0. -1.
    10030    2    1    2    0    0  0.00000000000E+00  0.00000000000E+00  0.12461399492E+03  0.19960882510E+04  0.19921946838E+04 0.  0.
        5    1    3    3  502    0  0.75173730689E+03 -0.64528220533E+03 -0.41286180476E+02  0.99157689655E+03  0.46999998093E+01 0.  1.
       -5    1    3    3    0  502 -0.75173730689E+03  0.64528220533E+03  0.16590017540E+03  0.10045113545E+04  0.46999998093E+01 0. -1.
</event>
<event>
 5   0  0.2038882E-05  0.2005750E+04  0.7818609E-02  0.8603937E-01
        2   -1    0    0  501    0  0.00000000000E+00  0.00000000000E+00  0.11846079377E+04  0.11846079377E+04  0.25500000920E-02 0.  1.
       -2   -1    0    0    0  501  0.00000000000E+00  0.00000000000E+00 -0.84902209718E+03  0.84902209718E+03  0.25500000920E-02 0. -1.
    10030    2    1    2    0    0  0.00000000000E+00  0.00000000000E+00  0.33558584053E+03  0.20336300349E+04  0.20057500498E+04 0.  0.
        3    1    3    3  502    0 -0.37428736943E+03  0.35135449196E+03  0.10412884157E+04  0.11609576171E+04  0.10100000352E+00 0.  1.
       -3    1    3    3    0  502  0.37428736943E+03 -0.35135449196E+03 -0.70570257516E+03  0.87267241776E+03  0.10100000352E+00 0. -1.
</event>
<event>
 5   0  0.1999142E-05  0.1998313E+04  0.7818609E-02  0.8607410E-01
       -2   -1    0    0    0  501  0.00000000000E+00  0.00000000000E+00  0.75932868877E+03  0.75932868877E+03  0.25500000920E-02 0. -1.
        2   -1    0    0  501    0  0.00000000000E+00  0.00000000000E+00 -0.13147324301E+04  0.13147324301E+04  0.25500000920E-02 0.  1.
    10030    2    1    2    0    0  0.00000000000E+00  0.00000000000E+00 -0.55540374134E+03  0.20740611189E+04  0.19983133410E+04 0.  0.
        1    1    3    3  502    0 -0.55029431226E+03  0.27650758643E+02 -0.11427985234E+04  0.12686910024E+04  0.50400001928E-02 0.  1.
       -1    1    3    3    0  502  0.55029431226E+03 -0.27650758643E+02  0.58739478202E+03  0.80537011649E+03  0.50400001928E-02 0. -1.
</event>
<event>
 5   0  0.2003576E-05  0.2002201E+04  0.7818609E-02  0.8605592E-01
        2   -1    0    0  501    0  0.00000000000E+00  0.00000000000E+00  0.22099401577E+04  0.22099401577E+04  0.25500000920E-02 0. -1.
       -2   -1    0    0    0  501  0.00000000000E+00  0.00000000000E+00 -0.45349753939E+03  0.45349753940E+03  0.25500000920E-02 0.  1.
    10030    2    1    2    0    0  0.00000000000E+00  0.00000000000E+00  0.17564426183E+04  0.26634376971E+04  0.20022012124E+04 0.  0.
        4    1    3    3  502    0  0.40770276841E+03 -0.91071137253E+03  0.98616113012E+03  0.14029013290E+04  0.12699999809E+01 0. -1.
       -4    1    3    3    0  502 -0.40770276841E+03  0.91071137253E+03  0.77028148822E+03  0.12605363681E+04  0.12699999809E+01 0.  1.
</event>
<event>
 5   0  0.1999142E-05  0.2004006E+04  0.7818609E-02  0.8604750E-01
        2   -1    0    0  501    0  0.00000000000E+00  0.00000000000E+00  0.23868157994E+04  0.23868157994E+04  0.25500000920E-02 0. -1.
       -2   -1    0    0    0  501  0.00000000000E+00  0.00000000000E+00 -0.42064831249E+03  0.42064831250E+03  0.25500000920E-02 0.  1.
    10030    2    1    2    0    0  0.00000000000E+00  0.00000000000E+00  0.19661674869E+04  0.28074641119E+04  0.20040060262E+04 0.  0.
        1    1    3    3  502    0 -0.26216794622E+03 -0.86978986796E+03  0.15753683296E+04  0.18185301263E+04  0.50400001928E-02 0. -1.
       -1    1    3    3    0  502  0.26216794622E+03  0.86978986796E+03  0.39079915729E+03  0.98893398556E+03  0.50400001928E-02 0.  1.
</event>
<event>
 5   0  0.2038882E-05  0.2001494E+04  0.7818609E-02  0.8605923E-01
       -2   -1    0    0    0  501  0.00000000000E+00  0.00000000000E+00  0.10230987935E+04  0.10230987935E+04  0.25500000920E-02 0.  1.
        2   -1    0    0  501    0  0.00000000000E+00  0.00000000000E+00 -0.97888336604E+03  0.97888336604E+03  0.25500000920E-02 0. -1.
    10030    2    1    2    0    0  0.00000000000E+00  0.00000000000E+00  0.44215427483E+02  0.20019821596E+04  0.20014938329E+04 0.  0.
        3    1    3    3  502    0 -0.79332382244E+03  0.43438614999E+03 -0.40629617154E+03  0.99152942657E+03  0.10100000352E+00 0. -1.
       -3    1    3    3    0  502  0.79332382244E+03 -0.43438614999E+03  0.45051159903E+03  0.10104527330E+04  0.10100000352E+00 0.  1.
</event>
<event>
 5   0  0.1979765E-05  0.1992219E+04  0.7818609E-02  0.8610267E-01
       -2   -1    0    0    0  501  0.00000000000E+00  0.00000000000E+00  0.69239791928E+03  0.69239791928E+03  0.25500000920E-02 0.  1.
        2   -1    0    0  501    0  0.00000000000E+00  0.00000000000E+00 -0.14330409645E+04  0.14330409645E+04  0.25500000920E-02 0. -1.
    10030    2    1    2    0    0  0.00000000000E+00  0.00000000000E+00 -0.74064304524E+03  0.21254388838E+04  0.19922194478E+04 0.  0.
        2    1    3    3  502    0  0.77064212794E+03  0.53239067931E+03 -0.73196594713E+03  0.11887402040E+04  0.25500000920E-02 0. -1.
       -2    1    3    3    0  502 -0.77064212794E+03 -0.53239067931E+03 -0.86770981123E+01  0.93669867984E+03  0.25500000920E-02 0.  1.
</event>
<event>
 5   0  0.1999142E-05  0.2002032E+04  0.7818609E-02  0.8605671E-01
        2   -1    0    0  501    0  0.00000000000E+00  0.00000000000E+00  0.82717799526E+03  0.82717799527E+03  0.25500000920E-02 0. -1.
       -2   -1    0    0    0  501  0.00000000000E+00  0.00000000000E+00 -0.12113871084E+04  0.12113871084E+04  0.25500000920E-02 0.  1.
    10030    2    1    2    0    0  0.00000000000E+00  0.00000000000E+00 -0.38420911316E+03  0.20385651037E+04  0.20020317279E+04 0.  0.
        1    1    3    3  502    0 -0.99345551016E+03  0.45569103208E+02 -0.75995840414E+02  0.99739949951E+03  0.50400001928E-02 0. -1.
       -1    1    3    3    0  502  0.99345551016E+03 -0.45569103208E+02 -0.30821327275E+03  0.10411656042E+04  0.50400001928E-02 0.  1.
</event>
<event>
 5   0  0.1979765E-05  0.2006350E+04  0.7818609E-02  0.8603657E-01
       -2   -1    0    0    0  501  0.00000000000E+00  0.00000000000E+00  0.78961381518E+03  0.78961381518E+03  0.25500000920E-02 0. -1.
        2   -1    0    0  501    0  0.00000000000E+00  0.00000000000E+00 -0.12744968661E+04  0.12744968661E+04  0.25500000920E-02 0.  1.
    10030    2    1    2    0    0  0.00000000000E+00  0.00000000000E+00 -0.48488305091E+03  0.20641106813E+04  0.20063502514E+04 0.  0.
        2    1    3    3  502    0  0.24705788461E+03  0.85391641797E+03  0.23586172659E+03  0.91969647238E+03  0.25500000920E-02 0. -1.
       -2    1    3    3    0  502 -0.24705788461E+03 -0.85391641797E+03 -0.72074477749E+03  0.11444142089E+04  0.25500000920E-02 0.  1.
</event>
<event>
 5   0  0.9140695E-06  0.1992845E+04  0.7818609E-02  0.8609973E-01
       -1   -1    0    0    0  501  0.00000000000E+00  0.00000000000E+00  0.83586026681E+03  0.83586026683E+03  0.50400001928E-02 0.  1.
        1   -1    0    0  501    0  0.00000000000E+00  0.00000000000E+00 -0.11878272832E+04  0.11878272832E+04  0.50400001928E-02 0. -1.
    10030    2    1    2    0    0  0.00000000000E+00  0.00000000000E+00 -0.35196701636E+03  0.20236875500E+04  0.19928448308E+04 0.  0.
        1    1    3    3  502    0  0.14948413434E+03  0.88803600505E+03 -0.60908662730E+03  0.10871706270E+04  0.50400001928E-02 0. -1.
       -1    1    3    3    0  502 -0.14948413434E+03 -0.88803600505E+03  0.25711961094E+03  0.93651692299E+03  0.50400001928E-02 0.  1.
</event>
<event>
 5   0  0.9333353E-06  0.2003501E+04  0.7818609E-02  0.8604986E-01
       -1   -1    0    0    0  501  0.00000000000E+00  0.00000000000E+00  0.10658817639E+04  0.10658817639E+04  0.50400001928E-02 0. -1.
        1   -1    0    0  501    0  0.00000000000E+00  0.00000000000E+00 -0.94147793491E+03  0.94147793492E+03  0.50400001928E-02 0.  1.
    10030    2    1    2    0    0  0.00000000000E+00  0.00000000000E+00  0.12440382902E+03  0.20073596989E+04  0.20035010976E+04 0.  0.
        2    1    3    3  502    0  0.46033304004E+03  0.87373004641E+02 -0.82492053308E+03  0.94870144703E+03  0.25500000920E-02 0.  1.
       -2    1    3    3    0  502 -0.46033304004E+03 -0.87373004641E+02  0.94932436210E+03  0.10586582518E+04  0.25500000920E-02 0. -1.
</event>
<event>
 5   0  0.9370269E-06  0.2000392E+04  0.7818609E-02  0.8606437E-01
       -1   -1    0    0    0  501  0.00000000000E+00  0.00000000000E+00  0.15281989687E+04  0.15281989687E+04  0.50400001928E-02 0. -1.
        1   -1    0    0  501    0  0.00000000000E+00  0.00000000000E+00 -0.65462158312E+03  0.65462158314E+03  0.50400001928E-02 0.  1.
    10030    2    1    2    0    0  0.00000000000E+00  0.00000000000E+00  0.87357738557E+03  0.21828205518E+04  0.20003919898E+04 0.  0.
        4    1    3    3  502    0 -0.30731440249E+03  0.30259700670E+03  0.14215191340E+04  0.14855050830E+04  0.12699999809E+01 0. -1.
       -4    1    3    3    0  502  0.30731440249E+03 -0.30259700670E+03 -0.54794174845E+03  0.69731546881E+03  0.12699999809E+01 0.  1.
</event>
<event>
 5   0  0.9342635E-06  0.1997207E+04  0.7818609E-02  0.8607928E-01
        1   -1    0    0  501    0  0.00000000000E+00  0.00000000000E+00  0.16529128784E+04  0.16529128784E+04  0.50400001928E-02 0. -1.
       -1   -1    0    0    0  501  0.00000000000E+00  0.00000000000E+00 -0.60330397032E+03  0.60330397034E+03  0.50400001928E-02 0.  1.
    10030    2    1    2    0    0  0.00000000000E+00  0.00000000000E+00  0.10496089081E+04  0.22562168488E+04  0.19972069519E+04 0.  0.
        5    1    3    3  502    0 -0.17825154408E+03  0.25761505720E+03  0.15959515920E+04  0.16264140631E+04  0.46999998093E+01 0. -1.
       -5    1    3    3    0  502  0.17825154408E+03 -0.25761505720E+03 -0.54634268386E+03  0.62980278569E+03  0.46999998093E+01 0.  1.
</event>
<event>
 5   0  0.2038882E-05  0.1992773E+04  0.7818609E-02  0.8610007E-01
       -2   -1    0    0    0  501  0.00000000000E+00  0.00000000000E+00  0.11188506249E+04  0.11188506249E+04  0.25500000920E-02 0. -1.
        2   -1    0    0  501    0  0.00000000000E+00  0.00000000000E+00 -0.88732687991E+03  0.88732687992E+03  0.25500000920E-02 0.  1.
    10030    2    1    2    0    0  0.00000000000E+00  0.00000000000E+00  0.23152374501E+03  0.20061775048E+04  0.19927731774E+04 0.  0.
        3    1    3    3  502    0  0.36917895459E+03  0.71055288234E+03 -0.48119188660E+03  0.93419705686E+03  0.10100000352E+00 0.  1.
       -3    1    3    3    0  502 -0.36917895459E+03 -0.71055288234E+03  0.71271563161E+03  0.10719804480E+04  0.10100000352E+00 0. -1.
</event>
<event>
 5   0  0.7132000E-06  0.2001650E+04  0.7818609E-02  0.8605850E-01
       -3   -1    0    0    0  501  0.00000000000E+00  0.00000000000E+00  0.52581516638E+03  0.52581517608E+03  0.10100000352E+00 0.  1.
        3   -1    0    0  501    0  0.00000000000E+00  0.00000000000E+00 -0.19049483310E+04  0.19049483336E+04  0.10100000352E+00 0. -1.
    10030    2    1    2    0    0  0.00000000000E+00  0.00000000000E+00 -0.13791331646E+04  0.24307635097E+04  0.20016500580E+04 0.  0.
        3    1    3    3  502    0 -0.13630463599E+02  0.25037338229E+03  0.48705289021E+03  0.54780758315E+03  0.10100000352E+00 0.  1.
       -3    1    3    3    0  502  0.13630463599E+02 -0.25037338229E+03 -0.18661860548E+04  0.18829559266E+04  0.10100000352E+00 0. -1.
</event>
<event>
 5   0  0.2038882E-05  0.1994399E+04  0.7818609E-02  0.8609244E-01
        2   -1    0    0  501    0  0.00000000000E+00  0.00000000000E+00  0.88237263258E+03  0.88237263258E+03  0.25500000920E-02 0. -1.
       -2   -1    0    0    0  501  0.00000000000E+00  0.00000000000E+00 -0.11269687551E+04  0.11269687551E+04  0.25500000920E-02 0.  1.
    10030    2    1    2    0    0  0.00000000000E+00  0.00000000000E+00 -0.24459612255E+03  0.20093413877E+04  0.19943985432E+04 0.  0.
        3    1    3    3  502    0 -0.83319241450E+03 -0.43663495348E+03 -0.45575627629E+03  0.10452623957E+04  0.10100000352E+00 0.  1.
       -3    1    3    3    0  502  0.83319241450E+03  0.43663495348E+03  0.21116015375E+03  0.96407899206E+03  0.10100000352E+00 0. -1.
</event>
<event>
 5   0  0.9220260E-06  0.2000370E+04  0.7818609E-02  0.8606447E-01
       -1   -1    0    0    0  501  0.00000000000E+00  0.00000000000E+00  0.58400298529E+03  0.58400298531E+03  0.50400001928E-02 0.  1.
        1   -1    0    0  501    0  0.00000000000E+00  0.00000000000E+00 -0.17129543779E+04  0.17129543779E+04  0.50400001928E-02 0. -1.
    10030    2    1    2    0    0  0.00000000000E+00  0.00000000000E+00 -0.11289513926E+04  0.22969573632E+04  0.20003704361E+04 0.  0.
        3    1    3    3  502    0 -0.93678771937E+03  0.32660192602E+03 -0.41863953575E+03  0.10768004088E+04  0.10100000352E+00 0.  1.
       -3    1    3    3    0  502  0.93678771937E+03 -0.32660192602E+03 -0.71031185682E+03  0.12201569544E+04  0.10100000352E+00 0. -1.
</event>
<event>
 5   0  0.9370269E-06  0.1999307E+04  0.7818609E-02  0.8606945E-01
        1   -1    0    0  501    0  0.00000000000E+00  0.00000000000E+00  0.50391166327E+03  0.50391166330E+03  0.50400001928E-02 0. -1.
       -1   -1    0    0    0  501  0.00000000000E+00  0.00000000000E+00 -0.19830991662E+04  0.19830991662E+04  0.50400001928E-02 0.  1.
    10030    2    1    2    0    0  0.00000000000E+00  0.00000000000E+00 -0.14791875029E+04  0.24870108295E+04  0.19993066791E+04 0.  0.
        4    1    3    3  502    0 -0.85351600317E+03  0.32507681364E+03 -0.12450985692E+04  0.15441620907E+04  0.12699999809E+01 0.  1.
       -4    1    3    3    0  502  0.85351600317E+03 -0.32507681364E+03 -0.23408893371E+03  0.94284873878E+03  0.12699999809E+01 0. -1.
</event>
<event>
 5   0  0.9342635E-06  0.2007142E+04  0.7818609E-02  0.8603289E-01
        1   -1    0    0  501    0  0.00000000000E+00  0.00000000000E+00  0.89889921347E+03  0.89889921348E+03  0.50400001928E-02 0.  1.
       -1   -1    0    0    0  501  0.00000000000E+00  0.00000000000E+00 -0.11204317201E+04  0.11204317201E+04  0.50400001928E-02 0. -1.
    10030    2    1    2    0    0  0.00000000000E+00  0.00000000000E+00 -0.22153250660E+03  0.20193309336E+04  0.20071424383E+04 0.  0.
        5    1    3    3  502    0  0.26952604864E+03 -0.66330606301E+03  0.59672088090E+03  0.93204995779E+03  0.46999998093E+01 0.  1.
       -5    1    3    3    0  502 -0.26952604864E+03  0.66330606301E+03 -0.81825338750E+03  0.10872809758E+04  0.46999998093E+01 0. -1.
</event>
<event>
 5   0  0.2003576E-05  0.1999349E+04  0.7818609E-02  0.8606925E-01
       -2   -1    0    0    0  501  0.00000000000E+00  0.00000000000E+00  0.93720678115E+03  0.93720678115E+03  0.25500000920E-02 0. -1.
        2   -1    0    0  501    0  0.00000000000E+00  0.00000000000E+00 -0.10663056288E+04  0.10663056288E+04  0.25500000920E-02 0.  1.
    10030    2    1    2    0    0  0.00000000000E+00  0.00000000000E+00 -0.12909884764E+03  0.20035124099E+04  0.19993487601E+04 0.  0.
        4    1    3    3  502    0 -0.60124573777E+03  0.49007402047E+03 -0.69648005888E+03  0.10424754520E+04  0.12699999809E+01 0.  1.
       -4    1    3    3    0  502  0.60124573777E+03 -0.49007402047E+03  0.56738121125E+03  0.96103695793E+03  0.12699999809E+01 0. -1.
</event>
<event>
 5   0  0.2003576E-05  0.2000965E+04  0.7818609E-02  0.8606169E-01
        2   -1    0    0  501    0  0.00000000000E+00  0.00000000000E+00  0.61586342276E+03  0.61586342276E+03  0.25500000920E-02 0. -1.
       -2   -1    0    0    0  501  0.00000000000E+00  0.00000000000E+00 -0.16253043637E+04  0.16253043637E+04  0.25500000920E-02 0.  1.
    10030    2    1    2    0    0  0.00000000000E+00  0.00000000000E+00 -0.10094409409E+04  0.22411677865E+04  0.20009652755E+04 0.  0.
        4    1    3    3  502    0 -0.89620324561E+03  0.32227649480E+03 -0.84797583015E+03  0.12751890126E+04  0.12699999809E+01 0.  1.
       -4    1    3    3    0  502  0.89620324561E+03 -0.32227649480E+03 -0.16146511078E+03  0.96597877381E+03  0.12699999809E+01 0. -1.
</event>
<event>
 5   0  0.2038882E-05  0.2000692E+04  0.7818609E-02  0.8606297E-01
       -2   -1    0    0    0  501  0.00000000000E+00  0.00000000000E+00  0.69276328616E+03  0.69276328617E+03  0.25500000920E-02 0. -1.
        2   -1    0    0  501    0  0.00000000000E+00  0.00000000000E+00 -0.14444940549E+04  0.14444940549E+04  0.25500000920E-02 0.  1.
    10030    2    1    2    0    0  0.00000000000E+00  0.00000000000E+00 -0.75173076872E+03  0.21372573411E+04  0.20006923285E+04 0.  0.
        3    1    3    3  502    0  0.77454187016E+03  0.62821135373E+03 -0.29224162829E+03  0.10392159511E+04  0.10100000352E+00 0. -1.
       -3    1    3    3    0  502 -0.77454187016E+03 -0.62821135373E+03 -0.45948914043E+03  0.10980413899E+04  0.10100000352E+00 0.  1.
</event>
<event>
 5   0  0.9140695E-06  0.2000698E+04  0.7818609E-02  0.8606294E-01
       -1   -1    0    0    0  501  0.00000000000E+00  0.00000000000E+00  0.69185440241E+03  0.69185440243E+03  0.50400001928E-02 0. -1.
        1   -1    0    0  501    0  0.00000000000E+00  0.00000000000E+00 -0.14463996422E+04  0.14463996422E+04  0.50400001928E-02 0.  1.
    10030    2    1    2    0    0  0.00000000000E+00  0.00000000000E+00 -0.75454523978E+03  0.21382540446E+04  0.20006978384E+04 0.  0.
        1    1    3    3  502    0 -0.43150675945E+03  0.25609399920E+03 -0.13021715530E+04  0.13955045587E+04  0.50400001928E-02 0.  1.
       -1    1    3    3    0  502  0.43150675945E+03 -0.25609399920E+03  0.54762631323E+03  0.74274948593E+03  0.50400001928E-02 0. -1.
</event>
<event>
 5   0  0.2003576E-05  0.2003777E+04  0.7818609E-02  0.8604857E-01
        2   -1    0    0  501    0  0.00000000000E+00  0.00000000000E+00  0.90622123846E+03  0.90622123847E+03  0.25500000920E-02 0.  1.
       -2   -1    0    0    0  501  0.00000000000E+00  0.00000000000E+00 -0.11076553127E+04  0.11076553127E+04  0.25500000920E-02 0. -1.
    10030    2    1    2    0    0  0.00000000000E+00  0.00000000000E+00 -0.20143407423E+03  0.20138765512E+04  0.20037772025E+04 0.  0.
        4    1    3    3  502    0  0.53960726541E+01  0.99158539577E+03  0.43212439039E+02  0.99254201044E+03  0.12699999809E+01 0.  1.
       -4    1    3    3    0  502 -0.53960726541E+01 -0.99158539577E+03 -0.24464651327E+03  0.10213345407E+04  0.12699999809E+01 0. -1.
</event>
<event>
 5   0  0.9370269E-06  0.1998899E+04  0.7818609E-02  0.8607135E-01
       -1   -1    0    0    0  501  0.00000000000E+00  0.00000000000E+00  0.93913254545E+03  0.93913254546E+03  0.50400001928E-02 0.  1.
        1   -1    0    0  501    0  0.00000000000E+00  0.00000000000E+00 -0.10636408221E+04  0.10636408221E+04  0.50400001928E-02 0. -1.
    10030    2    1    2    0    0  0.00000000000E+00  0.00000000000E+00 -0.12450827662E+03  0.20027733675E+04  0.19988994099E+04 0.  0.
        4    1    3    3  502    0  0.79426583840E+03 -0.58185536834E+03 -0.23429658159E+03  0.10120822065E+04  0.12699999809E+01 0.  1.
       -4    1    3    3    0  502 -0.79426583840E+03  0.58185536834E+03  0.10978830497E+03  0.99069116102E+03  0.12699999809E+01 0. -1.
</event>
<event>
 5   0  0.1999142E-05  0.2009717E+04  0.7818609E-02  0.8602091E-01
       -2   -1    0    0    0  501  0.00000000000E+00  0.00000000000E+00  0.14907190216E+04  0.14907190216E+04  0.25500000920E-02 0.  1.
        2   -1    0    0  501    0  0.00000000000E+00  0.00000000000E+00 -0.67735130181E+03  0.67735130181E+03  0.25500000920E-02 0. -1.
    10030    2    1    2    0    0  0.00000000000E+00  0.00000000000E+00  0.81336771981E+03  0.21680703234E+04  0.20097168656E+04 0.  0.
        1    1    3    3  502    0  0.36297955677E+03  0.21612116650E+02 -0.60388708672E+03  0.70491194893E+03  0.50400001928E-02 0. -1.
       -1    1    3    3    0  502 -0.36297955677E+03 -0.21612116650E+02  0.14172548065E+04  0.14631583745E+04  0.50400001928E-02 0.  1.
</event>
<event>
 5   0  0.2020029E-05  0.1999765E+04  0.7818609E-02  0.8606731E-01
        2   -1    0    0  501    0  0.00000000000E+00  0.00000000000E+00  0.54698863174E+03  0.54698863175E+03  0.25500000920E-02 0.  1.
       -2   -1    0    0    0  501  0.00000000000E+00  0.00000000000E+00 -0.18277619512E+04  0.18277619512E+04  0.25500000920E-02 0. -1.
    10030    2    1    2    0    0  0.00000000000E+00  0.00000000000E+00 -0.12807733195E+04  0.23747505830E+04  0.19997649951E+04 0.  0.
        5    1    3    3  502    0  0.13007959349E+03 -0.20550525895E+03  0.51131283139E+03  0.56622964745E+03  0.46999998093E+01 0.  1.
       -5    1    3    3    0  502 -0.13007959349E+03  0.20550525895E+03 -0.17920861509E+04  0.18085209355E+04  0.46999998093E+01 0. -1.
</event>
<event>
 5   0  0.9140695E-06  0.2004642E+04  0.7818609E-02  0.8604453E-01
       -1   -1    0    0    0  501  0.00000000000E+00  0.00000000000E+00  0.45607768733E+03  0.45607768735E+03  0.50400001928E-02 0.  1.
        1   -1    0    0  501    0  0.00000000000E+00  0.00000000000E+00 -0.22027996253E+04  0.22027996253E+04  0.50400001928E-02 0. -1.
    10030    2    1    2    0    0  0.00000000000E+00  0.00000000000E+00 -0.17467219380E+04  0.26588773127E+04  0.20046423709E+04 0.  0.
        1    1    3    3  502    0 -0.68324535682E+03 -0.32063541289E+03 -0.17481719873E+04  0.19041367027E+04  0.50400001928E-02 0. -1.
       -1    1    3    3    0  502  0.68324535682E+03  0.32063541289E+03  0.14500492796E+01  0.75474060994E+03  0.50400001928E-02 0.  1.
</event>
<event>
 5   0  0.9140695E-06  0.1999726E+04  0.7818609E-02  0.8606749E-01
       -1   -1    0    0    0  501  0.00000000000E+00  0.00000000000E+00  0.10741279863E+04  0.10741279863E+04  0.50400001928E-02 0. -1.
        1   -1    0    0  501    0  0.00000000000E+00  0.00000000000E+00 -0.93073292528E+03  0.93073292530E+03  0.50400001928E-02 0.  1.
    10030    2    1    2    0    0  0.00000000000E+00  0.00000000000E+00  0.14339506104E+03  0.20048609116E+04  0.19997262641E+04 0.  0.
        1    1    3    3  502    0 -0.75565380034E+03  0.61475249323E+03  0.29764921476E+03  0.10185913552E+04  0.50400001928E-02 0.  1.
       -1    1    3    3    0  502  0.75565380034E+03 -0.61475249323E+03 -0.15425415371E+03  0.98626955640E+03  0.50400001928E-02 0. -1.
</event>
<event>
 5   0  0.9370269E-06  0.2000889E+04  0.7818609E-02  0.8606205E-01
       -1   -1    0    0    0  501  0.00000000000E+00  0.00000000000E+00  0.12580595736E+04  0.12580595737E+04  0.50400001928E-02 0.  1.
        1   -1    0    0  501    0  0.00000000000E+00  0.00000000000E+00 -0.79558137023E+03  0.79558137025E+03  0.50400001928E-02 0. -1.
    10030    2    1    2    0    0  0.00000000000E+00  0.00000000000E+00  0.46247820342E+03  0.20536409439E+04  0.20008885621E+04 0.  0.
        4    1    3    3  502    0  0.20401245697E+03 -0.96767166898E+03  0.75997937316E+02  0.99186029305E+03  0.12699999809E+01 0. -1.
       -4    1    3    3    0  502 -0.20401245697E+03  0.96767166898E+03  0.38648026610E+03  0.10617806509E+04  0.12699999809E+01 0.  1.
</event>
<event>
 5   0  0.2003576E-05  0.1994185E+04  0.7818609E-02  0.8609344E-01
       -2   -1    0    0    0  501  0.00000000000E+00  0.00000000000E+00  0.24605298964E+04  0.24605298964E+04  0.25500000920E-02 0.  1.
        2   -1    0    0  501    0  0.00000000000E+00  0.00000000000E+00 -0.40405678415E+03  0.40405678415E+03  0.25500000920E-02 0. -1.
    10030    2    1    2    0    0  0.00000000000E+00  0.00000000000E+00  0.20564731123E+04  0.28645866806E+04  0.19941853447E+04 0.  0.
        4    1    3    3  502    0 -0.37773472297E+03 -0.77394889156E+03  0.30640266864E+03  0.91409223601E+03  0.12699999809E+01 0. -1.
       -4    1    3    3    0  502  0.37773472297E+03  0.77394889156E+03  0.17500704436E+04  0.19504944446E+04  0.12699999809E+01 0.  1.
</event>
<event>
 5   0  0.9140695E-06  0.1999840E+04  0.7818609E-02  0.8606696E-01
       -1   -1    0    0    0  501  0.00000000000E+00  0.00000000000E+00  0.12298923565E+04  0.12298923566E+04  0.50400001928E-02 0.  1.
        1   -1    0    0  501    0  0.00000000000E+00  0.00000000000E+00 -0.81294899276E+03  0.81294899277E+03  0.50400001928E-02 0. -1.
    10030    2    1    2    0    0  0.00000000000E+00  0.00000000000E+00  0.41694336379E+03  0.20428413493E+04  0.19998397461E+04 0.  0.
        1    1    3    3  502    0  0.61795239479E+02  0.63684956597E+03 -0.57645429522E+03  0.86121749622E+03  0.50400001928E-02 0. -1.
       -1    1    3    3    0  502 -0.61795239479E+02 -0.63684956597E+03  0.99339765901E+03  0.11816238531E+04  0.50400001928E-02 0.  1.
</event>
<event>
 5   0  0.1999142E-05  0.2016788E+04  0.7818609E-02  0.8598812E-01
       -2   -1    0    0    0  501  0.00000000000E+00  0.00000000000E+00  0.55982049135E+03  0.55982049136E+03  0.25500000920E-02 0. -1.
        2   -1    0    0  501    0  0.00000000000E+00  0.00000000000E+00 -0.18164016631E+04  0.18164016631E+04  0.25500000920E-02 0.  1.
    10030    2    1    2    0    0  0.00000000000E+00  0.00000000000E+00 -0.12565811717E+04  0.23762221544E+04  0.20167884089E+04 0.  0.
        1    1    3    3  502    0 -0.77779257977E+02  0.93365723363E+03 -0.18887039310E+03  0.95573922610E+03  0.50400001928E-02 0.  1.
       -1    1    3    3    0  502  0.77779257977E+02 -0.93365723363E+03 -0.10677107786E+04  0.14204829283E+04  0.50400001928E-02 0. -1.
</event>
<event>
 5   0  0.7132000E-06  0.2003751E+04  0.7818609E-02  0.8604869E-01
        3   -1    0    0  501    0  0.00000000000E+00  0.00000000000E+00  0.61838446771E+03  0.61838447595E+03  0.10100000352E+00 0.  1.
       -3   -1    0    0    0  501  0.00000000000E+00  0.00000000000E+00 -0.16231876997E+04  0.16231877028E+04  0.10100000352E+00 0. -1.
    10030    2    1    2    0    0  0.00000000000E+00  0.00000000000E+00 -0.10048032319E+04  0.22415721788E+04  0.20037505577E+04 0.  0.
        4    1    3    3  502    0  0.69940306851E+03 -0.66717568404E+03 -0.20755899335E+03  0.98862045004E+03  0.12699999809E+01 0.  1.
       -4    1    3    3    0  502 -0.69940306851E+03  0.66717568404E+03 -0.79724423860E+03  0.12529517287E+04  0.12699999809E+01 0. -1.
</event>
<event>
 5   0  0.9342635E-06  0.1997731E+04  0.7818609E-02  0.8607682E-01
        1   -1    0    0  501    0  0.00000000000E+00  0.00000000000E+00  0.10101720813E+04  0.10101720813E+04  0.50400001928E-02 0.  1.
       -1   -1    0    0    0  501  0.00000000000E+00  0.00000000000E+00 -0.98768498927E+03  0.98768498928E+03  0.50400001928E-02 0. -1.
    10030    2    1    2    0    0  0.00000000000E+00  0.00000000000E+00  0.22487092034E+02  0.19978570706E+04  0.19977305137E+04 0.  0.
        5    1    3    3  502    0 -0.44685721339E+03 -0.64500974010E+03 -0.60684963252E+03  0.99197152201E+03  0.46999998093E+01 0. -1.
       -5    1    3    3    0  502  0.44685721339E+03  0.64500974010E+03  0.62933672456E+03  0.10058855486E+04  0.46999998093E+01 0.  1.
</event>
<event>
 5   0  0.2038882E-05  0.2027522E+04  0.7818609E-02  0.8593860E-01
        2   -1    0    0  501    0  0.00000000000E+00  0.00000000000E+00  0.22505918163E+04  0.22505918163E+04  0.25500000920E-02 0.  1.
       -2   -1    0    0    0  501  0.00000000000E+00  0.00000000000E+00 -0.45664049056E+03  0.45664049057E+03  0.25500000920E-02 0. -1.
    10030    2    1    2    0    0  0.00000000000E+00  0.00000000000E+00  0.17939513258E+04  0.27072323069E+04  0.20275219861E+04 0.  0.
        3    1    3    3  502    0 -0.10204416232E+03 -0.55093200054E+03  0.20250553644E+04  0.21011397668E+04  0.10100000352E+00 0.  1.
       -3    1    3    3    0  502  0.10204416232E+03  0.55093200054E+03 -0.23110403868E+03  0.60609254011E+03  0.10100000352E+00 0. -1.
</event>
<event>
 5   0  0.9140695E-06  0.1996060E+04  0.7818609E-02  0.8608465E-01
       -1   -1    0    0    0  501  0.00000000000E+00  0.00000000000E+00  0.33103292556E+03  0.33103292560E+03  0.50400001928E-02 0.  1.
        1   -1    0    0  501    0  0.00000000000E+00  0.00000000000E+00 -0.30089560312E+04  0.30089560312E+04  0.50400001928E-02 0. -1.
    10030    2    1    2    0    0  0.00000000000E+00  0.00000000000E+00 -0.26779231056E+04  0.33399889568E+04  0.19960596363E+04 0.  0.
        1    1    3    3  502    0 -0.37891911841E+03 -0.88886686026E+03 -0.17569479592E+04  0.20051259623E+04  0.50400001928E-02 0. -1.
       -1    1    3    3    0  502  0.37891911841E+03  0.88886686026E+03 -0.92097514647E+03  0.13348629945E+04  0.50400001928E-02 0.  1.
</event>
<event>
 5   0  0.9342635E-06  0.1998071E+04  0.7818609E-02  0.8607523E-01
       -1   -1    0    0    0  501  0.00000000000E+00  0.00000000000E+00  0.39229391594E+03  0.39229391597E+03  0.50400001928E-02 0.  1.
        1   -1    0    0  501    0  0.00000000000E+00  0.00000000000E+00 -0.25441955355E+04  0.25441955355E+04  0.50400001928E-02 0. -1.
    10030    2    1    2    0    0  0.00000000000E+00  0.00000000000E+00 -0.21519016196E+04  0.29364894515E+04  0.19980714998E+04 0.  0.
        5    1    3    3  502    0  0.51191027439E+03  0.85368309647E+03 -0.12008580731E+04  0.15597785612E+04  0.46999998093E+01 0.  1.
       -5    1    3    3    0  502 -0.51191027439E+03 -0.85368309647E+03 -0.95104354649E+03  0.13767108903E+04  0.46999998093E+01 0. -1.
</event>
<event>
 5   0  0.2020029E-05  0.1995243E+04  0.7818609E-02  0.8608848E-01
       -2   -1    0    0    0  501  0.00000000000E+00  0.00000000000E+00  0.67770517159E+03  0.67770517159E+03  0.25500000920E-02 0. -1.
        2   -1    0    0  501    0  0.00000000000E+00  0.00000000000E+00 -0.14685575146E+04  0.14685575146E+04  0.25500000920E-02 0.  1.
    10030    2    1    2    0    0  0.00000000000E+00  0.00000000000E+00 -0.79085234304E+03  0.21462626862E+04  0.19952433661E+04 0.  0.
        5    1    3    3  502    0  0.51242267749E+03 -0.84725092455E+03 -0.52635931525E+03  0.11213774335E+04  0.46999998093E+01 0. -1.
       -5    1    3    3    0  502 -0.51242267749E+03  0.84725092455E+03 -0.26449302780E+03  0.10248852528E+04  0.46999998093E+01 0.  1.
</event>
<event>
 5   0  0.9140695E-06  0.2007093E+04  0.7818609E-02  0.8603312E-01
        1   -1    0    0  501    0  0.00000000000E+00  0.00000000000E+00  0.11643973425E+04  0.11643973425E+04  0.50400001928E-02 0. -1.
       -1   -1    0    0    0  501  0.00000000000E+00  0.00000000000E+00 -0.86491545076E+03  0.86491545077E+03  0.50400001928E-02 0.  1.
    10030    2    1    2    0    0  0.00000000000E+00  0.00000000000E+00  0.29948189173E+03  0.20293127933E+04  0.20070926759E+04 0.  0.
        1    1    3    3  502    0 -0.51635514883E+03 -0.26152594296E+03  0.97862588396E+03  0.11369815651E+04  0.50400001928E-02 0. -1.
       -1    1    3    3    0  502  0.51635514883E+03  0.26152594296E+03 -0.67914399224E+03  0.89233122818E+03  0.50400001928E-02 0.  1.
</event>
<event>
 5   0  0.9342635E-06  0.2000746E+04  0.7818609E-02  0.8606272E-01
        1   -1    0    0  501    0  0.00000000000E+00  0.00000000000E+00  0.20661431462E+04  0.20661431462E+04  0.50400001928E-02 0. -1.
       -1   -1    0    0    0  501  0.00000000000E+00  0.00000000000E+00 -0.48435482414E+03  0.48435482416E+03  0.50400001928E-02 0.  1.
    10030    2    1    2    0    0  0.00000000000E+00  0.00000000000E+00  0.15817883220E+04  0.25504979703E+04  0.20007462610E+04 0.  0.
        5    1    3    3  502    0 -0.93583812761E+02  0.69842491769E+03 -0.11425685629E+03  0.71388515524E+03  0.46999998093E+01 0.  1.
       -5    1    3    3    0  502  0.93583812761E+02 -0.69842491769E+03  0.16960451783E+04  0.18366128151E+04  0.46999998093E+01 0. -1.
</event>
<event>
 5   0  0.9220260E-06  0.2000673E+04  0.7818609E-02  0.8606306E-01
       -1   -1    0    0    0  501  0.00000000000E+00  0.00000000000E+00  0.15913882796E+04  0.15913882796E+04  0.50400001928E-02 0.  1.
        1   -1    0    0  501    0  0.00000000000E+00  0.00000000000E+00 -0.62880503609E+03  0.62880503611E+03  0.50400001928E-02 0. -1.
    10030    2    1    2    0    0  0.00000000000E+00  0.00000000000E+00  0.96258324348E+03  0.22201933157E+04  0.20006728514E+04 0.  0.
        3    1    3    3  502    0 -0.47369312915E+02  0.14210482014E+03  0.15788721206E+04  0.15859617949E+04  0.10100000352E+00 0.  1.
       -3    1    3    3    0  502  0.47369312915E+02 -0.14210482014E+03 -0.61628887708E+03  0.63423152076E+03  0.10100000352E+00 0. -1.
</event>
<event>
 5   0  0.2003576E-05  0.2000718E+04  0.7818609E-02  0.8606285E-01
       -2   -1    0    0    0  501  0.00000000000E+00  0.00000000000E+00  0.18098643540E+04  0.18098643540E+04  0.25500000920E-02 0.  1.
        2   -1    0    0  501    0  0.00000000000E+00  0.00000000000E+00 -0.55292417302E+03  0.55292417302E+03  0.25500000920E-02 0. -1.
    10030    2    1    2    0    0  0.00000000000E+00  0.00000000000E+00  0.12569401809E+04  0.23627885270E+04  0.20007176224E+04 0.  0.
        4    1    3    3  502    0  0.15217663964E+03 -0.49149350139E+03  0.16416247920E+04  0.17203654153E+04  0.12699999809E+01 0.  1.
       -4    1    3    3    0  502 -0.15217663964E+03  0.49149350139E+03 -0.38468461104E+03  0.64242311169E+03  0.12699999809E+01 0. -1.
</event>
<event>
 5   0  0.9333353E-06  0.1998577E+04  0.7818609E-02  0.8607286E-01
        1   -1    0    0  501    0  0.00000000000E+00  0.00000000000E+00  0.12865599355E+04  0.12865599355E+04  0.50400001928E-02 0. -1.
       -1   -1    0    0    0  501  0.00000000000E+00  0.00000000000E+00 -0.77616072150E+03  0.77616072152E+03  0.50400001928E-02 0.  1.
    10030    2    1    2    0    0  0.00000000000E+00  0.00000000000E+00  0.51039921403E+03  0.20627206571E+04  0.19985767815E+04 0.  0.
        2    1    3    3  502    0 -0.68107535310E+03 -0.73124115314E+03  0.25502936544E+03  0.10313182040E+04  0.25500000920E-02 0. -1.
       -2    1    3    3    0  502  0.68107535310E+03  0.73124115314E+03  0.25536984859E+03  0.10314024531E+04  0.25500000920E-02 0.  1.
</event>
<event>
 5   0  0.7132000E-06  0.2000294E+04  0.7818609E-02  0.8606483E-01
       -3   -1    0    0    0  501  0.00000000000E+00  0.00000000000E+00  0.98084979093E+03  0.98084979613E+03  0.10100000352E+00 0. -1.
        3   -1    0    0  501    0  0.00000000000E+00  0.00000000000E+00 -0.10198235258E+04  0.10198235308E+04  0.10100000352E+00 0.  1.
    10030    2    1    2    0    0  0.00000000000E+00  0.00000000000E+00 -0.38973734860E+02  0.20006733269E+04  0.20002936807E+04 0.  0.
        2    1    3    3  502    0 -0.43179607010E+03  0.81297612590E+03  0.37163168961E+03  0.99271755307E+03  0.25500000920E-02 0. -1.
       -2    1    3    3    0  502  0.43179607010E+03 -0.81297612590E+03 -0.41060542447E+03  0.10079557739E+04  0.25500000920E-02 0.  1.
</event>
<event>
 5   0  0.1999142E-05  0.2007133E+04  0.7818609E-02  0.8603293E-01
        2   -1    0    0  501    0  0.00000000000E+00  0.00000000000E+00  0.90005339361E+03  0.90005339362E+03  0.25500000920E-02 0.  1.
       -2   -1    0    0    0  501  0.00000000000E+00  0.00000000000E+00 -0.11189846768E+04  0.11189846768E+04  0.25500000920E-02 0. -1.
    10030    2    1    2    0    0  0.00000000000E+00  0.00000000000E+00 -0.21893128319E+03  0.20190380704E+04  0.20071332350E+04 0.  0.
        1    1    3    3  502    0 -0.74741103196E+03  0.54535647217E+03 -0.50049872723E+03  0.10519201055E+04  0.50400001928E-02 0. -1.
       -1    1    3    3    0  502  0.74741103196E+03 -0.54535647217E+03  0.28156744404E+03  0.96711796489E+03  0.50400001928E-02 0.  1.
</event>
<event>
 5   0  0.2003576E-05  0.1990324E+04  0.7818609E-02  0.8611158E-01
       -2   -1    0    0    0  501  0.00000000000E+00  0.00000000000E+00  0.14645731681E+04  0.14645731681E+04  0.25500000920E-02 0. -1.
        2   -1    0    0  501    0  0.00000000000E+00  0.00000000000E+00 -0.67620218581E+03  0.67620218581E+03  0.25500000920E-02 0.  1.
    10030    2    1    2    0    0  0.00000000000E+00  0.00000000000E+00  0.78837098226E+03  0.21407753539E+04  0.19903241721E+04 0.  0.
        4    1    3    3  502    0  0.98961041710E+03 -0.10158908726E+03  0.42257874520E+03  0.10808438967E+04  0.12699999809E+01 0.  1.
       -4    1    3    3    0  502 -0.98961041710E+03  0.10158908726E+03  0.36579223705E+03  0.10599314572E+04  0.12699999809E+01 0. -1.
</event>
<event>
 5   0  0.2003576E-05  0.1994641E+04  0.7818609E-02  0.8609130E-01
        2   -1    0    0  501    0  0.00000000000E+00  0.00000000000E+00  0.14424583665E+04  0.14424583665E+04  0.25500000920E-02 0. -1.
       -2   -1    0    0    0  501  0.00000000000E+00  0.00000000000E+00 -0.68955067289E+03  0.68955067290E+03  0.25500000920E-02 0.  1.
    10030    2    1    2    0    0  0.00000000000E+00  0.00000000000E+00  0.75290769356E+03  0.21320090394E+04  0.19946409574E+04 0.  0.
        4    1    3    3  502    0  0.19919564253E+03 -0.49560059655E+03  0.12766846771E+04  0.13839162666E+04  0.12699999809E+01 0. -1.
       -4    1    3    3    0  502 -0.19919564253E+03  0.49560059655E+03 -0.52377698352E+03  0.74809277277E+03  0.12699999809E+01 0.  1.
</event>
<event>
 5   0  0.1979765E-05  0.2002093E+04  0.7818609E-02  0.8605643E-01
        2   -1    0    0  501    0  0.00000000000E+00  0.00000000000E+00  0.12949710224E+04  0.12949710224E+04  0.25500000920E-02 0. -1.
       -2   -1    0    0    0  501  0.00000000000E+00  0.00000000000E+00 -0.77383521741E+03  0.77383521742E+03  0.25500000920E-02 0.  1.
    10030    2    1    2    0    0  0.00000000000E+00  0.00000000000E+00  0.52113580494E+03  0.20688062398E+04  0.20020930874E+04 0.  0.
        2    1    3    3  502    0  0.11188953991E+03  0.33828871798E+03 -0.70609096871E+03  0.79090010871E+03  0.25500000920E-02 0.  1.
       -2    1    3    3    0  502 -0.11188953991E+03 -0.33828871798E+03  0.12272267736E+04  0.12779061311E+04  0.25500000920E-02 0. -1.
</event>
<event>
 5   0  0.2038882E-05  0.1998106E+04  0.7818609E-02  0.8607507E-01
        2   -1    0    0  501    0  0.00000000000E+00  0.00000000000E+00  0.16779672166E+04  0.16779672166E+04  0.25500000920E-02 0.  1.
       -2   -1    0    0    0  501  0.00000000000E+00  0.00000000000E+00 -0.59483105575E+03  0.59483105575E+03  0.25500000920E-02 0. -1.
    10030    2    1    2    0    0  0.00000000000E+00  0.00000000000E+00  0.10831361609E+04  0.22727982724E+04  0.19981061143E+04 0.  0.
        3    1    3    3  502    0  0.71472197729E+03 -0.40821684278E+03 -0.10252729277E+03  0.82944580987E+03  0.10100000352E+00 0. -1.
       -3    1    3    3    0  502 -0.71472197729E+03  0.40821684278E+03  0.11856634536E+04  0.14433524625E+04  0.10100000352E+00 0.  1.
</event>
<event>
 5   0  0.9220260E-06  0.2001216E+04  0.7818609E-02  0.8606052E-01
       -1   -1    0    0    0  501  0.00000000000E+00  0.00000000000E+00  0.84216960803E+03  0.84216960804E+03  0.50400001928E-02 0.  1.
        1   -1    0    0  501    0  0.00000000000E+00  0.00000000000E+00 -0.11888538578E+04  0.11888538578E+04  0.50400001928E-02 0. -1.
    10030    2    1    2    0    0  0.00000000000E+00  0.00000000000E+00 -0.34668424978E+03  0.20310234659E+04  0.20012162177E+04 0.  0.
        3    1    3    3  502    0  0.68511043968E+02  0.52882705632E+03 -0.10326316997E+04  0.11621876166E+04  0.10100000352E+00 0. -1.
       -3    1    3    3    0  502 -0.68511043968E+02 -0.52882705632E+03  0.68594744997E+03  0.86883584926E+03  0.10100000352E+00 0.  1.
</event>
<event>
 5   0  0.9370269E-06  0.2001915E+04  0.7818609E-02  0.8605726E-01
        1   -1    0    0  501    0  0.00000000000E+00  0.00000000000E+00  0.10859916547E+04  0.10859916547E+04  0.50400001928E-02 0.  1.
       -1   -1    0    0    0  501  0.00000000000E+00  0.00000000000E+00 -0.92258195429E+03  0.92258195431E+03  0.50400001928E-02 0. -1.
    10030    2    1    2    0    0  0.00000000000E+00  0.00000000000E+00  0.16340970037E+03  0.20085736090E+04  0.20019153860E+04 0.  0.
        4    1    3    3  502    0  0.13386863215E+03  0.51910467847E+03 -0.76640188012E+03  0.93528815487E+03  0.12699999809E+01 0. -1.
       -4    1    3    3    0  502 -0.13386863215E+03 -0.51910467847E+03  0.92981158049E+03  0.10732854541E+04  0.12699999809E+01 0.  1.
</event>
<event>
 5   0  0.2038882E-05  0.1999340E+04  0.7818609E-02  0.8606930E-01
       -2   -1    0    0    0  501  0.00000000000E+00  0.00000000000E+00  0.29952494336E+03  0.29952494337E+03  0.25500000920E-02 0.  1.
        2   -1    0    0  501    0  0.00000000000E+00  0.00000000000E+00 -0.33364154554E+04  0.33364154554E+04  0.25500000920E-02 0. -1.
    10030    2    1    2    0    0  0.00000000000E+00  0.00000000000E+00 -0.30368905120E+04  0.36359403987E+04  0.19993395413E+04 0.  0.
        3    1    3    3  502    0 -0.17879062843E+03 -0.75022451115E+03 -0.26751144857E+04  0.27840690414E+04  0.10100000352E+00 0. -1.
       -3    1    3    3    0  502  0.17879062843E+03  0.75022451115E+03 -0.36177602636E+03  0.85187135730E+03  0.10100000352E+00 0.  1.
</event>
<event>
 5   0  0.1979765E-05  0.2012439E+04  0.7818609E-02  0.8600827E-01
       -2   -1    0    0    0  501  0.00000000000E+00  0.00000000000E+00  0.10896201086E+04  0.10896201086E+04  0.25500000920E-02 0.  1.
        2   -1    0    0  501    0  0.00000000000E+00  0.00000000000E+00 -0.92920276690E+03  0.92920276690E+03  0.25500000920E-02 0. -1.
    10030    2    1    2    0    0  0.00000000000E+00  0.00000000000E+00  0.16041734172E+03  0.20188228755E+04  0.20124393355E+04 0.  0.
        2    1    3    3  502    0  0.40853802423E+03  0.79845399175E+03 -0.37735867864E+03  0.97305275629E+03  0.25500000920E-02 0. -1.
       -2    1    3    3    0  502 -0.40853802423E+03 -0.79845399175E+03  0.53777602036E+03  0.10457701192E+04  0.25500000920E-02 0.  1.
</event>
<event>
 5   0  0.9140695E-06  0.2010512E+04  0.7818609E-02  0.8601722E-01
        1   -1    0    0  501    0  0.00000000000E+00  0.00000000000E+00  0.10418247874E+04  0.10418247874E+04  0.50400001928E-02 0.  1.
       -1   -1    0    0    0  501  0.00000000000E+00  0.00000000000E+00 -0.96997076873E+03  0.96997076875E+03  0.50400001928E-02 0. -1.
    10030    2    1    2    0    0  0.00000000000E+00  0.00000000000E+00  0.71854018703E+02  0.20117955562E+04  0.20105119646E+04 0.  0.
        1    1    3    3  502    0  0.47989565291E+03 -0.87317141157E+03 -0.97617697109E+02  0.10011280470E+04  0.50400001928E-02 0. -1.
       -1    1    3    3    0  502 -0.47989565291E+03  0.87317141157E+03  0.16947171581E+03  0.10106675092E+04  0.50400001928E-02 0.  1.
</event>
<event>
 5   0  0.1999142E-05  0.2003367E+04  0.7818609E-02  0.8605048E-01
       -2   -1    0    0    0  501  0.00000000000E+00  0.00000000000E+00  0.69871134672E+03  0.69871134672E+03  0.25500000920E-02 0.  1.
        2   -1    0    0  501    0  0.00000000000E+00  0.00000000000E+00 -0.14360293120E+04  0.14360293120E+04  0.25500000920E-02 0. -1.
    10030    2    1    2    0    0  0.00000000000E+00  0.00000000000E+00 -0.73731796530E+03  0.21347406587E+04  0.20033671401E+04 0.  0.
        1    1    3    3  502    0  0.38264880768E+02 -0.45163950221E+03 -0.13205041327E+04  0.13961280763E+04  0.50400001928E-02 0. -1.
       -1    1    3    3    0  502 -0.38264880768E+02  0.45163950221E+03  0.58318616738E+03  0.73861258242E+03  0.50400001928E-02 0.  1.
</event>
<event>
 5   0  0.9333353E-06  0.2002292E+04  0.7818609E-02  0.8605550E-01
       -1   -1    0    0    0  501  0.00000000000E+00  0.00000000000E+00  0.79559841322E+03  0.79559841324E+03  0.50400001928E-02 0.  1.
        1   -1    0    0  501    0  0.00000000000E+00  0.00000000000E+00 -0.12597976150E+04  0.12597976150E+04  0.50400001928E-02 0. -1.
    10030    2    1    2    0    0  0.00000000000E+00  0.00000000000E+00 -0.46419920174E+03  0.20553960282E+04  0.20022916705E+04 0.  0.
        2    1    3    3  502    0 -0.60114928716E+03  0.14701827706E+03  0.57572683565E+03  0.84525512630E+03  0.25500000920E-02 0.  1.
       -2    1    3    3    0  502  0.60114928716E+03 -0.14701827706E+03 -0.10399260374E+04  0.12101409019E+04  0.25500000920E-02 0. -1.
</event>
<event>
 5   0  0.2020029E-05  0.2000979E+04  0.7818609E-02  0.8606163E-01
        2   -1    0    0  501    0  0.00000000000E+00  0.00000000000E+00  0.25840845171E+04  0.25840845171E+04  0.25500000920E-02 0. -1.
       -2   -1    0    0    0  501  0.00000000000E+00  0.00000000000E+00 -0.38736307041E+03  0.38736307042E+03  0.25500000920E-02 0.  1.
    10030    2    1    2    0    0  0.00000000000E+00  0.00000000000E+00  0.21967214466E+04  0.29714475875E+04  0.20009786733E+04 0.  0.
        5    1    3    3  502    0 -0.90605615233E+02  0.90325011898E+03  0.17229192829E+04  0.19474452753E+04  0.46999998093E+01 0. -1.
       -5    1    3    3    0  502  0.90605615233E+02 -0.90325011898E+03  0.47380216375E+03  0.10240023122E+04  0.46999998093E+01 0.  1.
</event>
<event>
 5   0  0.9333353E-06  0.1999293E+04  0.7818609E-02  0.8606951E-01
        1   -1    0    0  501    0  0.00000000000E+00  0.00000000000E+00  0.42315410869E+03  0.42315410872E+03  0.50400001928E-02 0.  1.
       -1   -1    0    0    0  501  0.00000000000E+00  0.00000000000E+00 -0.23615351379E+04  0.23615351379E+04  0.50400001928E-02 0. -1.
    10030    2    1    2    0    0  0.00000000000E+00  0.00000000000E+00 -0.19383810292E+04  0.27846892466E+04  0.19992931716E+04 0.  0.
        2    1    3    3  502    0  0.65374581507E+03 -0.72300947053E+03 -0.12780330861E+04  0.16073253729E+04  0.25500000920E-02 0. -1.
       -2    1    3    3    0  502 -0.65374581507E+03  0.72300947053E+03 -0.66034794316E+03  0.11773638738E+04  0.25500000920E-02 0.  1.
</event>
<event>
 5   0  0.9220260E-06  0.2001445E+04  0.7818609E-02  0.8605946E-01
       -1   -1    0    0    0  501  0.00000000000E+00  0.00000000000E+00  0.12804008825E+04  0.12804008825E+04  0.50400001928E-02 0.  1.
        1   -1    0    0  501    0  0.00000000000E+00  0.00000000000E+00 -0.78213411789E+03  0.78213411790E+03  0.50400001928E-02 0. -1.
    10030    2    1    2    0    0  0.00000000000E+00  0.00000000000E+00  0.49826676464E+03  0.20625350004E+04  0.20014446930E+04 0.  0.
        3    1    3    3  502    0 -0.35645583573E+03  0.41790279238E+03 -0.61290501503E+03  0.82301644841E+03  0.10100000352E+00 0. -1.
       -3    1    3    3    0  502  0.35645583573E+03 -0.41790279238E+03  0.11111717797E+04  0.12395185520E+04  0.10100000352E+00 0.  1.
</event>
<event>
 5   0  0.9342635E-06  0.2047786E+04  0.7818609E-02  0.8584599E-01
        1   -1    0    0  501    0  0.00000000000E+00  0.00000000000E+00  0.16741666609E+04  0.16741666609E+04  0.50400001928E-02 0.  1.
       -1   -1    0    0    0  501  0.00000000000E+00  0.00000000000E+00 -0.62619641757E+03  0.62619641759E+03  0.50400001928E-02 0. -1.
    10030    2    1    2    0    0  0.00000000000E+00  0.00000000000E+00  0.10479702433E+04  0.23003630785E+04  0.20477862833E+04 0.  0.
        5    1    3    3  502    0 -0.55776282801E+03  0.43437720569E+03  0.13559801251E+04  0.15292112735E+04  0.46999998093E+01 0.  1.
       -5    1    3    3    0  502  0.55776282801E+03 -0.43437720569E+03 -0.30800988180E+03  0.77115180504E+03  0.46999998093E+01 0. -1.
</event>
<event>
 5   0  0.1999142E-05  0.1997651E+04  0.7818609E-02  0.8607720E-01
       -2   -1    0    0    0  501  0.00000000000E+00  0.00000000000E+00  0.11252817493E+04  0.11252817493E+04  0.25500000920E-02 0. -1.
        2   -1    0    0  501    0  0.00000000000E+00  0.00000000000E+00 -0.88658035282E+03  0.88658035282E+03  0.25500000920E-02 0.  1.
    10030    2    1    2    0    0  0.00000000000E+00  0.00000000000E+00  0.23870139644E+03  0.20118621021E+04  0.19976513112E+04 0.  0.
        1    1    3    3  502    0  0.93416624710E+02 -0.46005698217E+03  0.10072536159E+04  0.11112780657E+04  0.50400001928E-02 0. -1.
       -1    1    3    3    0  502 -0.93416624710E+02  0.46005698217E+03 -0.76855221941E+03  0.90058403639E+03  0.50400001928E-02 0.  1.
</event>
<event>
 5   0  0.9220260E-06  0.2001258E+04  0.7818609E-02  0.8606033E-01
        1   -1    0    0  501    0  0.00000000000E+00  0.00000000000E+00  0.16116815072E+04  0.16116815072E+04  0.50400001928E-02 0.  1.
       -1   -1    0    0    0  501  0.00000000000E+00  0.00000000000E+00 -0.62125083790E+03  0.62125083792E+03  0.50400001928E-02 0. -1.
    10030    2    1    2    0    0  0.00000000000E+00  0.00000000000E+00  0.99043066925E+03  0.22329323451E+04  0.20012580911E+04 0.  0.
        3    1    3    3  502    0  0.44328501942E+03  0.51378100881E+03  0.13157277580E+04  0.14804094288E+04  0.10100000352E+00 0.  1.
       -3    1    3    3    0  502 -0.44328501942E+03 -0.51378100881E+03 -0.32529708873E+03  0.75252291632E+03  0.10100000352E+00 0. -1.
</event>
<event>
 5   0  0.1979765E-05  0.1999735E+04  0.7818609E-02  0.8606745E-01
       -2   -1    0    0    0  501  0.00000000000E+00  0.00000000000E+00  0.10481491061E+04  0.10481491061E+04  0.25500000920E-02 0. -1.
        2   -1    0    0  501    0  0.00000000000E+00  0.00000000000E+00 -0.95380994762E+03  0.95380994762E+03  0.25500000920E-02 0.  1.
    10030    2    1    2    0    0  0.00000000000E+00  0.00000000000E+00  0.94339158461E+02  0.20019590537E+04  0.19997350264E+04 0.  0.
        2    1    3    3  502    0  0.14355893746E+03 -0.41258967126E+02  0.10369164594E+04  0.10476197853E+04  0.25500000920E-02 0. -1.
       -2    1    3    3    0  502 -0.14355893746E+03  0.41258967126E+02 -0.94257730093E+03  0.95433926836E+03  0.25500000920E-02 0.  1.
</event>
<event>
 5   0  0.9370269E-06  0.1995327E+04  0.7818609E-02  0.8608808E-01
       -1   -1    0    0    0  501  0.00000000000E+00  0.00000000000E+00  0.12263337721E+04  0.12263337721E+04  0.50400001928E-02 0. -1.
        1   -1    0    0  501    0  0.00000000000E+00  0.00000000000E+00 -0.81163274004E+03  0.81163274006E+03  0.50400001928E-02 0.  1.
    10030    2    1    2    0    0  0.00000000000E+00  0.00000000000E+00  0.41470103207E+03  0.20379665122E+04  0.19953271809E+04 0.  0.
        4    1    3    3  502    0  0.72367330967E+03  0.16728235242E+03  0.88765058642E+03  0.11574159240E+04  0.12699999809E+01 0. -1.
       -4    1    3    3    0  502 -0.72367330967E+03 -0.16728235242E+03 -0.47294955435E+03  0.88055058822E+03  0.12699999809E+01 0.  1.
</event>
<event>
 5   0  0.9342635E-06  0.1998344E+04  0.7818609E-02  0.8607395E-01
       -1   -1    0    0    0  501  0.00000000000E+00  0.00000000000E+00  0.10408199484E+04  0.10408199484E+04  0.50400001928E-02 0.  1.
        1   -1    0    0  501    0  0.00000000000E+00  0.00000000000E+00 -0.95919046049E+03  0.95919046050E+03  0.50400001928E-02 0. -1.
    10030    2    1    2    0    0  0.00000000000E+00  0.00000000000E+00  0.81629487942E+02  0.20000104089E+04  0.19983438800E+04 0.  0.
        5    1    3    3  502    0 -0.83261089366E+03  0.11227912027E+03  0.58207530963E+03  0.10220965009E+04  0.46999998093E+01 0.  1.
       -5    1    3    3    0  502  0.83261089366E+03 -0.11227912027E+03 -0.50044582169E+03  0.97791390803E+03  0.46999998093E+01 0. -1.
</event>
<event>
 5   0  0.2020029E-05  0.1995226E+04  0.7818609E-02  0.8608856E-01
       -2   -1    0    0    0  501  0.00000000000E+00  0.00000000000E+00  0.67098465928E+03  0.67098465928E+03  0.25500000920E-02 0.  1.
        2   -1    0    0  501    0  0.00000000000E+00  0.00000000000E+00 -0.14832403666E+04  0.14832403666E+04  0.25500000920E-02 0. -1.
    10030    2    1    2    0    0  0.00000000000E+00  0.00000000000E+00 -0.81225570732E+03  0.21542250259E+04  0.19952258338E+04 0.  0.
        5    1    3    3  502    0  0.88782974439E+03 -0.33202122858E+03 -0.74192647378E+03  0.12037261872E+04  0.46999998093E+01 0. -1.
       -5    1    3    3    0  502 -0.88782974439E+03  0.33202122858E+03 -0.70329233534E+02  0.95049883868E+03  0.46999998093E+01 0.  1.
</event>
<event>
 5   0  0.9342635E-06  0.2003242E+04  0.7818609E-02  0.8605106E-01
       -1   -1    0    0    0  501  0.00000000000E+00  0.00000000000E+00  0.60775950455E+03  0.60775950458E+03  0.50400001928E-02 0.  1.
        1   -1    0    0  501    0  0.00000000000E+00  0.00000000000E+00 -0.16507271413E+04  0.16507271413E+04  0.50400001928E-02 0. -1.
    10030    2    1    2    0    0  0.00000000000E+00  0.00000000000E+00 -0.10429676368E+04  0.22584866459E+04  0.20032424812E+04 0.  0.
        5    1    3    3  502    0 -0.39279414633E+03 -0.77835799143E+03  0.34384183876E+02  0.87254384779E+03  0.46999998093E+01 0.  1.
       -5    1    3    3    0  502  0.39279414633E+03  0.77835799143E+03 -0.10773518206E+04  0.13859427981E+04  0.46999998093E+01 0. -1.
</event>
<event>
 5   0  0.9333353E-06  0.1999701E+04  0.7818609E-02  0.8606761E-01
        1   -1    0    0  501    0  0.00000000000E+00  0.00000000000E+00  0.12153227310E+04  0.12153227310E+04  0.50400001928E-02 0. -1.
       -1   -1    0    0    0  501  0.00000000000E+00  0.00000000000E+00 -0.82258030123E+03  0.82258030124E+03  0.50400001928E-02 0.  1.
    10030    2    1    2    0    0  0.00000000000E+00  0.00000000000E+00  0.39274242978E+03  0.20379030323E+04  0.19997005158E+04 0.  0.
        2    1    3    3  502    0 -0.93631193320E+03  0.26503061096E+03  0.43049755486E+03  0.10640720867E+04  0.25500000920E-02 0. -1.
       -2    1    3    3    0  502  0.93631193320E+03 -0.26503061096E+03 -0.37755125080E+02  0.97383094553E+03  0.25500000920E-02 0.  1.
</event>
<event>
 5   0  0.1999142E-05  0.1998742E+04  0.7818609E-02  0.8607209E-01
       -2   -1    0    0    0  501  0.00000000000E+00  0.00000000000E+00  0.15793057577E+04  0.15793057577E+04  0.25500000920E-02 0. -1.
        2   -1    0    0  501    0  0.00000000000E+00  0.00000000000E+00 -0.63239330890E+03  0.63239330891E+03  0.25500000920E-02 0.  1.
    10030    2    1    2    0    0  0.00000000000E+00  0.00000000000E+00  0.94691244879E+03  0.22116990666E+04  0.19987419982E+04 0.  0.
        1    1    3    3  502    0 -0.20718282164E+03 -0.62352866162E+03 -0.35978777079E+03  0.74910610295E+03  0.50400001928E-02 0.  1.
       -1    1    3    3    0  502  0.20718282164E+03  0.62352866162E+03  0.13067002196E+04  0.14625929637E+04  0.50400001928E-02 0. -1.
</event>
<event>
 5   0  0.9370269E-06  0.1997087E+04  0.7818609E-02  0.8607984E-01
       -1   -1    0    0    0  501  0.00000000000E+00  0.00000000000E+00  0.85603216976E+03  0.85603216977E+03  0.50400001928E-02 0. -1.
        1   -1    0    0  501    0  0.00000000000E+00  0.00000000000E+00 -0.11647798766E+04  0.11647798766E+04  0.50400001928E-02 0.  1.
    10030    2    1    2    0    0  0.00000000000E+00  0.00000000000E+00 -0.30874770686E+03  0.20208120464E+04  0.19970869236E+04 0.  0.
        4    1    3    3  502    0  0.78276987594E+03  0.56526184129E+02  0.47034502806E+03  0.91495898624E+03  0.12699999809E+01 0. -1.
       -4    1    3    3    0  502 -0.78276987594E+03 -0.56526184129E+02 -0.77909273492E+03  0.11058530602E+04  0.12699999809E+01 0.  1.
</event>
<event>
 5   0  0.1999142E-05  0.2005552E+04  0.7818609E-02  0.8604029E-01
        2   -1    0    0  501    0  0.00000000000E+00  0.00000000000E+00  0.13584689624E+04  0.13584689624E+04  0.25500000920E-02 0. -1.
       -2   -1    0    0    0  501  0.00000000000E+00  0.00000000000E+00 -0.74021533405E+03  0.74021533405E+03  0.25500000920E-02 0.  1.
    10030    2    1    2    0    0  0.00000000000E+00  0.00000000000E+00  0.61825362839E+03  0.20986842965E+04  0.20055518511E+04 0.  0.
        1    1    3    3  502    0 -0.22757900918E+02  0.28851485082E+03  0.13138160802E+04  0.13453146226E+04  0.50400001928E-02 0. -1.
       -1    1    3    3    0  502  0.22757900918E+02 -0.28851485082E+03 -0.69556245178E+03  0.75336967390E+03  0.50400001928E-02 0.  1.
</event>
<event>
 5   0  0.1999142E-05  0.2001623E+04  0.7818609E-02  0.8605862E-01
        2   -1    0    0  501    0  0.00000000000E+00  0.00000000000E+00  0.18542264510E+04  0.18542264510E+04  0.25500000920E-02 0.  1.
       -2   -1    0    0    0  501  0.00000000000E+00  0.00000000000E+00 -0.54018394701E+03  0.54018394702E+03  0.25500000920E-02 0. -1.
    10030    2    1    2    0    0  0.00000000000E+00  0.00000000000E+00  0.13140425040E+04  0.23944103981E+04  0.20016227047E+04 0.  0.
        1    1    3    3  502    0  0.82582704456E+02  0.56004681928E+03 -0.33025360479E+03  0.65539284888E+03  0.50400001928E-02 0. -1.
       -1    1    3    3    0  502 -0.82582704456E+02 -0.56004681928E+03  0.16442961088E+04  0.17390175492E+04  0.50400001928E-02 0.  1.
</event>
<event>
 5   0  0.9370269E-06  0.1999478E+04  0.7818609E-02  0.8606865E-01
        1   -1    0    0  501    0  0.00000000000E+00  0.00000000000E+00  0.93832638146E+03  0.93832638147E+03  0.50400001928E-02 0. -1.
       -1   -1    0    0    0  501  0.00000000000E+00  0.00000000000E+00 -0.10651709041E+04  0.10651709041E+04  0.50400001928E-02 0.  1.
    10030    2    1    2    0    0  0.00000000000E+00  0.00000000000E+00 -0.12684452262E+03  0.20034972856E+04  0.19994778919E+04 0.  0.
        4    1    3    3  502    0  0.34171800278E+03  0.93942673709E+03 -0.49883645625E+02  0.10008914920E+04  0.12699999809E+01 0. -1.
       -4    1    3    3    0  502 -0.34171800278E+03 -0.93942673709E+03 -0.76960876999E+02  0.10026057936E+04  0.12699999809E+01 0.  1.
</event>
<event>
 5   0  0.9220260E-06  0.2000222E+04  0.7818609E-02  0.8606517E-01
        1   -1    0    0  501    0  0.00000000000E+00  0.00000000000E+00  0.15796606496E+04  0.15796606496E+04  0.50400001928E-02 0.  1.
       -1   -1    0    0    0  501  0.00000000000E+00  0.00000000000E+00 -0.63318813436E+03  0.63318813438E+03  0.50400001928E-02 0. -1.
    10030    2    1    2    0    0  0.00000000000E+00  0.00000000000E+00  0.94647251520E+03  0.22128487839E+04  0.20002223673E+04 0.  0.
        3    1    3    3  502    0  0.53073924592E+03  0.72387859841E+02  0.14075850485E+04  0.15060610308E+04  0.10100000352E+00 0.  1.
       -3    1    3    3    0  502 -0.53073924592E+03 -0.72387859841E+02 -0.46111253333E+03  0.70678775316E+03  0.10100000352E+00 0. -1.
</event>
<event>
 5   0  0.2003576E-05  0.1999969E+04  0.7818609E-02  0.8606635E-01
       -2   -1    0    0    0  501  0.00000000000E+00  0.00000000000E+00  0.47391254925E+03  0.47391254926E+03  0.25500000920E-02 0. -1.
        2   -1    0    0  501    0  0.00000000000E+00  0.00000000000E+00 -0.21100278872E+04  0.21100278872E+04  0.25500000920E-02 0.  1.
    10030    2    1    2    0    0  0.00000000000E+00  0.00000000000E+00 -0.16361153380E+04  0.25839404365E+04  0.19999686948E+04 0.  0.
        4    1    3    3  502    0 -0.35635132904E+03 -0.49949983975E+03 -0.18382235991E+04  0.19379251722E+04  0.12699999809E+01 0.  1.
       -4    1    3    3    0  502  0.35635132904E+03  0.49949983975E+03  0.20210826115E+03  0.64601526433E+03  0.12699999809E+01 0. -1.
</event>
<event>
 5   0  0.9370269E-06  0.1990905E+04  0.7818609E-02  0.8610885E-01
       -1   -1    0    0    0  501  0.00000000000E+00  0.00000000000E+00  0.65386118420E+03  0.65386118422E+03  0.50400001928E-02 0. -1.
        1   -1    0    0  501    0  0.00000000000E+00  0.00000000000E+00 -0.15154989161E+04  0.15154989161E+04  0.50400001928E-02 0.  1.
    10030    2    1    2    0    0  0.00000000000E+00  0.00000000000E+00 -0.86163773185E+03  0.21693601003E+04  0.19909052373E+04 0.  0.
        4    1    3    3  502    0 -0.10858270659E+03 -0.40174308304E+03  0.55452490551E+03  0.69331608424E+03  0.12699999809E+01 0. -1.
       -4    1    3    3    0  502  0.10858270659E+03  0.40174308304E+03 -0.14161626374E+04  0.14760440160E+04  0.12699999809E+01 0.  1.
</event>
<event>
 5   0  0.9140695E-06  0.2000779E+04  0.7818609E-02  0.8606256E-01
       -1   -1    0    0    0  501  0.00000000000E+00  0.00000000000E+00  0.10992981877E+04  0.10992981877E+04  0.50400001928E-02 0. -1.
        1   -1    0    0  501    0  0.00000000000E+00  0.00000000000E+00 -0.91038038564E+03  0.91038038565E+03  0.50400001928E-02 0.  1.
    10030    2    1    2    0    0  0.00000000000E+00  0.00000000000E+00  0.18891780205E+03  0.20096785733E+04  0.20007793562E+04 0.  0.
        1    1    3    3  502    0  0.75944091244E+03  0.32237776466E+03  0.66275060609E+03  0.10582609737E+04  0.50400001928E-02 0. -1.
       -1    1    3    3    0  502 -0.75944091244E+03 -0.32237776466E+03 -0.47383280404E+03  0.95141759961E+03  0.50400001928E-02 0.  1.
</event>
<event>
 5   0  0.9342635E-06  0.1999263E+04  0.7818609E-02  0.8606965E-01
        1   -1    0    0  501    0  0.00000000000E+00  0.00000000000E+00  0.29626137430E+04  0.29626137430E+04  0.50400001928E-02 0.  1.
       -1   -1    0    0    0  501  0.00000000000E+00  0.00000000000E+00 -0.33729097883E+03  0.33729097887E+03  0.50400001928E-02 0. -1.
    10030    2    1    2    0    0  0.00000000000E+00  0.00000000000E+00  0.26253227642E+04  0.32999047219E+04  0.19992627535E+04 0.  0.
        5    1    3    3  502    0 -0.58220201692E+03 -0.12728045851E+03 -0.11990830538E+02  0.59609174935E+03  0.46999998093E+01 0. -1.
       -5    1    3    3    0  502  0.58220201692E+03  0.12728045851E+03  0.26373135947E+04  0.27038129726E+04  0.46999998093E+01 0.  1.
</event>
<event>
 5   0  0.2003576E-05  0.1999497E+04  0.7818609E-02  0.8606856E-01
       -2   -1    0    0    0  501  0.00000000000E+00  0.00000000000E+00  0.51110209097E+03  0.51110209098E+03  0.25500000920E-02 0. -1.
        2   -1    0    0  501    0  0.00000000000E+00  0.00000000000E+00 -0.19555717477E+04  0.19555717477E+04  0.25500000920E-02 0.  1.
    10030    2    1    2    0    0  0.00000000000E+00  0.00000000000E+00 -0.14444696567E+04  0.24666738387E+04  0.19994967460E+04 0.  0.
        4    1    3    3  502    0  0.94525782449E+03 -0.45654532363E+01 -0.11238092994E+04  0.14684965619E+04  0.12699999809E+01 0.  1.
       -4    1    3    3    0  502 -0.94525782449E+03  0.45654532363E+01 -0.32066035734E+03  0.99817727674E+03  0.12699999809E+01 0. -1.
</event>
<event>
 5   0  0.1979765E-05  0.2001784E+04  0.7818609E-02  0.8605787E-01
       -2   -1    0    0    0  501  0.00000000000E+00  0.00000000000E+00  0.48684528852E+03  0.48684528853E+03  0.25500000920E-02 0.  1.
        2   -1    0    0  501    0  0.00000000000E+00  0.00000000000E+00 -0.20577066716E+04  0.20577066716E+04  0.25500000920E-02 0. -1.
    10030    2    1    2    0    0  0.00000000000E+00  0.00000000000E+00 -0.15708613831E+04  0.25445519601E+04  0.20017840026E+04 0.  0.
        2    1    3    3  502    0  0.63833200054E+02 -0.42953957597E+03  0.36085893647E+03  0.56462208316E+03  0.25500000920E-02 0.  1.
       -2    1    3    3    0  502 -0.63833200054E+02  0.42953957597E+03 -0.19317203195E+04  0.19799298770E+04  0.25500000920E-02 0. -1.
</event>
<event>
 5   0  0.9342635E-06  0.2000643E+04  0.7818609E-02  0.8606320E-01
        1   -1    0    0  501    0  0.00000000000E+00  0.00000000000E+00  0.15631325154E+04  0.15631325154E+04  0.50400001928E-02 0. -1.
       -1   -1    0    0    0  501  0.00000000000E+00  0.00000000000E+00 -0.64015265307E+03  0.64015265309E+03  0.50400001928E-02 0.  1.
    10030    2    1    2    0    0  0.00000000000E+00  0.00000000000E+00  0.92297986230E+03  0.22032851685E+04  0.20006433234E+04 0.  0.
        5    1    3    3  502    0  0.87598435543E+03 -0.48077379517E+03  0.41067166392E+03  0.10803542653E+04  0.46999998093E+01 0.  1.
       -5    1    3    3    0  502 -0.87598435543E+03  0.48077379517E+03  0.51230819838E+03  0.11229309031E+04  0.46999998093E+01 0. -1.
</event>
<event>
 5   0  0.9140695E-06  0.1999697E+04  0.7818609E-02  0.8606762E-01
       -1   -1    0    0    0  501  0.00000000000E+00  0.00000000000E+00  0.14103910133E+04  0.14103910133E+04  0.50400001928E-02 0.  1.
        1   -1    0    0  501    0  0.00000000000E+00  0.00000000000E+00 -0.70880829678E+03  0.70880829680E+03  0.50400001928E-02 0. -1.
    10030    2    1    2    0    0  0.00000000000E+00  0.00000000000E+00  0.70158271652E+03  0.21191993101E+04  0.19996968290E+04 0.  0.
        1    1    3    3  502    0 -0.22813746472E+03 -0.95765266266E+03  0.53602680863E+03  0.11209237551E+04  0.50400001928E-02 0.  1.
       -1    1    3    3    0  502  0.22813746472E+03  0.95765266266E+03  0.16555590789E+03  0.99827555503E+03  0.50400001928E-02 0. -1.
</event>
<event>
 5   0  0.2038882E-05  0.1999965E+04  0.7818609E-02  0.8606637E-01
       -2   -1    0    0    0  501  0.00000000000E+00  0.00000000000E+00  0.79618521116E+03  0.79618521116E+03  0.25500000920E-02 0. -1.
        2   -1    0    0  501    0  0.00000000000E+00  0.00000000000E+00 -0.12559455563E+04  0.12559455563E+04  0.25500000920E-02 0.  1.
    10030    2    1    2    0    0  0.00000000000E+00  0.00000000000E+00 -0.45976034511E+03  0.20521307674E+04  0.19999652776E+04 0.  0.
        3    1    3    3  502    0  0.77551784633E+03  0.10747898558E+02  0.41779035346E+03  0.88096097356E+03  0.10100000352E+00 0. -1.
       -3    1    3    3    0  502 -0.77551784633E+03 -0.10747898558E+02 -0.87755069857E+03  0.11711697939E+04  0.10100000352E+00 0.  1.
</event>
<event>
 5   0  0.2003576E-05  0.2001277E+04  0.7818609E-02  0.8606024E-01
        2   -1    0    0  501    0  0.00000000000E+00  0.00000000000E+00  0.17175008846E+04  0.17175008846E+04  0.25500000920E-02 0. -1.
       -2   -1    0    0    0  501  0.00000000000E+00  0.00000000000E+00 -0.58298483436E+03  0.58298483437E+03  0.25500000920E-02 0.  1.
    10030    2    1    2    0    0  0.00000000000E+00  0.00000000000E+00  0.11345160502E+04  0.23004857190E+04  0.20012765613E+04 0.  0.
        4    1    3    3  502    0  0.63230118094E+03 -0.74706565371E+03  0.80663066197E+03  0.12682927549E+04  0.12699999809E+01 0. -1.
       -4    1    3    3    0  502 -0.63230118094E+03  0.74706565371E+03  0.32788538827E+03  0.10321929641E+04  0.12699999809E+01 0.  1.
</event>
<event>
 5   0  0.2003576E-05  0.2001454E+04  0.7818609E-02  0.8605941E-01
        2   -1    0    0  501    0  0.00000000000E+00  0.00000000000E+00  0.22417132799E+04  0.22417132799E+04  0.25500000920E-02 0.  1.
       -2   -1    0    0    0  501  0.00000000000E+00  0.00000000000E+00 -0.44673618728E+03  0.44673618729E+03  0.25500000920E-02 0. -1.
    10030    2    1    2    0    0  0.00000000000E+00  0.00000000000E+00  0.17949770926E+04  0.26884494672E+04  0.20014539152E+04 0.  0.
        4    1    3    3  502    0 -0.79928848480E+03  0.59977704005E+03  0.82567498435E+03  0.12962775059E+04  0.12699999809E+01 0. -1.
       -4    1    3    3    0  502  0.79928848480E+03 -0.59977704005E+03  0.96930210825E+03  0.13921719612E+04  0.12699999809E+01 0.  1.
</event>
<event>
 5   0  0.9220260E-06  0.1995408E+04  0.7818609E-02  0.8608771E-01
        1   -1    0    0  501    0  0.00000000000E+00  0.00000000000E+00  0.17186073098E+04  0.17186073098E+04  0.50400001928E-02 0. -1.
       -1   -1    0    0    0  501  0.00000000000E+00  0.00000000000E+00 -0.57919767506E+03  0.57919767509E+03  0.50400001928E-02 0.  1.
    10030    2    1    2    0    0  0.00000000000E+00  0.00000000000E+00  0.11394096347E+04  0.22978049849E+04  0.19954080868E+04 0.  0.
        3    1    3    3  502    0  0.51507345000E+03  0.38932027520E+03  0.14455937532E+04  0.15832284248E+04  0.10100000352E+00 0. -1.
       -3    1    3    3    0  502 -0.51507345000E+03 -0.38932027520E+03 -0.30618411850E+03  0.71457656007E+03  0.10100000352E+00 0.  1.
</event>
<event>
 5   0  0.9220260E-06  0.1999286E+04  0.7818609E-02  0.8606955E-01
       -1   -1    0    0    0  501  0.00000000000E+00  0.00000000000E+00  0.72171529313E+03  0.72171529315E+03  0.50400001928E-02 0. -1.
        1   -1    0    0  501    0  0.00000000000E+00  0.00000000000E+00 -0.13845985985E+04  0.13845985985E+04  0.50400001928E-02 0.  1.
    10030    2    1    2    0    0  0.00000000000E+00  0.00000000000E+00 -0.66288330536E+03  0.21063138916E+04  0.19992858559E+04 0.  0.
        3    1    3    3  502    0  0.41771939242E+03  0.11246851936E+03 -0.12808774556E+04  0.13519562586E+04  0.10100000352E+00 0.  1.
       -3    1    3    3    0  502 -0.41771939242E+03 -0.11246851936E+03  0.61799415024E+03  0.75435763307E+03  0.10100000352E+00 0. -1.
</event>
<event>
 5   0  0.9140695E-06  0.1999553E+04  0.7818609E-02  0.8606830E-01
        1   -1    0    0  501    0  0.00000000000E+00  0.00000000000E+00  0.92928092753E+03  0.92928092755E+03  0.50400001928E-02 0.  1.
       -1   -1    0    0    0  501  0.00000000000E+00  0.00000000000E+00 -0.10756194873E+04  0.10756194873E+04  0.50400001928E-02 0. -1.
    10030    2    1    2    0    0  0.00000000000E+00  0.00000000000E+00 -0.14633855979E+03  0.20049004149E+04  0.19995526248E+04 0.  0.
        1    1    3    3  502    0  0.70718045739E+03 -0.55302571014E+03  0.36802007537E+03  0.97024760308E+03  0.50400001928E-02 0. -1.
       -1    1    3    3    0  502 -0.70718045739E+03  0.55302571014E+03 -0.51435863516E+03  0.10346528118E+04  0.50400001928E-02 0.  1.
</event>
<event>
 5   0  0.9333353E-06  0.2010019E+04  0.7818609E-02  0.8601951E-01
       -1   -1    0    0    0  501  0.00000000000E+00  0.00000000000E+00  0.90104977682E+03  0.90104977683E+03  0.50400001928E-02 0.  1.
        1   -1    0    0  501    0  0.00000000000E+00  0.00000000000E+00 -0.11209640101E+04  0.11209640101E+04  0.50400001928E-02 0. -1.
    10030    2    1    2    0    0  0.00000000000E+00  0.00000000000E+00 -0.21991423328E+03  0.20220137869E+04  0.20100192747E+04 0.  0.
        2    1    3    3  502    0 -0.25427486947E+03  0.15163333997E+03 -0.10761027471E+04  0.11160848988E+04  0.25500000920E-02 0. -1.
       -2    1    3    3    0  502  0.25427486947E+03 -0.15163333997E+03  0.85618851385E+03  0.90592888810E+03  0.25500000920E-02 0.  1.
</event>
<event>
 5   0  0.2038882E-05  0.2000817E+04  0.7818609E-02  0.8606239E-01
       -2   -1    0    0    0  501  0.00000000000E+00  0.00000000000E+00  0.74459122772E+03  0.74459122773E+03  0.25500000920E-02 0. -1.
        2   -1    0    0  501    0  0.00000000000E+00  0.00000000000E+00 -0.13441163022E+04  0.13441163022E+04  0.25500000920E-02 0.  1.
    10030    2    1    2    0    0  0.00000000000E+00  0.00000000000E+00 -0.59952507448E+03  0.20887075299E+04  0.20008170408E+04 0.  0.
        3    1    3    3  502    0  0.65806175965E+03  0.48864857730E+03 -0.89853878483E+03  0.12162214723E+04  0.10100000352E+00 0.  1.
       -3    1    3    3    0  502 -0.65806175965E+03 -0.48864857730E+03  0.29901371034E+03  0.87248605765E+03  0.10100000352E+00 0. -1.
</event>
<event>
 5   0  0.2038882E-05  0.2000474E+04  0.7818609E-02  0.8606399E-01
        2   -1    0    0  501    0  0.00000000000E+00  0.00000000000E+00  0.91806642105E+03  0.91806642105E+03  0.25500000920E-02 0. -1.
       -2   -1    0    0    0  501  0.00000000000E+00  0.00000000000E+00 -0.10897620259E+04  0.10897620259E+04  0.25500000920E-02 0.  1.
    10030    2    1    2    0    0  0.00000000000E+00  0.00000000000E+00 -0.17169560482E+03  0.20078284469E+04  0.20004738667E+04 0.  0.
        3    1    3    3  502    0  0.36432149255E+03 -0.92645096502E+03 -0.18332525804E+03  0.10122498214E+04  0.10100000352E+00 0.  1.
       -3    1    3    3    0  502 -0.36432149255E+03  0.92645096502E+03  0.11629653226E+02  0.99557862550E+03  0.10100000352E+00 0. -1.
</event>
<event>
 5   0  0.9220260E-06  0.2005925E+04  0.7818609E-02  0.8603855E-01
        1   -1    0    0  501    0  0.00000000000E+00  0.00000000000E+00  0.10544039469E+04  0.10544039469E+04  0.50400001928E-02 0. -1.
       -1   -1    0    0    0  501  0.00000000000E+00  0.00000000000E+00 -0.95403099490E+03  0.95403099491E+03  0.50400001928E-02 0.  1.
    10030    2    1    2    0    0  0.00000000000E+00  0.00000000000E+00  0.10037295202E+03  0.20084349418E+04  0.20059252693E+04 0.  0.
        3    1    3    3  502    0 -0.39885135064E+03 -0.61562886018E+03 -0.63466691277E+03  0.96999144005E+03  0.10100000352E+00 0.  1.
       -3    1    3    3    0  502  0.39885135064E+03  0.61562886018E+03  0.73503986479E+03  0.10384435018E+04  0.10100000352E+00 0. -1.
</event>
<event>
 5   0  0.1979765E-05  0.1989538E+04  0.7818609E-02  0.8611528E-01
       -2   -1    0    0    0  501  0.00000000000E+00  0.00000000000E+00  0.15644082361E+04  0.15644082361E+04  0.25500000920E-02 0.  1.
        2   -1    0    0  501    0  0.00000000000E+00  0.00000000000E+00 -0.63254939746E+03  0.63254939746E+03  0.25500000920E-02 0. -1.
    10030    2    1    2    0    0  0.00000000000E+00  0.00000000000E+00  0.93185883864E+03  0.21969576336E+04  0.19895381244E+04 0.  0.
        2    1    3    3  502    0  0.88143434042E+03  0.41488559156E+03  0.68818098925E+03  0.11927487684E+04  0.25500000920E-02 0.  1.
       -2    1    3    3    0  502 -0.88143434042E+03 -0.41488559156E+03  0.24367784939E+03  0.10042088652E+04  0.25500000920E-02 0. -1.
</event>
<event>
 5   0  0.1999142E-05  0.2007335E+04  0.7818609E-02  0.8603199E-01
        2   -1    0    0  501    0  0.00000000000E+00  0.00000000000E+00  0.67123531130E+03  0.67123531131E+03  0.25500000920E-02 0. -1.
       -2   -1    0    0    0  501  0.00000000000E+00  0.00000000000E+00 -0.15007375490E+04  0.15007375490E+04  0.25500000920E-02 0.  1.
    10030    2    1    2    0    0  0.00000000000E+00  0.00000000000E+00 -0.82950223765E+03  0.21719728603E+04  0.20073345868E+04 0.  0.
        1    1    3    3  502    0  0.10011021721E+04  0.15565813834E+02 -0.49049381215E+03  0.11149134645E+04  0.50400001928E-02 0.  1.
       -1    1    3    3    0  502 -0.10011021721E+04 -0.15565813834E+02 -0.33900842550E+03  0.10570593957E+04  0.50400001928E-02 0. -1.
</event>
<event>
 5   0  0.2003576E-05  0.2000881E+04  0.7818609E-02  0.8606209E-01
        2   -1    0    0  501    0  0.00000000000E+00  0.00000000000E+00  0.14843981432E+04  0.14843981432E+04  0.25500000920E-02 0. -1.
       -2   -1    0    0    0  501  0.00000000000E+00  0.00000000000E+00 -0.67426712730E+03  0.67426712731E+03  0.25500000920E-02 0.  1.
    10030    2    1    2    0    0  0.00000000000E+00  0.00000000000E+00  0.81013101590E+03  0.21586652705E+04  0.20008806779E+04 0.  0.
        4    1    3    3  502    0  0.30531285595E+03 -0.74741207578E+03 -0.23231794678E+03  0.84012736673E+03  0.12699999809E+01 0.  1.
       -4    1    3    3    0  502 -0.30531285595E+03  0.74741207578E+03  0.10424489627E+04  0.13185379038E+04  0.12699999809E+01 0. -1.
</event>
<event>
 5   0  0.9342635E-06  0.1992513E+04  0.7818609E-02  0.8610129E-01
        1   -1    0    0  501    0  0.00000000000E+00  0.00000000000E+00  0.12170945858E+04  0.12170945858E+04  0.50400001928E-02 0.  1.
       -1   -1    0    0    0  501  0.00000000000E+00  0.00000000000E+00 -0.81548866852E+03  0.81548866854E+03  0.50400001928E-02 0. -1.
    10030    2    1    2    0    0  0.00000000000E+00  0.00000000000E+00  0.40160591725E+03  0.20325832543E+04  0.19925128288E+04 0.  0.
        5    1    3    3  502    0  0.27336266760E+02  0.77388055390E+02  0.12136286303E+04  0.12164097684E+04  0.46999998093E+01 0.  1.
       -5    1    3    3    0  502 -0.27336266760E+02 -0.77388055390E+02 -0.81202271301E+03  0.81617348587E+03  0.46999998093E+01 0. -1.
</event>
<event>
 5   0  0.1999142E-05  0.1998970E+04  0.7818609E-02  0.8607103E-01
        2   -1    0    0  501    0  0.00000000000E+00  0.00000000000E+00  0.86677585710E+03  0.86677585711E+03  0.25500000920E-02 0. -1.
       -2   -1    0    0    0  501  0.00000000000E+00  0.00000000000E+00 -0.11525122322E+04  0.11525122322E+04  0.25500000920E-02 0.  1.
    10030    2    1    2    0    0  0.00000000000E+00  0.00000000000E+00 -0.28573637511E+03  0.20192880893E+04  0.19989695124E+04 0.  0.
        1    1    3    3  502    0  0.58435084121E+03  0.44350530875E+03  0.54285937512E+03  0.91261117991E+03  0.50400001928E-02 0. -1.
       -1    1    3    3    0  502 -0.58435084121E+03 -0.44350530875E+03 -0.82859575023E+03  0.11066769094E+04  0.50400001928E-02 0.  1.
</event>
<event>
 5   0  0.2038882E-05  0.2001904E+04  0.7818609E-02  0.8605731E-01
        2   -1    0    0  501    0  0.00000000000E+00  0.00000000000E+00  0.87345859174E+03  0.87345859175E+03  0.25500000920E-02 0.  1.
       -2   -1    0    0    0  501  0.00000000000E+00  0.00000000000E+00 -0.11470546964E+04  0.11470546964E+04  0.25500000920E-02 0. -1.
    10030    2    1    2    0    0  0.00000000000E+00  0.00000000000E+00 -0.27359610466E+03  0.20205132882E+04  0.20019038736E+04 0.  0.
        3    1    3    3  502    0 -0.32642664020E+03 -0.80010771115E+02 -0.10884033242E+04  0.11391127605E+04  0.10100000352E+00 0. -1.
       -3    1    3    3    0  502  0.32642664020E+03  0.80010771115E+02  0.81480721952E+03  0.88140052763E+03  0.10100000352E+00 0.  1.
</event>
<event>
 5   0  0.9370269E-06  0.1999895E+04  0.7818609E-02  0.8606670E-01
        1   -1    0    0  501    0  0.00000000000E+00  0.00000000000E+00  0.80767249390E+03  0.80767249391E+03  0.50400001928E-02 0.  1.
       -1   -1    0    0    0  501  0.00000000000E+00  0.00000000000E+00 -0.12379952741E+04  0.12379952741E+04  0.50400001928E-02 0. -1.
    10030    2    1    2    0    0  0.00000000000E+00  0.00000000000E+00 -0.43032278022E+03  0.20456677680E+04  0.19998947277E+04 0.  0.
        4    1    3    3  502    0  0.60181027596E+03  0.77723564197E+03 -0.27600857170E+02  0.98337900711E+03  0.12699999809E+01 0.  1.
       -4    1    3    3    0  502 -0.60181027596E+03 -0.77723564197E+03 -0.40272192305E+03  0.10622887609E+04  0.12699999809E+01 0. -1.
</event>
<event>
 5   0  0.2020029E-05  0.2001026E+04  0.7818609E-02  0.8606141E-01
       -2   -1    0    0    0  501  0.00000000000E+00  0.00000000000E+00  0.69574053736E+03  0.69574053736E+03  0.25500000920E-02 0. -1.
        2   -1    0    0  501    0  0.00000000000E+00  0.00000000000E+00 -0.14387920419E+04  0.14387920419E+04  0.25500000920E-02 0.  1.
    10030    2    1    2    0    0  0.00000000000E+00  0.00000000000E+00 -0.74305150459E+03  0.21345325793E+04  0.20010256854E+04 0.  0.
        5    1    3    3  502    0  0.42366135508E+03 -0.12842837140E+03  0.58556638331E+03  0.73409322953E+03  0.46999998093E+01 0. -1.
       -5    1    3    3    0  502 -0.42366135508E+03  0.12842837140E+03 -0.13286178879E+04  0.14004393498E+04  0.46999998093E+01 0.  1.
</event>
<event>
 5   0  0.1979765E-05  0.2002703E+04  0.7818609E-02  0.8605358E-01
        2   -1    0    0  501    0  0.00000000000E+00  0.00000000000E+00  0.85971245576E+03  0.85971245576E+03  0.25500000920E-02 0. -1.
       -2   -1    0    0    0  501  0.00000000000E+00  0.00000000000E+00 -0.11663261617E+04  0.11663261617E+04  0.25500000920E-02 0.  1.
    10030    2    1    2    0    0  0.00000000000E+00  0.00000000000E+00 -0.30661370590E+03  0.20260386174E+04  0.20027033017E+04 0.  0.
        2    1    3    3  502    0  0.82782627906E+03  0.37920734976E+03  0.26821411414E+03  0.94922777743E+03  0.25500000920E-02 0. -1.
       -2    1    3    3    0  502 -0.82782627906E+03 -0.37920734976E+03 -0.57482782004E+03  0.10768108400E+04  0.25500000920E-02 0.  1.
</event>
<event>
 5   0  0.1979765E-05  0.1998651E+04  0.7818609E-02  0.8607252E-01
        2   -1    0    0  501    0  0.00000000000E+00  0.00000000000E+00  0.17132799279E+04  0.17132799279E+04  0.25500000920E-02 0.  1.
       -2   -1    0    0    0  501  0.00000000000E+00  0.00000000000E+00 -0.58288874263E+03  0.58288874264E+03  0.25500000920E-02 0. -1.
    10030    2    1    2    0    0  0.00000000000E+00  0.00000000000E+00  0.11303911853E+04  0.22961686705E+04  0.19986511281E+04 0.  0.
        2    1    3    3  502    0  0.14139196700E+02 -0.99701635083E+03  0.48890180895E+03  0.11105253259E+04  0.25500000920E-02 0.  1.
       -2    1    3    3    0  502 -0.14139196700E+02  0.99701635083E+03  0.64148937632E+03  0.11856433446E+04  0.25500000920E-02 0. -1.
</event>
<event>
 5   0  0.9220260E-06  0.2000265E+04  0.7818609E-02  0.8606497E-01
       -1   -1    0    0    0  501  0.00000000000E+00  0.00000000000E+00  0.85461346890E+03  0.85461346892E+03  0.50400001928E-02 0.  1.
        1   -1    0    0  501    0  0.00000000000E+00  0.00000000000E+00 -0.11704292643E+04  0.11704292643E+04  0.50400001928E-02 0. -1.
    10030    2    1    2    0    0  0.00000000000E+00  0.00000000000E+00 -0.31581579542E+03  0.20250427333E+04  0.20002645962E+04 0.  0.
        3    1    3    3  502    0 -0.67951995814E+03 -0.43363396212E+03  0.44143812983E+03  0.91905028115E+03  0.10100000352E+00 0.  1.
       -3    1    3    3    0  502  0.67951995814E+03  0.43363396212E+03 -0.75725392525E+03  0.11059924521E+04  0.10100000352E+00 0. -1.
</event>
<event>
 5   0  0.9333353E-06  0.1979665E+04  0.7818609E-02  0.8616187E-01
       -1   -1    0    0    0  501  0.00000000000E+00  0.00000000000E+00  0.14221746941E+04  0.14221746941E+04  0.50400001928E-02 0.  1.
        1   -1    0    0  501    0  0.00000000000E+00  0.00000000000E+00 -0.68892292134E+03  0.68892292136E+03  0.50400001928E-02 0. -1.
    10030    2    1    2    0    0  0.00000000000E+00  0.00000000000E+00  0.73325177277E+03  0.21110976155E+04  0.19796653707E+04 0.  0.
        2    1    3    3  502    0  0.13677618972E+03 -0.14976075828E+03  0.13997782578E+04  0.14143956949E+04  0.25500000920E-02 0.  1.
       -2    1    3    3    0  502 -0.13677618972E+03  0.14976075828E+03 -0.66652648505E+03  0.69670192053E+03  0.25500000920E-02 0. -1.
</event>
<event>
 5   0  0.1999142E-05  0.1994871E+04  0.7818609E-02  0.8609023E-01
        2   -1    0    0  501    0  0.00000000000E+00  0.00000000000E+00  0.14992419223E+04  0.14992419223E+04  0.25500000920E-02 0. -1.
       -2   -1    0    0    0  501  0.00000000000E+00  0.00000000000E+00 -0.66358685225E+03  0.66358685226E+03  0.25500000920E-02 0.  1.
    10030    2    1    2    0    0  0.00000000000E+00  0.00000000000E+00  0.83565507006E+03  0.21628287746E+04  0.19948706504E+04 0.  0.
        1    1    3    3  502    0 -0.28363538096E+03  0.13175130643E+03 -0.60905440108E+03  0.68465662895E+03  0.50400001928E-02 0.  1.
       -1    1    3    3    0  502  0.28363538096E+03 -0.13175130643E+03  0.14447094711E+04  0.14781721456E+04  0.50400001928E-02 0. -1.
</event>
<event>
 5   0  0.9333353E-06  0.2001614E+04  0.7818609E-02  0.8605867E-01
        1   -1    0    0  501    0  0.00000000000E+00  0.00000000000E+00  0.95743097541E+03  0.95743097542E+03  0.50400001928E-02 0.  1.
       -1   -1    0    0    0  501  0.00000000000E+00  0.00000000000E+00 -0.10461479415E+04  0.10461479416E+04  0.50400001928E-02 0. -1.
    10030    2    1    2    0    0  0.00000000000E+00  0.00000000000E+00 -0.88716966129E+02  0.20035789170E+04  0.20016137930E+04 0.  0.
        2    1    3    3  502    0  0.30024210208E+03 -0.35413300729E+03  0.84311160256E+03  0.96249295119E+03  0.25500000920E-02 0.  1.
       -2    1    3    3    0  502 -0.30024210208E+03  0.35413300729E+03 -0.93182856869E+03  0.10410859658E+04  0.25500000920E-02 0. -1.
</event>
<event>
 5   0  0.9342635E-06  0.1998464E+04  0.7818609E-02  0.8607339E-01
        1   -1    0    0  501    0  0.00000000000E+00  0.00000000000E+00  0.94303054049E+03  0.94303054050E+03  0.50400001928E-02 0.  1.
       -1   -1    0    0    0  501  0.00000000000E+00  0.00000000000E+00 -0.10587826802E+04  0.10587826802E+04  0.50400001928E-02 0. -1.
    10030    2    1    2    0    0  0.00000000000E+00  0.00000000000E+00 -0.11575213973E+03  0.20018132207E+04  0.19984638132E+04 0.  0.
        5    1    3    3  502    0  0.46248508508E+03 -0.76689290965E+03 -0.50181760844E+03  0.10265769289E+04  0.46999998093E+01 0. -1.
       -5    1    3    3    0  502 -0.46248508508E+03  0.76689290965E+03  0.38606546871E+03  0.97523629184E+03  0.46999998093E+01 0.  1.
</event>
<event>
 5   0  0.2020029E-05  0.1999012E+04  0.7818609E-02  0.8607083E-01
       -2   -1    0    0    0  501  0.00000000000E+00  0.00000000000E+00  0.48977579249E+03  0.48977579249E+03  0.25500000920E-02 0. -1.
        2   -1    0    0  501    0  0.00000000000E+00  0.00000000000E+00 -0.20397338317E+04  0.20397338317E+04  0.25500000920E-02 0.  1.
    10030    2    1    2    0    0  0.00000000000E+00  0.00000000000E+00 -0.15499580392E+04  0.25295096242E+04  0.19990120098E+04 0.  0.
        5    1    3    3  502    0 -0.49180891438E+02 -0.28589466408E+03  0.43531941530E+03  0.52314395951E+03  0.46999998093E+01 0. -1.
       -5    1    3    3    0  502  0.49180891438E+02  0.28589466408E+03 -0.19852774545E+04  0.20063656646E+04  0.46999998093E+01 0.  1.
</event>
<event>
 5   0  0.9333353E-06  0.2005639E+04  0.7818609E-02  0.8603989E-01
        1   -1    0    0  501    0  0.00000000000E+00  0.00000000000E+00  0.20978584131E+04  0.20978584131E+04  0.50400001928E-02 0.  1.
       -1   -1    0    0    0  501  0.00000000000E+00  0.00000000000E+00 -0.47936847966E+03  0.47936847969E+03  0.50400001928E-02 0. -1.
    10030    2    1    2    0    0  0.00000000000E+00  0.00000000000E+00  0.16184899335E+04  0.25772268928E+04  0.20056392478E+04 0.  0.
        2    1    3    3  502    0  0.11411264460E+02 -0.76631697762E+03  0.16403021916E+04  0.18105146249E+04  0.25500000920E-02 0.  1.
       -2    1    3    3    0  502 -0.11411264460E+02  0.76631697762E+03 -0.21812258170E+02  0.76671226791E+03  0.25500000920E-02 0. -1.
</event>
<event>
 5   0  0.9220260E-06  0.1995825E+04  0.7818609E-02  0.8608575E-01
       -1   -1    0    0    0  501  0.00000000000E+00  0.00000000000E+00  0.50598032975E+03  0.50598032978E+03  0.50400001928E-02 0. -1.
        1   -1    0    0  501    0  0.00000000000E+00  0.00000000000E+00 -0.19681185388E+04  0.19681185388E+04  0.50400001928E-02 0.  1.
    10030    2    1    2    0    0  0.00000000000E+00  0.00000000000E+00 -0.14621382091E+04  0.24740988686E+04  0.19958249095E+04 0.  0.
        3    1    3    3  502    0 -0.12740347096E+03 -0.61916794463E+03  0.22612725767E+03  0.67136736213E+03  0.10100000352E+00 0. -1.
       -3    1    3    3    0  502  0.12740347096E+03  0.61916794463E+03 -0.16882654667E+04  0.18027315065E+04  0.10100000352E+00 0.  1.
</event>
<event>
 5   0  0.9220260E-06  0.2010799E+04  0.7818609E-02  0.8601588E-01
       -1   -1    0    0    0  501  0.00000000000E+00  0.00000000000E+00  0.77409397002E+03  0.77409397004E+03  0.50400001928E-02 0. -1.
        1   -1    0    0  501    0  0.00000000000E+00  0.00000000000E+00 -0.13058216246E+04  0.13058216247E+04  0.50400001928E-02 0.  1.
    10030    2    1    2    0    0  0.00000000000E+00  0.00000000000E+00 -0.53172765463E+03  0.20799155947E+04  0.20107994884E+04 0.  0.
        3    1    3    3  502    0  0.46187180769E+03 -0.34968292168E+03  0.58410143586E+03  0.82266530863E+03  0.10100000352E+00 0. -1.
       -3    1    3    3    0  502 -0.46187180769E+03  0.34968292168E+03 -0.11158290905E+04  0.12572502861E+04  0.10100000352E+00 0.  1.
</event>
<event>
 5   0  0.1979765E-05  0.1995834E+04  0.7818609E-02  0.8608571E-01
        2   -1    0    0  501    0  0.00000000000E+00  0.00000000000E+00  0.16315954797E+04  0.16315954797E+04  0.25500000920E-02 0.  1.
       -2   -1    0    0    0  501  0.00000000000E+00  0.00000000000E+00 -0.61034649631E+03  0.61034649631E+03  0.25500000920E-02 0. -1.
    10030    2    1    2    0    0  0.00000000000E+00  0.00000000000E+00  0.10212489834E+04  0.22419419761E+04  0.19958342461E+04 0.  0.
        2    1    3    3  502    0  0.60062999086E+03  0.97816856862E+02  0.13990447160E+04  0.15256640000E+04  0.25500000920E-02 0.  1.
       -2    1    3    3    0  502 -0.60062999086E+03 -0.97816856862E+02 -0.37779573260E+03  0.71627797606E+03  0.25500000920E-02 0. -1.
</event>
<event>
 5   0  0.1999142E-05  0.1998705E+04  0.7818609E-02  0.8607226E-01
       -2   -1    0    0    0  501  0.00000000000E+00  0.00000000000E+00  0.96119378675E+03  0.96119378676E+03  0.25500000920E-02 0.  1.
        2   -1    0    0  501    0  0.00000000000E+00  0.00000000000E+00 -0.10390258718E+04  0.10390258719E+04  0.25500000920E-02 0. -1.
    10030    2    1    2    0    0  0.00000000000E+00  0.00000000000E+00 -0.77832085094E+02  0.20002196586E+04  0.19987047929E+04 0.  0.
        1    1    3    3  502    0  0.87170515199E+03  0.36708293290E+02  0.44878055700E+03  0.98113269193E+03  0.50400001928E-02 0.  1.
       -1    1    3    3    0  502 -0.87170515199E+03 -0.36708293290E+02 -0.52661264210E+03  0.10190869667E+04  0.50400001928E-02 0. -1.
</event>
<event>
 5   0  0.9220260E-06  0.1999898E+04  0.7818609E-02  0.8606669E-01
        1   -1    0    0  501    0  0.00000000000E+00  0.00000000000E+00  0.15599208780E+04  0.15599208780E+04  0.50400001928E-02 0. -1.
       -1   -1    0    0    0  501  0.00000000000E+00  0.00000000000E+00 -0.64099246722E+03  0.64099246724E+03  0.50400001928E-02 0.  1.
    10030    2    1    2    0    0  0.00000000000E+00  0.00000000000E+00  0.91892841079E+03  0.22009133453E+04  0.19998975297E+04 0.  0.
        3    1    3    3  502    0  0.88164062830E+03  0.47033780653E+03  0.50048947211E+03  0.11175855992E+04  0.10100000352E+00 0.  1.
       -3    1    3    3    0  502 -0.88164062830E+03 -0.47033780653E+03  0.41843893868E+03  0.10833277460E+04  0.10100000352E+00 0. -1.
</event>
<event>
 5   0  0.1999142E-05  0.1998786E+04  0.7818609E-02  0.8607189E-01
       -2   -1    0    0    0  501  0.00000000000E+00  0.00000000000E+00  0.54658297048E+03  0.54658297049E+03  0.25500000920E-02 0. -1.
        2   -1    0    0  501    0  0.00000000000E+00  0.00000000000E+00 -0.18273274042E+04  0.18273274042E+04  0.25500000920E-02 0.  1.
    10030    2    1    2    0    0  0.00000000000E+00  0.00000000000E+00 -0.12807444337E+04  0.23739103747E+04  0.19987856720E+04 0.  0.
        1    1    3    3  502    0  0.48349769207E+03  0.14806757462E+03 -0.16641822667E+04  0.17393092427E+04  0.50400001928E-02 0.  1.
       -1    1    3    3    0  502 -0.48349769207E+03 -0.14806757462E+03  0.38343783301E+03  0.63460113197E+03  0.50400001928E-02 0. -1.
</event>
<event>
 5   0  0.1999142E-05  0.2012470E+04  0.7818609E-02  0.8600813E-01
       -2   -1    0    0    0  501  0.00000000000E+00  0.00000000000E+00  0.71903513605E+03  0.71903513605E+03  0.25500000920E-02 0. -1.
        2   -1    0    0  501    0  0.00000000000E+00  0.00000000000E+00 -0.14081488965E+04  0.14081488965E+04  0.25500000920E-02 0.  1.
    10030    2    1    2    0    0  0.00000000000E+00  0.00000000000E+00 -0.68911376047E+03  0.21271840326E+04  0.20124696603E+04 0.  0.
        1    1    3    3  502    0  0.37382028695E+03  0.87469989491E+03 -0.69138721064E+03  0.11759497388E+04  0.50400001928E-02 0.  1.
       -1    1    3    3    0  502 -0.37382028695E+03 -0.87469989491E+03  0.22734501694E+01  0.95123429379E+03  0.50400001928E-02 0. -1.
</event>
<event>
 5   0  0.2020029E-05  0.2009037E+04  0.7818609E-02  0.8602407E-01
       -2   -1    0    0    0  501  0.00000000000E+00  0.00000000000E+00  0.45170584036E+03  0.45170584037E+03  0.25500000920E-02 0.  1.
        2   -1    0    0  501    0  0.00000000000E+00  0.00000000000E+00 -0.22338815589E+04  0.22338815589E+04  0.25500000920E-02 0. -1.
    10030    2    1    2    0    0  0.00000000000E+00  0.00000000000E+00 -0.17821757185E+04  0.26855873993E+04  0.20090369303E+04 0.  0.
        5    1    3    3  502    0 -0.30364286625E+03 -0.87917677279E+03 -0.38402905332E+03  0.10063057149E+04  0.46999998093E+01 0.  1.
       -5    1    3    3    0  502  0.30364286625E+03  0.87917677279E+03 -0.13981466652E+04  0.16792816844E+04  0.46999998093E+01 0. -1.
</event>
<event>
 5   0  0.2038882E-05  0.1993488E+04  0.7818609E-02  0.8609671E-01
        2   -1    0    0  501    0  0.00000000000E+00  0.00000000000E+00  0.15361542052E+04  0.15361542052E+04  0.25500000920E-02 0.  1.
       -2   -1    0    0    0  501  0.00000000000E+00  0.00000000000E+00 -0.64674410474E+03  0.64674410475E+03  0.25500000920E-02 0. -1.
    10030    2    1    2    0    0  0.00000000000E+00  0.00000000000E+00  0.88941010045E+03  0.21828983099E+04  0.19934880749E+04 0.  0.
        3    1    3    3  502    0 -0.59503457624E+03 -0.75152832152E+03  0.74386192633E+03  0.12133390048E+04  0.10100000352E+00 0.  1.
       -3    1    3    3    0  502  0.59503457624E+03  0.75152832152E+03  0.14554817412E+03  0.96955930512E+03  0.10100000352E+00 0. -1.
</event>
<event>
 5   0  0.9140695E-06  0.1997269E+04  0.7818609E-02  0.8607898E-01
       -1   -1    0    0    0  501  0.00000000000E+00  0.00000000000E+00  0.47476619626E+03  0.47476619628E+03  0.50400001928E-02 0. -1.
        1   -1    0    0  501    0  0.00000000000E+00  0.00000000000E+00 -0.21005521240E+04  0.21005521240E+04  0.50400001928E-02 0.  1.
    10030    2    1    2    0    0  0.00000000000E+00  0.00000000000E+00 -0.16257859278E+04  0.25753183203E+04  0.19972692778E+04 0.  0.
        1    1    3    3  502    0  0.82081026606E+03 -0.55905893816E+03 -0.94809618236E+03  0.13730122943E+04  0.50400001928E-02 0. -1.
       -1    1    3    3    0  502 -0.82081026606E+03  0.55905893816E+03 -0.67768974540E+03  0.12023060260E+04  0.50400001928E-02 0.  1.
</event>
<event>
 5   0  0.9140695E-06  0.1999650E+04  0.7818609E-02  0.8606784E-01
       -1   -1    0    0    0  501  0.00000000000E+00  0.00000000000E+00  0.62065220960E+03  0.62065220962E+03  0.50400001928E-02 0.  1.
        1   -1    0    0  501    0  0.00000000000E+00  0.00000000000E+00 -0.16106450642E+04  0.16106450642E+04  0.50400001928E-02 0. -1.
    10030    2    1    2    0    0  0.00000000000E+00  0.00000000000E+00 -0.98999285458E+03  0.22312972738E+04  0.19996503874E+04 0.  0.
        1    1    3    3  502    0 -0.15091016746E+03  0.71471694410E+03  0.26677121596E+03  0.77766385445E+03  0.50400001928E-02 0.  1.
       -1    1    3    3    0  502  0.15091016746E+03 -0.71471694410E+03 -0.12567640705E+04  0.14536334194E+04  0.50400001928E-02 0. -1.
</event>
<event>
 5   0  0.9140695E-06  0.2002132E+04  0.7818609E-02  0.8605624E-01
       -1   -1    0    0    0  501  0.00000000000E+00  0.00000000000E+00  0.64152962211E+03  0.64152962213E+03  0.50400001928E-02 0. -1.
        1   -1    0    0  501    0  0.00000000000E+00  0.00000000000E+00 -0.15620998552E+04  0.15620998552E+04  0.50400001928E-02 0.  1.
    10030    2    1    2    0    0  0.00000000000E+00  0.00000000000E+00 -0.92057023308E+03  0.22036294773E+04  0.20021321933E+04 0.  0.
        1    1    3    3  502    0 -0.65019000611E+03  0.76111632330E+03 -0.47062342400E+03  0.11061335855E+04  0.50400001928E-02 0. -1.
       -1    1    3    3    0  502  0.65019000611E+03 -0.76111632330E+03 -0.44994680908E+03  0.10974958919E+04  0.50400001928E-02 0.  1.
</event>
<event>
 5   0  0.2020029E-05  0.2000048E+04  0.7818609E-02  0.8606598E-01
       -2   -1    0    0    0  501  0.00000000000E+00  0.00000000000E+00  0.73188766693E+03  0.73188766693E+03  0.25500000920E-02 0.  1.
        2   -1    0    0  501    0  0.00000000000E+00  0.00000000000E+00 -0.13663949061E+04  0.13663949061E+04  0.25500000920E-02 0. -1.
    10030    2    1    2    0    0  0.00000000000E+00  0.00000000000E+00 -0.63450723922E+03  0.20982825731E+04  0.20000475794E+04 0.  0.
        5    1    3    3  502    0  0.96231629460E+03 -0.23019018242E+03 -0.16527537134E+03  0.10031840356E+04  0.46999998093E+01 0.  1.
       -5    1    3    3    0  502 -0.96231629460E+03  0.23019018242E+03 -0.46923186787E+03  0.10950985375E+04  0.46999998093E+01 0. -1.
</event>
<event>
 5   0  0.1999142E-05  0.2000690E+04  0.7818609E-02  0.8606298E-01
       -2   -1    0    0    0  501  0.00000000000E+00  0.00000000000E+00  0.47935407998E+03  0.47935407999E+03  0.25500000920E-02 0. -1.
        2   -1    0    0  501    0  0.00000000000E+00  0.00000000000E+00 -0.20875798066E+04  0.20875798066E+04  0.25500000920E-02 0.  1.
    10030    2    1    2    0    0  0.00000000000E+00  0.00000000000E+00 -0.16082257266E+04  0.25669338866E+04  0.20006897786E+04 0.  0.
        1    1    3    3  502    0  0.86234400374E+03  0.41096352030E+03 -0.11850689459E+04  0.15221421098E+04  0.50400001928E-02 0.  1.
       -1    1    3    3    0  502 -0.86234400374E+03 -0.41096352030E+03 -0.42315678074E+03  0.10447917768E+04  0.50400001928E-02 0. -1.
</event>
<event>
 5   0  0.9342635E-06  0.1999881E+04  0.7818609E-02  0.8606676E-01
        1   -1    0    0  501    0  0.00000000000E+00  0.00000000000E+00  0.20358361477E+04  0.20358361477E+04  0.50400001928E-02 0. -1.
       -1   -1    0    0    0  501  0.00000000000E+00  0.00000000000E+00 -0.49114018181E+03  0.49114018183E+03  0.50400001928E-02 0.  1.
    10030    2    1    2    0    0  0.00000000000E+00  0.00000000000E+00  0.15446959659E+04  0.25269763296E+04  0.19998809322E+04 0.  0.
        5    1    3    3  502    0 -0.28074002612E+03 -0.58097786922E+03 -0.19285946499E+03  0.67347391191E+03  0.46999998093E+01 0.  1.
       -5    1    3    3    0  502  0.28074002612E+03  0.58097786922E+03  0.17375554309E+04  0.18535024177E+04  0.46999998093E+01 0. -1.
</event>
<event>
 5   0  0.9220260E-06  0.1995865E+04  0.7818609E-02  0.8608556E-01
        1   -1    0    0  501    0  0.00000000000E+00  0.00000000000E+00  0.15886618468E+04  0.15886618468E+04  0.50400001928E-02 0.  1.
       -1   -1    0    0    0  501  0.00000000000E+00  0.00000000000E+00 -0.62686050307E+03  0.62686050309E+03  0.50400001928E-02 0. -1.
    10030    2    1    2    0    0  0.00000000000E+00  0.00000000000E+00  0.96180134368E+03  0.22155223499E+04  0.19958650901E+04 0.  0.
        3    1    3    3  502    0  0.79111248047E+03 -0.31319833100E+03 -0.97945673612E+02  0.85647271789E+03  0.10100000352E+00 0. -1.
       -3    1    3    3    0  502 -0.79111248047E+03  0.31319833100E+03  0.10597470173E+04  0.13590496320E+04  0.10100000352E+00 0.  1.
</event>
<event>
 5   0  0.1999142E-05  0.2003264E+04  0.7818609E-02  0.8605096E-01
       -2   -1    0    0    0  501  0.00000000000E+00  0.00000000000E+00  0.63464430749E+03  0.63464430749E+03  0.25500000920E-02 0. -1.
        2   -1    0    0  501    0  0.00000000000E+00  0.00000000000E+00 -0.15808328939E+04  0.15808328939E+04  0.25500000920E-02 0.  1.
    10030    2    1    2    0    0  0.00000000000E+00  0.00000000000E+00 -0.94618858645E+03  0.22154772014E+04  0.20032639339E+04 0.  0.
        1    1    3    3  502    0  0.33404018563E+03 -0.58410317900E+03  0.34746624192E+03  0.75729265059E+03  0.50400001928E-02 0. -1.
       -1    1    3    3    0  502 -0.33404018563E+03  0.58410317900E+03 -0.12936548284E+04  0.14581845508E+04  0.50400001928E-02 0.  1.
</event>
<event>
 5   0  0.9140695E-06  0.1998771E+04  0.7818609E-02  0.8607195E-01
        1   -1    0    0  501    0  0.00000000000E+00  0.00000000000E+00  0.12093865314E+04  0.12093865314E+04  0.50400001928E-02 0. -1.
       -1   -1    0    0    0  501  0.00000000000E+00  0.00000000000E+00 -0.82584955955E+03  0.82584955957E+03  0.50400001928E-02 0.  1.
    10030    2    1    2    0    0  0.00000000000E+00  0.00000000000E+00  0.38353697181E+03  0.20352360909E+04  0.19987709566E+04 0.  0.
        1    1    3    3  502    0 -0.69870657438E+03 -0.17375312861E+03 -0.51397825830E+03  0.88462120528E+03  0.50400001928E-02 0.  1.
       -1    1    3    3    0  502  0.69870657438E+03  0.17375312861E+03  0.89751523011E+03  0.11506148857E+04  0.50400001928E-02 0. -1.
</event>
<event>
 5   0  0.9333353E-06  0.1994146E+04  0.7818609E-02  0.8609362E-01
        1   -1    0    0  501    0  0.00000000000E+00  0.00000000000E+00  0.25070221733E+04  0.25070221734E+04  0.50400001928E-02 0.  1.
       -1   -1    0    0    0  501  0.00000000000E+00  0.00000000000E+00 -0.39654813083E+03  0.39654813086E+03  0.50400001928E-02 0. -1.
    10030    2    1    2    0    0  0.00000000000E+00  0.00000000000E+00  0.21104740425E+04  0.29035703042E+04  0.19941463907E+04 0.  0.
        2    1    3    3  502    0 -0.24762368082E+03  0.37406559521E+03  0.23517829749E+04  0.23941858152E+04  0.25500000920E-02 0.  1.
       -2    1    3    3    0  502  0.24762368082E+03 -0.37406559521E+03 -0.24130893234E+03  0.50938448902E+03  0.25500000920E-02 0. -1.
</event>
<event>
 5   0  0.9370269E-06  0.2000491E+04  0.7818609E-02  0.8606391E-01
        1   -1    0    0  501    0  0.00000000000E+00  0.00000000000E+00  0.71992236852E+03  0.71992236854E+03  0.50400001928E-02 0.  1.
       -1   -1    0    0    0  501  0.00000000000E+00  0.00000000000E+00 -0.13897205665E+04  0.13897205665E+04  0.50400001928E-02 0. -1.
    10030    2    1    2    0    0  0.00000000000E+00  0.00000000000E+00 -0.66979819800E+03  0.21096429351E+04  0.20004908616E+04 0.  0.
        4    1    3    3  502    0 -0.91862667697E+03 -0.36582234776E+03 -0.49409386965E+03  0.11053647935E+04  0.12699999809E+01 0.  1.
       -4    1    3    3    0  502  0.91862667697E+03  0.36582234776E+03 -0.17570432835E+03  0.10042781416E+04  0.12699999809E+01 0. -1.
</event>
<event>
 5   0  0.9370269E-06  0.2002884E+04  0.7818609E-02  0.8605273E-01
        1   -1    0    0  501    0  0.00000000000E+00  0.00000000000E+00  0.11359847632E+04  0.11359847632E+04  0.50400001928E-02 0. -1.
       -1   -1    0    0    0  501  0.00000000000E+00  0.00000000000E+00 -0.88283410690E+03  0.88283410692E+03  0.50400001928E-02 0.  1.
    10030    2    1    2    0    0  0.00000000000E+00  0.00000000000E+00  0.25315065627E+03  0.20188188701E+04  0.20028840145E+04 0.  0.
        4    1    3    3  502    0 -0.71169489759E+03 -0.40386525515E+03 -0.45531102700E+03  0.93644354650E+03  0.12699999809E+01 0. -1.
       -4    1    3    3    0  502  0.71169489759E+03  0.40386525515E+03  0.70846168327E+03  0.10823753236E+04  0.12699999809E+01 0.  1.
</event>
<event>
 5   0  0.9140695E-06  0.1986741E+04  0.7818609E-02  0.8612845E-01
        1   -1    0    0  501    0  0.00000000000E+00  0.00000000000E+00  0.24062829677E+04  0.24062829677E+04  0.50400001928E-02 0. -1.
       -1   -1    0    0    0  501  0.00000000000E+00  0.00000000000E+00 -0.41008689168E+03  0.41008689171E+03  0.50400001928E-02 0.  1.
    10030    2    1    2    0    0  0.00000000000E+00  0.00000000000E+00  0.19961960760E+04  0.28163698594E+04  0.19867411535E+04 0.  0.
        1    1    3    3  502    0 -0.83198500318E+03  0.50639453752E+03  0.12749829270E+04  0.16044363301E+04  0.50400001928E-02 0. -1.
       -1    1    3    3    0  502  0.83198500318E+03 -0.50639453752E+03  0.72121314897E+03  0.12119335293E+04  0.50400001928E-02 0.  1.
</event>
<event>
 5   0  0.9220260E-06  0.1994732E+04  0.7818609E-02  0.8609088E-01
       -1   -1    0    0    0  501  0.00000000000E+00  0.00000000000E+00  0.16338597930E+04  0.16338597930E+04  0.50400001928E-02 0.  1.
        1   -1    0    0  501    0  0.00000000000E+00  0.00000000000E+00 -0.60882762858E+03  0.60882762861E+03  0.50400001928E-02 0. -1.
    10030    2    1    2    0    0  0.00000000000E+00  0.00000000000E+00  0.10250321644E+04  0.22426874216E+04  0.19947320454E+04 0.  0.
        3    1    3    3  502    0 -0.25302995572E+03  0.70993067607E+02 -0.56920028955E+03  0.62693951380E+03  0.10100000352E+00 0. -1.
       -3    1    3    3    0  502  0.25302995572E+03 -0.70993067607E+02  0.15942324540E+04  0.16157479078E+04  0.10100000352E+00 0.  1.
</event>
<event>
 5   0  0.9370269E-06  0.1995095E+04  0.7818609E-02  0.8608917E-01
       -1   -1    0    0    0  501  0.00000000000E+00  0.00000000000E+00  0.61373099240E+03  0.61373099242E+03  0.50400001928E-02 0.  1.
        1   -1    0    0  501    0  0.00000000000E+00  0.00000000000E+00 -0.16213962587E+04  0.16213962587E+04  0.50400001928E-02 0. -1.
    10030    2    1    2    0    0  0.00000000000E+00  0.00000000000E+00 -0.10076652663E+04  0.22351272512E+04  0.19950951205E+04 0.  0.
        4    1    3    3  502    0  0.63483220061E+03  0.38369154019E+03 -0.12510628515E+04  0.14544383769E+04  0.12699999809E+01 0. -1.
       -4    1    3    3    0  502 -0.63483220061E+03 -0.38369154019E+03  0.24339758520E+03  0.78068887421E+03  0.12699999809E+01 0.  1.
</event>
<event>
 5   0  0.2020029E-05  0.1998319E+04  0.7818609E-02  0.8607407E-01
        2   -1    0    0  501    0  0.00000000000E+00  0.00000000000E+00  0.14359032555E+04  0.14359032555E+04  0.25500000920E-02 0.  1.
       -2   -1    0    0    0  501  0.00000000000E+00  0.00000000000E+00 -0.69525555561E+03  0.69525555561E+03  0.25500000920E-02 0. -1.
    10030    2    1    2    0    0  0.00000000000E+00  0.00000000000E+00  0.74064769988E+03  0.21311588111E+04  0.19983190093E+04 0.  0.
        5    1    3    3  502    0  0.18275028975E+03  0.55912002491E+03  0.12316539186E+04  0.13649199009E+04  0.46999998093E+01 0.  1.
       -5    1    3    3    0  502 -0.18275028975E+03 -0.55912002491E+03 -0.49100621873E+03  0.76623891019E+03  0.46999998093E+01 0. -1.
</event>
<event>
 5   0  0.9333353E-06  0.1998976E+04  0.7818609E-02  0.8607100E-01
        1   -1    0    0  501    0  0.00000000000E+00  0.00000000000E+00  0.10425564030E+04  0.10425564030E+04  0.50400001928E-02 0.  1.
       -1   -1    0    0    0  501  0.00000000000E+00  0.00000000000E+00 -0.95819846469E+03  0.95819846470E+03  0.50400001928E-02 0. -1.
    10030    2    1    2    0    0  0.00000000000E+00  0.00000000000E+00  0.84357938330E+02  0.20007548677E+04  0.19989756824E+04 0.  0.
        2    1    3    3  502    0 -0.63976306291E+00  0.45761963385E+03 -0.84718368165E+03  0.96287918715E+03  0.25500000920E-02 0. -1.
       -2    1    3    3    0  502  0.63976306291E+00 -0.45761963385E+03  0.93154161998E+03  0.10378756806E+04  0.25500000920E-02 0.  1.
</event>
<event>
 5   0  0.9220260E-06  0.2000229E+04  0.7818609E-02  0.8606514E-01
       -1   -1    0    0    0  501  0.00000000000E+00  0.00000000000E+00  0.80797805575E+03  0.80797805577E+03  0.50400001928E-02 0.  1.
        1   -1    0    0  501    0  0.00000000000E+00  0.00000000000E+00 -0.12379406681E+04  0.12379406681E+04  0.50400001928E-02 0. -1.
    10030    2    1    2    0    0  0.00000000000E+00  0.00000000000E+00 -0.42996261231E+03  0.20459187238E+04  0.20002288810E+04 0.  0.
        3    1    3    3  502    0  0.46248980415E+03 -0.38434696326E+03  0.60240312762E+03  0.85118091231E+03  0.10100000352E+00 0.  1.
       -3    1    3    3    0  502 -0.46248980415E+03  0.38434696326E+03 -0.10323657399E+04  0.11947378115E+04  0.10100000352E+00 0. -1.
</event>
<event>
 5   0  0.9333353E-06  0.1990209E+04  0.7818609E-02  0.8611212E-01
       -1   -1    0    0    0  501  0.00000000000E+00  0.00000000000E+00  0.10989491960E+04  0.10989491961E+04  0.50400001928E-02 0. -1.
        1   -1    0    0  501    0  0.00000000000E+00  0.00000000000E+00 -0.90107223456E+03  0.90107223458E+03  0.50400001928E-02 0.  1.
    10030    2    1    2    0    0  0.00000000000E+00  0.00000000000E+00  0.19787696148E+03  0.20000214306E+04  0.19902086401E+04 0.  0.
        2    1    3    3  502    0 -0.99107524426E+03 -0.33823553583E+02  0.15714485164E+02  0.99177674786E+03  0.25500000920E-02 0. -1.
       -2    1    3    3    0  502  0.99107524426E+03  0.33823553583E+02  0.18216247632E+03  0.10082446828E+04  0.25500000920E-02 0.  1.
</event>
<event>
 5   0  0.1999142E-05  0.1939213E+04  0.7818609E-02  0.8635580E-01
       -2   -1    0    0    0  501  0.00000000000E+00  0.00000000000E+00  0.60629478411E+03  0.60629478412E+03  0.25500000920E-02 0. -1.
        2   -1    0    0  501    0  0.00000000000E+00  0.00000000000E+00 -0.15506264170E+04  0.15506264170E+04  0.25500000920E-02 0.  1.
    10030    2    1    2    0    0  0.00000000000E+00  0.00000000000E+00 -0.94433163291E+03  0.21569212011E+04  0.19392129422E+04 0.  0.
        1    1    3    3  502    0  0.28519552994E+03 -0.41815725282E+03 -0.13920206234E+04  0.14811864820E+04  0.50400001928E-02 0.  1.
       -1    1    3    3    0  502 -0.28519552994E+03  0.41815725282E+03  0.44768899053E+03  0.67573471914E+03  0.50400001928E-02 0. -1.
</event>
<event>
 5   0  0.9140695E-06  0.1991455E+04  0.7818609E-02  0.8610626E-01
       -1   -1    0    0    0  501  0.00000000000E+00  0.00000000000E+00  0.12910234332E+04  0.12910234332E+04  0.50400001928E-02 0. -1.
        1   -1    0    0  501    0  0.00000000000E+00  0.00000000000E+00 -0.76797489980E+03  0.76797489982E+03  0.50400001928E-02 0.  1.
    10030    2    1    2    0    0  0.00000000000E+00  0.00000000000E+00  0.52304853340E+03  0.20589983330E+04  0.19914553390E+04 0.  0.
        1    1    3    3  502    0 -0.52665983369E+03  0.51396545405E+02  0.11336138460E+04  0.12510365850E+04  0.50400001928E-02 0. -1.
       -1    1    3    3    0  502  0.52665983369E+03 -0.51396545405E+02 -0.61056531257E+03  0.80796174800E+03  0.50400001928E-02 0.  1.
</event>
<event>
 5   0  0.1979765E-05  0.2002961E+04  0.7818609E-02  0.8605237E-01
        2   -1    0    0  501    0  0.00000000000E+00  0.00000000000E+00  0.21973915665E+04  0.21973915665E+04  0.25500000920E-02 0. -1.
       -2   -1    0    0    0  501  0.00000000000E+00  0.00000000000E+00 -0.45643371867E+03  0.45643371868E+03  0.25500000920E-02 0.  1.
    10030    2    1    2    0    0  0.00000000000E+00  0.00000000000E+00  0.17409578479E+04  0.26538252852E+04  0.20029614116E+04 0.  0.
        2    1    3    3  502    0 -0.66072990513E+03 -0.60328881223E+03  0.27433616191E+03  0.93583210472E+03  0.25500000920E-02 0.  1.
       -2    1    3    3    0  502  0.66072990513E+03  0.60328881223E+03  0.14666216860E+04  0.17179931805E+04  0.25500000920E-02 0. -1.
</event>
<event>
 5   0  0.9342635E-06  0.2002378E+04  0.7818609E-02  0.8605509E-01
       -1   -1    0    0    0  501  0.00000000000E+00  0.00000000000E+00  0.10071530961E+04  0.10071530961E+04  0.50400001928E-02 0.  1.
        1   -1    0    0  501    0  0.00000000000E+00  0.00000000000E+00 -0.99526068216E+03  0.99526068217E+03  0.50400001928E-02 0. -1.
    10030    2    1    2    0    0  0.00000000000E+00  0.00000000000E+00  0.11892413954E+02  0.20024137783E+04  0.20023784632E+04 0.  0.
        5    1    3    3  502    0 -0.71465036218E+02  0.69897455295E+03  0.71918042762E+03  0.10054428152E+04  0.46999998093E+01 0.  1.
       -5    1    3    3    0  502  0.71465036218E+02 -0.69897455295E+03 -0.70728801366E+03  0.99697096314E+03  0.46999998093E+01 0. -1.
</event>
<event>
 5   0  0.9140695E-06  0.1996689E+04  0.7818609E-02  0.8608170E-01
       -1   -1    0    0    0  501  0.00000000000E+00  0.00000000000E+00  0.12990697034E+04  0.12990697034E+04  0.50400001928E-02 0.  1.
        1   -1    0    0  501    0  0.00000000000E+00  0.00000000000E+00 -0.76723504475E+03  0.76723504477E+03  0.50400001928E-02 0. -1.
    10030    2    1    2    0    0  0.00000000000E+00  0.00000000000E+00  0.53183465865E+03  0.20663047482E+04  0.19966890615E+04 0.  0.
        1    1    3    3  502    0 -0.19307885771E+03  0.11741782571E+03 -0.74041981270E+03  0.77413686784E+03  0.50400001928E-02 0. -1.
       -1    1    3    3    0  502  0.19307885771E+03 -0.11741782571E+03  0.12722544713E+04  0.12921678803E+04  0.50400001928E-02 0.  1.
</event>
<event>
 5   0  0.9220260E-06  0.2003804E+04  0.7818609E-02  0.8604844E-01
        1   -1    0    0  501    0  0.00000000000E+00  0.00000000000E+00  0.12305138818E+04  0.12305138818E+04  0.50400001928E-02 0. -1.
       -1   -1    0    0    0  501  0.00000000000E+00  0.00000000000E+00 -0.81576263364E+03  0.81576263366E+03  0.50400001928E-02 0.  1.
    10030    2    1    2    0    0  0.00000000000E+00  0.00000000000E+00  0.41475124815E+03  0.20462765155E+04  0.20038036281E+04 0.  0.
        3    1    3    3  502    0 -0.39427737019E+03 -0.42272067562E+03  0.10430484544E+04  0.11925172966E+04  0.10100000352E+00 0. -1.
       -3    1    3    3    0  502  0.39427737019E+03  0.42272067562E+03 -0.62829720625E+03  0.85375921888E+03  0.10100000352E+00 0.  1.
</event>
<event>
 5   0  0.7132000E-06  0.2005432E+04  0.7818609E-02  0.8604085E-01
       -3   -1    0    0    0  501  0.00000000000E+00  0.00000000000E+00  0.42020761780E+03  0.42020762994E+03  0.10100000352E+00 0. -1.
        3   -1    0    0  501    0  0.00000000000E+00  0.00000000000E+00 -0.23927204485E+04  0.23927204507E+04  0.10100000352E+00 0.  1.
    10030    2    1    2    0    0  0.00000000000E+00  0.00000000000E+00 -0.19725128307E+04  0.28129280806E+04  0.20054320031E+04 0.  0.
        5    1    3    3  502    0  0.18762338578E+01 -0.82529534500E+03 -0.18748029267E+03  0.84633733042E+03  0.46999998093E+01 0. -1.
       -5    1    3    3    0  502 -0.18762338578E+01  0.82529534500E+03 -0.17850325381E+04  0.19665907502E+04  0.46999998093E+01 0.  1.
</event>
<event>
 5   0  0.2038882E-05  0.2006244E+04  0.7818609E-02  0.8603707E-01
        2   -1    0    0  501    0  0.00000000000E+00  0.00000000000E+00  0.19499679256E+04  0.19499679256E+04  0.25500000920E-02 0.  1.
       -2   -1    0    0    0  501  0.00000000000E+00  0.00000000000E+00 -0.51603622429E+03  0.51603622430E+03  0.25500000920E-02 0. -1.
    10030    2    1    2    0    0  0.00000000000E+00  0.00000000000E+00  0.14339317013E+04  0.24660041499E+04  0.20062443379E+04 0.  0.
        3    1    3    3  502    0 -0.25922525518E+03 -0.71578014313E+03  0.15198982815E+04  0.16998910973E+04  0.10100000352E+00 0.  1.
       -3    1    3    3    0  502  0.25922525518E+03  0.71578014313E+03 -0.85966580260E+02  0.76611305258E+03  0.10100000352E+00 0. -1.
</event>
<event>
 5   0  0.2003576E-05  0.2015940E+04  0.7818609E-02  0.8599204E-01
        2   -1    0    0  501    0  0.00000000000E+00  0.00000000000E+00  0.83559793253E+03  0.83559793253E+03  0.25500000920E-02 0.  1.
       -2   -1    0    0    0  501  0.00000000000E+00  0.00000000000E+00 -0.12158994587E+04  0.12158994587E+04  0.25500000920E-02 0. -1.
    10030    2    1    2    0    0  0.00000000000E+00  0.00000000000E+00 -0.38030152612E+03  0.20514973912E+04  0.20159395565E+04 0.  0.
        4    1    3    3  502    0 -0.97604864702E+03  0.24082276555E+03 -0.11582208528E+03  0.10119698286E+04  0.12699999809E+01 0. -1.
       -4    1    3    3    0  502  0.97604864702E+03 -0.24082276555E+03 -0.26447944084E+03  0.10395275625E+04  0.12699999809E+01 0.  1.
</event>
<event>
 5   0  0.9140695E-06  0.1998363E+04  0.7818609E-02  0.8607386E-01
        1   -1    0    0  501    0  0.00000000000E+00  0.00000000000E+00  0.71045710003E+03  0.71045710005E+03  0.50400001928E-02 0. -1.
       -1   -1    0    0    0  501  0.00000000000E+00  0.00000000000E+00 -0.14052416460E+04  0.14052416461E+04  0.50400001928E-02 0.  1.
    10030    2    1    2    0    0  0.00000000000E+00  0.00000000000E+00 -0.69478454601E+03  0.21156987461E+04  0.19983632350E+04 0.  0.
        1    1    3    3  502    0  0.78699929134E+03 -0.49236536925E+03 -0.73864809214E+03  0.11863357642E+04  0.50400001928E-02 0.  1.
       -1    1    3    3    0  502 -0.78699929134E+03  0.49236536925E+03  0.43863546133E+02  0.92936298189E+03  0.50400001928E-02 0. -1.
</event>
<event>
 5   0  0.9342635E-06  0.2001147E+04  0.7818609E-02  0.8606085E-01
        1   -1    0    0  501    0  0.00000000000E+00  0.00000000000E+00  0.81708378818E+03  0.81708378820E+03  0.50400001928E-02 0.  1.
       -1   -1    0    0    0  501  0.00000000000E+00  0.00000000000E+00 -0.12252689080E+04  0.12252689080E+04  0.50400001928E-02 0. -1.
    10030    2    1    2    0    0  0.00000000000E+00  0.00000000000E+00 -0.40818511978E+03  0.20423526962E+04  0.20011470320E+04 0.  0.
        5    1    3    3  502    0  0.23053346365E+03 -0.49099182233E+03 -0.10621824187E+04  0.11926744015E+04  0.46999998093E+01 0. -1.
       -5    1    3    3    0  502 -0.23053346365E+03  0.49099182233E+03  0.65399729889E+03  0.84967829466E+03  0.46999998093E+01 0.  1.
</event>
<event>
 5   0  0.2038882E-05  0.2002369E+04  0.7818609E-02  0.8605514E-01
        2   -1    0    0  501    0  0.00000000000E+00  0.00000000000E+00  0.15882097585E+04  0.15882097585E+04  0.25500000920E-02 0.  1.
       -2   -1    0    0    0  501  0.00000000000E+00  0.00000000000E+00 -0.63113224406E+03  0.63113224407E+03  0.25500000920E-02 0. -1.
    10030    2    1    2    0    0  0.00000000000E+00  0.00000000000E+00  0.95707751440E+03  0.22193420025E+04  0.20023689859E+04 0.  0.
        3    1    3    3  502    0 -0.18422331157E+03 -0.30316991268E+03  0.15162130932E+04  0.15571616418E+04  0.10100000352E+00 0.  1.
       -3    1    3    3    0  502  0.18422331157E+03  0.30316991268E+03 -0.55913557880E+03  0.66218036074E+03  0.10100000352E+00 0. -1.
</event>
<event>
 5   0  0.9370269E-06  0.2002573E+04  0.7818609E-02  0.8605419E-01
        1   -1    0    0  501    0  0.00000000000E+00  0.00000000000E+00  0.73905956079E+03  0.73905956081E+03  0.50400001928E-02 0.  1.
       -1   -1    0    0    0  501  0.00000000000E+00  0.00000000000E+00 -0.13565542508E+04  0.13565542509E+04  0.50400001928E-02 0. -1.
    10030    2    1    2    0    0  0.00000000000E+00  0.00000000000E+00 -0.61749469006E+03  0.20956138117E+04  0.20025727341E+04 0.  0.
        4    1    3    3  502    0  0.89509368595E+03  0.97492697794E+02  0.14963979491E+03  0.91273830525E+03  0.12699999809E+01 0.  1.
       -4    1    3    3    0  502 -0.89509368595E+03 -0.97492697794E+02 -0.76713448497E+03  0.11828755064E+04  0.12699999809E+01 0. -1.
</event>
<event>
 5   0  0.2038882E-05  0.1998729E+04  0.7818609E-02  0.8607215E-01
        2   -1    0    0  501    0  0.00000000000E+00  0.00000000000E+00  0.21130804164E+04  0.21130804164E+04  0.25500000920E-02 0. -1.
       -2   -1    0    0    0  501  0.00000000000E+00  0.00000000000E+00 -0.47264129259E+03  0.47264129260E+03  0.25500000920E-02 0.  1.
    10030    2    1    2    0    0  0.00000000000E+00  0.00000000000E+00  0.16404391238E+04  0.25857217090E+04  0.19987286553E+04 0.  0.
        3    1    3    3  502    0  0.87566627261E+02 -0.81535782686E+03  0.81286611959E+02  0.82406542430E+03  0.10100000352E+00 0.  1.
       -3    1    3    3    0  502 -0.87566627261E+02  0.81535782686E+03  0.15591525119E+04  0.17616562847E+04  0.10100000352E+00 0. -1.
</event>
<event>
 5   0  0.9342635E-06  0.1997415E+04  0.7818609E-02  0.8607830E-01
       -1   -1    0    0    0  501  0.00000000000E+00  0.00000000000E+00  0.65653791141E+03  0.65653791143E+03  0.50400001928E-02 0.  1.
        1   -1    0    0  501    0  0.00000000000E+00  0.00000000000E+00 -0.15192058937E+04  0.15192058937E+04  0.50400001928E-02 0. -1.
    10030    2    1    2    0    0  0.00000000000E+00  0.00000000000E+00 -0.86266798225E+03  0.21757438051E+04  0.19974145934E+04 0.  0.
        5    1    3    3  502    0  0.47913634367E+03 -0.79699519190E+03 -0.34648772342E+02  0.93058884539E+03  0.46999998093E+01 0. -1.
       -5    1    3    3    0  502 -0.47913634367E+03  0.79699519190E+03 -0.82801920991E+03  0.12451549597E+04  0.46999998093E+01 0.  1.
</event>
<event>
 5   0  0.9333353E-06  0.2008479E+04  0.7818609E-02  0.8602667E-01
        1   -1    0    0  501    0  0.00000000000E+00  0.00000000000E+00  0.83113615865E+03  0.83113615867E+03  0.50400001928E-02 0.  1.
       -1   -1    0    0    0  501  0.00000000000E+00  0.00000000000E+00 -0.12133951055E+04  0.12133951055E+04  0.50400001928E-02 0. -1.
    10030    2    1    2    0    0  0.00000000000E+00  0.00000000000E+00 -0.38225894682E+03  0.20445312641E+04  0.20084785754E+04 0.  0.
        2    1    3    3  502    0  0.15538982992E+03  0.39381953400E+03 -0.11181109436E+04  0.11955801549E+04  0.25500000920E-02 0. -1.
       -2    1    3    3    0  502 -0.15538982992E+03 -0.39381953400E+03  0.73585199682E+03  0.84895110921E+03  0.25500000920E-02 0.  1.
</event>
<event>
 5   0  0.2020029E-05  0.1999633E+04  0.7818609E-02  0.8606792E-01
       -2   -1    0    0    0  501  0.00000000000E+00  0.00000000000E+00  0.63848763521E+03  0.63848763522E+03  0.25500000920E-02 0.  1.
        2   -1    0    0  501    0  0.00000000000E+00  0.00000000000E+00 -0.15656262869E+04  0.15656262869E+04  0.25500000920E-02 0. -1.
    10030    2    1    2    0    0  0.00000000000E+00  0.00000000000E+00 -0.92713865168E+03  0.22041139221E+04  0.19996329919E+04 0.  0.
        5    1    3    3  502    0 -0.31112704245E+03  0.59164729752E+03  0.35593974827E+03  0.75733860036E+03  0.46999998093E+01 0.  1.
       -5    1    3    3    0  502  0.31112704245E+03 -0.59164729752E+03 -0.12830784000E+04  0.14467753218E+04  0.46999998093E+01 0. -1.
</event>
<event>
 5   0  0.9140695E-06  0.2000700E+04  0.7818609E-02  0.8606293E-01
       -1   -1    0    0    0  501  0.00000000000E+00  0.00000000000E+00  0.10884171444E+04  0.10884171444E+04  0.50400001928E-02 0.  1.
        1   -1    0    0  501    0  0.00000000000E+00  0.00000000000E+00 -0.91940869219E+03  0.91940869221E+03  0.50400001928E-02 0. -1.
    10030    2    1    2    0    0  0.00000000000E+00  0.00000000000E+00  0.16900845216E+03  0.20078258366E+04  0.20007000608E+04 0.  0.
        1    1    3    3  502    0  0.22327063552E+03  0.74024465248E+03  0.72149971953E+03  0.10575319227E+04  0.50400001928E-02 0.  1.
       -1    1    3    3    0  502 -0.22327063552E+03 -0.74024465248E+03 -0.55249126737E+03  0.95029391388E+03  0.50400001928E-02 0. -1.
</event>
<event>
 5   0  0.9140695E-06  0.1997814E+04  0.7818609E-02  0.8607643E-01
       -1   -1    0    0    0  501  0.00000000000E+00  0.00000000000E+00  0.60798431053E+03  0.60798431055E+03  0.50400001928E-02 0. -1.
        1   -1    0    0  501    0  0.00000000000E+00  0.00000000000E+00 -0.16411853787E+04  0.16411853787E+04  0.50400001928E-02 0.  1.
    10030    2    1    2    0    0  0.00000000000E+00  0.00000000000E+00 -0.10332010681E+04  0.22491696892E+04  0.19978137660E+04 0.  0.
        1    1    3    3  502    0 -0.46586101551E+03  0.87580477873E+03 -0.64863553323E+03  0.11852377615E+04  0.50400001928E-02 0. -1.
       -1    1    3    3    0  502  0.46586101551E+03 -0.87580477873E+03 -0.38456553492E+03  0.10639319278E+04  0.50400001928E-02 0.  1.
</event>
<event>
 5   0  0.2038882E-05  0.1998695E+04  0.7818609E-02  0.8607231E-01
        2   -1    0    0  501    0  0.00000000000E+00  0.00000000000E+00  0.55296507780E+03  0.55296507781E+03  0.25500000920E-02 0. -1.
       -2   -1    0    0    0  501  0.00000000000E+00  0.00000000000E+00 -0.18060733660E+04  0.18060733660E+04  0.25500000920E-02 0.  1.
    10030    2    1    2    0    0  0.00000000000E+00  0.00000000000E+00 -0.12531082882E+04  0.23590384439E+04  0.19986950737E+04 0.  0.
        3    1    3    3  502    0 -0.28573586945E+03  0.94113219425E+03 -0.83543766139E+03  0.12904770011E+04  0.10100000352E+00 0.  1.
       -3    1    3    3    0  502  0.28573586945E+03 -0.94113219425E+03 -0.41767062685E+03  0.10685614427E+04  0.10100000352E+00 0. -1.
</event>
<event>
 5   0  0.9370269E-06  0.1998685E+04  0.7818609E-02  0.8607236E-01
        1   -1    0    0  501    0  0.00000000000E+00  0.00000000000E+00  0.15041158843E+04  0.15041158843E+04  0.50400001928E-02 0. -1.
       -1   -1    0    0    0  501  0.00000000000E+00  0.00000000000E+00 -0.66396825056E+03  0.66396825058E+03  0.50400001928E-02 0.  1.
    10030    2    1    2    0    0  0.00000000000E+00  0.00000000000E+00  0.84014763372E+03  0.21680841349E+04  0.19986847599E+04 0.  0.
        4    1    3    3  502    0  0.71675249730E+03 -0.31170241443E+03 -0.25543452543E+03  0.82227790146E+03  0.12699999809E+01 0.  1.
       -4    1    3    3    0  502 -0.71675249730E+03  0.31170241443E+03  0.10955821592E+04  0.13458062334E+04  0.12699999809E+01 0. -1.
</event>
<event>
 5   0  0.9140695E-06  0.2000468E+04  0.7818609E-02  0.8606402E-01
        1   -1    0    0  501    0  0.00000000000E+00  0.00000000000E+00  0.82357525105E+03  0.82357525107E+03  0.50400001928E-02 0. -1.
       -1   -1    0    0    0  501  0.00000000000E+00  0.00000000000E+00 -0.12147859870E+04  0.12147859870E+04  0.50400001928E-02 0.  1.
    10030    2    1    2    0    0  0.00000000000E+00  0.00000000000E+00 -0.39121073590E+03  0.20383612380E+04  0.20004676195E+04 0.  0.
        1    1    3    3  502    0 -0.49043706059E+02 -0.98571517927E+03 -0.29959134540E+02  0.98738910745E+03  0.50400001928E-02 0. -1.
       -1    1    3    3    0  502  0.49043706059E+02  0.98571517927E+03 -0.36125160136E+03  0.10509721306E+04  0.50400001928E-02 0.  1.
</event>
<event>
 5   0  0.2020029E-05  0.2002117E+04  0.7818609E-02  0.8605632E-01
       -2   -1    0    0    0  501  0.00000000000E+00  0.00000000000E+00  0.49157069663E+03  0.49157069664E+03  0.25500000920E-02 0.  1.
        2   -1    0    0  501    0  0.00000000000E+00  0.00000000000E+00 -0.20386034620E+04  0.20386034620E+04  0.25500000920E-02 0. -1.
    10030    2    1    2    0    0  0.00000000000E+00  0.00000000000E+00 -0.15470327654E+04  0.25301741587E+04  0.20021166040E+04 0.  0.
        5    1    3    3  502    0 -0.94479642848E+03  0.26866161513E+02 -0.35679782974E+03  0.10102914744E+04  0.46999998093E+01 0.  1.
       -5    1    3    3    0  502  0.94479642848E+03 -0.26866161513E+02 -0.11902349357E+04  0.15198826843E+04  0.46999998093E+01 0. -1.
</event>
<event>
 5   0  0.9342635E-06  0.2005498E+04  0.7818609E-02  0.8604055E-01
       -1   -1    0    0    0  501  0.00000000000E+00  0.00000000000E+00  0.91563963835E+03  0.91563963836E+03  0.50400001928E-02 0.  1.
        1   -1    0    0  501    0  0.00000000000E+00  0.00000000000E+00 -0.10981453266E+04  0.10981453266E+04  0.50400001928E-02 0. -1.
    10030    2    1    2    0    0  0.00000000000E+00  0.00000000000E+00 -0.18250568822E+03  0.20137849649E+04  0.20054978332E+04 0.  0.
        5    1    3    3  502    0  0.65322778054E+03 -0.75803732180E+03 -0.26517964948E+02  0.10010256775E+04  0.46999998093E+01 0.  1.
       -5    1    3    3    0  502 -0.65322778054E+03  0.75803732180E+03 -0.15598772327E+03  0.10127592875E+04  0.46999998093E+01 0. -1.
</event>
<event>
 5   0  0.2038882E-05  0.2000244E+04  0.7818609E-02  0.8606507E-01
        2   -1    0    0  501    0  0.00000000000E+00  0.00000000000E+00  0.17230989737E+04  0.17230989737E+04  0.25500000920E-02 0.  1.
       -2   -1    0    0    0  501  0.00000000000E+00  0.00000000000E+00 -0.58049123967E+03  0.58049123968E+03  0.25500000920E-02 0. -1.
    10030    2    1    2    0    0  0.00000000000E+00  0.00000000000E+00  0.11426077340E+04  0.23035902134E+04  0.20002438445E+04 0.  0.
        3    1    3    3  502    0 -0.96679023102E+03  0.32032905202E+02  0.27874188384E+03  0.10066809355E+04  0.10100000352E+00 0. -1.
       -3    1    3    3    0  502  0.96679023102E+03 -0.32032905202E+02  0.86386585019E+03  0.12969092779E+04  0.10100000352E+00 0.  1.
</event>
<event>
 5   0  0.9333353E-06  0.1999978E+04  0.7818609E-02  0.8606631E-01
        1   -1    0    0  501    0  0.00000000000E+00  0.00000000000E+00  0.90682588696E+03  0.90682588698E+03  0.50400001928E-02 0.  1.
       -1   -1    0    0    0  501  0.00000000000E+00  0.00000000000E+00 -0.11027228980E+04  0.11027228980E+04  0.50400001928E-02 0. -1.
    10030    2    1    2    0    0  0.00000000000E+00  0.00000000000E+00 -0.19589701107E+03  0.20095487850E+04  0.19999776700E+04 0.  0.
        2    1    3    3  502    0 -0.36144667333E+03 -0.58412146308E+03 -0.82815607323E+03  0.10759572775E+04  0.25500000920E-02 0. -1.
       -2    1    3    3    0  502  0.36144667333E+03  0.58412146308E+03  0.63225906216E+03  0.93359150756E+03  0.25500000920E-02 0.  1.
</event>
<event>
 5   0  0.9370269E-06  0.2004276E+04  0.7818609E-02  0.8604624E-01
        1   -1    0    0  501    0  0.00000000000E+00  0.00000000000E+00  0.10770800580E+04  0.10770800580E+04  0.50400001928E-02 0. -1.
       -1   -1    0    0    0  501  0.00000000000E+00  0.00000000000E+00 -0.93241043005E+03  0.93241043006E+03  0.50400001928E-02 0.  1.
    10030    2    1    2    0    0  0.00000000000E+00  0.00000000000E+00  0.14466962791E+03  0.20094904880E+04  0.20042761088E+04 0.  0.
        4    1    3    3  502    0  0.42341556464E+02  0.40567360165E+03 -0.84542373053E+03  0.93867287993E+03  0.12699999809E+01 0.  1.
       -4    1    3    3    0  502 -0.42341556464E+02 -0.40567360165E+03  0.99009335843E+03  0.10708176081E+04  0.12699999809E+01 0. -1.
</event>
<event>
 5   0  0.9140695E-06  0.2020679E+04  0.7818609E-02  0.8597013E-01
       -1   -1    0    0    0  501  0.00000000000E+00  0.00000000000E+00  0.11156377614E+04  0.11156377614E+04  0.50400001928E-02 0. -1.
        1   -1    0    0  501    0  0.00000000000E+00  0.00000000000E+00 -0.91497963482E+03  0.91497963483E+03  0.50400001928E-02 0.  1.
    10030    2    1    2    0    0  0.00000000000E+00  0.00000000000E+00  0.20065812660E+03  0.20306173963E+04  0.20206789270E+04 0.  0.
        1    1    3    3  502    0 -0.85083114902E+03  0.19700895416E+03  0.61082330764E+03  0.10657538578E+04  0.50400001928E-02 0. -1.
       -1    1    3    3    0  502  0.85083114902E+03 -0.19700895416E+03 -0.41016518104E+03  0.96486353850E+03  0.50400001928E-02 0.  1.
</event>
<event>
 5   0  0.9370269E-06  0.1999451E+04  0.7818609E-02  0.8606878E-01
        1   -1    0    0  501    0  0.00000000000E+00  0.00000000000E+00  0.19185857903E+04  0.19185857903E+04  0.50400001928E-02 0.  1.
       -1   -1    0    0    0  501  0.00000000000E+00  0.00000000000E+00 -0.52093093992E+03  0.52093093994E+03  0.50400001928E-02 0. -1.
    10030    2    1    2    0    0  0.00000000000E+00  0.00000000000E+00  0.13976548504E+04  0.24395167302E+04  0.19994506236E+04 0.  0.
        4    1    3    3  502    0 -0.43695500459E+03  0.80104293759E+03  0.20045301916E+03  0.93422828564E+03  0.12699999809E+01 0. -1.
       -4    1    3    3    0  502  0.43695500459E+03 -0.80104293759E+03  0.11972018312E+04  0.15052884446E+04  0.12699999809E+01 0.  1.
</event>
<event>
 5   0  0.1979765E-05  0.1997965E+04  0.7818609E-02  0.8607573E-01
       -2   -1    0    0    0  501  0.00000000000E+00  0.00000000000E+00  0.86316427133E+03  0.86316427133E+03  0.25500000920E-02 0. -1.
        2   -1    0    0  501    0  0.00000000000E+00  0.00000000000E+00 -0.11561717380E+04  0.11561717380E+04  0.25500000920E-02 0.  1.
    10030    2    1    2    0    0  0.00000000000E+00  0.00000000000E+00 -0.29300746668E+03  0.20193360093E+04  0.19979651006E+04 0.  0.
        2    1    3    3  502    0  0.50140686294E+03  0.30031426933E+03  0.67232787944E+03  0.89085480301E+03  0.25500000920E-02 0. -1.
       -2    1    3    3    0  502 -0.50140686294E+03 -0.30031426933E+03 -0.96533534612E+03  0.11284812063E+04  0.25500000920E-02 0.  1.
</event>
<event>
 5   0  0.1999142E-05  0.1999921E+04  0.7818609E-02  0.8606658E-01
        2   -1    0    0  501    0  0.00000000000E+00  0.00000000000E+00  0.11503726759E+04  0.11503726759E+04  0.25500000920E-02 0.  1.
       -2   -1    0    0    0  501  0.00000000000E+00  0.00000000000E+00 -0.86921442958E+03  0.86921442959E+03  0.25500000920E-02 0. -1.
    10030    2    1    2    0    0  0.00000000000E+00  0.00000000000E+00  0.28115824628E+03  0.20195871055E+04  0.19999205277E+04 0.  0.
        1    1    3    3  502    0 -0.13091397220E+02  0.99793873081E+03  0.20337936448E+03  0.10185363327E+04  0.50400001928E-02 0. -1.
       -1    1    3    3    0  502  0.13091397220E+02 -0.99793873081E+03  0.77778881806E+02  0.10010507727E+04  0.50400001928E-02 0.  1.
</event>
<event>
 5   0  0.2038882E-05  0.1999637E+04  0.7818609E-02  0.8606791E-01
        2   -1    0    0  501    0  0.00000000000E+00  0.00000000000E+00  0.16949851784E+04  0.16949851784E+04  0.25500000920E-02 0. -1.
       -2   -1    0    0    0  501  0.00000000000E+00  0.00000000000E+00 -0.58976133382E+03  0.58976133382E+03  0.25500000920E-02 0.  1.
    10030    2    1    2    0    0  0.00000000000E+00  0.00000000000E+00  0.11052238446E+04  0.22847465122E+04  0.19996366866E+04 0.  0.
        3    1    3    3  502    0  0.86741598464E+03 -0.42109480642E+03  0.25051782688E+03  0.99623818346E+03  0.10100000352E+00 0.  1.
       -3    1    3    3    0  502 -0.86741598464E+03  0.42109480642E+03  0.85470601772E+03  0.12885083288E+04  0.10100000352E+00 0. -1.
</event>
<event>
 5   0  0.1999142E-05  0.2000135E+04  0.7818609E-02  0.8606558E-01
       -2   -1    0    0    0  501  0.00000000000E+00  0.00000000000E+00  0.61692414063E+03  0.61692414064E+03  0.25500000920E-02 0.  1.
        2   -1    0    0  501    0  0.00000000000E+00  0.00000000000E+00 -0.16211629142E+04  0.16211629142E+04  0.25500000920E-02 0. -1.
    10030    2    1    2    0    0  0.00000000000E+00  0.00000000000E+00 -0.10042387736E+04  0.22380870549E+04  0.20001345332E+04 0.  0.
        1    1    3    3  502    0  0.91280660903E+03  0.37455929685E+03 -0.68469977941E+03  0.12009680930E+04  0.50400001928E-02 0. -1.
       -1    1    3    3    0  502 -0.91280660903E+03 -0.37455929685E+03 -0.31953899419E+03  0.10371189619E+04  0.50400001928E-02 0.  1.
</event>
<event>
 5   0  0.2003576E-05  0.1998194E+04  0.7818609E-02  0.8607465E-01
       -2   -1    0    0    0  501  0.00000000000E+00  0.00000000000E+00  0.43275657648E+03  0.43275657649E+03  0.25500000920E-02 0. -1.
        2   -1    0    0  501    0  0.00000000000E+00  0.00000000000E+00 -0.23065970181E+04  0.23065970181E+04  0.25500000920E-02 0.  1.
    10030    2    1    2    0    0  0.00000000000E+00  0.00000000000E+00 -0.18738404416E+04  0.27393535946E+04  0.19981942137E+04 0.  0.
        4    1    3    3  502    0  0.14033104364E+03 -0.98769302316E+03 -0.10115451625E+04  0.14207235968E+04  0.12699999809E+01 0.  1.
       -4    1    3    3    0  502 -0.14033104364E+03  0.98769302316E+03 -0.86229527909E+03  0.13186299978E+04  0.12699999809E+01 0. -1.
</event>
<event>
 5   0  0.9220260E-06  0.1999162E+04  0.7818609E-02  0.8607012E-01
        1   -1    0    0  501    0  0.00000000000E+00  0.00000000000E+00  0.80008919560E+03  0.80008919562E+03  0.50400001928E-02 0. -1.
       -1   -1    0    0    0  501  0.00000000000E+00  0.00000000000E+00 -0.12488139681E+04  0.12488139681E+04  0.50400001928E-02 0.  1.
    10030    2    1    2    0    0  0.00000000000E+00  0.00000000000E+00 -0.44872477245E+03  0.20489031637E+04  0.19991623878E+04 0.  0.
        3    1    3    3  502    0  0.58753310962E+03 -0.20845371300E+03  0.57643257826E+03  0.84907162998E+03  0.10100000352E+00 0. -1.
       -3    1    3    3    0  502 -0.58753310962E+03  0.20845371300E+03 -0.10251573507E+04  0.11998315337E+04  0.10100000352E+00 0.  1.
</event>
<event>
 5   0  0.9140695E-06  0.2001227E+04  0.7818609E-02  0.8606047E-01
        1   -1    0    0  501    0  0.00000000000E+00  0.00000000000E+00  0.10676800010E+04  0.10676800010E+04  0.50400001928E-02 0.  1.
       -1   -1    0    0    0  501  0.00000000000E+00  0.00000000000E+00 -0.93775979009E+03  0.93775979011E+03  0.50400001928E-02 0. -1.
    10030    2    1    2    0    0  0.00000000000E+00  0.00000000000E+00  0.12992021089E+03  0.20054397911E+04  0.20012269973E+04 0.  0.
        1    1    3    3  502    0  0.66308517750E+03 -0.26106171376E+03  0.76885759392E+03  0.10483211201E+04  0.50400001928E-02 0. -1.
       -1    1    3    3    0  502 -0.66308517750E+03  0.26106171376E+03 -0.63893738303E+03  0.95711867105E+03  0.50400001928E-02 0.  1.
</event>
<event>
 5   0  0.9342635E-06  0.1995490E+04  0.7818609E-02  0.8608732E-01
       -1   -1    0    0    0  501  0.00000000000E+00  0.00000000000E+00  0.43785893152E+03  0.43785893155E+03  0.50400001928E-02 0. -1.
        1   -1    0    0  501    0  0.00000000000E+00  0.00000000000E+00 -0.22735528690E+04  0.22735528690E+04  0.50400001928E-02 0.  1.
    10030    2    1    2    0    0  0.00000000000E+00  0.00000000000E+00 -0.18356939375E+04  0.27114118006E+04  0.19954903458E+04 0.  0.
        5    1    3    3  502    0  0.81834748103E+03  0.49413259440E+03 -0.52967208082E+03  0.10929017448E+04  0.46999998093E+01 0.  1.
       -5    1    3    3    0  502 -0.81834748103E+03 -0.49413259440E+03 -0.13060218567E+04  0.16185100558E+04  0.46999998093E+01 0. -1.
</event>
<event>
 5   0  0.9140695E-06  0.1999312E+04  0.7818609E-02  0.8606942E-01
        1   -1    0    0  501    0  0.00000000000E+00  0.00000000000E+00  0.63723254190E+03  0.63723254192E+03  0.50400001928E-02 0. -1.
       -1   -1    0    0    0  501  0.00000000000E+00  0.00000000000E+00 -0.15682066931E+04  0.15682066931E+04  0.50400001928E-02 0.  1.
    10030    2    1    2    0    0  0.00000000000E+00  0.00000000000E+00 -0.93097415116E+03  0.22054392350E+04  0.19993122190E+04 0.  0.
        1    1    3    3  502    0 -0.98297990175E+03  0.26082103077E+02 -0.66399148526E+03  0.11865135717E+04  0.50400001928E-02 0. -1.
       -1    1    3    3    0  502  0.98297990175E+03 -0.26082103077E+02 -0.26698266590E+03  0.10189256633E+04  0.50400001928E-02 0.  1.
</event>
<event>
 5   0  0.9370269E-06  0.1999281E+04  0.7818609E-02  0.8606957E-01
       -1   -1    0    0    0  501  0.00000000000E+00  0.00000000000E+00  0.10680859370E+04  0.10680859370E+04  0.50400001928E-02 0.  1.
        1   -1    0    0  501    0  0.00000000000E+00  0.00000000000E+00 -0.93558094386E+03  0.93558094387E+03  0.50400001928E-02 0. -1.
    10030    2    1    2    0    0  0.00000000000E+00  0.00000000000E+00  0.13250499315E+03  0.20036668809E+04  0.19992807197E+04 0.  0.
        4    1    3    3  502    0 -0.44200417924E+02  0.97629574196E+03 -0.14438038806E+03  0.98790402473E+03  0.12699999809E+01 0. -1.
       -4    1    3    3    0  502  0.44200417924E+02 -0.97629574196E+03  0.27688538121E+03  0.10157628562E+04  0.12699999809E+01 0.  1.
</event>
<event>
 5   0  0.9220260E-06  0.1998466E+04  0.7818609E-02  0.8607338E-01
       -1   -1    0    0    0  501  0.00000000000E+00  0.00000000000E+00  0.56078774553E+03  0.56078774556E+03  0.50400001928E-02 0.  1.
        1   -1    0    0  501    0  0.00000000000E+00  0.00000000000E+00 -0.17804707219E+04  0.17804707219E+04  0.50400001928E-02 0. -1.
    10030    2    1    2    0    0  0.00000000000E+00  0.00000000000E+00 -0.12196829763E+04  0.23412584674E+04  0.19984655735E+04 0.  0.
        3    1    3    3  502    0 -0.80333555487E+03 -0.27435226668E+03  0.76871270999E+01  0.84892654693E+03  0.10100000352E+00 0.  1.
       -3    1    3    3    0  502  0.80333555487E+03  0.27435226668E+03 -0.12273701034E+04  0.14923319205E+04  0.10100000352E+00 0. -1.
</event>
<event>
 5   0  0.2003576E-05  0.1999425E+04  0.7818609E-02  0.8606890E-01
        2   -1    0    0  501    0  0.00000000000E+00  0.00000000000E+00  0.17121527753E+04  0.17121527753E+04  0.25500000920E-02 0. -1.
       -2   -1    0    0    0  501  0.00000000000E+00  0.00000000000E+00 -0.58372423228E+03  0.58372423228E+03  0.25500000920E-02 0.  1.
    10030    2    1    2    0    0  0.00000000000E+00  0.00000000000E+00  0.11284285430E+04  0.22958770076E+04  0.19994249817E+04 0.  0.
        4    1    3    3  502    0 -0.61714912272E+03  0.76644108916E+03  0.36165477315E+03  0.10483800698E+04  0.12699999809E+01 0. -1.
       -4    1    3    3    0  502  0.61714912272E+03 -0.76644108916E+03  0.76677376988E+03  0.12474969378E+04  0.12699999809E+01 0.  1.
</event>
<event>
 5   0  0.9333353E-06  0.2002094E+04  0.7818609E-02  0.8605642E-01
        1   -1    0    0  501    0  0.00000000000E+00  0.00000000000E+00  0.95401405071E+03  0.95401405073E+03  0.50400001928E-02 0.  1.
       -1   -1    0    0    0  501  0.00000000000E+00  0.00000000000E+00 -0.10503991928E+04  0.10503991928E+04  0.50400001928E-02 0. -1.
    10030    2    1    2    0    0  0.00000000000E+00  0.00000000000E+00 -0.96385142088E+02  0.20044132435E+04  0.20020944921E+04 0.  0.
        2    1    3    3  502    0  0.12987863111E+03  0.37682282797E+03  0.87114741861E+03  0.95799881392E+03  0.25500000920E-02 0.  1.
       -2    1    3    3    0  502 -0.12987863111E+03 -0.37682282797E+03 -0.96753256070E+03  0.10464144296E+04  0.25500000920E-02 0. -1.
</event>
<event>
 5   0  0.9220260E-06  0.2000564E+04  0.7818609E-02  0.8606357E-01
        1   -1    0    0  501    0  0.00000000000E+00  0.00000000000E+00  0.14407548876E+04  0.14407548876E+04  0.50400001928E-02 0. -1.
       -1   -1    0    0    0  501  0.00000000000E+00  0.00000000000E+00 -0.69447230626E+03  0.69447230628E+03  0.50400001928E-02 0.  1.
    10030    2    1    2    0    0  0.00000000000E+00  0.00000000000E+00  0.74628258138E+03  0.21352271939E+04  0.20005642900E+04 0.  0.
        3    1    3    3  502    0  0.41963082824E+03 -0.31720621112E+03 -0.53492432859E+03  0.75023586951E+03  0.10100000352E+00 0.  1.
       -3    1    3    3    0  502 -0.41963082824E+03  0.31720621112E+03  0.12812069100E+04  0.13849913244E+04  0.10100000352E+00 0. -1.
</event>
<event>
 5   0  0.2020029E-05  0.2000319E+04  0.7818609E-02  0.8606472E-01
        2   -1    0    0  501    0  0.00000000000E+00  0.00000000000E+00  0.17495509084E+04  0.17495509084E+04  0.25500000920E-02 0. -1.
       -2   -1    0    0    0  501  0.00000000000E+00  0.00000000000E+00 -0.57175737059E+03  0.57175737059E+03  0.25500000920E-02 0.  1.
    10030    2    1    2    0    0  0.00000000000E+00  0.00000000000E+00  0.11777935378E+04  0.23213082790E+04  0.20003186017E+04 0.  0.
        5    1    3    3  502    0  0.59838871362E+03  0.64945968163E+03  0.11337362985E+04  0.14370967313E+04  0.46999998093E+01 0. -1.
       -5    1    3    3    0  502 -0.59838871362E+03 -0.64945968163E+03  0.44057239283E+02  0.88421154764E+03  0.46999998093E+01 0.  1.
</event>
<event>
 5   0  0.9333353E-06  0.2005798E+04  0.7818609E-02  0.8603915E-01
       -1   -1    0    0    0  501  0.00000000000E+00  0.00000000000E+00  0.88831751487E+03  0.88831751488E+03  0.50400001928E-02 0.  1.
        1   -1    0    0  501    0  0.00000000000E+00  0.00000000000E+00 -0.11322595880E+04  0.11322595880E+04  0.50400001928E-02 0. -1.
    10030    2    1    2    0    0  0.00000000000E+00  0.00000000000E+00 -0.24394207316E+03  0.20205771029E+04  0.20057976203E+04 0.  0.
        2    1    3    3  502    0  0.56343825988E+01 -0.76192641282E+03 -0.77888214416E+03  0.10895967141E+04  0.25500000920E-02 0. -1.
       -2    1    3    3    0  502 -0.56343825988E+01  0.76192641282E+03  0.53494007101E+03  0.93098038884E+03  0.25500000920E-02 0.  1.
</event>
<event>
 5   0  0.9220260E-06  0.1970901E+04  0.7818609E-02  0.8620347E-01
       -1   -1    0    0    0  501  0.00000000000E+00  0.00000000000E+00  0.12882618935E+04  0.12882618935E+04  0.50400001928E-02 0.  1.
        1   -1    0    0  501    0  0.00000000000E+00  0.00000000000E+00 -0.75381639888E+03  0.75381639890E+03  0.50400001928E-02 0. -1.
    10030    2    1    2    0    0  0.00000000000E+00  0.00000000000E+00  0.53444549462E+03  0.20420782924E+04  0.19709012572E+04 0.  0.
        3    1    3    3  502    0  0.13986692246E+03 -0.81392942113E+03  0.82429090772E+03  0.11668330512E+04  0.10100000352E+00 0.  1.
       -3    1    3    3    0  502 -0.13986692246E+03  0.81392942113E+03 -0.28984541310E+03  0.87524524122E+03  0.10100000352E+00 0. -1.
</event>
<event>
 5   0  0.9342635E-06  0.2003206E+04  0.7818609E-02  0.8605123E-01
       -1   -1    0    0    0  501  0.00000000000E+00  0.00000000000E+00  0.63034719518E+03  0.63034719520E+03  0.50400001928E-02 0.  1.
        1   -1    0    0  501    0  0.00000000000E+00  0.00000000000E+00 -0.15915180157E+04  0.15915180157E+04  0.50400001928E-02 0. -1.
    10030    2    1    2    0    0  0.00000000000E+00  0.00000000000E+00 -0.96117082051E+03  0.22218652109E+04  0.20032063471E+04 0.  0.
        5    1    3    3  502    0  0.97166904435E+03 -0.18675130900E+03 -0.65302252330E+03  0.11855282743E+04  0.46999998093E+01 0.  1.
       -5    1    3    3    0  502 -0.97166904435E+03  0.18675130900E+03 -0.30814829722E+03  0.10363369366E+04  0.46999998093E+01 0. -1.
</event>
<event>
 5   0  0.1979765E-05  0.2003983E+04  0.7818609E-02  0.8604761E-01
        2   -1    0    0  501    0  0.00000000000E+00  0.00000000000E+00  0.12848981545E+04  0.12848981545E+04  0.25500000920E-02 0.  1.
       -2   -1    0    0    0  501  0.00000000000E+00  0.00000000000E+00 -0.78137435842E+03  0.78137435842E+03  0.25500000920E-02 0. -1.
    10030    2    1    2    0    0  0.00000000000E+00  0.00000000000E+00  0.50352379611E+03  0.20662725130E+04  0.20039825060E+04 0.  0.
        2    1    3    3  502    0  0.34532672444E+03 -0.16491363756E+03 -0.70305636695E+03  0.80045943656E+03  0.25500000920E-02 0. -1.
       -2    1    3    3    0  502 -0.34532672444E+03  0.16491363756E+03  0.12065801631E+04  0.12658130764E+04  0.25500000920E-02 0.  1.
</event>
<event>
 5   0  0.1979765E-05  0.1995474E+04  0.7818609E-02  0.8608740E-01
       -2   -1    0    0    0  501  0.00000000000E+00  0.00000000000E+00  0.41610809843E+03  0.41610809844E+03  0.25500000920E-02 0. -1.
        2   -1    0    0  501    0  0.00000000000E+00  0.00000000000E+00 -0.23923559109E+04  0.23923559109E+04  0.25500000920E-02 0.  1.
    10030    2    1    2    0    0  0.00000000000E+00  0.00000000000E+00 -0.19762478125E+04  0.28084640094E+04  0.19954735467E+04 0.  0.
        2    1    3    3  502    0 -0.80831348390E+03 -0.37071262161E+03 -0.16248618534E+04  0.18522890106E+04  0.25500000920E-02 0.  1.
       -2    1    3    3    0  502  0.80831348390E+03  0.37071262161E+03 -0.35138595912E+03  0.95617499880E+03  0.25500000920E-02 0. -1.
</event>
<event>
 5   0  0.2020029E-05  0.2005556E+04  0.7818609E-02  0.8604028E-01
        2   -1    0    0  501    0  0.00000000000E+00  0.00000000000E+00  0.10978069105E+04  0.10978069105E+04  0.25500000920E-02 0. -1.
       -2   -1    0    0    0  501  0.00000000000E+00  0.00000000000E+00 -0.91597462915E+03  0.91597462915E+03  0.25500000920E-02 0.  1.
    10030    2    1    2    0    0  0.00000000000E+00  0.00000000000E+00  0.18183228134E+03  0.20137815396E+04  0.20055555617E+04 0.  0.
        5    1    3    3  502    0  0.48017472735E+03  0.49194178782E+03  0.82395617386E+03  0.10730798469E+04  0.46999998093E+01 0. -1.
       -5    1    3    3    0  502 -0.48017472735E+03 -0.49194178782E+03 -0.64212389252E+03  0.94070169274E+03  0.46999998093E+01 0.  1.
</event>
<event>
 5   0  0.2003576E-05  0.1999248E+04  0.7818609E-02  0.8606972E-01
       -2   -1    0    0    0  501  0.00000000000E+00  0.00000000000E+00  0.75712758205E+03  0.75712758205E+03  0.25500000920E-02 0. -1.
        2   -1    0    0  501    0  0.00000000000E+00  0.00000000000E+00 -0.13197884439E+04  0.13197884439E+04  0.25500000920E-02 0.  1.
    10030    2    1    2    0    0  0.00000000000E+00  0.00000000000E+00 -0.56266086184E+03  0.20769160259E+04  0.19992480920E+04 0.  0.
        4    1    3    3  502    0  0.67562698935E+03 -0.39611570230E+03 -0.92664451905E+03  0.12132811529E+04  0.12699999809E+01 0. -1.
       -4    1    3    3    0  502 -0.67562698935E+03  0.39611570230E+03  0.36398365721E+03  0.86363487306E+03  0.12699999809E+01 0.  1.
</event>
<event>
 5   0  0.9140695E-06  0.1999792E+04  0.7818609E-02  0.8606718E-01
        1   -1    0    0  501    0  0.00000000000E+00  0.00000000000E+00  0.11538667559E+04  0.11538667559E+04  0.50400001928E-02 0.  1.
       -1   -1    0    0    0  501  0.00000000000E+00  0.00000000000E+00 -0.86647068916E+03  0.86647068917E+03  0.50400001928E-02 0. -1.
    10030    2    1    2    0    0  0.00000000000E+00  0.00000000000E+00  0.28739606675E+03  0.20203374451E+04  0.19997917124E+04 0.  0.
        1    1    3    3  502    0 -0.31672514751E+03 -0.86551489817E+03 -0.24804975823E+03  0.95444200484E+03  0.50400001928E-02 0. -1.
       -1    1    3    3    0  502  0.31672514751E+03  0.86551489817E+03  0.53544582498E+03  0.10658954402E+04  0.50400001928E-02 0.  1.
</event>
<event>
 5   0  0.2003576E-05  0.2001824E+04  0.7818609E-02  0.8605768E-01
       -2   -1    0    0    0  501  0.00000000000E+00  0.00000000000E+00  0.72697040210E+03  0.72697040211E+03  0.25500000920E-02 0. -1.
        2   -1    0    0  501    0  0.00000000000E+00  0.00000000000E+00 -0.13780821885E+04  0.13780821885E+04  0.25500000920E-02 0.  1.
    10030    2    1    2    0    0  0.00000000000E+00  0.00000000000E+00 -0.65111178642E+03  0.21050525906E+04  0.20018241309E+04 0.  0.
        4    1    3    3  502    0  0.89585408934E+02 -0.61680125219E+02  0.72073675193E+03  0.72889852643E+03  0.12699999809E+01 0. -1.
       -4    1    3    3    0  502 -0.89585408934E+02  0.61680125219E+02 -0.13718485384E+04  0.13761540642E+04  0.12699999809E+01 0.  1.
</event>
<event>
 5   0  0.9370269E-06  0.1999374E+04  0.7818609E-02  0.8606913E-01
       -1   -1    0    0    0  501  0.00000000000E+00  0.00000000000E+00  0.94616568069E+03  0.94616568070E+03  0.50400001928E-02 0.  1.
        1   -1    0    0  501    0  0.00000000000E+00  0.00000000000E+00 -0.10562362657E+04  0.10562362657E+04  0.50400001928E-02 0. -1.
    10030    2    1    2    0    0  0.00000000000E+00  0.00000000000E+00 -0.11007058503E+03  0.20024019464E+04  0.19993744075E+04 0.  0.
        4    1    3    3  502    0  0.29566120833E+03  0.13651641947E+03  0.89155229828E+03  0.94916773879E+03  0.12699999809E+01 0.  1.
       -4    1    3    3    0  502 -0.29566120833E+03 -0.13651641947E+03 -0.10016228833E+04  0.10532342076E+04  0.12699999809E+01 0. -1.
</event>
<event>
 5   0  0.1999142E-05  0.1997426E+04  0.7818609E-02  0.8607825E-01
       -2   -1    0    0    0  501  0.00000000000E+00  0.00000000000E+00  0.10290243326E+04  0.10290243326E+04  0.25500000920E-02 0.  1.
        2   -1    0    0  501    0  0.00000000000E+00  0.00000000000E+00 -0.96929446598E+03  0.96929446599E+03  0.25500000920E-02 0. -1.
    10030    2    1    2    0    0  0.00000000000E+00  0.00000000000E+00  0.59729866649E+02  0.19983187986E+04  0.19974259345E+04 0.  0.
        1    1    3    3  502    0 -0.62999639551E+02 -0.37395389647E+03 -0.89446208485E+03  0.97153121027E+03  0.50400001928E-02 0. -1.
       -1    1    3    3    0  502  0.62999639551E+02  0.37395389647E+03  0.95419195150E+03  0.10267875884E+04  0.50400001928E-02 0.  1.
</event>
<event>
 5   0  0.9220260E-06  0.2000847E+04  0.7818609E-02  0.8606225E-01
       -1   -1    0    0    0  501  0.00000000000E+00  0.00000000000E+00  0.56454352922E+03  0.56454352924E+03  0.50400001928E-02 0. -1.
        1   -1    0    0  501    0  0.00000000000E+00  0.00000000000E+00 -0.17728432890E+04  0.17728432890E+04  0.50400001928E-02 0.  1.
    10030    2    1    2    0    0  0.00000000000E+00  0.00000000000E+00 -0.12082997598E+04  0.23373868182E+04  0.20008470278E+04 0.  0.
        3    1    3    3  502    0  0.75577874164E+03  0.56729291400E+03 -0.22055278417E+03  0.97039491826E+03  0.10100000352E+00 0. -1.
       -3    1    3    3    0  502 -0.75577874164E+03 -0.56729291400E+03 -0.98774697560E+03  0.13669919000E+04  0.10100000352E+00 0.  1.
</event>
<event>
 5   0  0.2038882E-05  0.1992175E+04  0.7818609E-02  0.8610288E-01
        2   -1    0    0  501    0  0.00000000000E+00  0.00000000000E+00  0.17290166889E+04  0.17290166889E+04  0.25500000920E-02 0. -1.
       -2   -1    0    0    0  501  0.00000000000E+00  0.00000000000E+00 -0.57384641030E+03  0.57384641031E+03  0.25500000920E-02 0.  1.
    10030    2    1    2    0    0  0.00000000000E+00  0.00000000000E+00  0.11551702786E+04  0.23028630992E+04  0.19921747115E+04 0.  0.
        3    1    3    3  502    0 -0.56299745094E+02  0.15801572455E+03 -0.55740160167E+03  0.58209551299E+03  0.10100000352E+00 0.  1.
       -3    1    3    3    0  502  0.56299745094E+02 -0.15801572455E+03  0.17125718803E+04  0.17207675862E+04  0.10100000352E+00 0. -1.
</event>
<event>
 5   0  0.9342635E-06  0.1994980E+04  0.7818609E-02  0.8608971E-01
        1   -1    0    0  501    0  0.00000000000E+00  0.00000000000E+00  0.14672315103E+04  0.14672315103E+04  0.50400001928E-02 0.  1.
       -1   -1    0    0    0  501  0.00000000000E+00  0.00000000000E+00 -0.67813861439E+03  0.67813861441E+03  0.50400001928E-02 0. -1.
    10030    2    1    2    0    0  0.00000000000E+00  0.00000000000E+00  0.78909289590E+03  0.21453701247E+04  0.19949800434E+04 0.  0.
        5    1    3    3  502    0  0.32782130957E+03 -0.35675941425E+03  0.13321804863E+04  0.14175581218E+04  0.46999998093E+01 0.  1.
       -5    1    3    3    0  502 -0.32782130957E+03  0.35675941425E+03 -0.54308759041E+03  0.72781200287E+03  0.46999998093E+01 0. -1.
</event>
<event>
 5   0  0.1999142E-05  0.2008435E+04  0.7818609E-02  0.8602687E-01
        2   -1    0    0  501    0  0.00000000000E+00  0.00000000000E+00  0.13499505770E+04  0.13499505770E+04  0.25500000920E-02 0. -1.
       -2   -1    0    0    0  501  0.00000000000E+00  0.00000000000E+00 -0.74702953849E+03  0.74702953850E+03  0.25500000920E-02 0.  1.
    10030    2    1    2    0    0  0.00000000000E+00  0.00000000000E+00  0.60292103853E+03  0.20969801155E+04  0.20084351685E+04 0.  0.
        1    1    3    3  502    0 -0.34620971423E+03 -0.75784291907E+03  0.88676941524E+03  0.12167773223E+04  0.50400001928E-02 0. -1.
       -1    1    3    3    0  502  0.34620971423E+03  0.75784291907E+03 -0.28384837672E+03  0.88020279322E+03  0.50400001928E-02 0.  1.
</event>
<event>
 5   0  0.2038882E-05  0.2002518E+04  0.7818609E-02  0.8605445E-01
        2   -1    0    0  501    0  0.00000000000E+00  0.00000000000E+00  0.14190513001E+04  0.14190513001E+04  0.25500000920E-02 0.  1.
       -2   -1    0    0    0  501  0.00000000000E+00  0.00000000000E+00 -0.70647135143E+03  0.70647135144E+03  0.25500000920E-02 0. -1.
    10030    2    1    2    0    0  0.00000000000E+00  0.00000000000E+00  0.71257994868E+03  0.21255226515E+04  0.20025175053E+04 0.  0.
        3    1    3    3  502    0 -0.78276275724E+02 -0.74670226496E+03  0.10594212230E+04  0.12984855740E+04  0.10100000352E+00 0.  1.
       -3    1    3    3    0  502  0.78276275724E+02  0.74670226496E+03 -0.34684127437E+03  0.82703707755E+03  0.10100000352E+00 0. -1.
</event>
<event>
 5   0  0.9342635E-06  0.1995809E+04  0.7818609E-02  0.8608582E-01
       -1   -1    0    0    0  501  0.00000000000E+00  0.00000000000E+00  0.59215220907E+03  0.59215220909E+03  0.50400001928E-02 0. -1.
        1   -1    0    0  501    0  0.00000000000E+00  0.00000000000E+00 -0.16816855266E+04  0.16816855266E+04  0.50400001928E-02 0.  1.
    10030    2    1    2    0    0  0.00000000000E+00  0.00000000000E+00 -0.10895333175E+04  0.22738377357E+04  0.19958094093E+04 0.  0.
        5    1    3    3  502    0  0.98913939809E+03  0.96116851873E+02 -0.64766126989E+03  0.11862219053E+04  0.46999998093E+01 0.  1.
       -5    1    3    3    0  502 -0.98913939809E+03 -0.96116851873E+02 -0.44187204765E+03  0.10876158304E+04  0.46999998093E+01 0. -1.
</event>
<event>
 5   0  0.9370269E-06  0.2001991E+04  0.7818609E-02  0.8605690E-01
        1   -1    0    0  501    0  0.00000000000E+00  0.00000000000E+00  0.19097466491E+04  0.19097466491E+04  0.50400001928E-02 0.  1.
       -1   -1    0    0    0  501  0.00000000000E+00  0.00000000000E+00 -0.52467277170E+03  0.52467277172E+03  0.50400001928E-02 0. -1.
    10030    2    1    2    0    0  0.00000000000E+00  0.00000000000E+00  0.13850738774E+04  0.24344194209E+04  0.20019910766E+04 0.  0.
        4    1    3    3  502    0 -0.68510032425E+03 -0.72875396240E+03  0.64473003235E+03  0.11900097561E+04  0.12699999809E+01 0. -1.
       -4    1    3    3    0  502  0.68510032425E+03  0.72875396240E+03  0.74034384508E+03  0.12444096648E+04  0.12699999809E+01 0.  1.
</event>
<event>
 5   0  0.9333353E-06  0.1997758E+04  0.7818609E-02  0.8607670E-01
        1   -1    0    0  501    0  0.00000000000E+00  0.00000000000E+00  0.20898590710E+04  0.20898590710E+04  0.50400001928E-02 0. -1.
       -1   -1    0    0    0  501  0.00000000000E+00  0.00000000000E+00 -0.47742887546E+03  0.47742887549E+03  0.50400001928E-02 0.  1.
    10030    2    1    2    0    0  0.00000000000E+00  0.00000000000E+00  0.16124301956E+04  0.25672879465E+04  0.19977578093E+04 0.  0.
        2    1    3    3  502    0  0.91244615413E+03 -0.37498914421E+03  0.10077081124E+04  0.14101951930E+04  0.25500000920E-02 0.  1.
       -2    1    3    3    0  502 -0.91244615413E+03  0.37498914421E+03  0.60472208317E+03  0.11570927536E+04  0.25500000920E-02 0. -1.
</event>
<event>
 5   0  0.2003576E-05  0.1996876E+04  0.7818609E-02  0.8608082E-01
       -2   -1    0    0    0  501  0.00000000000E+00  0.00000000000E+00  0.67893640905E+03  0.67893640906E+03  0.25500000920E-02 0. -1.
        2   -1    0    0  501    0  0.00000000000E+00  0.00000000000E+00 -0.14682949487E+04  0.14682949488E+04  0.25500000920E-02 0.  1.
    10030    2    1    2    0    0  0.00000000000E+00  0.00000000000E+00 -0.78935853970E+03  0.21472313578E+04  0.19968764608E+04 0.  0.
        4    1    3    3  502    0  0.37126112026E+03  0.85572343913E+02 -0.13870547514E+04  0.14384296791E+04  0.12699999809E+01 0.  1.
       -4    1    3    3    0  502 -0.37126112026E+03 -0.85572343913E+02  0.59769621166E+03  0.70880167874E+03  0.12699999809E+01 0. -1.
</event>
<event>
 5   0  0.1999142E-05  0.1995390E+04  0.7818609E-02  0.8608779E-01
        2   -1    0    0  501    0  0.00000000000E+00  0.00000000000E+00  0.12811873880E+04  0.12811873880E+04  0.25500000920E-02 0. -1.
       -2   -1    0    0    0  501  0.00000000000E+00  0.00000000000E+00 -0.77693177026E+03  0.77693177027E+03  0.25500000920E-02 0.  1.
    10030    2    1    2    0    0  0.00000000000E+00  0.00000000000E+00  0.50425561773E+03  0.20581191583E+04  0.19953898721E+04 0.  0.
        1    1    3    3  502    0 -0.93206639520E+03  0.34721329434E+03  0.33262186751E+03  0.10487812658E+04  0.50400001928E-02 0.  1.
       -1    1    3    3    0  502  0.93206639520E+03 -0.34721329434E+03  0.17163375022E+03  0.10093378924E+04  0.50400001928E-02 0. -1.
</event>
<event>
 5   0  0.9140695E-06  0.2000715E+04  0.7818609E-02  0.8606286E-01
        1   -1    0    0  501    0  0.00000000000E+00  0.00000000000E+00  0.10417812092E+04  0.10417812092E+04  0.50400001928E-02 0. -1.
       -1   -1    0    0    0  501  0.00000000000E+00  0.00000000000E+00 -0.96058120896E+03  0.96058120897E+03  0.50400001928E-02 0.  1.
    10030    2    1    2    0    0  0.00000000000E+00  0.00000000000E+00  0.81200000200E+02  0.20023624181E+04  0.20007153255E+04 0.  0.
        1    1    3    3  502    0 -0.23455336763E+03  0.84407728185E+03  0.52394034772E+03  0.10207816750E+04  0.50400001928E-02 0. -1.
       -1    1    3    3    0  502  0.23455336763E+03 -0.84407728185E+03 -0.44274034752E+03  0.98158074316E+03  0.50400001928E-02 0.  1.
</event>
<event>
 5   0  0.2020029E-05  0.1977126E+04  0.7818609E-02  0.8617390E-01
       -2   -1    0    0    0  501  0.00000000000E+00  0.00000000000E+00  0.13073036369E+04  0.13073036369E+04  0.25500000920E-02 0.  1.
        2   -1    0    0  501    0  0.00000000000E+00  0.00000000000E+00 -0.74753590404E+03  0.74753590405E+03  0.25500000920E-02 0. -1.
    10030    2    1    2    0    0  0.00000000000E+00  0.00000000000E+00  0.55976773288E+03  0.20548395410E+04  0.19771255965E+04 0.  0.
        5    1    3    3  502    0  0.34324931605E+03  0.50826305652E+03  0.10856533914E+04  0.12469229342E+04  0.46999998093E+01 0.  1.
       -5    1    3    3    0  502 -0.34324931605E+03 -0.50826305652E+03 -0.52588565855E+03  0.80791660675E+03  0.46999998093E+01 0. -1.
</event>
<event>
 5   0  0.9370269E-06  0.2000288E+04  0.7818609E-02  0.8606486E-01
        1   -1    0    0  501    0  0.00000000000E+00  0.00000000000E+00  0.21476141136E+04  0.21476141136E+04  0.50400001928E-02 0. -1.
       -1   -1    0    0    0  501  0.00000000000E+00  0.00000000000E+00 -0.46576695011E+03  0.46576695013E+03  0.50400001928E-02 0.  1.
    10030    2    1    2    0    0  0.00000000000E+00  0.00000000000E+00  0.16818471635E+04  0.26133810637E+04  0.20002876550E+04 0.  0.
        4    1    3    3  502    0  0.27714751392E+03  0.86653193031E+03  0.13837085697E+04  0.16560010113E+04  0.12699999809E+01 0. -1.
       -4    1    3    3    0  502 -0.27714751392E+03 -0.86653193031E+03  0.29813859374E+03  0.95738005238E+03  0.12699999809E+01 0.  1.
</event>
<event>
 5   0  0.9220260E-06  0.1998562E+04  0.7818609E-02  0.8607293E-01
        1   -1    0    0  501    0  0.00000000000E+00  0.00000000000E+00  0.16003291311E+04  0.16003291311E+04  0.50400001928E-02 0.  1.
       -1   -1    0    0    0  501  0.00000000000E+00  0.00000000000E+00 -0.62397312141E+03  0.62397312143E+03  0.50400001928E-02 0. -1.
    10030    2    1    2    0    0  0.00000000000E+00  0.00000000000E+00  0.97635600971E+03  0.22243022526E+04  0.19985618462E+04 0.  0.
        3    1    3    3  502    0  0.53249960817E+03  0.60595990874E+03  0.11445543613E+04  0.14002670959E+04  0.10100000352E+00 0.  1.
       -3    1    3    3    0  502 -0.53249960817E+03 -0.60595990874E+03 -0.16819835161E+03  0.82403515664E+03  0.10100000352E+00 0. -1.
</event>
<event>
 5   0  0.7132000E-06  0.1986721E+04  0.7818609E-02  0.8612854E-01
       -3   -1    0    0    0  501  0.00000000000E+00  0.00000000000E+00  0.95620950376E+03  0.95620950909E+03  0.10100000352E+00 0. -1.
        3   -1    0    0  501    0  0.00000000000E+00  0.00000000000E+00 -0.10319545146E+04  0.10319545195E+04  0.10100000352E+00 0.  1.
    10030    2    1    2    0    0  0.00000000000E+00  0.00000000000E+00 -0.75745010808E+02  0.19881640286E+04  0.19867206391E+04 0.  0.
        5    1    3    3  502    0  0.26963724038E+03  0.50626847293E+03 -0.84946765117E+03  0.10250021407E+04  0.46999998093E+01 0.  1.
       -5    1    3    3    0  502 -0.26963724038E+03 -0.50626847293E+03  0.77372264036E+03  0.96316188789E+03  0.46999998093E+01 0. -1.
</event>
<event>
 5   0  0.9333353E-06  0.2000878E+04  0.7818609E-02  0.8606210E-01
       -1   -1    0    0    0  501  0.00000000000E+00  0.00000000000E+00  0.72194754723E+03  0.72194754725E+03  0.50400001928E-02 0.  1.
        1   -1    0    0  501    0  0.00000000000E+00  0.00000000000E+00 -0.13863585583E+04  0.13863585583E+04  0.50400001928E-02 0. -1.
    10030    2    1    2    0    0  0.00000000000E+00  0.00000000000E+00 -0.66441101107E+03  0.21083061056E+04  0.20008779681E+04 0.  0.
        2    1    3    3  502    0  0.65422112333E+03  0.26878341331E+03 -0.10777452287E+04  0.12891022378E+04  0.25500000920E-02 0. -1.
       -2    1    3    3    0  502 -0.65422112333E+03 -0.26878341331E+03  0.41333421763E+03  0.81920386776E+03  0.25500000920E-02 0.  1.
</event>
<event>
 5   0  0.2003576E-05  0.1999085E+04  0.7818609E-02  0.8607049E-01
       -2   -1    0    0    0  501  0.00000000000E+00  0.00000000000E+00  0.49609530282E+03  0.49609530283E+03  0.25500000920E-02 0.  1.
        2   -1    0    0  501    0  0.00000000000E+00  0.00000000000E+00 -0.20138973638E+04  0.20138973638E+04  0.25500000920E-02 0. -1.
    10030    2    1    2    0    0  0.00000000000E+00  0.00000000000E+00 -0.15178020609E+04  0.25099926666E+04  0.19990848131E+04 0.  0.
        4    1    3    3  502    0 -0.42754080865E+03  0.34275638694E+03  0.29069188229E+03  0.62030352827E+03  0.12699999809E+01 0.  1.
       -4    1    3    3    0  502  0.42754080865E+03 -0.34275638694E+03 -0.18084939432E+04  0.18896891383E+04  0.12699999809E+01 0. -1.
</event>
<event>
 5   0  0.9140695E-06  0.1994350E+04  0.7818609E-02  0.8609267E-01
       -1   -1    0    0    0  501  0.00000000000E+00  0.00000000000E+00  0.73184205365E+03  0.73184205367E+03  0.50400001928E-02 0. -1.
        1   -1    0    0  501    0  0.00000000000E+00  0.00000000000E+00 -0.13587056901E+04  0.13587056901E+04  0.50400001928E-02 0.  1.
    10030    2    1    2    0    0  0.00000000000E+00  0.00000000000E+00 -0.62686363642E+03  0.20905477437E+04  0.19943499819E+04 0.  0.
        1    1    3    3  502    0  0.97645652027E+03 -0.55395305263E+02 -0.10957235064E+03  0.98414535303E+03  0.50400001928E-02 0.  1.
       -1    1    3    3    0  502 -0.97645652027E+03  0.55395305263E+02 -0.51729128578E+03  0.11064023907E+04  0.50400001928E-02 0. -1.
</event>
<event>
 5   0  0.9220260E-06  0.1998601E+04  0.7818609E-02  0.8607275E-01
       -1   -1    0    0    0  501  0.00000000000E+00  0.00000000000E+00  0.98189682204E+03  0.98189682205E+03  0.50400001928E-02 0.  1.
        1   -1    0    0  501    0  0.00000000000E+00  0.00000000000E+00 -0.10170130080E+04  0.10170130080E+04  0.50400001928E-02 0. -1.
    10030    2    1    2    0    0  0.00000000000E+00  0.00000000000E+00 -0.35116185917E+02  0.19989098300E+04  0.19986013515E+04 0.  0.
        3    1    3    3  502    0 -0.68547725990E+02 -0.59716102295E+03 -0.81599312409E+03  0.10134815572E+04  0.10100000352E+00 0. -1.
       -3    1    3    3    0  502  0.68547725990E+02  0.59716102295E+03  0.78087693817E+03  0.98542827280E+03  0.10100000352E+00 0.  1.
</event>
<event>
 5   0  0.1979765E-05  0.1999195E+04  0.7818609E-02  0.8606997E-01
       -2   -1    0    0    0  501  0.00000000000E+00  0.00000000000E+00  0.59414555760E+03  0.59414555760E+03  0.25500000920E-02 0.  1.
        2   -1    0    0  501    0  0.00000000000E+00  0.00000000000E+00 -0.16817343696E+04  0.16817343696E+04  0.25500000920E-02 0. -1.
    10030    2    1    2    0    0  0.00000000000E+00  0.00000000000E+00 -0.10875888120E+04  0.22758799272E+04  0.19991948427E+04 0.  0.
        2    1    3    3  502    0  0.72649156735E+02 -0.12053363401E+02 -0.16786420534E+04  0.16802566254E+04  0.25500000920E-02 0. -1.
       -2    1    3    3    0  502 -0.72649156735E+02  0.12053363401E+02  0.59105324140E+03  0.59562330186E+03  0.25500000920E-02 0.  1.
</event>
<event>
 5   0  0.2003576E-05  0.1997346E+04  0.7818609E-02  0.8607863E-01
       -2   -1    0    0    0  501  0.00000000000E+00  0.00000000000E+00  0.10750449862E+04  0.10750449862E+04  0.25500000920E-02 0. -1.
        2   -1    0    0  501    0  0.00000000000E+00  0.00000000000E+00 -0.92772630910E+03  0.92772630911E+03  0.25500000920E-02 0.  1.
    10030    2    1    2    0    0  0.00000000000E+00  0.00000000000E+00  0.14731867707E+03  0.20027712953E+04  0.19973457559E+04 0.  0.
        4    1    3    3  502    0 -0.87789583978E+02 -0.94488150681E+03  0.38569241608E+03  0.10243379939E+04  0.12699999809E+01 0. -1.
       -4    1    3    3    0  502  0.87789583978E+02  0.94488150681E+03 -0.23837373901E+03  0.97843330141E+03  0.12699999809E+01 0.  1.
</event>
<event>
 5   0  0.9342635E-06  0.2001500E+04  0.7818609E-02  0.8605920E-01
       -1   -1    0    0    0  501  0.00000000000E+00  0.00000000000E+00  0.75961166606E+03  0.75961166607E+03  0.50400001928E-02 0.  1.
        1   -1    0    0  501    0  0.00000000000E+00  0.00000000000E+00 -0.13184376448E+04  0.13184376448E+04  0.50400001928E-02 0. -1.
    10030    2    1    2    0    0  0.00000000000E+00  0.00000000000E+00 -0.55882597876E+03  0.20780493109E+04  0.20015000535E+04 0.  0.
        5    1    3    3  502    0  0.84529506864E+03  0.11917837938E+03 -0.82164312025E+03  0.11848403885E+04  0.46999998093E+01 0. -1.
       -5    1    3    3    0  502 -0.84529506864E+03 -0.11917837938E+03  0.26281714150E+03  0.89320892239E+03  0.46999998093E+01 0.  1.
</event>
<event>
 5   0  0.2003576E-05  0.2003051E+04  0.7818609E-02  0.8605196E-01
        2   -1    0    0  501    0  0.00000000000E+00  0.00000000000E+00  0.15615465270E+04  0.15615465270E+04  0.25500000920E-02 0. -1.
       -2   -1    0    0    0  501  0.00000000000E+00  0.00000000000E+00 -0.64234585761E+03  0.64234585761E+03  0.25500000920E-02 0.  1.
    10030    2    1    2    0    0  0.00000000000E+00  0.00000000000E+00  0.91920066940E+03  0.22038923846E+04  0.20030506165E+04 0.  0.
        4    1    3    3  502    0 -0.83607308780E+03  0.52127177858E+03  0.26183086761E+03  0.10194603923E+04  0.12699999809E+01 0. -1.
       -4    1    3    3    0  502  0.83607308780E+03 -0.52127177858E+03  0.65736980178E+03  0.11844319923E+04  0.12699999809E+01 0.  1.
</event>
<event>
 5   0  0.9333353E-06  0.2004195E+04  0.7818609E-02  0.8604662E-01
        1   -1    0    0  501    0  0.00000000000E+00  0.00000000000E+00  0.11767888732E+04  0.11767888732E+04  0.50400001928E-02 0. -1.
       -1   -1    0    0    0  501  0.00000000000E+00  0.00000000000E+00 -0.85333864660E+03  0.85333864662E+03  0.50400001928E-02 0.  1.
    10030    2    1    2    0    0  0.00000000000E+00  0.00000000000E+00  0.32345022658E+03  0.20301275198E+04  0.20041950248E+04 0.  0.
        2    1    3    3  502    0 -0.39703181667E+03 -0.47831596962E+03 -0.63443406723E+03  0.88821563592E+03  0.25500000920E-02 0.  1.
       -2    1    3    3    0  502  0.39703181667E+03  0.47831596962E+03  0.95788429381E+03  0.11419118839E+04  0.25500000920E-02 0. -1.
</event>
<event>
 5   0  0.2020029E-05  0.2004434E+04  0.7818609E-02  0.8604551E-01
        2   -1    0    0  501    0  0.00000000000E+00  0.00000000000E+00  0.20265597206E+04  0.20265597206E+04  0.25500000920E-02 0.  1.
       -2   -1    0    0    0  501  0.00000000000E+00  0.00000000000E+00 -0.49563728931E+03  0.49563728932E+03  0.25500000920E-02 0. -1.
    10030    2    1    2    0    0  0.00000000000E+00  0.00000000000E+00  0.15309224313E+04  0.25221970099E+04  0.20044336522E+04 0.  0.
        5    1    3    3  502    0 -0.42412202802E+03 -0.46059552872E+03 -0.21923194099E+03  0.66340972986E+03  0.46999998093E+01 0. -1.
       -5    1    3    3    0  502  0.42412202802E+03  0.46059552872E+03  0.17501543723E+04  0.18587872801E+04  0.46999998093E+01 0.  1.
</event>
<event>
 5   0  0.9370269E-06  0.1998605E+04  0.7818609E-02  0.8607273E-01
       -1   -1    0    0    0  501  0.00000000000E+00  0.00000000000E+00  0.92700108721E+03  0.92700108722E+03  0.50400001928E-02 0.  1.
        1   -1    0    0  501    0  0.00000000000E+00  0.00000000000E+00 -0.10772430993E+04  0.10772430993E+04  0.50400001928E-02 0. -1.
    10030    2    1    2    0    0  0.00000000000E+00  0.00000000000E+00 -0.15024201212E+03  0.20042441866E+04  0.19986050378E+04 0.  0.
        4    1    3    3  502    0 -0.61405080592E+03 -0.64504192768E+03 -0.52968401696E+03  0.10361970138E+04  0.12699999809E+01 0. -1.
       -4    1    3    3    0  502  0.61405080592E+03  0.64504192768E+03  0.37944200484E+03  0.96804717274E+03  0.12699999809E+01 0.  1.
</event>
<event>
 5   0  0.2038882E-05  0.2000864E+04  0.7818609E-02  0.8606217E-01
        2   -1    0    0  501    0  0.00000000000E+00  0.00000000000E+00  0.12197404354E+04  0.12197404354E+04  0.25500000920E-02 0.  1.
       -2   -1    0    0    0  501  0.00000000000E+00  0.00000000000E+00 -0.82055522304E+03  0.82055522304E+03  0.25500000920E-02 0. -1.
    10030    2    1    2    0    0  0.00000000000E+00  0.00000000000E+00  0.39918521233E+03  0.20402956584E+04  0.20008641983E+04 0.  0.
        3    1    3    3  502    0  0.47077556275E+03  0.73825715813E+03 -0.29389839850E+03  0.92359598357E+03  0.10100000352E+00 0. -1.
       -3    1    3    3    0  502 -0.47077556275E+03 -0.73825715813E+03  0.69308361083E+03  0.11166996749E+04  0.10100000352E+00 0.  1.
</event>
<event>
 5   0  0.7132000E-06  0.1994282E+04  0.7818609E-02  0.8609299E-01
       -4   -1    0    0    0  501  0.00000000000E+00  0.00000000000E+00  0.11638091428E+04  0.11638098358E+04  0.12699999809E+01 0.  1.
        4   -1    0    0  501    0  0.00000000000E+00  0.00000000000E+00 -0.85433942918E+03  0.85434037313E+03  0.12699999809E+01 0. -1.
    10030    2    1    2    0    0  0.00000000000E+00  0.00000000000E+00  0.30946971366E+03  0.20181502089E+04  0.19942815153E+04 0.  0.
        5    1    3    3  502    0 -0.44725658547E+03 -0.39763567582E+03 -0.65237908147E+03  0.88530962938E+03  0.46999998093E+01 0. -1.
       -5    1    3    3    0  502  0.44725658547E+03  0.39763567582E+03  0.96184879514E+03  0.11328405795E+04  0.46999998093E+01 0.  1.
</event>
<event>
 5   0  0.1979765E-05  0.1997131E+04  0.7818609E-02  0.8607963E-01
        2   -1    0    0  501    0  0.00000000000E+00  0.00000000000E+00  0.12682489960E+04  0.12682489960E+04  0.25500000920E-02 0.  1.
       -2   -1    0    0    0  501  0.00000000000E+00  0.00000000000E+00 -0.78622775613E+03  0.78622775613E+03  0.25500000920E-02 0. -1.
    10030    2    1    2    0    0  0.00000000000E+00  0.00000000000E+00  0.48202123985E+03  0.20544767521E+04  0.19971305038E+04 0.  0.
        2    1    3    3  502    0 -0.75010491767E+03 -0.17808760966E+03 -0.41184619287E+03  0.87406514106E+03  0.25500000920E-02 0. -1.
       -2    1    3    3    0  502  0.75010491767E+03  0.17808760966E+03  0.89386743272E+03  0.11804116111E+04  0.25500000920E-02 0.  1.
</event>
<event>
 5   0  0.7132000E-06  0.2000848E+04  0.7818609E-02  0.8606224E-01
        3   -1    0    0  501    0  0.00000000000E+00  0.00000000000E+00  0.28026810149E+04  0.28026810168E+04  0.10100000352E+00 0.  1.
       -3   -1    0    0    0  501  0.00000000000E+00  0.00000000000E+00 -0.35710376549E+03  0.35710377977E+03  0.10100000352E+00 0. -1.
    10030    2    1    2    0    0  0.00000000000E+00  0.00000000000E+00  0.24455772494E+04  0.31597847965E+04  0.20008477897E+04 0.  0.
        2    1    3    3  502    0  0.45794858423E+02 -0.45331506399E+03 -0.18374528011E+03  0.49127797047E+03  0.25500000920E-02 0. -1.
       -2    1    3    3    0  502 -0.45794858423E+02  0.45331506399E+03  0.26293225296E+04  0.26685068261E+04  0.25500000920E-02 0.  1.
</event>
<event>
 5   0  0.2003576E-05  0.1997520E+04  0.7818609E-02  0.8607781E-01
        2   -1    0    0  501    0  0.00000000000E+00  0.00000000000E+00  0.10269926133E+04  0.10269926133E+04  0.25500000920E-02 0. -1.
       -2   -1    0    0    0  501  0.00000000000E+00  0.00000000000E+00 -0.97130364792E+03  0.97130364792E+03  0.25500000920E-02 0.  1.
    10030    2    1    2    0    0  0.00000000000E+00  0.00000000000E+00  0.55688965390E+02  0.19982962612E+04  0.19975201343E+04 0.  0.
        4    1    3    3  502    0 -0.61693811723E+03 -0.27247362504E+03  0.76478906958E+03  0.10196854665E+04  0.12699999809E+01 0. -1.
       -4    1    3    3    0  502  0.61693811723E+03  0.27247362504E+03 -0.70910010419E+03  0.97861079469E+03  0.12699999809E+01 0.  1.
</event>
<event>
 5   0  0.2020029E-05  0.1995917E+04  0.7818609E-02  0.8608532E-01
        2   -1    0    0  501    0  0.00000000000E+00  0.00000000000E+00  0.11184801799E+04  0.11184801799E+04  0.25500000920E-02 0.  1.
       -2   -1    0    0    0  501  0.00000000000E+00  0.00000000000E+00 -0.89042319361E+03  0.89042319362E+03  0.25500000920E-02 0. -1.
    10030    2    1    2    0    0  0.00000000000E+00  0.00000000000E+00  0.22805698628E+03  0.20089033735E+04  0.19959165251E+04 0.  0.
        5    1    3    3  502    0 -0.30379733932E+03 -0.30585007181E+03  0.10199189276E+04  0.11072911987E+04  0.46999998093E+01 0.  1.
       -5    1    3    3    0  502  0.30379733932E+03  0.30585007181E+03 -0.79186194129E+03  0.90161217486E+03  0.46999998093E+01 0. -1.
</event>
<event>
 5   0  0.9370269E-06  0.2024831E+04  0.7818609E-02  0.8595099E-01
       -1   -1    0    0    0  501  0.00000000000E+00  0.00000000000E+00  0.66006053726E+03  0.66006053728E+03  0.50400001928E-02 0.  1.
        1   -1    0    0  501    0  0.00000000000E+00  0.00000000000E+00 -0.15528650047E+04  0.15528650047E+04  0.50400001928E-02 0. -1.
    10030    2    1    2    0    0  0.00000000000E+00  0.00000000000E+00 -0.89280446746E+03  0.22129255420E+04  0.20248307676E+04 0.  0.
        4    1    3    3  502    0 -0.92480503450E+03 -0.22600538180E+03 -0.82284120359E+03  0.12583370151E+04  0.12699999809E+01 0. -1.
       -4    1    3    3    0  502  0.92480503450E+03  0.22600538180E+03 -0.69963263865E+02  0.95458852687E+03  0.12699999809E+01 0.  1.
</event>
<event>
 5   0  0.9333353E-06  0.2001550E+04  0.7818609E-02  0.8605896E-01
        1   -1    0    0  501    0  0.00000000000E+00  0.00000000000E+00  0.72996928610E+03  0.72996928612E+03  0.50400001928E-02 0. -1.
       -1   -1    0    0    0  501  0.00000000000E+00  0.00000000000E+00 -0.13720450162E+04  0.13720450162E+04  0.50400001928E-02 0.  1.
    10030    2    1    2    0    0  0.00000000000E+00  0.00000000000E+00 -0.64207573012E+03  0.21020143023E+04  0.20015501203E+04 0.  0.
        2    1    3    3  502    0 -0.60464623105E+03 -0.66291971105E+03 -0.78656034028E+03  0.11932044154E+04  0.25500000920E-02 0.  1.
       -2    1    3    3    0  502  0.60464623105E+03  0.66291971105E+03  0.14448461016E+03  0.90880988694E+03  0.25500000920E-02 0. -1.
</event>
<event>
 5   0  0.2020029E-05  0.2000304E+04  0.7818609E-02  0.8606478E-01
        2   -1    0    0  501    0  0.00000000000E+00  0.00000000000E+00  0.78678034274E+03  0.78678034274E+03  0.25500000920E-02 0.  1.
       -2   -1    0    0    0  501  0.00000000000E+00  0.00000000000E+00 -0.12713895341E+04  0.12713895341E+04  0.25500000920E-02 0. -1.
    10030    2    1    2    0    0  0.00000000000E+00  0.00000000000E+00 -0.48460919136E+03  0.20581698768E+04  0.20003042703E+04 0.  0.
        5    1    3    3  502    0  0.59608349047E+03  0.41385070048E+02  0.58292802521E+03  0.83477866779E+03  0.46999998093E+01 0.  1.
       -5    1    3    3    0  502 -0.59608349047E+03 -0.41385070048E+02 -0.10675372166E+04  0.12233912090E+04  0.46999998093E+01 0. -1.
</event>
<event>
 5   0  0.9220260E-06  0.1989799E+04  0.7818609E-02  0.8611405E-01
        1   -1    0    0  501    0  0.00000000000E+00  0.00000000000E+00  0.12948864138E+04  0.12948864139E+04  0.50400001928E-02 0.  1.
       -1   -1    0    0    0  501  0.00000000000E+00  0.00000000000E+00 -0.76441095587E+03  0.76441095588E+03  0.50400001928E-02 0. -1.
    10030    2    1    2    0    0  0.00000000000E+00  0.00000000000E+00  0.53047545798E+03  0.20592973697E+04  0.19897993480E+04 0.  0.
        3    1    3    3  502    0  0.81867061600E+03  0.45011255536E+03 -0.88765545512E+02  0.93845736305E+03  0.10100000352E+00 0. -1.
       -3    1    3    3    0  502 -0.81867061600E+03 -0.45011255536E+03  0.61924100349E+03  0.11208400067E+04  0.10100000352E+00 0.  1.
</event>
<event>
 5   0  0.1999142E-05  0.2000638E+04  0.7818609E-02  0.8606322E-01
       -2   -1    0    0    0  501  0.00000000000E+00  0.00000000000E+00  0.86374823275E+03  0.86374823275E+03  0.25500000920E-02 0. -1.
        2   -1    0    0  501    0  0.00000000000E+00  0.00000000000E+00 -0.11584835077E+04  0.11584835077E+04  0.25500000920E-02 0.  1.
    10030    2    1    2    0    0  0.00000000000E+00  0.00000000000E+00 -0.29473527497E+03  0.20222317405E+04  0.20006379807E+04 0.  0.
        1    1    3    3  502    0 -0.90332481140E+03  0.20809609454E+03 -0.52737540384E+03  0.10665010624E+04  0.50400001928E-02 0.  1.
       -1    1    3    3    0  502  0.90332481140E+03 -0.20809609454E+03  0.23264012887E+03  0.95573067809E+03  0.50400001928E-02 0. -1.
</event>
<event>
 5   0  0.9140695E-06  0.2002514E+04  0.7818609E-02  0.8605446E-01
       -1   -1    0    0    0  501  0.00000000000E+00  0.00000000000E+00  0.88618681298E+03  0.88618681299E+03  0.50400001928E-02 0. -1.
        1   -1    0    0  501    0  0.00000000000E+00  0.00000000000E+00 -0.11312689480E+04  0.11312689481E+04  0.50400001928E-02 0.  1.
    10030    2    1    2    0    0  0.00000000000E+00  0.00000000000E+00 -0.24508213506E+03  0.20174557610E+04  0.20025140436E+04 0.  0.
        1    1    3    3  502    0  0.16555724772E+03  0.37982801777E+03  0.79576275038E+03  0.89717160024E+03  0.50400001928E-02 0. -1.
       -1    1    3    3    0  502 -0.16555724772E+03 -0.37982801777E+03 -0.10408448854E+04  0.11202841608E+04  0.50400001928E-02 0.  1.
</event>
<event>
 5   0  0.1999142E-05  0.1999785E+04  0.7818609E-02  0.8606721E-01
       -2   -1    0    0    0  501  0.00000000000E+00  0.00000000000E+00  0.79781944993E+03  0.79781944994E+03  0.25500000920E-02 0. -1.
        2   -1    0    0  501    0  0.00000000000E+00  0.00000000000E+00 -0.12531469940E+04  0.12531469940E+04  0.25500000920E-02 0.  1.
    10030    2    1    2    0    0  0.00000000000E+00  0.00000000000E+00 -0.45532754409E+03  0.20509664440E+04  0.19997850339E+04 0.  0.
        1    1    3    3  502    0  0.22291456221E+03 -0.33582972481E+03  0.71080329879E+03  0.81713758677E+03  0.50400001928E-02 0. -1.
       -1    1    3    3    0  502 -0.22291456221E+03  0.33582972481E+03 -0.11661308429E+04  0.12338288572E+04  0.50400001928E-02 0.  1.
</event>
<event>
 5   0  0.1999142E-05  0.2001215E+04  0.7818609E-02  0.8606053E-01
        2   -1    0    0  501    0  0.00000000000E+00  0.00000000000E+00  0.15281603037E+04  0.15281603037E+04  0.25500000920E-02 0. -1.
       -2   -1    0    0    0  501  0.00000000000E+00  0.00000000000E+00 -0.65517720532E+03  0.65517720533E+03  0.25500000920E-02 0.  1.
    10030    2    1    2    0    0  0.00000000000E+00  0.00000000000E+00  0.87298309835E+03  0.21833375090E+04  0.20012154277E+04 0.  0.
        1    1    3    3  502    0 -0.86795803862E+03 -0.49657753746E+03  0.47545419632E+03  0.11072475334E+04  0.50400001928E-02 0.  1.
       -1    1    3    3    0  502  0.86795803862E+03  0.49657753746E+03  0.39752890203E+03  0.10760899756E+04  0.50400001928E-02 0. -1.
</event>
<event>
 5   0  0.2020029E-05  0.1995364E+04  0.7818609E-02  0.8608791E-01
       -2   -1    0    0    0  501  0.00000000000E+00  0.00000000000E+00  0.31843394880E+03  0.31843394881E+03  0.25500000920E-02 0.  1.
        2   -1    0    0  501    0  0.00000000000E+00  0.00000000000E+00 -0.31258252488E+04  0.31258252488E+04  0.25500000920E-02 0. -1.
    10030    2    1    2    0    0  0.00000000000E+00  0.00000000000E+00 -0.28073913000E+04  0.34442591977E+04  0.19953635030E+04 0.  0.
        5    1    3    3  502    0 -0.28555233811E+02  0.81084825760E+03 -0.24058281545E+04  0.25389607120E+04  0.46999998093E+01 0. -1.
       -5    1    3    3    0  502  0.28555233811E+02 -0.81084825760E+03 -0.40156314555E+03  0.90529848564E+03  0.46999998093E+01 0.  1.
</event>
<event>
 5   0  0.2038882E-05  0.1999377E+04  0.7818609E-02  0.8606912E-01
       -2   -1    0    0    0  501  0.00000000000E+00  0.00000000000E+00  0.93516954220E+03  0.93516954221E+03  0.25500000920E-02 0.  1.
        2   -1    0    0  501    0  0.00000000000E+00  0.00000000000E+00 -0.10686591242E+04  0.10686591242E+04  0.25500000920E-02 0. -1.
    10030    2    1    2    0    0  0.00000000000E+00  0.00000000000E+00 -0.13348958202E+03  0.20038286664E+04  0.19993773671E+04 0.  0.
        3    1    3    3  502    0 -0.36159480335E+03  0.25752523387E+03  0.83096552151E+03  0.94211132890E+03  0.10100000352E+00 0.  1.
       -3    1    3    3    0  502  0.36159480335E+03 -0.25752523387E+03 -0.96445510353E+03  0.10617173375E+04  0.10100000352E+00 0. -1.
</event>
<event>
 5   0  0.9333353E-06  0.2001802E+04  0.7818609E-02  0.8605779E-01
       -1   -1    0    0    0  501  0.00000000000E+00  0.00000000000E+00  0.16031955783E+04  0.16031955783E+04  0.50400001928E-02 0.  1.
        1   -1    0    0  501    0  0.00000000000E+00  0.00000000000E+00 -0.62487870327E+03  0.62487870329E+03  0.50400001928E-02 0. -1.
    10030    2    1    2    0    0  0.00000000000E+00  0.00000000000E+00  0.97831687504E+03  0.22280742816E+04  0.20018019623E+04 0.  0.
        2    1    3    3  502    0  0.69724375336E+03 -0.68582660373E+03  0.25227347946E+03  0.10100242029E+04  0.25500000920E-02 0.  1.
       -2    1    3    3    0  502 -0.69724375336E+03  0.68582660373E+03  0.72604339558E+03  0.12180500787E+04  0.25500000920E-02 0. -1.
</event>
<event>
 5   0  0.9220260E-06  0.1998574E+04  0.7818609E-02  0.8607288E-01
        1   -1    0    0  501    0  0.00000000000E+00  0.00000000000E+00  0.27090447560E+04  0.27090447560E+04  0.50400001928E-02 0.  1.
       -1   -1    0    0    0  501  0.00000000000E+00  0.00000000000E+00 -0.36860758660E+03  0.36860758663E+03  0.50400001928E-02 0. -1.
    10030    2    1    2    0    0  0.00000000000E+00  0.00000000000E+00  0.23404371694E+04  0.30776523426E+04  0.19985739411E+04 0.  0.
        3    1    3    3  502    0 -0.66274375092E+03 -0.69792509329E+03  0.75630906674E+03  0.12240637769E+04  0.10100000352E+00 0.  1.
       -3    1    3    3    0  502  0.66274375092E+03  0.69792509329E+03  0.15841281026E+04  0.18535885657E+04  0.10100000352E+00 0. -1.
</event>
<event>
 5   0  0.7132000E-06  0.1997954E+04  0.7818609E-02  0.8607578E-01
       -3   -1    0    0    0  501  0.00000000000E+00  0.00000000000E+00  0.13819955425E+04  0.13819955462E+04  0.10100000352E+00 0. -1.
        3   -1    0    0  501    0  0.00000000000E+00  0.00000000000E+00 -0.72211192535E+03  0.72211193241E+03  0.10100000352E+00 0.  1.
    10030    2    1    2    0    0  0.00000000000E+00  0.00000000000E+00  0.65988361711E+03  0.21041074786E+04  0.19979544272E+04 0.  0.
        1    1    3    3  502    0 -0.11332083404E+03 -0.82722318984E+03  0.90754895759E+03  0.12332010897E+04  0.50400001928E-02 0. -1.
       -1    1    3    3    0  502  0.11332083404E+03  0.82722318984E+03 -0.24766534048E+03  0.87090638885E+03  0.50400001928E-02 0.  1.
</event>
<event>
 5   0  0.9333353E-06  0.1999984E+04  0.7818609E-02  0.8606628E-01
       -1   -1    0    0    0  501  0.00000000000E+00  0.00000000000E+00  0.87060342422E+03  0.87060342423E+03  0.50400001928E-02 0.  1.
        1   -1    0    0  501    0  0.00000000000E+00  0.00000000000E+00 -0.11486101575E+04  0.11486101575E+04  0.50400001928E-02 0. -1.
    10030    2    1    2    0    0  0.00000000000E+00  0.00000000000E+00 -0.27800673329E+03  0.20192135818E+04  0.19999839362E+04 0.  0.
        2    1    3    3  502    0 -0.42394292542E+03 -0.61430886029E+03 -0.81089503301E+03  0.11021133038E+04  0.25500000920E-02 0. -1.
       -2    1    3    3    0  502  0.42394292542E+03  0.61430886029E+03  0.53288829971E+03  0.91710027795E+03  0.25500000920E-02 0.  1.
</event>
<event>
 5   0  0.9140695E-06  0.2026957E+04  0.7818609E-02  0.8594120E-01
        1   -1    0    0  501    0  0.00000000000E+00  0.00000000000E+00  0.12827071041E+04  0.12827071041E+04  0.50400001928E-02 0.  1.
       -1   -1    0    0    0  501  0.00000000000E+00  0.00000000000E+00 -0.80075839309E+03  0.80075839311E+03  0.50400001928E-02 0. -1.
    10030    2    1    2    0    0  0.00000000000E+00  0.00000000000E+00  0.48194871098E+03  0.20834654972E+04  0.20269568121E+04 0.  0.
        1    1    3    3  502    0 -0.32069324855E+03 -0.96059597410E+03  0.20051072533E+03  0.10323726731E+04  0.50400001928E-02 0.  1.
       -1    1    3    3    0  502  0.32069324855E+03  0.96059597410E+03  0.28143798566E+03  0.10510928241E+04  0.50400001928E-02 0. -1.
</event>
<event>
 5   0  0.1999142E-05  0.2002354E+04  0.7818609E-02  0.8605521E-01
       -2   -1    0    0    0  501  0.00000000000E+00  0.00000000000E+00  0.58538330029E+03  0.58538330029E+03  0.25500000920E-02 0.  1.
        2   -1    0    0  501    0  0.00000000000E+00  0.00000000000E+00 -0.17123057948E+04  0.17123057948E+04  0.25500000920E-02 0. -1.
    10030    2    1    2    0    0  0.00000000000E+00  0.00000000000E+00 -0.11269224945E+04  0.22976890951E+04  0.20023538321E+04 0.  0.
        1    1    3    3  502    0 -0.21737435268E+03  0.73769976522E+03 -0.12990243202E+04  0.15096081403E+04  0.50400001928E-02 0. -1.
       -1    1    3    3    0  502  0.21737435268E+03 -0.73769976522E+03  0.17210182571E+03  0.78808095475E+03  0.50400001928E-02 0.  1.
</event>
<event>
 5   0  0.9220260E-06  0.2001644E+04  0.7818609E-02  0.8605853E-01
        1   -1    0    0  501    0  0.00000000000E+00  0.00000000000E+00  0.18278393218E+04  0.18278393218E+04  0.50400001928E-02 0. -1.
       -1   -1    0    0    0  501  0.00000000000E+00  0.00000000000E+00 -0.54799358842E+03  0.54799358844E+03  0.50400001928E-02 0.  1.
    10030    2    1    2    0    0  0.00000000000E+00  0.00000000000E+00  0.12798457334E+04  0.23758329102E+04  0.20016435537E+04 0.  0.
        3    1    3    3  502    0  0.39667481308E+03  0.99678079989E+02 -0.44426679727E+03  0.60387053606E+03  0.10100000352E+00 0.  1.
       -3    1    3    3    0  502 -0.39667481308E+03 -0.99678079989E+02  0.17241125307E+04  0.17719623742E+04  0.10100000352E+00 0. -1.
</event>
<event>
 5   0  0.1979765E-05  0.2007175E+04  0.7818609E-02  0.8603274E-01
       -2   -1    0    0    0  501  0.00000000000E+00  0.00000000000E+00  0.46814363375E+03  0.46814363375E+03  0.25500000920E-02 0.  1.
        2   -1    0    0  501    0  0.00000000000E+00  0.00000000000E+00 -0.21514498706E+04  0.21514498706E+04  0.25500000920E-02 0. -1.
    10030    2    1    2    0    0  0.00000000000E+00  0.00000000000E+00 -0.16833062369E+04  0.26195935044E+04  0.20071746912E+04 0.  0.
        2    1    3    3  502    0  0.33347928737E+02 -0.88553849310E+03 -0.22686636695E+03  0.91474524080E+03  0.25500000920E-02 0.  1.
       -2    1    3    3    0  502 -0.33347928737E+02  0.88553849310E+03 -0.14564398699E+04  0.17048482636E+04  0.25500000920E-02 0. -1.
</event>
<event>
 5   0  0.9342635E-06  0.2002689E+04  0.7818609E-02  0.8605364E-01
       -1   -1    0    0    0  501  0.00000000000E+00  0.00000000000E+00  0.98554721136E+03  0.98554721137E+03  0.50400001928E-02 0.  1.
        1   -1    0    0  501    0  0.00000000000E+00  0.00000000000E+00 -0.10173954765E+04  0.10173954765E+04  0.50400001928E-02 0. -1.
    10030    2    1    2    0    0  0.00000000000E+00  0.00000000000E+00 -0.31848265165E+02  0.20029426879E+04  0.20026894665E+04 0.  0.
        5    1    3    3  502    0  0.10193668452E+03 -0.68220443449E+03  0.71002934530E+03  0.98992814854E+03  0.46999998093E+01 0.  1.
       -5    1    3    3    0  502 -0.10193668452E+03  0.68220443449E+03 -0.74187761046E+03  0.10130145394E+04  0.46999998093E+01 0. -1.
</event>
<event>
 5   0  0.2003576E-05  0.1998839E+04  0.7818609E-02  0.8607164E-01
       -2   -1    0    0    0  501  0.00000000000E+00  0.00000000000E+00  0.88569625273E+03  0.88569625273E+03  0.25500000920E-02 0. -1.
        2   -1    0    0  501    0  0.00000000000E+00  0.00000000000E+00 -0.11277449856E+04  0.11277449856E+04  0.25500000920E-02 0.  1.
    10030    2    1    2    0    0  0.00000000000E+00  0.00000000000E+00 -0.24204873286E+03  0.20134412383E+04  0.19988391709E+04 0.  0.
        4    1    3    3  502    0  0.41604923307E+03 -0.44122003439E+03 -0.92122415834E+03  0.11029177875E+04  0.12699999809E+01 0.  1.
       -4    1    3    3    0  502 -0.41604923307E+03  0.44122003439E+03  0.67917542548E+03  0.91052345086E+03  0.12699999809E+01 0. -1.
</event>
<event>
 5   0  0.1999142E-05  0.1994377E+04  0.7818609E-02  0.8609254E-01
       -2   -1    0    0    0  501  0.00000000000E+00  0.00000000000E+00  0.42631404506E+03  0.42631404507E+03  0.25500000920E-02 0. -1.
        2   -1    0    0  501    0  0.00000000000E+00  0.00000000000E+00 -0.23325180162E+04  0.23325180162E+04  0.25500000920E-02 0.  1.
    10030    2    1    2    0    0  0.00000000000E+00  0.00000000000E+00 -0.19062039711E+04  0.27588320613E+04  0.19943772870E+04 0.  0.
        1    1    3    3  502    0 -0.44009923030E+03 -0.42893582924E+03 -0.20394253331E+04  0.21300067998E+04  0.50400001928E-02 0.  1.
       -1    1    3    3    0  502  0.44009923030E+03  0.42893582924E+03  0.13322136195E+03  0.62882526143E+03  0.50400001928E-02 0. -1.
</event>
<event>
 5   0  0.1999142E-05  0.1998206E+04  0.7818609E-02  0.8607460E-01
       -2   -1    0    0    0  501  0.00000000000E+00  0.00000000000E+00  0.10661640363E+04  0.10661640363E+04  0.25500000920E-02 0. -1.
        2   -1    0    0  501    0  0.00000000000E+00  0.00000000000E+00 -0.93625973091E+03  0.93625973091E+03  0.25500000920E-02 0.  1.
    10030    2    1    2    0    0  0.00000000000E+00  0.00000000000E+00  0.12990430539E+03  0.20024237672E+04  0.19982056488E+04 0.  0.
        1    1    3    3  502    0  0.72254129250E+03  0.34588159773E+03  0.66329417875E+03  0.10400284451E+04  0.50400001928E-02 0. -1.
       -1    1    3    3    0  502 -0.72254129250E+03 -0.34588159773E+03 -0.53338987336E+03  0.96239532212E+03  0.50400001928E-02 0.  1.
</event>
<event>
 5   0  0.9370269E-06  0.1999099E+04  0.7818609E-02  0.8607042E-01
        1   -1    0    0  501    0  0.00000000000E+00  0.00000000000E+00  0.12972281605E+04  0.12972281605E+04  0.50400001928E-02 0.  1.
       -1   -1    0    0    0  501  0.00000000000E+00  0.00000000000E+00 -0.77017979459E+03  0.77017979461E+03  0.50400001928E-02 0. -1.
    10030    2    1    2    0    0  0.00000000000E+00  0.00000000000E+00  0.52704836595E+03  0.20674079552E+04  0.19990987152E+04 0.  0.
        4    1    3    3  502    0 -0.95807871576E+03 -0.28340965386E+03  0.23317084628E+03  0.10259659419E+04  0.12699999809E+01 0. -1.
       -4    1    3    3    0  502  0.95807871576E+03  0.28340965386E+03  0.29387751967E+03  0.10414420133E+04  0.12699999809E+01 0.  1.
</event>
<event>
 5   0  0.2003576E-05  0.2000013E+04  0.7818609E-02  0.8606615E-01
        2   -1    0    0  501    0  0.00000000000E+00  0.00000000000E+00  0.10131470297E+04  0.10131470297E+04  0.25500000920E-02 0.  1.
       -2   -1    0    0    0  501  0.00000000000E+00  0.00000000000E+00 -0.98703595879E+03  0.98703595879E+03  0.25500000920E-02 0. -1.
    10030    2    1    2    0    0  0.00000000000E+00  0.00000000000E+00  0.26111070941E+02  0.20001829885E+04  0.20000125499E+04 0.  0.
        4    1    3    3  502    0  0.50040459719E+02  0.97738055461E+03  0.21858251534E+03  0.10027745136E+04  0.12699999809E+01 0. -1.
       -4    1    3    3    0  502 -0.50040459719E+02 -0.97738055461E+03 -0.19247144440E+03  0.99740847497E+03  0.12699999809E+01 0.  1.
</event>
<event>
 5   0  0.2003576E-05  0.1996150E+04  0.7818609E-02  0.8608423E-01
        2   -1    0    0  501    0  0.00000000000E+00  0.00000000000E+00  0.13790024739E+04  0.13790024739E+04  0.25500000920E-02 0. -1.
       -2   -1    0    0    0  501  0.00000000000E+00  0.00000000000E+00 -0.72237248748E+03  0.72237248748E+03  0.25500000920E-02 0.  1.
    10030    2    1    2    0    0  0.00000000000E+00  0.00000000000E+00  0.65662998644E+03  0.21013749614E+04  0.19961497412E+04 0.  0.
        4    1    3    3  502    0 -0.29756369897E+03  0.31181389200E+03  0.12759797584E+04  0.13468103114E+04  0.12699999809E+01 0. -1.
       -4    1    3    3    0  502  0.29756369897E+03 -0.31181389200E+03 -0.61934977192E+03  0.75456465003E+03  0.12699999809E+01 0.  1.
</event>
<event>
 5   0  0.9333353E-06  0.1999574E+04  0.7818609E-02  0.8606820E-01
       -1   -1    0    0    0  501  0.00000000000E+00  0.00000000000E+00  0.93461588031E+03  0.93461588032E+03  0.50400001928E-02 0. -1.
        1   -1    0    0  501    0  0.00000000000E+00  0.00000000000E+00 -0.10695030594E+04  0.10695030594E+04  0.50400001928E-02 0.  1.
    10030    2    1    2    0    0  0.00000000000E+00  0.00000000000E+00 -0.13488717906E+03  0.20041189397E+04  0.19995744981E+04 0.  0.
        2    1    3    3  502    0 -0.48003568939E+03  0.20832781670E+02 -0.94619516429E+03  0.10612038243E+04  0.25500000920E-02 0.  1.
       -2    1    3    3    0  502  0.48003568939E+03 -0.20832781670E+02  0.81130798523E+03  0.94291511536E+03  0.25500000920E-02 0. -1.
</event>
<event>
 5   0  0.1999142E-05  0.1999820E+04  0.7818609E-02  0.8606705E-01
        2   -1    0    0  501    0  0.00000000000E+00  0.00000000000E+00  0.13988243631E+04  0.13988243631E+04  0.25500000920E-02 0. -1.
       -2   -1    0    0    0  501  0.00000000000E+00  0.00000000000E+00 -0.71475766719E+03  0.71475766720E+03  0.25500000920E-02 0.  1.
    10030    2    1    2    0    0  0.00000000000E+00  0.00000000000E+00  0.68406669595E+03  0.21135820303E+04  0.19998204306E+04 0.  0.
        1    1    3    3  502    0 -0.35872984358E+03  0.91525684990E+03  0.53529682572E+03  0.11193412767E+04  0.50400001928E-02 0. -1.
       -1    1    3    3    0  502  0.35872984358E+03 -0.91525684990E+03  0.14876987023E+03  0.99424075368E+03  0.50400001928E-02 0.  1.
</event>
<event>
 5   0  0.9220260E-06  0.2043684E+04  0.7818609E-02  0.8586465E-01
        1   -1    0    0  501    0  0.00000000000E+00  0.00000000000E+00  0.14915091721E+04  0.14915091721E+04  0.50400001928E-02 0. -1.
       -1   -1    0    0    0  501  0.00000000000E+00  0.00000000000E+00 -0.70007010628E+03  0.70007010630E+03  0.50400001928E-02 0.  1.
    10030    2    1    2    0    0  0.00000000000E+00  0.00000000000E+00  0.79143906583E+03  0.21915792784E+04  0.20436839136E+04 0.  0.
        3    1    3    3  502    0 -0.33134147672E+03 -0.66095702533E+03 -0.36066771164E+03  0.82263757023E+03  0.10100000352E+00 0.  1.
       -3    1    3    3    0  502  0.33134147672E+03  0.66095702533E+03  0.11521067775E+04  0.13689417082E+04  0.10100000352E+00 0. -1.
</event>
<event>
 5   0  0.9342635E-06  0.2002645E+04  0.7818609E-02  0.8605385E-01
       -1   -1    0    0    0  501  0.00000000000E+00  0.00000000000E+00  0.10636073889E+04  0.10636073889E+04  0.50400001928E-02 0.  1.
        1   -1    0    0  501    0  0.00000000000E+00  0.00000000000E+00 -0.94268462757E+03  0.94268462758E+03  0.50400001928E-02 0. -1.
    10030    2    1    2    0    0  0.00000000000E+00  0.00000000000E+00  0.12092276135E+03  0.20062920165E+04  0.20026445869E+04 0.  0.
        5    1    3    3  502    0 -0.52107701973E+03  0.76579350865E+03 -0.32057761889E+03  0.98018011514E+03  0.46999998093E+01 0.  1.
       -5    1    3    3    0  502  0.52107701973E+03 -0.76579350865E+03  0.44150038024E+03  0.10261119014E+04  0.46999998093E+01 0. -1.
</event>
<event>
 5   0  0.9342635E-06  0.1998897E+04  0.7818609E-02  0.8607136E-01
       -1   -1    0    0    0  501  0.00000000000E+00  0.00000000000E+00  0.63935917106E+03  0.63935917108E+03  0.50400001928E-02 0. -1.
        1   -1    0    0  501    0  0.00000000000E+00  0.00000000000E+00 -0.15623420808E+04  0.15623420809E+04  0.50400001928E-02 0.  1.
    10030    2    1    2    0    0  0.00000000000E+00  0.00000000000E+00 -0.92298290978E+03  0.22017012519E+04  0.19988974338E+04 0.  0.
        5    1    3    3  502    0  0.74861422166E+03  0.57453385179E+03 -0.98907246076E+02  0.94885042712E+03  0.46999998093E+01 0.  1.
       -5    1    3    3    0  502 -0.74861422166E+03 -0.57453385179E+03 -0.82407566371E+03  0.12528508248E+04  0.46999998093E+01 0. -1.
</event>
<event>
 5   0  0.9333353E-06  0.2000264E+04  0.7818609E-02  0.8606497E-01
        1   -1    0    0  501    0  0.00000000000E+00  0.00000000000E+00  0.11890596160E+04  0.11890596160E+04  0.50400001928E-02 0. -1.
       -1   -1    0    0    0  501  0.00000000000E+00  0.00000000000E+00 -0.84122300788E+03  0.84122300789E+03  0.50400001928E-02 0.  1.
    10030    2    1    2    0    0  0.00000000000E+00  0.00000000000E+00  0.34783660810E+03  0.20302826239E+04  0.20002642893E+04 0.  0.
        2    1    3    3  502    0 -0.49605461163E+03 -0.65202880126E+03  0.75615793184E+03  0.11148930681E+04  0.25500000920E-02 0. -1.
       -2    1    3    3    0  502  0.49605461163E+03  0.65202880126E+03 -0.40832132374E+03  0.91538955578E+03  0.25500000920E-02 0.  1.
</event>
<event>
 5   0  0.2038882E-05  0.2001677E+04  0.7818609E-02  0.8605837E-01
       -2   -1    0    0    0  501  0.00000000000E+00  0.00000000000E+00  0.69035479249E+03  0.69035479249E+03  0.25500000920E-02 0. -1.
        2   -1    0    0  501    0  0.00000000000E+00  0.00000000000E+00 -0.14509606212E+04  0.14509606212E+04  0.25500000920E-02 0.  1.
    10030    2    1    2    0    0  0.00000000000E+00  0.00000000000E+00 -0.76060582867E+03  0.21413154136E+04  0.20016769155E+04 0.  0.
        3    1    3    3  502    0 -0.55129465475E+03 -0.83009381561E+03 -0.48006101171E+03  0.11060922765E+04  0.10100000352E+00 0. -1.
       -3    1    3    3    0  502  0.55129465475E+03  0.83009381561E+03 -0.28054481696E+03  0.10352231371E+04  0.10100000352E+00 0.  1.
</event>
<event>
 5   0  0.2020029E-05  0.1997118E+04  0.7818609E-02  0.8607969E-01
        2   -1    0    0  501    0  0.00000000000E+00  0.00000000000E+00  0.15608517280E+04  0.15608517280E+04  0.25500000920E-02 0. -1.
       -2   -1    0    0    0  501  0.00000000000E+00  0.00000000000E+00 -0.63883049424E+03  0.63883049424E+03  0.25500000920E-02 0.  1.
    10030    2    1    2    0    0  0.00000000000E+00  0.00000000000E+00  0.92202123379E+03  0.21996822223E+04  0.19971176038E+04 0.  0.
        5    1    3    3  502    0 -0.88004212185E+03  0.49489050035E+02  0.97783096697E+03  0.13164721008E+04  0.46999998093E+01 0.  1.
       -5    1    3    3    0  502  0.88004212185E+03 -0.49489050035E+02 -0.55809733186E+02  0.88321012144E+03  0.46999998093E+01 0. -1.
</event>
<event>
 5   0  0.1979765E-05  0.2001665E+04  0.7818609E-02  0.8605843E-01
        2   -1    0    0  501    0  0.00000000000E+00  0.00000000000E+00  0.18561107062E+04  0.18561107062E+04  0.25500000920E-02 0.  1.
       -2   -1    0    0    0  501  0.00000000000E+00  0.00000000000E+00 -0.53965837228E+03  0.53965837229E+03  0.25500000920E-02 0. -1.
    10030    2    1    2    0    0  0.00000000000E+00  0.00000000000E+00  0.13164523339E+04  0.23957690785E+04  0.20016649894E+04 0.  0.
        2    1    3    3  502    0  0.22006865447E+03 -0.21640388827E+02  0.18265061957E+04  0.18398433091E+04  0.25500000920E-02 0.  1.
       -2    1    3    3    0  502 -0.22006865447E+03  0.21640388827E+02 -0.51005386179E+03  0.55592576937E+03  0.25500000920E-02 0. -1.
</event>
<event>
 5   0  0.9333353E-06  0.1999940E+04  0.7818609E-02  0.8606648E-01
        1   -1    0    0  501    0  0.00000000000E+00  0.00000000000E+00  0.16346386702E+04  0.16346386702E+04  0.50400001928E-02 0.  1.
       -1   -1    0    0    0  501  0.00000000000E+00  0.00000000000E+00 -0.61171959213E+03  0.61171959215E+03  0.50400001928E-02 0. -1.
    10030    2    1    2    0    0  0.00000000000E+00  0.00000000000E+00  0.10229190781E+04  0.22463582624E+04  0.19999404998E+04 0.  0.
        2    1    3    3  502    0  0.84639817217E+02  0.88556871683E+03 -0.14744432132E+01  0.88960554454E+03  0.25500000920E-02 0. -1.
       -2    1    3    3    0  502 -0.84639817217E+02 -0.88556871683E+03  0.10243935213E+04  0.13567527178E+04  0.25500000920E-02 0.  1.
</event>
<event>
 5   0  0.1999142E-05  0.1993805E+04  0.7818609E-02  0.8609522E-01
       -2   -1    0    0    0  501  0.00000000000E+00  0.00000000000E+00  0.86390893013E+03  0.86390893014E+03  0.25500000920E-02 0. -1.
        2   -1    0    0  501    0  0.00000000000E+00  0.00000000000E+00 -0.11503698316E+04  0.11503698316E+04  0.25500000920E-02 0.  1.
    10030    2    1    2    0    0  0.00000000000E+00  0.00000000000E+00 -0.28646090145E+03  0.20142787617E+04  0.19938051765E+04 0.  0.
        1    1    3    3  502    0 -0.36398908384E+03  0.92806282090E+03 -0.14839348168E+03  0.10078736419E+04  0.50400001928E-02 0.  1.
       -1    1    3    3    0  502  0.36398908384E+03 -0.92806282090E+03 -0.13806741977E+03  0.10064051198E+04  0.50400001928E-02 0. -1.
</event>
<event>
 5   0  0.7132000E-06  0.2004457E+04  0.7818609E-02  0.8604540E-01
       -3   -1    0    0    0  501  0.00000000000E+00  0.00000000000E+00  0.16315816815E+04  0.16315816846E+04  0.10100000352E+00 0. -1.
        3   -1    0    0  501    0  0.00000000000E+00  0.00000000000E+00 -0.61563675112E+03  0.61563675940E+03  0.10100000352E+00 0.  1.
    10030    2    1    2    0    0  0.00000000000E+00  0.00000000000E+00  0.10159449304E+04  0.22472184440E+04  0.20044566929E+04 0.  0.
        3    1    3    3  502    0 -0.61265118685E+03  0.41629663106E+03 -0.24893712659E+03  0.78141798352E+03  0.10100000352E+00 0.  1.
       -3    1    3    3    0  502  0.61265118685E+03 -0.41629663106E+03  0.12648820569E+04  0.14658004605E+04  0.10100000352E+00 0. -1.
</event>
<event>
 5   0  0.9333353E-06  0.2001131E+04  0.7818609E-02  0.8606092E-01
        1   -1    0    0  501    0  0.00000000000E+00  0.00000000000E+00  0.10960661078E+04  0.10960661078E+04  0.50400001928E-02 0. -1.
       -1   -1    0    0    0  501  0.00000000000E+00  0.00000000000E+00 -0.91338633380E+03  0.91338633382E+03  0.50400001928E-02 0.  1.
    10030    2    1    2    0    0  0.00000000000E+00  0.00000000000E+00  0.18267977399E+03  0.20094524416E+04  0.20011314838E+04 0.  0.
        2    1    3    3  502    0 -0.99717165820E+02 -0.24130177101E+03  0.10612556683E+04  0.10929014829E+04  0.25500000920E-02 0. -1.
       -2    1    3    3    0  502  0.99717165820E+02  0.24130177101E+03 -0.87857589431E+03  0.91655095871E+03  0.25500000920E-02 0.  1.
</event>
<event>
 5   0  0.9140695E-06  0.2000370E+04  0.7818609E-02  0.8606448E-01
        1   -1    0    0  501    0  0.00000000000E+00  0.00000000000E+00  0.24214572520E+04  0.24214572520E+04  0.50400001928E-02 0. -1.
       -1   -1    0    0    0  501  0.00000000000E+00  0.00000000000E+00 -0.41312739376E+03  0.41312739379E+03  0.50400001928E-02 0.  1.
    10030    2    1    2    0    0  0.00000000000E+00  0.00000000000E+00  0.20083298583E+04  0.28345846458E+04  0.20003702894E+04 0.  0.
        1    1    3    3  502    0  0.30583234162E+03  0.58758430956E+03 -0.57739574347E+02  0.66492300343E+03  0.50400001928E-02 0.  1.
       -1    1    3    3    0  502 -0.30583234162E+03 -0.58758430956E+03  0.20660694326E+04  0.21696616424E+04  0.50400001928E-02 0. -1.
</event>
<event>
 5   0  0.9220260E-06  0.1985425E+04  0.7818609E-02  0.8613465E-01
       -1   -1    0    0    0  501  0.00000000000E+00  0.00000000000E+00  0.95146100850E+03  0.95146100851E+03  0.50400001928E-02 0.  1.
        1   -1    0    0  501    0  0.00000000000E+00  0.00000000000E+00 -0.10357524047E+04  0.10357524047E+04  0.50400001928E-02 0. -1.
    10030    2    1    2    0    0  0.00000000000E+00  0.00000000000E+00 -0.84291396171E+02  0.19872134132E+04  0.19854249193E+04 0.  0.
        3    1    3    3  502    0 -0.96523585400E+03 -0.45601001435E+02 -0.26976716244E+03  0.10032616993E+04  0.10100000352E+00 0. -1.
       -3    1    3    3    0  502  0.96523585400E+03  0.45601001435E+02  0.18547576627E+03  0.98395171388E+03  0.10100000352E+00 0.  1.
</event>
<event>
 5   0  0.9333353E-06  0.2000997E+04  0.7818609E-02  0.8606155E-01
       -1   -1    0    0    0  501  0.00000000000E+00  0.00000000000E+00  0.92195020932E+03  0.92195020933E+03  0.50400001928E-02 0. -1.
        1   -1    0    0  501    0  0.00000000000E+00  0.00000000000E+00 -0.10857387962E+04  0.10857387962E+04  0.50400001928E-02 0.  1.
    10030    2    1    2    0    0  0.00000000000E+00  0.00000000000E+00 -0.16378858684E+03  0.20076890055E+04  0.20009968620E+04 0.  0.
        2    1    3    3  502    0 -0.25689925468E+03  0.41269479653E+03  0.79549174449E+03  0.93226677389E+03  0.25500000920E-02 0. -1.
       -2    1    3    3    0  502  0.25689925468E+03 -0.41269479653E+03 -0.95928033133E+03  0.10754222316E+04  0.25500000920E-02 0.  1.
</event>
<event>
 5   0  0.9220260E-06  0.1998655E+04  0.7818609E-02  0.8607250E-01
       -1   -1    0    0    0  501  0.00000000000E+00  0.00000000000E+00  0.58847128585E+03  0.58847128587E+03  0.50400001928E-02 0. -1.
        1   -1    0    0  501    0  0.00000000000E+00  0.00000000000E+00 -0.16970330984E+04  0.16970330984E+04  0.50400001928E-02 0.  1.
    10030    2    1    2    0    0  0.00000000000E+00  0.00000000000E+00 -0.11085618126E+04  0.22855043843E+04  0.19986547972E+04 0.  0.
        3    1    3    3  502    0  0.80580343760E+03  0.30332682684E+03  0.25799967568E+02  0.86138957067E+03  0.10100000352E+00 0. -1.
       -3    1    3    3    0  502 -0.80580343760E+03 -0.30332682684E+03 -0.11343617801E+04  0.14241148136E+04  0.10100000352E+00 0.  1.
</event>
<event>
 5   0  0.9370269E-06  0.2011160E+04  0.7818609E-02  0.8601421E-01
       -1   -1    0    0    0  501  0.00000000000E+00  0.00000000000E+00  0.14080169497E+04  0.14080169497E+04  0.50400001928E-02 0. -1.
        1   -1    0    0  501    0  0.00000000000E+00  0.00000000000E+00 -0.71816659355E+03  0.71816659356E+03  0.50400001928E-02 0.  1.
    10030    2    1    2    0    0  0.00000000000E+00  0.00000000000E+00  0.68985035616E+03  0.21261835433E+04  0.20111596023E+04 0.  0.
        4    1    3    3  502    0 -0.23643886838E+02 -0.10867057982E+03 -0.71164416044E+03  0.72028282799E+03  0.12699999809E+01 0.  1.
       -4    1    3    3    0  502  0.23643886838E+02  0.10867057982E+03  0.14014945166E+04  0.14059007153E+04  0.12699999809E+01 0. -1.
</event>
<event>
 5   0  0.9333353E-06  0.2007726E+04  0.7818609E-02  0.8603017E-01
       -1   -1    0    0    0  501  0.00000000000E+00  0.00000000000E+00  0.73007509994E+03  0.73007509996E+03  0.50400001928E-02 0.  1.
        1   -1    0    0  501    0  0.00000000000E+00  0.00000000000E+00 -0.13803246165E+04  0.13803246165E+04  0.50400001928E-02 0. -1.
    10030    2    1    2    0    0  0.00000000000E+00  0.00000000000E+00 -0.65024951659E+03  0.21103997165E+04  0.20077257107E+04 0.  0.
        2    1    3    3  502    0  0.15342195772E+03 -0.29561128432E+03 -0.13205578791E+04  0.13619094832E+04  0.25500000920E-02 0. -1.
       -2    1    3    3    0  502 -0.15342195772E+03  0.29561128432E+03  0.67030836246E+03  0.74849023329E+03  0.25500000920E-02 0.  1.
</event>
<event>
 5   0  0.1979765E-05  0.2000284E+04  0.7818609E-02  0.8606488E-01
       -2   -1    0    0    0  501  0.00000000000E+00  0.00000000000E+00  0.69894210265E+03  0.69894210266E+03  0.25500000920E-02 0.  1.
        2   -1    0    0  501    0  0.00000000000E+00  0.00000000000E+00 -0.14311399884E+04  0.14311399884E+04  0.25500000920E-02 0. -1.
    10030    2    1    2    0    0  0.00000000000E+00  0.00000000000E+00 -0.73219788579E+03  0.21300820911E+04  0.20002839726E+04 0.  0.
        2    1    3    3  502    0 -0.55293095007E+03  0.24468607996E+01  0.52137374438E+03  0.75997973921E+03  0.25500000920E-02 0.  1.
       -2    1    3    3    0  502  0.55293095007E+03 -0.24468607996E+01 -0.12535716302E+04  0.13701023519E+04  0.25500000920E-02 0. -1.
</event>
<event>
 5   0  0.9333353E-06  0.2008604E+04  0.7818609E-02  0.8602608E-01
        1   -1    0    0  501    0  0.00000000000E+00  0.00000000000E+00  0.13595539772E+04  0.13595539772E+04  0.50400001928E-02 0. -1.
       -1   -1    0    0    0  501  0.00000000000E+00  0.00000000000E+00 -0.74187772683E+03  0.74187772685E+03  0.50400001928E-02 0.  1.
    10030    2    1    2    0    0  0.00000000000E+00  0.00000000000E+00  0.61767625032E+03  0.21014317040E+04  0.20086043056E+04 0.  0.
        2    1    3    3  502    0 -0.76635405671E+03  0.58757586268E+03  0.59740929798E+03  0.11355359105E+04  0.25500000920E-02 0. -1.
       -2    1    3    3    0  502  0.76635405671E+03 -0.58757586268E+03  0.20266952335E+02  0.96589579355E+03  0.25500000920E-02 0.  1.
</event>
<event>
 5   0  0.9342635E-06  0.1999057E+04  0.7818609E-02  0.8607062E-01
        1   -1    0    0  501    0  0.00000000000E+00  0.00000000000E+00  0.74405346258E+03  0.74405346260E+03  0.50400001928E-02 0.  1.
       -1   -1    0    0    0  501  0.00000000000E+00  0.00000000000E+00 -0.13427217719E+04  0.13427217719E+04  0.50400001928E-02 0. -1.
    10030    2    1    2    0    0  0.00000000000E+00  0.00000000000E+00 -0.59866830934E+03  0.20867752345E+04  0.19990565612E+04 0.  0.
        5    1    3    3  502    0  0.45778568348E+03 -0.19941550492E+03 -0.12031802127E+04  0.13026891379E+04  0.46999998093E+01 0. -1.
       -5    1    3    3    0  502 -0.45778568348E+03  0.19941550492E+03  0.60451190340E+03  0.78408609665E+03  0.46999998093E+01 0.  1.
</event>
<event>
 5   0  0.7132000E-06  0.2007340E+04  0.7818609E-02  0.8603197E-01
        3   -1    0    0  501    0  0.00000000000E+00  0.00000000000E+00  0.54591264074E+03  0.54591265008E+03  0.10100000352E+00 0. -1.
       -3   -1    0    0    0  501  0.00000000000E+00  0.00000000000E+00 -0.18452641525E+04  0.18452641552E+04  0.10100000352E+00 0.  1.
    10030    2    1    2    0    0  0.00000000000E+00  0.00000000000E+00 -0.12993515117E+04  0.23911768053E+04  0.20073395735E+04 0.  0.
        4    1    3    3  502    0  0.32215859647E+03 -0.68706060356E+03  0.13283043401E+03  0.77037910885E+03  0.12699999809E+01 0. -1.
       -4    1    3    3    0  502 -0.32215859647E+03  0.68706060356E+03 -0.14321819457E+04  0.16207976964E+04  0.12699999809E+01 0.  1.
</event>
<event>
 5   0  0.2038882E-05  0.1998175E+04  0.7818609E-02  0.8607474E-01
        2   -1    0    0  501    0  0.00000000000E+00  0.00000000000E+00  0.17990356468E+04  0.17990356468E+04  0.25500000920E-02 0.  1.
       -2   -1    0    0    0  501  0.00000000000E+00  0.00000000000E+00 -0.55483925142E+03  0.55483925142E+03  0.25500000920E-02 0. -1.
    10030    2    1    2    0    0  0.00000000000E+00  0.00000000000E+00  0.12441963954E+04  0.23538748982E+04  0.19981747587E+04 0.  0.
        3    1    3    3  502    0  0.83227170763E+03  0.27835710041E+03  0.11846120830E+04  0.14742675022E+04  0.10100000352E+00 0.  1.
       -3    1    3    3    0  502 -0.83227170763E+03 -0.27835710041E+03  0.59584312402E+02  0.87960739603E+03  0.10100000352E+00 0. -1.
</event>
<event>
 5   0  0.2038882E-05  0.1991216E+04  0.7818609E-02  0.8610739E-01
       -2   -1    0    0    0  501  0.00000000000E+00  0.00000000000E+00  0.78641429684E+03  0.78641429684E+03  0.25500000920E-02 0. -1.
        2   -1    0    0  501    0  0.00000000000E+00  0.00000000000E+00 -0.12604489926E+04  0.12604489926E+04  0.25500000920E-02 0.  1.
    10030    2    1    2    0    0  0.00000000000E+00  0.00000000000E+00 -0.47403469576E+03  0.20468632894E+04  0.19912158178E+04 0.  0.
        3    1    3    3  502    0  0.64923983168E+03 -0.23676372591E+03 -0.97375145687E+03  0.11940524825E+04  0.10100000352E+00 0.  1.
       -3    1    3    3    0  502 -0.64923983168E+03  0.23676372591E+03  0.49971676111E+03  0.85281080697E+03  0.10100000352E+00 0. -1.
</event>
<event>
 5   0  0.2003576E-05  0.2000917E+04  0.7818609E-02  0.8606192E-01
        2   -1    0    0  501    0  0.00000000000E+00  0.00000000000E+00  0.20390008650E+04  0.20390008650E+04  0.25500000920E-02 0. -1.
       -2   -1    0    0    0  501  0.00000000000E+00  0.00000000000E+00 -0.49088615213E+03  0.49088615214E+03  0.25500000920E-02 0.  1.
    10030    2    1    2    0    0  0.00000000000E+00  0.00000000000E+00  0.15481147129E+04  0.25298870171E+04  0.20009170786E+04 0.  0.
        4    1    3    3  502    0 -0.51676374215E+03 -0.27524857348E+03 -0.25164415228E+03  0.63728559899E+03  0.12699999809E+01 0.  1.
       -4    1    3    3    0  502  0.51676374215E+03  0.27524857348E+03  0.17997588651E+04  0.18926014181E+04  0.12699999809E+01 0. -1.
</event>
<event>
 5   0  0.2038882E-05  0.2001914E+04  0.7818609E-02  0.8605726E-01
       -2   -1    0    0    0  501  0.00000000000E+00  0.00000000000E+00  0.92909567938E+03  0.92909567938E+03  0.25500000920E-02 0.  1.
        2   -1    0    0  501    0  0.00000000000E+00  0.00000000000E+00 -0.10783765757E+04  0.10783765757E+04  0.25500000920E-02 0. -1.
    10030    2    1    2    0    0  0.00000000000E+00  0.00000000000E+00 -0.14928089634E+03  0.20074722551E+04  0.20019141013E+04 0.  0.
        3    1    3    3  502    0  0.45126467085E+03 -0.38404124758E+03  0.73431335724E+03  0.94358020317E+03  0.10100000352E+00 0.  1.
       -3    1    3    3    0  502 -0.45126467085E+03  0.38404124758E+03 -0.88359425358E+03  0.10638920519E+04  0.10100000352E+00 0. -1.
</event>
<event>
 5   0  0.1999142E-05  0.2000051E+04  0.7818609E-02  0.8606597E-01
       -2   -1    0    0    0  501  0.00000000000E+00  0.00000000000E+00  0.74664855282E+03  0.74664855282E+03  0.25500000920E-02 0.  1.
        2   -1    0    0  501    0  0.00000000000E+00  0.00000000000E+00 -0.13393871050E+04  0.13393871050E+04  0.25500000920E-02 0. -1.
    10030    2    1    2    0    0  0.00000000000E+00  0.00000000000E+00 -0.59273855219E+03  0.20860356578E+04  0.20000514430E+04 0.  0.
        1    1    3    3  502    0 -0.16902335015E+03  0.62133356775E+03 -0.10943951836E+04  0.12697736465E+04  0.50400001928E-02 0. -1.
       -1    1    3    3    0  502  0.16902335015E+03 -0.62133356775E+03  0.50165663143E+03  0.81626201136E+03  0.50400001928E-02 0.  1.
</event>
<event>
 5   0  0.2020029E-05  0.1999746E+04  0.7818609E-02  0.8606739E-01
        2   -1    0    0  501    0  0.00000000000E+00  0.00000000000E+00  0.13332169877E+04  0.13332169877E+04  0.25500000920E-02 0.  1.
       -2   -1    0    0    0  501  0.00000000000E+00  0.00000000000E+00 -0.74987502254E+03  0.74987502254E+03  0.25500000920E-02 0. -1.
    10030    2    1    2    0    0  0.00000000000E+00  0.00000000000E+00  0.58334196517E+03  0.20830920103E+04  0.19997461026E+04 0.  0.
        5    1    3    3  502    0 -0.82194496948E+03 -0.48995805521E+02 -0.29918183487E+03  0.87608560205E+03  0.46999998093E+01 0. -1.
       -5    1    3    3    0  502  0.82194496948E+03  0.48995805521E+02  0.88252380004E+03  0.12070064082E+04  0.46999998093E+01 0.  1.
</event>
<event>
 5   0  0.2020029E-05  0.1999953E+04  0.7818609E-02  0.8606642E-01
        2   -1    0    0  501    0  0.00000000000E+00  0.00000000000E+00  0.15817941410E+04  0.15817941410E+04  0.25500000920E-02 0. -1.
       -2   -1    0    0    0  501  0.00000000000E+00  0.00000000000E+00 -0.63216411116E+03  0.63216411117E+03  0.25500000920E-02 0.  1.
    10030    2    1    2    0    0  0.00000000000E+00  0.00000000000E+00  0.94963002981E+03  0.22139582521E+04  0.19999534866E+04 0.  0.
        5    1    3    3  502    0  0.43970838399E+03 -0.59727256952E+03  0.12172954965E+04  0.14254502450E+04  0.46999998093E+01 0. -1.
       -5    1    3    3    0  502 -0.43970838399E+03  0.59727256952E+03 -0.26766546668E+03  0.78850800712E+03  0.46999998093E+01 0.  1.
</event>
<event>
 5   0  0.9220260E-06  0.1998983E+04  0.7818609E-02  0.8607096E-01
       -1   -1    0    0    0  501  0.00000000000E+00  0.00000000000E+00  0.97304292492E+03  0.97304292493E+03  0.50400001928E-02 0.  1.
        1   -1    0    0  501    0  0.00000000000E+00  0.00000000000E+00 -0.10266588247E+04  0.10266588247E+04  0.50400001928E-02 0. -1.
    10030    2    1    2    0    0  0.00000000000E+00  0.00000000000E+00 -0.53615899773E+02  0.19997017496E+04  0.19989828470E+04 0.  0.
        3    1    3    3  502    0  0.92840180493E+03 -0.29805148974E+03  0.19285811904E+03  0.99396119955E+03  0.10100000352E+00 0. -1.
       -3    1    3    3    0  502 -0.92840180493E+03  0.29805148974E+03 -0.24647401881E+03  0.10057405501E+04  0.10100000352E+00 0.  1.
</event>
<event>
 5   0  0.9140695E-06  0.1999570E+04  0.7818609E-02  0.8606822E-01
       -1   -1    0    0    0  501  0.00000000000E+00  0.00000000000E+00  0.12061509439E+04  0.12061509439E+04  0.50400001928E-02 0.  1.
        1   -1    0    0  501    0  0.00000000000E+00  0.00000000000E+00 -0.82872681317E+03  0.82872681319E+03  0.50400001928E-02 0. -1.
    10030    2    1    2    0    0  0.00000000000E+00  0.00000000000E+00  0.37742413075E+03  0.20348777571E+04  0.19995695817E+04 0.  0.
        1    1    3    3  502    0 -0.55408645234E+03  0.47866020686E+03  0.88149887353E+03  0.11459352749E+04  0.50400001928E-02 0.  1.
       -1    1    3    3    0  502  0.55408645234E+03 -0.47866020686E+03 -0.50407474278E+03  0.88894248218E+03  0.50400001928E-02 0. -1.
</event>
<event>
 5   0  0.9220260E-06  0.2002080E+04  0.7818609E-02  0.8605649E-01
        1   -1    0    0  501    0  0.00000000000E+00  0.00000000000E+00  0.16733646861E+04  0.16733646861E+04  0.50400001928E-02 0. -1.
       -1   -1    0    0    0  501  0.00000000000E+00  0.00000000000E+00 -0.59884206086E+03  0.59884206088E+03  0.50400001928E-02 0.  1.
    10030    2    1    2    0    0  0.00000000000E+00  0.00000000000E+00  0.10745226253E+04  0.22722067470E+04  0.20020800756E+04 0.  0.
        3    1    3    3  502    0 -0.69826135362E+03 -0.65083065258E+03  0.19502661814E+03  0.97426118073E+03  0.10100000352E+00 0.  1.
       -3    1    3    3    0  502  0.69826135362E+03  0.65083065258E+03  0.87949600712E+03  0.12979455663E+04  0.10100000352E+00 0. -1.
</event>
<event>
 5   0  0.9140695E-06  0.2001396E+04  0.7818609E-02  0.8605968E-01
        1   -1    0    0  501    0  0.00000000000E+00  0.00000000000E+00  0.11361540368E+04  0.11361540368E+04  0.50400001928E-02 0. -1.
       -1   -1    0    0    0  501  0.00000000000E+00  0.00000000000E+00 -0.88139111449E+03  0.88139111450E+03  0.50400001928E-02 0.  1.
    10030    2    1    2    0    0  0.00000000000E+00  0.00000000000E+00  0.25476292233E+03  0.20175451513E+04  0.20013955859E+04 0.  0.
        1    1    3    3  502    0 -0.52195551027E+03 -0.85325028745E+03  0.15799864743E+03  0.10126387215E+04  0.50400001928E-02 0. -1.
       -1    1    3    3    0  502  0.52195551027E+03  0.85325028745E+03  0.96764274894E+02  0.10049064298E+04  0.50400001928E-02 0.  1.
</event>
<event>
 5   0  0.9370269E-06  0.1995367E+04  0.7818609E-02  0.8608790E-01
        1   -1    0    0  501    0  0.00000000000E+00  0.00000000000E+00  0.14654946463E+04  0.14654946463E+04  0.50400001928E-02 0. -1.
       -1   -1    0    0    0  501  0.00000000000E+00  0.00000000000E+00 -0.67920597846E+03  0.67920597847E+03  0.50400001928E-02 0.  1.
    10030    2    1    2    0    0  0.00000000000E+00  0.00000000000E+00  0.78628866788E+03  0.21447006248E+04  0.19953673599E+04 0.  0.
        4    1    3    3  502    0 -0.37111703274E+03  0.61543118826E+03 -0.35066335186E+03  0.79965605025E+03  0.12699999809E+01 0.  1.
       -4    1    3    3    0  502  0.37111703274E+03 -0.61543118826E+03  0.11369520197E+04  0.13450445746E+04  0.12699999809E+01 0. -1.
</event>
<event>
 5   0  0.2003576E-05  0.2003612E+04  0.7818609E-02  0.8604934E-01
       -2   -1    0    0    0  501  0.00000000000E+00  0.00000000000E+00  0.47440588940E+03  0.47440588941E+03  0.25500000920E-02 0.  1.
        2   -1    0    0  501    0  0.00000000000E+00  0.00000000000E+00 -0.21155200515E+04  0.21155200515E+04  0.25500000920E-02 0. -1.
    10030    2    1    2    0    0  0.00000000000E+00  0.00000000000E+00 -0.16411141621E+04  0.25899259409E+04  0.20036119101E+04 0.  0.
        4    1    3    3  502    0 -0.22279231978E+02  0.49099624124E+03 -0.19489558211E+04  0.20099761388E+04  0.12699999809E+01 0. -1.
       -4    1    3    3    0  502  0.22279231978E+02 -0.49099624124E+03  0.30784165897E+03  0.57994980213E+03  0.12699999809E+01 0.  1.
</event>
<event>
 5   0  0.2020029E-05  0.1999690E+04  0.7818609E-02  0.8606766E-01
        2   -1    0    0  501    0  0.00000000000E+00  0.00000000000E+00  0.13725471489E+04  0.13725471490E+04  0.25500000920E-02 0. -1.
       -2   -1    0    0    0  501  0.00000000000E+00  0.00000000000E+00 -0.72834627188E+03  0.72834627188E+03  0.25500000920E-02 0.  1.
    10030    2    1    2    0    0  0.00000000000E+00  0.00000000000E+00  0.64420087707E+03  0.21008934208E+04  0.19996895748E+04 0.  0.
        5    1    3    3  502    0  0.32280361780E+03 -0.55229955756E+03  0.11293835039E+04  0.12979854259E+04  0.46999998093E+01 0. -1.
       -5    1    3    3    0  502 -0.32280361780E+03  0.55229955756E+03 -0.48518262684E+03  0.80290799493E+03  0.46999998093E+01 0.  1.
</event>
<event>
 5   0  0.9140695E-06  0.2001089E+04  0.7818609E-02  0.8606112E-01
        1   -1    0    0  501    0  0.00000000000E+00  0.00000000000E+00  0.12778702831E+04  0.12778702831E+04  0.50400001928E-02 0. -1.
       -1   -1    0    0    0  501  0.00000000000E+00  0.00000000000E+00 -0.78340446467E+03  0.78340446469E+03  0.50400001928E-02 0.  1.
    10030    2    1    2    0    0  0.00000000000E+00  0.00000000000E+00  0.49446581838E+03  0.20612747477E+04  0.20010889886E+04 0.  0.
        1    1    3    3  502    0  0.36394969424E+03 -0.23005921291E+03  0.11775594714E+04  0.12538073736E+04  0.50400001928E-02 0. -1.
       -1    1    3    3    0  502 -0.36394969424E+03  0.23005921291E+03 -0.68309365306E+03  0.80746737411E+03  0.50400001928E-02 0.  1.
</event>
<event>
 5   0  0.2038882E-05  0.1996270E+04  0.7818609E-02  0.8608366E-01
       -2   -1    0    0    0  501  0.00000000000E+00  0.00000000000E+00  0.14726053310E+04  0.14726053310E+04  0.25500000920E-02 0. -1.
        2   -1    0    0  501    0  0.00000000000E+00  0.00000000000E+00 -0.67653831602E+03  0.67653831602E+03  0.25500000920E-02 0.  1.
    10030    2    1    2    0    0  0.00000000000E+00  0.00000000000E+00  0.79606701501E+03  0.21491436471E+04  0.19962704534E+04 0.  0.
        3    1    3    3  502    0 -0.70768131158E+03  0.26724328918E+03  0.10990860311E+04  0.13342495750E+04  0.10100000352E+00 0. -1.
       -3    1    3    3    0  502  0.70768131158E+03 -0.26724328918E+03 -0.30301901610E+03  0.81489407207E+03  0.10100000352E+00 0.  1.
</event>
<event>
 5   0  0.1999142E-05  0.1998214E+04  0.7818609E-02  0.8607456E-01
        2   -1    0    0  501    0  0.00000000000E+00  0.00000000000E+00  0.86264258081E+03  0.86264258082E+03  0.25500000920E-02 0. -1.
       -2   -1    0    0    0  501  0.00000000000E+00  0.00000000000E+00 -0.11571589463E+04  0.11571589463E+04  0.25500000920E-02 0.  1.
    10030    2    1    2    0    0  0.00000000000E+00  0.00000000000E+00 -0.29451636552E+03  0.20198015272E+04  0.19982137822E+04 0.  0.
        1    1    3    3  502    0  0.58701531066E+03  0.78332682310E+03 -0.34948632949E+03  0.10393885613E+04  0.50400001928E-02 0.  1.
       -1    1    3    3    0  502 -0.58701531066E+03 -0.78332682310E+03  0.54969963970E+02  0.98041296590E+03  0.50400001928E-02 0. -1.
</event>
<event>
 5   0  0.1979765E-05  0.1999450E+04  0.7818609E-02  0.8606878E-01
        2   -1    0    0  501    0  0.00000000000E+00  0.00000000000E+00  0.17074687875E+04  0.17074687875E+04  0.25500000920E-02 0.  1.
       -2   -1    0    0    0  501  0.00000000000E+00  0.00000000000E+00 -0.58534008673E+03  0.58534008674E+03  0.25500000920E-02 0. -1.
    10030    2    1    2    0    0  0.00000000000E+00  0.00000000000E+00  0.11221287008E+04  0.22928088743E+04  0.19994498525E+04 0.  0.
        2    1    3    3  502    0  0.32535348038E+03  0.13835316142E+03 -0.51125880465E+03  0.62159637210E+03  0.25500000920E-02 0. -1.
       -2    1    3    3    0  502 -0.32535348038E+03 -0.13835316142E+03  0.16333875055E+04  0.16712125022E+04  0.25500000920E-02 0.  1.
</event>
<event>
 5   0  0.9333353E-06  0.1997375E+04  0.7818609E-02  0.8607849E-01
        1   -1    0    0  501    0  0.00000000000E+00  0.00000000000E+00  0.21060559083E+04  0.21060559083E+04  0.50400001928E-02 0. -1.
       -1   -1    0    0    0  501  0.00000000000E+00  0.00000000000E+00 -0.47357547489E+03  0.47357547492E+03  0.50400001928E-02 0.  1.
    10030    2    1    2    0    0  0.00000000000E+00  0.00000000000E+00  0.16324804334E+04  0.25796313833E+04  0.19973747039E+04 0.  0.
        2    1    3    3  502    0 -0.60755807724E+03  0.78107951732E+03  0.64217635938E+03  0.11796620305E+04  0.25500000920E-02 0.  1.
       -2    1    3    3    0  502  0.60755807724E+03 -0.78107951732E+03  0.99030407407E+03  0.13999693528E+04  0.25500000920E-02 0. -1.
</event>
<event>
 5   0  0.9370269E-06  0.2015979E+04  0.7818609E-02  0.8599186E-01
       -1   -1    0    0    0  501  0.00000000000E+00  0.00000000000E+00  0.90312520330E+03  0.90312520332E+03  0.50400001928E-02 0.  1.
        1   -1    0    0  501    0  0.00000000000E+00  0.00000000000E+00 -0.11250303617E+04  0.11250303617E+04  0.50400001928E-02 0. -1.
    10030    2    1    2    0    0  0.00000000000E+00  0.00000000000E+00 -0.22190515838E+03  0.20281555650E+04  0.20159794385E+04 0.  0.
        4    1    3    3  502    0  0.49735535850E+03  0.86443653828E+03  0.36317285299E+02  0.99796464840E+03  0.12699999809E+01 0. -1.
       -4    1    3    3    0  502 -0.49735535850E+03 -0.86443653828E+03 -0.25822244368E+03  0.10301909166E+04  0.12699999809E+01 0.  1.
</event>
<event>
 5   0  0.2020029E-05  0.2000199E+04  0.7818609E-02  0.8606528E-01
       -2   -1    0    0    0  501  0.00000000000E+00  0.00000000000E+00  0.86324051449E+03  0.86324051449E+03  0.25500000920E-02 0.  1.
        2   -1    0    0  501    0  0.00000000000E+00  0.00000000000E+00 -0.11586559574E+04  0.11586559574E+04  0.25500000920E-02 0. -1.
    10030    2    1    2    0    0  0.00000000000E+00  0.00000000000E+00 -0.29541544294E+03  0.20218964719E+04  0.20001987549E+04 0.  0.
        5    1    3    3  502    0  0.67594304759E+03  0.35469120502E+03 -0.80083728852E+03  0.11063757532E+04  0.46999998093E+01 0. -1.
       -5    1    3    3    0  502 -0.67594304759E+03 -0.35469120502E+03  0.50542184557E+03  0.91552071876E+03  0.46999998093E+01 0.  1.
</event>
<event>
 5   0  0.7132000E-06  0.2010259E+04  0.7818609E-02  0.8601839E-01
       -4   -1    0    0    0  501  0.00000000000E+00  0.00000000000E+00  0.16262356571E+04  0.16262361530E+04  0.12699999809E+01 0. -1.
        4   -1    0    0  501    0  0.00000000000E+00  0.00000000000E+00 -0.62124010570E+03  0.62124140383E+03  0.12699999809E+01 0.  1.
    10030    2    1    2    0    0  0.00000000000E+00  0.00000000000E+00  0.10049955514E+04  0.22474775568E+04  0.20102585182E+04 0.  0.
        5    1    3    3  502    0 -0.90216401722E+03  0.42412491596E+03  0.35897076463E+03  0.10595583788E+04  0.46999998093E+01 0. -1.
       -5    1    3    3    0  502  0.90216401722E+03 -0.42412491596E+03  0.64602478677E+03  0.11879191780E+04  0.46999998093E+01 0.  1.
</event>
<event>
 5   0  0.9342635E-06  0.2000196E+04  0.7818609E-02  0.8606529E-01
       -1   -1    0    0    0  501  0.00000000000E+00  0.00000000000E+00  0.75687733626E+03  0.75687733628E+03  0.50400001928E-02 0.  1.
        1   -1    0    0  501    0  0.00000000000E+00  0.00000000000E+00 -0.13214767438E+04  0.13214767438E+04  0.50400001928E-02 0. -1.
    10030    2    1    2    0    0  0.00000000000E+00  0.00000000000E+00 -0.56459940757E+03  0.20783540801E+04  0.20001957883E+04 0.  0.
        5    1    3    3  502    0  0.64392768598E+03 -0.26639134393E+03  0.46306321332E+03  0.83669399569E+03  0.46999998093E+01 0. -1.
       -5    1    3    3    0  502 -0.64392768598E+03  0.26639134393E+03 -0.10276626209E+04  0.12416600844E+04  0.46999998093E+01 0.  1.
</event>
<event>
 5   0  0.9370269E-06  0.2002487E+04  0.7818609E-02  0.8605459E-01
       -1   -1    0    0    0  501  0.00000000000E+00  0.00000000000E+00  0.95312041413E+03  0.95312041415E+03  0.50400001928E-02 0.  1.
        1   -1    0    0  501    0  0.00000000000E+00  0.00000000000E+00 -0.10517958255E+04  0.10517958255E+04  0.50400001928E-02 0. -1.
    10030    2    1    2    0    0  0.00000000000E+00  0.00000000000E+00 -0.98675411329E+02  0.20049162396E+04  0.20024865271E+04 0.  0.
        4    1    3    3  502    0  0.34045693598E+03  0.38538406217E+03 -0.90948117030E+03  0.10447915642E+04  0.12699999809E+01 0. -1.
       -4    1    3    3    0  502 -0.34045693598E+03 -0.38538406217E+03  0.81080575897E+03  0.96012467540E+03  0.12699999809E+01 0.  1.
</event>
<event>
 5   0  0.9220260E-06  0.1994485E+04  0.7818609E-02  0.8609203E-01
       -1   -1    0    0    0  501  0.00000000000E+00  0.00000000000E+00  0.96227872681E+03  0.96227872682E+03  0.50400001928E-02 0.  1.
        1   -1    0    0  501    0  0.00000000000E+00  0.00000000000E+00 -0.10334767139E+04  0.10334767139E+04  0.50400001928E-02 0. -1.
    10030    2    1    2    0    0  0.00000000000E+00  0.00000000000E+00 -0.71197987077E+02  0.19957554407E+04  0.19944850528E+04 0.  0.
        3    1    3    3  502    0 -0.32724414755E+03  0.85488014715E+03  0.36035982243E+03  0.98375200631E+03  0.10100000352E+00 0.  1.
       -3    1    3    3    0  502  0.32724414755E+03 -0.85488014715E+03 -0.43155780951E+03  0.10120034344E+04  0.10100000352E+00 0. -1.
</event>
<event>
 5   0  0.9342635E-06  0.2013439E+04  0.7818609E-02  0.8600363E-01
        1   -1    0    0  501    0  0.00000000000E+00  0.00000000000E+00  0.12482214548E+04  0.12482214548E+04  0.50400001928E-02 0.  1.
       -1   -1    0    0    0  501  0.00000000000E+00  0.00000000000E+00 -0.81194261826E+03  0.81194261827E+03  0.50400001928E-02 0. -1.
    10030    2    1    2    0    0  0.00000000000E+00  0.00000000000E+00  0.43627883650E+03  0.20601640730E+04  0.20134390442E+04 0.  0.
        5    1    3    3  502    0 -0.70582656358E+03 -0.29448073043E+03  0.88797022956E+03  0.11719314216E+04  0.46999998093E+01 0.  1.
       -5    1    3    3    0  502  0.70582656358E+03  0.29448073043E+03 -0.45169139306E+03  0.88823265140E+03  0.46999998093E+01 0. -1.
</event>
<event>
 5   0  0.9140695E-06  0.2041896E+04  0.7818609E-02  0.8587280E-01
       -1   -1    0    0    0  501  0.00000000000E+00  0.00000000000E+00  0.11410227067E+04  0.11410227068E+04  0.50400001928E-02 0. -1.
        1   -1    0    0  501    0  0.00000000000E+00  0.00000000000E+00 -0.91350903439E+03  0.91350903441E+03  0.50400001928E-02 0.  1.
    10030    2    1    2    0    0  0.00000000000E+00  0.00000000000E+00  0.22751367235E+03  0.20545317412E+04  0.20418957379E+04 0.  0.
        1    1    3    3  502    0 -0.61986291970E+03 -0.18870285246E+03 -0.68010968314E+03  0.93935509094E+03  0.50400001928E-02 0.  1.
       -1    1    3    3    0  502  0.61986291970E+03  0.18870285246E+03  0.90762335549E+03  0.11151766502E+04  0.50400001928E-02 0. -1.
</event>
<event>
 5   0  0.7132000E-06  0.1991777E+04  0.7818609E-02  0.8610475E-01
        3   -1    0    0  501    0  0.00000000000E+00  0.00000000000E+00  0.70581339297E+03  0.70581340019E+03  0.10100000352E+00 0.  1.
       -3   -1    0    0    0  501  0.00000000000E+00  0.00000000000E+00 -0.14051789023E+04  0.14051789060E+04  0.10100000352E+00 0. -1.
    10030    2    1    2    0    0  0.00000000000E+00  0.00000000000E+00 -0.69936550937E+03  0.21109923062E+04  0.19917771966E+04 0.  0.
        4    1    3    3  502    0  0.42284936085E+02 -0.78018561281E+03 -0.10041497826E+04  0.12723191443E+04  0.12699999809E+01 0. -1.
       -4    1    3    3    0  502 -0.42284936085E+02  0.78018561281E+03  0.30478427323E+03  0.83867316182E+03  0.12699999809E+01 0.  1.
</event>
<event>
 5   0  0.1999142E-05  0.2000705E+04  0.7818609E-02  0.8606291E-01
       -2   -1    0    0    0  501  0.00000000000E+00  0.00000000000E+00  0.71817816001E+03  0.71817816001E+03  0.25500000920E-02 0. -1.
        2   -1    0    0  501    0  0.00000000000E+00  0.00000000000E+00 -0.13933941199E+04  0.13933941199E+04  0.25500000920E-02 0.  1.
    10030    2    1    2    0    0  0.00000000000E+00  0.00000000000E+00 -0.67521595988E+03  0.21115722799E+04  0.20007051009E+04 0.  0.
        1    1    3    3  502    0  0.16082505670E+03 -0.98117219516E+03 -0.45390316201E+03  0.10929737673E+04  0.50400001928E-02 0.  1.
       -1    1    3    3    0  502 -0.16082505670E+03  0.98117219516E+03 -0.22131279786E+03  0.10185985126E+04  0.50400001928E-02 0. -1.
</event>
<event>
 5   0  0.9140695E-06  0.1997240E+04  0.7818609E-02  0.8607912E-01
       -1   -1    0    0    0  501  0.00000000000E+00  0.00000000000E+00  0.81763655331E+03  0.81763655332E+03  0.50400001928E-02 0. -1.
        1   -1    0    0  501    0  0.00000000000E+00  0.00000000000E+00 -0.12196637745E+04  0.12196637745E+04  0.50400001928E-02 0.  1.
    10030    2    1    2    0    0  0.00000000000E+00  0.00000000000E+00 -0.40202722119E+03  0.20373003278E+04  0.19972397801E+04 0.  0.
        1    1    3    3  502    0  0.34848296996E+03 -0.66932175324E+03  0.46617735777E+03  0.88699116041E+03  0.50400001928E-02 0. -1.
       -1    1    3    3    0  502 -0.34848296996E+03  0.66932175324E+03 -0.86820457896E+03  0.11503091674E+04  0.50400001928E-02 0.  1.
</event>
<event>
 5   0  0.2003576E-05  0.2003192E+04  0.7818609E-02  0.8605130E-01
        2   -1    0    0  501    0  0.00000000000E+00  0.00000000000E+00  0.12438475881E+04  0.12438475881E+04  0.25500000920E-02 0. -1.
       -2   -1    0    0    0  501  0.00000000000E+00  0.00000000000E+00 -0.80652527767E+03  0.80652527768E+03  0.25500000920E-02 0.  1.
    10030    2    1    2    0    0  0.00000000000E+00  0.00000000000E+00  0.43732231041E+03  0.20503728658E+04  0.20031919742E+04 0.  0.
        4    1    3    3  502    0 -0.20799622282E+03 -0.59125994563E+03  0.10183056621E+04  0.11957419397E+04  0.12699999809E+01 0. -1.
       -4    1    3    3    0  502  0.20799622282E+03  0.59125994563E+03 -0.58098335166E+03  0.85463092608E+03  0.12699999809E+01 0.  1.
</event>
<event>
 5   0  0.2020029E-05  0.1992593E+04  0.7818609E-02  0.8610092E-01
       -2   -1    0    0    0  501  0.00000000000E+00  0.00000000000E+00  0.44858484700E+03  0.44858484701E+03  0.25500000920E-02 0.  1.
        2   -1    0    0  501    0  0.00000000000E+00  0.00000000000E+00 -0.22127511611E+04  0.22127511611E+04  0.25500000920E-02 0. -1.
    10030    2    1    2    0    0  0.00000000000E+00  0.00000000000E+00 -0.17641663141E+04  0.26613360081E+04  0.19925929249E+04 0.  0.
        5    1    3    3  502    0  0.97164161183E+03  0.14603355933E+03 -0.11022422183E+04  0.14766086889E+04  0.46999998093E+01 0.  1.
       -5    1    3    3    0  502 -0.97164161183E+03 -0.14603355933E+03 -0.66192409580E+03  0.11847273192E+04  0.46999998093E+01 0. -1.
</event>
<event>
 5   0  0.9333353E-06  0.2006441E+04  0.7818609E-02  0.8603615E-01
        1   -1    0    0  501    0  0.00000000000E+00  0.00000000000E+00  0.32185080312E+03  0.32185080316E+03  0.50400001928E-02 0.  1.
       -1   -1    0    0    0  501  0.00000000000E+00  0.00000000000E+00 -0.31270748643E+04  0.31270748644E+04  0.50400001928E-02 0. -1.
    10030    2    1    2    0    0  0.00000000000E+00  0.00000000000E+00 -0.28052240612E+04  0.34489256675E+04  0.20064411844E+04 0.  0.
        2    1    3    3  502    0  0.59126212373E+03 -0.46487451213E+03 -0.25437935157E+04  0.26526561521E+04  0.25500000920E-02 0. -1.
       -2    1    3    3    0  502 -0.59126212373E+03  0.46487451213E+03 -0.26143054556E+03  0.79626951539E+03  0.25500000920E-02 0.  1.
</event>
<event>
 5   0  0.9140695E-06  0.1991865E+04  0.7818609E-02  0.8610434E-01
       -1   -1    0    0    0  501  0.00000000000E+00  0.00000000000E+00  0.38995470815E+03  0.38995470818E+03  0.50400001928E-02 0. -1.
        1   -1    0    0  501    0  0.00000000000E+00  0.00000000000E+00 -0.25435801705E+04  0.25435801705E+04  0.50400001928E-02 0.  1.
    10030    2    1    2    0    0  0.00000000000E+00  0.00000000000E+00 -0.21536254623E+04  0.29335348786E+04  0.19918645166E+04 0.  0.
        1    1    3    3  502    0  0.81073613626E+03  0.25259413801E+03 -0.18431908678E+04  0.20293963280E+04  0.50400001928E-02 0.  1.
       -1    1    3    3    0  502 -0.81073613626E+03 -0.25259413801E+03 -0.31043459455E+03  0.90413855061E+03  0.50400001928E-02 0. -1.
</event>
<event>
 5   0  0.1979765E-05  0.1997829E+04  0.7818609E-02  0.8607637E-01
       -2   -1    0    0    0  501  0.00000000000E+00  0.00000000000E+00  0.75176165531E+03  0.75176165531E+03  0.25500000920E-02 0.  1.
        2   -1    0    0  501    0  0.00000000000E+00  0.00000000000E+00 -0.13273219130E+04  0.13273219130E+04  0.25500000920E-02 0. -1.
    10030    2    1    2    0    0  0.00000000000E+00  0.00000000000E+00 -0.57556025769E+03  0.20790835683E+04  0.19978285396E+04 0.  0.
        2    1    3    3  502    0 -0.68173440460E+03 -0.58013208434E+03 -0.74910964047E+03  0.11672533089E+04  0.25500000920E-02 0. -1.
       -2    1    3    3    0  502  0.68173440460E+03  0.58013208434E+03  0.17354938278E+03  0.91183025940E+03  0.25500000920E-02 0.  1.
</event>
<event>
 5   0  0.9220260E-06  0.2000301E+04  0.7818609E-02  0.8606480E-01
        1   -1    0    0  501    0  0.00000000000E+00  0.00000000000E+00  0.93590907907E+03  0.93590907909E+03  0.50400001928E-02 0.  1.
       -1   -1    0    0    0  501  0.00000000000E+00  0.00000000000E+00 -0.10688015162E+04  0.10688015162E+04  0.50400001928E-02 0. -1.
    10030    2    1    2    0    0  0.00000000000E+00  0.00000000000E+00 -0.13289243711E+03  0.20047105953E+04  0.20003010201E+04 0.  0.
        3    1    3    3  502    0  0.68357538809E+03 -0.15319982154E+03 -0.78185141674E+03  0.10497795695E+04  0.10100000352E+00 0. -1.
       -3    1    3    3    0  502 -0.68357538809E+03  0.15319982154E+03  0.64895897963E+03  0.95493102576E+03  0.10100000352E+00 0.  1.
</event>
<event>
 5   0  0.9220260E-06  0.2009879E+04  0.7818609E-02  0.8602016E-01
        1   -1    0    0  501    0  0.00000000000E+00  0.00000000000E+00  0.94218252490E+03  0.94218252491E+03  0.50400001928E-02 0. -1.
       -1   -1    0    0    0  501  0.00000000000E+00  0.00000000000E+00 -0.10718769148E+04  0.10718769148E+04  0.50400001928E-02 0.  1.
    10030    2    1    2    0    0  0.00000000000E+00  0.00000000000E+00 -0.12969438993E+03  0.20140594398E+04  0.20098792979E+04 0.  0.
        3    1    3    3  502    0  0.14748973761E+03  0.16040420466E+03  0.91822370816E+03  0.94372534140E+03  0.10100000352E+00 0. -1.
       -3    1    3    3    0  502 -0.14748973761E+03 -0.16040420466E+03 -0.10479180981E+04  0.10703340983E+04  0.10100000352E+00 0.  1.
</event>
<event>
 5   0  0.1979765E-05  0.1994886E+04  0.7818609E-02  0.8609015E-01
        2   -1    0    0  501    0  0.00000000000E+00  0.00000000000E+00  0.23768406194E+04  0.23768406194E+04  0.25500000920E-02 0.  1.
       -2   -1    0    0    0  501  0.00000000000E+00  0.00000000000E+00 -0.41857760777E+03  0.41857760778E+03  0.25500000920E-02 0. -1.
    10030    2    1    2    0    0  0.00000000000E+00  0.00000000000E+00  0.19582630116E+04  0.27954182272E+04  0.19948857216E+04 0.  0.
        2    1    3    3  502    0  0.74541705069E+03  0.88425243383E+01  0.50499040192E+02  0.74717797262E+03  0.25500000920E-02 0. -1.
       -2    1    3    3    0  502 -0.74541705069E+03 -0.88425243383E+01  0.19077639715E+04  0.20482402546E+04  0.25500000920E-02 0.  1.
</event>
<event>
 5   0  0.9342635E-06  0.2006468E+04  0.7818609E-02  0.8603603E-01
       -1   -1    0    0    0  501  0.00000000000E+00  0.00000000000E+00  0.78340560469E+03  0.78340560470E+03  0.50400001928E-02 0. -1.
        1   -1    0    0  501    0  0.00000000000E+00  0.00000000000E+00 -0.12847472294E+04  0.12847472294E+04  0.50400001928E-02 0.  1.
    10030    2    1    2    0    0  0.00000000000E+00  0.00000000000E+00 -0.50134162471E+03  0.20681528341E+04  0.20064677223E+04 0.  0.
        5    1    3    3  502    0 -0.16015119032E+03 -0.15174998977E+03  0.75807849427E+03  0.78954515807E+03  0.46999998093E+01 0. -1.
       -5    1    3    3    0  502  0.16015119032E+03  0.15174998977E+03 -0.12594201190E+04  0.12786076760E+04  0.46999998093E+01 0.  1.
</event>
<event>
 5   0  0.2038882E-05  0.2013521E+04  0.7818609E-02  0.8600325E-01
        2   -1    0    0  501    0  0.00000000000E+00  0.00000000000E+00  0.18337725076E+04  0.18337725076E+04  0.25500000920E-02 0. -1.
       -2   -1    0    0    0  501  0.00000000000E+00  0.00000000000E+00 -0.55272231766E+03  0.55272231766E+03  0.25500000920E-02 0.  1.
    10030    2    1    2    0    0  0.00000000000E+00  0.00000000000E+00  0.12810501900E+04  0.23864948253E+04  0.20135212842E+04 0.  0.
        3    1    3    3  502    0  0.53414628002E+03  0.66365006468E+03  0.46566639548E+01  0.85191862964E+03  0.10100000352E+00 0.  1.
       -3    1    3    3    0  502 -0.53414628002E+03 -0.66365006468E+03  0.12763935260E+04  0.15345761957E+04  0.10100000352E+00 0. -1.
</event>
<event>
 5   0  0.2038882E-05  0.2000200E+04  0.7818609E-02  0.8606527E-01
       -2   -1    0    0    0  501  0.00000000000E+00  0.00000000000E+00  0.11566340030E+04  0.11566340030E+04  0.25500000920E-02 0.  1.
        2   -1    0    0  501    0  0.00000000000E+00  0.00000000000E+00 -0.86475067157E+03  0.86475067158E+03  0.25500000920E-02 0. -1.
    10030    2    1    2    0    0  0.00000000000E+00  0.00000000000E+00  0.29188333146E+03  0.20213846746E+04  0.20002000209E+04 0.  0.
        3    1    3    3  502    0 -0.63188383166E+02 -0.80146663346E+03 -0.45521871075E+03  0.92388615161E+03  0.10100000352E+00 0. -1.
       -3    1    3    3    0  502  0.63188383166E+02  0.80146663346E+03  0.74710204221E+03  0.10974985230E+04  0.10100000352E+00 0.  1.
</event>
<event>
 5   0  0.1979765E-05  0.1997779E+04  0.7818609E-02  0.8607660E-01
        2   -1    0    0  501    0  0.00000000000E+00  0.00000000000E+00  0.78864858372E+03  0.78864858373E+03  0.25500000920E-02 0. -1.
       -2   -1    0    0    0  501  0.00000000000E+00  0.00000000000E+00 -0.12651777542E+04  0.12651777542E+04  0.25500000920E-02 0.  1.
    10030    2    1    2    0    0  0.00000000000E+00  0.00000000000E+00 -0.47652917050E+03  0.20538263380E+04  0.19977794113E+04 0.  0.
        2    1    3    3  502    0 -0.15458133480E+03  0.94181223031E+03 -0.54127917461E+03  0.10972186706E+04  0.25500000920E-02 0.  1.
       -2    1    3    3    0  502  0.15458133480E+03 -0.94181223031E+03  0.64750004106E+02  0.95660766736E+03  0.25500000920E-02 0. -1.
</event>
<event>
 5   0  0.9370269E-06  0.1997747E+04  0.7818609E-02  0.8607675E-01
        1   -1    0    0  501    0  0.00000000000E+00  0.00000000000E+00  0.13507622827E+04  0.13507622827E+04  0.50400001928E-02 0. -1.
       -1   -1    0    0    0  501  0.00000000000E+00  0.00000000000E+00 -0.73865587435E+03  0.73865587437E+03  0.50400001928E-02 0.  1.
    10030    2    1    2    0    0  0.00000000000E+00  0.00000000000E+00  0.61210640833E+03  0.20894181571E+04  0.19977472262E+04 0.  0.
        4    1    3    3  502    0  0.44015097906E+03 -0.36849436590E+03 -0.54890814235E+03  0.79424350403E+03  0.12699999809E+01 0.  1.
       -4    1    3    3    0  502 -0.44015097906E+03  0.36849436590E+03  0.11610145507E+04  0.12951746530E+04  0.12699999809E+01 0. -1.
</event>
<event>
 5   0  0.1999142E-05  0.1990094E+04  0.7818609E-02  0.8611266E-01
        2   -1    0    0  501    0  0.00000000000E+00  0.00000000000E+00  0.10217562251E+04  0.10217562251E+04  0.25500000920E-02 0.  1.
       -2   -1    0    0    0  501  0.00000000000E+00  0.00000000000E+00 -0.96903571592E+03  0.96903571592E+03  0.25500000920E-02 0. -1.
    10030    2    1    2    0    0  0.00000000000E+00  0.00000000000E+00  0.52720509155E+02  0.19907919410E+04  0.19900937416E+04 0.  0.
        1    1    3    3  502    0 -0.16066895143E+03  0.98166032556E+03  0.51800816892E+02  0.99606969203E+03  0.50400001928E-02 0.  1.
       -1    1    3    3    0  502  0.16066895143E+03 -0.98166032556E+03  0.91969226280E+00  0.99472224896E+03  0.50400001928E-02 0. -1.
</event>
<event>
 5   0  0.1979765E-05  0.2000909E+04  0.7818609E-02  0.8606196E-01
        2   -1    0    0  501    0  0.00000000000E+00  0.00000000000E+00  0.11713685153E+04  0.11713685153E+04  0.25500000920E-02 0. -1.
       -2   -1    0    0    0  501  0.00000000000E+00  0.00000000000E+00 -0.85447888445E+03  0.85447888445E+03  0.25500000920E-02 0.  1.
    10030    2    1    2    0    0  0.00000000000E+00  0.00000000000E+00  0.31688963086E+03  0.20258473998E+04  0.20009094555E+04 0.  0.
        2    1    3    3  502    0 -0.11892405332E+03  0.88365619251E+02  0.11601994883E+04  0.11696214198E+04  0.25500000920E-02 0. -1.
       -2    1    3    3    0  502  0.11892405332E+03 -0.88365619251E+02 -0.84330985741E+03  0.85622597994E+03  0.25500000920E-02 0.  1.
</event>
<event>
 5   0  0.1999142E-05  0.1997476E+04  0.7818609E-02  0.8607802E-01
       -2   -1    0    0    0  501  0.00000000000E+00  0.00000000000E+00  0.87013801599E+03  0.87013801600E+03  0.25500000920E-02 0.  1.
        2   -1    0    0  501    0  0.00000000000E+00  0.00000000000E+00 -0.11463441176E+04  0.11463441176E+04  0.25500000920E-02 0. -1.
    10030    2    1    2    0    0  0.00000000000E+00  0.00000000000E+00 -0.27620610160E+03  0.20164821336E+04  0.19974760035E+04 0.  0.
        1    1    3    3  502    0 -0.23815259039E+03 -0.77186317045E+03 -0.73104874439E+03  0.10894593507E+04  0.50400001928E-02 0. -1.
       -1    1    3    3    0  502  0.23815259039E+03  0.77186317045E+03  0.45484264279E+03  0.92702278286E+03  0.50400001928E-02 0.  1.
</event>
<event>
 5   0  0.2038882E-05  0.1994074E+04  0.7818609E-02  0.8609396E-01
        2   -1    0    0  501    0  0.00000000000E+00  0.00000000000E+00  0.64524774581E+03  0.64524774581E+03  0.25500000920E-02 0.  1.
       -2   -1    0    0    0  501  0.00000000000E+00  0.00000000000E+00 -0.15406219969E+04  0.15406219969E+04  0.25500000920E-02 0. -1.
    10030    2    1    2    0    0  0.00000000000E+00  0.00000000000E+00 -0.89537425109E+03  0.21858697427E+04  0.19940740915E+04 0.  0.
        3    1    3    3  502    0  0.25653697531E+03  0.89360976291E+03 -0.84251572847E+03  0.12546642543E+04  0.10100000352E+00 0. -1.
       -3    1    3    3    0  502 -0.25653697531E+03 -0.89360976291E+03 -0.52858522626E+02  0.93120548843E+03  0.10100000352E+00 0.  1.
</event>
<event>
 5   0  0.9333353E-06  0.1999486E+04  0.7818609E-02  0.8606861E-01
        1   -1    0    0  501    0  0.00000000000E+00  0.00000000000E+00  0.62985773608E+03  0.62985773610E+03  0.50400001928E-02 0.  1.
       -1   -1    0    0    0  501  0.00000000000E+00  0.00000000000E+00 -0.15868442745E+04  0.15868442745E+04  0.50400001928E-02 0. -1.
    10030    2    1    2    0    0  0.00000000000E+00  0.00000000000E+00 -0.95698653844E+03  0.22167020106E+04  0.19994860763E+04 0.  0.
        2    1    3    3  502    0 -0.72260742241E+03  0.17607956880E+03  0.26215569014E+03  0.78860072746E+03  0.25500000920E-02 0.  1.
       -2    1    3    3    0  502  0.72260742241E+03 -0.17607956880E+03 -0.12191422286E+04  0.14281012832E+04  0.25500000920E-02 0. -1.
</event>
<event>
 5   0  0.1999142E-05  0.2000969E+04  0.7818609E-02  0.8606168E-01
        2   -1    0    0  501    0  0.00000000000E+00  0.00000000000E+00  0.18965421622E+04  0.18965421622E+04  0.25500000920E-02 0.  1.
       -2   -1    0    0    0  501  0.00000000000E+00  0.00000000000E+00 -0.52778650330E+03  0.52778650330E+03  0.25500000920E-02 0. -1.
    10030    2    1    2    0    0  0.00000000000E+00  0.00000000000E+00  0.13687556589E+04  0.24243286655E+04  0.20009691213E+04 0.  0.
        1    1    3    3  502    0  0.42584758771E+03  0.68685222800E+03 -0.30203412368E+02  0.80871774879E+03  0.50400001928E-02 0. -1.
       -1    1    3    3    0  502 -0.42584758771E+03 -0.68685222800E+03  0.13989590712E+04  0.16156109167E+04  0.50400001928E-02 0.  1.
</event>
<event>
 5   0  0.2003576E-05  0.1999005E+04  0.7818609E-02  0.8607086E-01
       -2   -1    0    0    0  501  0.00000000000E+00  0.00000000000E+00  0.54342700887E+03  0.54342700888E+03  0.25500000920E-02 0. -1.
        2   -1    0    0  501    0  0.00000000000E+00  0.00000000000E+00 -0.18383421125E+04  0.18383421125E+04  0.25500000920E-02 0.  1.
    10030    2    1    2    0    0  0.00000000000E+00  0.00000000000E+00 -0.12949151037E+04  0.23817691214E+04  0.19990045078E+04 0.  0.
        4    1    3    3  502    0  0.45278727416E+03 -0.73407176264E+03 -0.12492722628E+04  0.15180778860E+04  0.12699999809E+01 0.  1.
       -4    1    3    3    0  502 -0.45278727416E+03  0.73407176264E+03 -0.45642840830E+02  0.86369123543E+03  0.12699999809E+01 0. -1.
</event>
<event>
 5   0  0.9140695E-06  0.1999527E+04  0.7818609E-02  0.8606842E-01
       -1   -1    0    0    0  501  0.00000000000E+00  0.00000000000E+00  0.11092898643E+04  0.11092898643E+04  0.50400001928E-02 0. -1.
        1   -1    0    0  501    0  0.00000000000E+00  0.00000000000E+00 -0.90105098512E+03  0.90105098514E+03  0.50400001928E-02 0.  1.
    10030    2    1    2    0    0  0.00000000000E+00  0.00000000000E+00  0.20823887914E+03  0.20103408494E+04  0.19995266690E+04 0.  0.
        1    1    3    3  502    0 -0.54770662165E+03 -0.34266089769E+03  0.87121880886E+03  0.10846295437E+04  0.50400001928E-02 0. -1.
       -1    1    3    3    0  502  0.54770662165E+03  0.34266089769E+03 -0.66297992972E+03  0.92571130567E+03  0.50400001928E-02 0.  1.
</event>
<event>
 5   0  0.9333353E-06  0.2000441E+04  0.7818609E-02  0.8606414E-01
        1   -1    0    0  501    0  0.00000000000E+00  0.00000000000E+00  0.12390561717E+04  0.12390561718E+04  0.50400001928E-02 0.  1.
       -1   -1    0    0    0  501  0.00000000000E+00  0.00000000000E+00 -0.80742223234E+03  0.80742223235E+03  0.50400001928E-02 0. -1.
    10030    2    1    2    0    0  0.00000000000E+00  0.00000000000E+00  0.43163393941E+03  0.20464784041E+04  0.20004414515E+04 0.  0.
        2    1    3    3  502    0  0.63968887477E+03 -0.50241254896E+03  0.81129625266E+03  0.11488349905E+04  0.25500000920E-02 0.  1.
       -2    1    3    3    0  502 -0.63968887477E+03  0.50241254896E+03 -0.37966231325E+03  0.89764341359E+03  0.25500000920E-02 0. -1.
</event>
<event>
 5   0  0.9342635E-06  0.2013399E+04  0.7818609E-02  0.8600382E-01
       -1   -1    0    0    0  501  0.00000000000E+00  0.00000000000E+00  0.56511065892E+03  0.56511065895E+03  0.50400001928E-02 0.  1.
        1   -1    0    0  501    0  0.00000000000E+00  0.00000000000E+00 -0.17933541143E+04  0.17933541143E+04  0.50400001928E-02 0. -1.
    10030    2    1    2    0    0  0.00000000000E+00  0.00000000000E+00 -0.12282434554E+04  0.23584647732E+04  0.20133986443E+04 0.  0.
        5    1    3    3  502    0 -0.21992844081E+03  0.54883247688E+03  0.34027725168E+03  0.68219960771E+03  0.46999998093E+01 0.  1.
       -5    1    3    3    0  502  0.21992844081E+03 -0.54883247688E+03 -0.15685207070E+04  0.16762651655E+04  0.46999998093E+01 0. -1.
</event>
<event>
 5   0  0.7132000E-06  0.1999226E+04  0.7818609E-02  0.8606982E-01
       -3   -1    0    0    0  501  0.00000000000E+00  0.00000000000E+00  0.74145845652E+03  0.74145846340E+03  0.10100000352E+00 0.  1.
        3   -1    0    0  501    0  0.00000000000E+00  0.00000000000E+00 -0.13476499456E+04  0.13476499494E+04  0.10100000352E+00 0. -1.
    10030    2    1    2    0    0  0.00000000000E+00  0.00000000000E+00 -0.60619148908E+03  0.20891084128E+04  0.19992263101E+04 0.  0.
        4    1    3    3  502    0 -0.27511325559E+03 -0.89911854927E+03  0.51456942599E+02  0.94167451855E+03  0.12699999809E+01 0.  1.
       -4    1    3    3    0  502  0.27511325559E+03  0.89911854927E+03 -0.65764843168E+03  0.11474338942E+04  0.12699999809E+01 0. -1.
</event>
<event>
 5   0  0.9220260E-06  0.2002345E+04  0.7818609E-02  0.8605525E-01
        1   -1    0    0  501    0  0.00000000000E+00  0.00000000000E+00  0.73079728444E+03  0.73079728446E+03  0.50400001928E-02 0.  1.
       -1   -1    0    0    0  501  0.00000000000E+00  0.00000000000E+00 -0.13715795513E+04  0.13715795514E+04  0.50400001928E-02 0. -1.
    10030    2    1    2    0    0  0.00000000000E+00  0.00000000000E+00 -0.64078226690E+03  0.21023768358E+04  0.20023452365E+04 0.  0.
        3    1    3    3  502    0  0.62277923260E+03  0.72840274005E+03 -0.16225799230E+02  0.95848203480E+03  0.10100000352E+00 0.  1.
       -3    1    3    3    0  502 -0.62277923260E+03 -0.72840274005E+03 -0.62455646767E+03  0.11438948010E+04  0.10100000352E+00 0. -1.
</event>
<event>
 5   0  0.2003576E-05  0.1994562E+04  0.7818609E-02  0.8609168E-01
       -2   -1    0    0    0  501  0.00000000000E+00  0.00000000000E+00  0.75672882674E+03  0.75672882675E+03  0.25500000920E-02 0. -1.
        2   -1    0    0  501    0  0.00000000000E+00  0.00000000000E+00 -0.13143004147E+04  0.13143004147E+04  0.25500000920E-02 0.  1.
    10030    2    1    2    0    0  0.00000000000E+00  0.00000000000E+00 -0.55757158799E+03  0.20710292415E+04  0.19945616168E+04 0.  0.
        4    1    3    3  502    0 -0.39363796103E+03 -0.86831927436E+03  0.25073494727E+02  0.95370828854E+03  0.12699999809E+01 0. -1.
       -4    1    3    3    0  502  0.39363796103E+03  0.86831927436E+03 -0.58264508272E+03  0.11173209530E+04  0.12699999809E+01 0.  1.
</event>
<event>
 5   0  0.9140695E-06  0.2001298E+04  0.7818609E-02  0.8606014E-01
       -1   -1    0    0    0  501  0.00000000000E+00  0.00000000000E+00  0.37662762923E+03  0.37662762926E+03  0.50400001928E-02 0. -1.
        1   -1    0    0  501    0  0.00000000000E+00  0.00000000000E+00 -0.26585902557E+04  0.26585902557E+04  0.50400001928E-02 0.  1.
    10030    2    1    2    0    0  0.00000000000E+00  0.00000000000E+00 -0.22819626265E+04  0.30352178849E+04  0.20012981239E+04 0.  0.
        1    1    3    3  502    0 -0.38796367672E+03 -0.79152424709E+03 -0.42274773299E+03  0.97762062885E+03  0.50400001928E-02 0. -1.
       -1    1    3    3    0  502  0.38796367672E+03  0.79152424709E+03 -0.18592148935E+04  0.20575972561E+04  0.50400001928E-02 0.  1.
</event>
<event>
 5   0  0.2020029E-05  0.2000517E+04  0.7818609E-02  0.8606379E-01
        2   -1    0    0  501    0  0.00000000000E+00  0.00000000000E+00  0.94600569259E+03  0.94600569259E+03  0.25500000920E-02 0.  1.
       -2   -1    0    0    0  501  0.00000000000E+00  0.00000000000E+00 -0.10576230367E+04  0.10576230367E+04  0.25500000920E-02 0. -1.
    10030    2    1    2    0    0  0.00000000000E+00  0.00000000000E+00 -0.11161734411E+03  0.20036287293E+04  0.20005173464E+04 0.  0.
        5    1    3    3  502    0 -0.74862767285E+03 -0.27043914025E+03  0.55086818288E+03  0.96801785420E+03  0.46999998093E+01 0.  1.
       -5    1    3    3    0  502  0.74862767285E+03  0.27043914025E+03 -0.66248552699E+03  0.10356108751E+04  0.46999998093E+01 0. -1.
</event>
<event>
 5   0  0.2020029E-05  0.2003377E+04  0.7818609E-02  0.8605044E-01
       -2   -1    0    0    0  501  0.00000000000E+00  0.00000000000E+00  0.66991146495E+03  0.66991146496E+03  0.25500000920E-02 0. -1.
        2   -1    0    0  501    0  0.00000000000E+00  0.00000000000E+00 -0.14977792321E+04  0.14977792321E+04  0.25500000920E-02 0.  1.
    10030    2    1    2    0    0  0.00000000000E+00  0.00000000000E+00 -0.82786776713E+03  0.21676906970E+04  0.20033766291E+04 0.  0.
        5    1    3    3  502    0  0.73760885182E+03 -0.42120163363E+03  0.16053518990E+03  0.86444853615E+03  0.46999998093E+01 0. -1.
       -5    1    3    3    0  502 -0.73760885182E+03  0.42120163363E+03 -0.98840295703E+03  0.13032421609E+04  0.46999998093E+01 0.  1.
</event>
<event>
 5   0  0.2020029E-05  0.1999541E+04  0.7818609E-02  0.8606835E-01
       -2   -1    0    0    0  501  0.00000000000E+00  0.00000000000E+00  0.10201142923E+04  0.10201142923E+04  0.25500000920E-02 0.  1.
        2   -1    0    0  501    0  0.00000000000E+00  0.00000000000E+00 -0.97983264958E+03  0.97983264958E+03  0.25500000920E-02 0. -1.
    10030    2    1    2    0    0  0.00000000000E+00  0.00000000000E+00  0.40281642683E+02  0.19999469419E+04  0.19995412373E+04 0.  0.
        5    1    3    3  502    0  0.97434251293E+03 -0.22296221473E+03  0.41679307216E+02  0.10004072852E+04  0.46999998093E+01 0. -1.
       -5    1    3    3    0  502 -0.97434251293E+03  0.22296221473E+03 -0.13976645329E+01  0.99953965662E+03  0.46999998093E+01 0.  1.
</event>
<event>
 5   0  0.1979765E-05  0.1996372E+04  0.7818609E-02  0.8608319E-01
        2   -1    0    0  501    0  0.00000000000E+00  0.00000000000E+00  0.14934381378E+04  0.14934381378E+04  0.25500000920E-02 0.  1.
       -2   -1    0    0    0  501  0.00000000000E+00  0.00000000000E+00 -0.66716871910E+03  0.66716871911E+03  0.25500000920E-02 0. -1.
    10030    2    1    2    0    0  0.00000000000E+00  0.00000000000E+00  0.82626941865E+03  0.21606068569E+04  0.19963719187E+04 0.  0.
        2    1    3    3  502    0 -0.20379570283E+03  0.42277719022E+02 -0.64342320132E+03  0.67624959151E+03  0.25500000920E-02 0. -1.
       -2    1    3    3    0  502  0.20379570283E+03 -0.42277719022E+02  0.14696926200E+04  0.14843572654E+04  0.25500000920E-02 0.  1.
</event>
<event>
 5   0  0.9370269E-06  0.2000766E+04  0.7818609E-02  0.8606263E-01
        1   -1    0    0  501    0  0.00000000000E+00  0.00000000000E+00  0.14374948055E+04  0.14374948055E+04  0.50400001928E-02 0.  1.
       -1   -1    0    0    0  501  0.00000000000E+00  0.00000000000E+00 -0.69618752964E+03  0.69618752966E+03  0.50400001928E-02 0. -1.
    10030    2    1    2    0    0  0.00000000000E+00  0.00000000000E+00  0.74130727582E+03  0.21336823351E+04  0.20007658109E+04 0.  0.
        4    1    3    3  502    0 -0.90561410862E+03 -0.39972885403E+03  0.52462037006E+03  0.11203339752E+04  0.12699999809E+01 0. -1.
       -4    1    3    3    0  502  0.90561410862E+03  0.39972885403E+03  0.21668690576E+03  0.10133483599E+04  0.12699999809E+01 0.  1.
</event>
<event>
 5   0  0.1999142E-05  0.1991767E+04  0.7818609E-02  0.8610480E-01
       -2   -1    0    0    0  501  0.00000000000E+00  0.00000000000E+00  0.10623855567E+04  0.10623855567E+04  0.25500000920E-02 0. -1.
        2   -1    0    0  501    0  0.00000000000E+00  0.00000000000E+00 -0.93354388515E+03  0.93354388516E+03  0.25500000920E-02 0.  1.
    10030    2    1    2    0    0  0.00000000000E+00  0.00000000000E+00  0.12884167150E+03  0.19959294418E+04  0.19917665928E+04 0.  0.
        1    1    3    3  502    0  0.42145019078E+03  0.82316520214E+03 -0.30589492357E+03  0.97406001746E+03  0.50400001928E-02 0.  1.
       -1    1    3    3    0  502 -0.42145019078E+03 -0.82316520214E+03  0.43473659507E+03  0.10218694244E+04  0.50400001928E-02 0. -1.
</event>
<event>
 5   0  0.2020029E-05  0.2000321E+04  0.7818609E-02  0.8606471E-01
        2   -1    0    0  501    0  0.00000000000E+00  0.00000000000E+00  0.17882270742E+04  0.17882270742E+04  0.25500000920E-02 0.  1.
       -2   -1    0    0    0  501  0.00000000000E+00  0.00000000000E+00 -0.55939265382E+03  0.55939265383E+03  0.25500000920E-02 0. -1.
    10030    2    1    2    0    0  0.00000000000E+00  0.00000000000E+00  0.12288344204E+04  0.23476197281E+04  0.20003210629E+04 0.  0.
        5    1    3    3  502    0  0.74495853290E+03  0.79063300202E+02 -0.16326512265E+03  0.76674103285E+03  0.46999998093E+01 0. -1.
       -5    1    3    3    0  502 -0.74495853290E+03 -0.79063300202E+02  0.13920995431E+04  0.15808786952E+04  0.46999998093E+01 0.  1.
</event>
<event>
 5   0  0.2003576E-05  0.1991962E+04  0.7818609E-02  0.8610388E-01
       -2   -1    0    0    0  501  0.00000000000E+00  0.00000000000E+00  0.11600911147E+04  0.11600911147E+04  0.25500000920E-02 0.  1.
        2   -1    0    0  501    0  0.00000000000E+00  0.00000000000E+00 -0.85508640448E+03  0.85508640448E+03  0.25500000920E-02 0. -1.
    10030    2    1    2    0    0  0.00000000000E+00  0.00000000000E+00  0.30500471020E+03  0.20151775192E+04  0.19919619877E+04 0.  0.
        4    1    3    3  502    0  0.58919854849E+03  0.78489838623E+03 -0.19050288219E+02  0.98162362065E+03  0.12699999809E+01 0. -1.
       -4    1    3    3    0  502 -0.58919854849E+03 -0.78489838623E+03  0.32405499842E+03  0.10335538985E+04  0.12699999809E+01 0.  1.
</event>
<event>
 5   0  0.2038882E-05  0.2011008E+04  0.7818609E-02  0.8601491E-01
       -2   -1    0    0    0  501  0.00000000000E+00  0.00000000000E+00  0.55535113910E+03  0.55535113911E+03  0.25500000920E-02 0. -1.
        2   -1    0    0  501    0  0.00000000000E+00  0.00000000000E+00 -0.18205382305E+04  0.18205382305E+04  0.25500000920E-02 0.  1.
    10030    2    1    2    0    0  0.00000000000E+00  0.00000000000E+00 -0.12651870914E+04  0.23758893696E+04  0.20110076878E+04 0.  0.
        3    1    3    3  502    0  0.67410983331E+03 -0.17371036321E+03 -0.14898018138E+04  0.16444174690E+04  0.10100000352E+00 0.  1.
       -3    1    3    3    0  502 -0.67410983331E+03  0.17371036321E+03  0.22461472243E+03  0.73147190062E+03  0.10100000352E+00 0. -1.
</event>
<event>
 5   0  0.2020029E-05  0.1999691E+04  0.7818609E-02  0.8606765E-01
        2   -1    0    0  501    0  0.00000000000E+00  0.00000000000E+00  0.79240484285E+03  0.79240484286E+03  0.25500000920E-02 0.  1.
       -2   -1    0    0    0  501  0.00000000000E+00  0.00000000000E+00 -0.12615907865E+04  0.12615907865E+04  0.25500000920E-02 0. -1.
    10030    2    1    2    0    0  0.00000000000E+00  0.00000000000E+00 -0.46918594364E+03  0.20539956294E+04  0.19996906250E+04 0.  0.
        5    1    3    3  502    0  0.34953810688E+03  0.10218262220E+03  0.72184954076E+03  0.80852150617E+03  0.46999998093E+01 0.  1.
       -5    1    3    3    0  502 -0.34953810688E+03 -0.10218262220E+03 -0.11910354844E+04  0.12454741232E+04  0.46999998093E+01 0. -1.
</event>
<event>
 5   0  0.9370269E-06  0.1999261E+04  0.7818609E-02  0.8606966E-01
       -1   -1    0    0    0  501  0.00000000000E+00  0.00000000000E+00  0.79313622525E+03  0.79313622526E+03  0.50400001928E-02 0. -1.
        1   -1    0    0  501    0  0.00000000000E+00  0.00000000000E+00 -0.12598861118E+04  0.12598861118E+04  0.50400001928E-02 0.  1.
    10030    2    1    2    0    0  0.00000000000E+00  0.00000000000E+00 -0.46674988658E+03  0.20530223371E+04  0.19992611785E+04 0.  0.
        4    1    3    3  502    0  0.73862512725E+03 -0.63410187836E+03 -0.93462499614E-01  0.97347516269E+03  0.12699999809E+01 0. -1.
       -4    1    3    3    0  502 -0.73862512725E+03  0.63410187836E+03 -0.46665642408E+03  0.10795471744E+04  0.12699999809E+01 0.  1.
</event>
<event>
 5   0  0.9220260E-06  0.1989129E+04  0.7818609E-02  0.8611720E-01
        1   -1    0    0  501    0  0.00000000000E+00  0.00000000000E+00  0.89142279884E+03  0.89142279885E+03  0.50400001928E-02 0.  1.
       -1   -1    0    0    0  501  0.00000000000E+00  0.00000000000E+00 -0.11096397853E+04  0.11096397853E+04  0.50400001928E-02 0. -1.
    10030    2    1    2    0    0  0.00000000000E+00  0.00000000000E+00 -0.21821698649E+03  0.20010625842E+04  0.19891286566E+04 0.  0.
        3    1    3    3  502    0  0.93799026218E+03  0.32983697008E+03 -0.85730435514E+02  0.99798190192E+03  0.10100000352E+00 0. -1.
       -3    1    3    3    0  502 -0.93799026218E+03 -0.32983697008E+03 -0.13248655098E+03  0.10030806823E+04  0.10100000352E+00 0.  1.
</event>
<event>
 5   0  0.9342635E-06  0.1992985E+04  0.7818609E-02  0.8609907E-01
        1   -1    0    0  501    0  0.00000000000E+00  0.00000000000E+00  0.13782401266E+04  0.13782401266E+04  0.50400001928E-02 0.  1.
       -1   -1    0    0    0  501  0.00000000000E+00  0.00000000000E+00 -0.72048235178E+03  0.72048235179E+03  0.50400001928E-02 0. -1.
    10030    2    1    2    0    0  0.00000000000E+00  0.00000000000E+00  0.65775777482E+03  0.20987224784E+04  0.19929853866E+04 0.  0.
        5    1    3    3  502    0  0.80586013819E+03  0.45070623829E+03  0.72349896816E+03  0.11730385852E+04  0.46999998093E+01 0.  1.
       -5    1    3    3    0  502 -0.80586013819E+03 -0.45070623829E+03 -0.65741193332E+02  0.92568389316E+03  0.46999998093E+01 0. -1.
</event>
<event>
 5   0  0.1999142E-05  0.2005139E+04  0.7818609E-02  0.8604222E-01
        2   -1    0    0  501    0  0.00000000000E+00  0.00000000000E+00  0.13623422795E+04  0.13623422795E+04  0.25500000920E-02 0.  1.
       -2   -1    0    0    0  501  0.00000000000E+00  0.00000000000E+00 -0.73780721560E+03  0.73780721560E+03  0.25500000920E-02 0. -1.
    10030    2    1    2    0    0  0.00000000000E+00  0.00000000000E+00  0.62453506391E+03  0.21001494951E+04  0.20051393607E+04 0.  0.
        1    1    3    3  502    0  0.22084493828E+03 -0.32445689318E+03  0.12785325342E+04  0.13374192325E+04  0.50400001928E-02 0.  1.
       -1    1    3    3    0  502 -0.22084493828E+03  0.32445689318E+03 -0.65399747033E+03  0.76273026262E+03  0.50400001928E-02 0. -1.
</event>
<event>
 5   0  0.2020029E-05  0.2001311E+04  0.7818609E-02  0.8606008E-01
        2   -1    0    0  501    0  0.00000000000E+00  0.00000000000E+00  0.18077469802E+04  0.18077469802E+04  0.25500000920E-02 0. -1.
       -2   -1    0    0    0  501  0.00000000000E+00  0.00000000000E+00 -0.55390042146E+03  0.55390042146E+03  0.25500000920E-02 0.  1.
    10030    2    1    2    0    0  0.00000000000E+00  0.00000000000E+00  0.12538465588E+04  0.23616474017E+04  0.20013113843E+04 0.  0.
        5    1    3    3  502    0  0.47110742481E+03  0.50257564567E+03 -0.22954039048E+03  0.72610974804E+03  0.46999998093E+01 0.  1.
       -5    1    3    3    0  502 -0.47110742481E+03 -0.50257564567E+03  0.14833869493E+04  0.16355376537E+04  0.46999998093E+01 0. -1.
</event>
<event>
 5   0  0.9342635E-06  0.2005638E+04  0.7818609E-02  0.8603989E-01
        1   -1    0    0  501    0  0.00000000000E+00  0.00000000000E+00  0.62805365361E+03  0.62805365363E+03  0.50400001928E-02 0. -1.
       -1   -1    0    0    0  501  0.00000000000E+00  0.00000000000E+00 -0.16012106080E+04  0.16012106081E+04  0.50400001928E-02 0.  1.
    10030    2    1    2    0    0  0.00000000000E+00  0.00000000000E+00 -0.97315695444E+03  0.22292642617E+04  0.20056382252E+04 0.  0.
        5    1    3    3  502    0  0.63441598424E+03  0.77246579084E+03 -0.57575533777E+03  0.11535611549E+04  0.46999998093E+01 0.  1.
       -5    1    3    3    0  502 -0.63441598424E+03 -0.77246579084E+03 -0.39740161667E+03  0.10757031068E+04  0.46999998093E+01 0. -1.
</event>
<event>
 5   0  0.9140695E-06  0.2004187E+04  0.7818609E-02  0.8604666E-01
       -1   -1    0    0    0  501  0.00000000000E+00  0.00000000000E+00  0.10836766596E+04  0.10836766596E+04  0.50400001928E-02 0. -1.
        1   -1    0    0  501    0  0.00000000000E+00  0.00000000000E+00 -0.92665206646E+03  0.92665206648E+03  0.50400001928E-02 0.  1.
    10030    2    1    2    0    0  0.00000000000E+00  0.00000000000E+00  0.15702459312E+03  0.20103287261E+04  0.20041868336E+04 0.  0.
        1    1    3    3  502    0  0.57254361167E+03 -0.82142176470E+03  0.11927318103E+03  0.10083481514E+04  0.50400001928E-02 0. -1.
       -1    1    3    3    0  502 -0.57254361167E+03  0.82142176470E+03  0.37751412081E+02  0.10019805746E+04  0.50400001928E-02 0.  1.
</event>
<event>
 5   0  0.2003576E-05  0.2002939E+04  0.7818609E-02  0.8605248E-01
       -2   -1    0    0    0  501  0.00000000000E+00  0.00000000000E+00  0.40686713140E+03  0.40686713141E+03  0.25500000920E-02 0. -1.
        2   -1    0    0  501    0  0.00000000000E+00  0.00000000000E+00 -0.24650345700E+04  0.24650345700E+04  0.25500000920E-02 0.  1.
    10030    2    1    2    0    0  0.00000000000E+00  0.00000000000E+00 -0.20581674386E+04  0.28719017014E+04  0.20029393843E+04 0.  0.
        4    1    3    3  502    0  0.27889270372E+02  0.55189946983E+03 -0.22266384768E+04  0.22941864256E+04  0.12699999809E+01 0.  1.
       -4    1    3    3    0  502 -0.27889270372E+02 -0.55189946983E+03  0.16847103826E+03  0.57771527574E+03  0.12699999809E+01 0. -1.
</event>
<event>
 5   0  0.9140695E-06  0.2006372E+04  0.7818609E-02  0.8603648E-01
       -1   -1    0    0    0  501  0.00000000000E+00  0.00000000000E+00  0.38560466573E+03  0.38560466576E+03  0.50400001928E-02 0. -1.
        1   -1    0    0  501    0  0.00000000000E+00  0.00000000000E+00 -0.26098796664E+04  0.26098796665E+04  0.50400001928E-02 0.  1.
    10030    2    1    2    0    0  0.00000000000E+00  0.00000000000E+00 -0.22242750007E+04  0.29954843322E+04  0.20063716270E+04 0.  0.
        1    1    3    3  502    0 -0.11896325964E+03  0.40918652019E+03 -0.24680414454E+04  0.25045587319E+04  0.50400001928E-02 0.  1.
       -1    1    3    3    0  502  0.11896325964E+03 -0.40918652019E+03  0.24376644468E+03  0.49092560029E+03  0.50400001928E-02 0. -1.
</event>
<event>
 5   0  0.2003576E-05  0.1999640E+04  0.7818609E-02  0.8606789E-01
        2   -1    0    0  501    0  0.00000000000E+00  0.00000000000E+00  0.10333214816E+04  0.10333214816E+04  0.25500000920E-02 0. -1.
       -2   -1    0    0    0  501  0.00000000000E+00  0.00000000000E+00 -0.96740420074E+03  0.96740420075E+03  0.25500000920E-02 0.  1.
    10030    2    1    2    0    0  0.00000000000E+00  0.00000000000E+00  0.65917280854E+02  0.20007256823E+04  0.19996395095E+04 0.  0.
        4    1    3    3  502    0  0.49474297793E+03 -0.86441758439E+03 -0.54550600274E+02  0.99747970170E+03  0.12699999809E+01 0.  1.
       -4    1    3    3    0  502 -0.49474297793E+03  0.86441758439E+03  0.12046788113E+03  0.10032459807E+04  0.12699999809E+01 0. -1.
</event>
<event>
 5   0  0.1999142E-05  0.1999410E+04  0.7818609E-02  0.8606897E-01
       -2   -1    0    0    0  501  0.00000000000E+00  0.00000000000E+00  0.77614775253E+03  0.77614775254E+03  0.25500000920E-02 0. -1.
        2   -1    0    0  501    0  0.00000000000E+00  0.00000000000E+00 -0.12876543498E+04  0.12876543498E+04  0.25500000920E-02 0.  1.
    10030    2    1    2    0    0  0.00000000000E+00  0.00000000000E+00 -0.51150659723E+03  0.20638021023E+04  0.19994099426E+04 0.  0.
        1    1    3    3  502    0 -0.70947332180E+03  0.28854906743E+03  0.40743141412E+03  0.86753289038E+03  0.50400001928E-02 0. -1.
       -1    1    3    3    0  502  0.70947332180E+03 -0.28854906743E+03 -0.91893801135E+03  0.11962692119E+04  0.50400001928E-02 0.  1.
</event>
<event>
 5   0  0.7132000E-06  0.1993881E+04  0.7818609E-02  0.8609487E-01
       -4   -1    0    0    0  501  0.00000000000E+00  0.00000000000E+00  0.40826912301E+03  0.40827109829E+03  0.12699999809E+01 0. -1.
        4   -1    0    0  501    0  0.00000000000E+00  0.00000000000E+00 -0.24343930664E+04  0.24343933977E+04  0.12699999809E+01 0.  1.
    10030    2    1    2    0    0  0.00000000000E+00  0.00000000000E+00 -0.20261239434E+04  0.28426644959E+04  0.19938814415E+04 0.  0.
        3    1    3    3  502    0  0.66583081503E+03 -0.64054396070E+03 -0.47911431061E+03  0.10407582681E+04  0.10100000352E+00 0. -1.
       -3    1    3    3    0  502 -0.66583081503E+03  0.64054396070E+03 -0.15470096328E+04  0.18019062278E+04  0.10100000352E+00 0.  1.
</event>
<event>
 5   0  0.9140695E-06  0.1999305E+04  0.7818609E-02  0.8606946E-01
       -1   -1    0    0    0  501  0.00000000000E+00  0.00000000000E+00  0.52405071408E+03  0.52405071410E+03  0.50400001928E-02 0.  1.
        1   -1    0    0  501    0  0.00000000000E+00  0.00000000000E+00 -0.19068860804E+04  0.19068860804E+04  0.50400001928E-02 0. -1.
    10030    2    1    2    0    0  0.00000000000E+00  0.00000000000E+00 -0.13828353663E+04  0.24309367945E+04  0.19993048913E+04 0.  0.
        1    1    3    3  502    0 -0.18578019960E+03 -0.85356444461E+03 -0.10046655877E+03  0.87930658654E+03  0.50400001928E-02 0.  1.
       -1    1    3    3    0  502  0.18578019960E+03  0.85356444461E+03 -0.12823688076E+04  0.15516302080E+04  0.50400001928E-02 0. -1.
</event>
<event>
 5   0  0.9342635E-06  0.1996731E+04  0.7818609E-02  0.8608151E-01
        1   -1    0    0  501    0  0.00000000000E+00  0.00000000000E+00  0.18838602229E+04  0.18838602229E+04  0.50400001928E-02 0. -1.
       -1   -1    0    0    0  501  0.00000000000E+00  0.00000000000E+00 -0.52909087043E+03  0.52909087045E+03  0.50400001928E-02 0.  1.
    10030    2    1    2    0    0  0.00000000000E+00  0.00000000000E+00  0.13547693525E+04  0.24129510934E+04  0.19967305728E+04 0.  0.
        5    1    3    3  502    0  0.20371043956E+03  0.87781728322E+03  0.15810211012E+03  0.91492048459E+03  0.46999998093E+01 0.  1.
       -5    1    3    3    0  502 -0.20371043956E+03 -0.87781728322E+03  0.11966672424E+04  0.14980306088E+04  0.46999998093E+01 0. -1.
</event>
<event>
 5   0  0.2003576E-05  0.2001188E+04  0.7818609E-02  0.8606065E-01
       -2   -1    0    0    0  501  0.00000000000E+00  0.00000000000E+00  0.66343843442E+03  0.66343843443E+03  0.25500000920E-02 0.  1.
        2   -1    0    0  501    0  0.00000000000E+00  0.00000000000E+00 -0.15090906379E+04  0.15090906379E+04  0.25500000920E-02 0. -1.
    10030    2    1    2    0    0  0.00000000000E+00  0.00000000000E+00 -0.84565220352E+03  0.21725290724E+04  0.20011883772E+04 0.  0.
        4    1    3    3  502    0  0.75882864132E+02 -0.88952699181E+03 -0.91336592368E+03  0.12772060921E+04  0.12699999809E+01 0. -1.
       -4    1    3    3    0  502 -0.75882864132E+02  0.88952699181E+03  0.67713720163E+02  0.89532298028E+03  0.12699999809E+01 0.  1.
</event>
<event>
 5   0  0.9370269E-06  0.2001547E+04  0.7818609E-02  0.8605898E-01
        1   -1    0    0  501    0  0.00000000000E+00  0.00000000000E+00  0.81172010361E+03  0.81172010363E+03  0.50400001928E-02 0.  1.
       -1   -1    0    0    0  501  0.00000000000E+00  0.00000000000E+00 -0.12338577252E+04  0.12338577252E+04  0.50400001928E-02 0. -1.
    10030    2    1    2    0    0  0.00000000000E+00  0.00000000000E+00 -0.42213762157E+03  0.20455778288E+04  0.20015465226E+04 0.  0.
        4    1    3    3  502    0  0.49287120301E+03  0.87813597837E+02  0.67454609087E+03  0.84002814973E+03  0.12699999809E+01 0.  1.
       -4    1    3    3    0  502 -0.49287120301E+03 -0.87813597837E+02 -0.10966837124E+04  0.12055496791E+04  0.12699999809E+01 0. -1.
</event>
<event>
 5   0  0.2003576E-05  0.1991548E+04  0.7818609E-02  0.8610582E-01
        2   -1    0    0  501    0  0.00000000000E+00  0.00000000000E+00  0.89425969743E+03  0.89425969744E+03  0.25500000920E-02 0. -1.
       -2   -1    0    0    0  501  0.00000000000E+00  0.00000000000E+00 -0.11088122397E+04  0.11088122397E+04  0.25500000920E-02 0.  1.
    10030    2    1    2    0    0  0.00000000000E+00  0.00000000000E+00 -0.21455254227E+03  0.20030719371E+04  0.19915482399E+04 0.  0.
        4    1    3    3  502    0  0.84050688322E+03  0.33352560679E+03  0.31211772297E+03  0.95661394357E+03  0.12699999809E+01 0. -1.
       -4    1    3    3    0  502 -0.84050688322E+03 -0.33352560679E+03 -0.52667026523E+03  0.10464579936E+04  0.12699999809E+01 0.  1.
</event>
<event>
 5   0  0.9333353E-06  0.2000059E+04  0.7818609E-02  0.8606593E-01
        1   -1    0    0  501    0  0.00000000000E+00  0.00000000000E+00  0.45201157191E+03  0.45201157194E+03  0.50400001928E-02 0.  1.
       -1   -1    0    0    0  501  0.00000000000E+00  0.00000000000E+00 -0.22124637009E+04  0.22124637010E+04  0.50400001928E-02 0. -1.
    10030    2    1    2    0    0  0.00000000000E+00  0.00000000000E+00 -0.17604521290E+04  0.26644752729E+04  0.20000591944E+04 0.  0.
        2    1    3    3  502    0 -0.36708726243E+03  0.57037399525E+03  0.98717235507E+02  0.68543755754E+03  0.25500000920E-02 0.  1.
       -2    1    3    3    0  502  0.36708726243E+03 -0.57037399525E+03 -0.18591693645E+04  0.19790377153E+04  0.25500000920E-02 0. -1.
</event>
<event>
 5   0  0.1999142E-05  0.1998431E+04  0.7818609E-02  0.8607355E-01
       -2   -1    0    0    0  501  0.00000000000E+00  0.00000000000E+00  0.99254077960E+03  0.99254077960E+03  0.25500000920E-02 0. -1.
        2   -1    0    0  501    0  0.00000000000E+00  0.00000000000E+00 -0.10059350262E+04  0.10059350262E+04  0.25500000920E-02 0.  1.
    10030    2    1    2    0    0  0.00000000000E+00  0.00000000000E+00 -0.13394246555E+02  0.19984758058E+04  0.19984309196E+04 0.  0.
        1    1    3    3  502    0  0.34185157925E+03 -0.88635639217E+03  0.30305388764E+03  0.99716188004E+03  0.50400001928E-02 0.  1.
       -1    1    3    3    0  502 -0.34185157925E+03  0.88635639217E+03 -0.31644813419E+03  0.10013139257E+04  0.50400001928E-02 0. -1.
</event>
<event>
 5   0  0.9220260E-06  0.1998827E+04  0.7818609E-02  0.8607169E-01
       -1   -1    0    0    0  501  0.00000000000E+00  0.00000000000E+00  0.61627609908E+03  0.61627609910E+03  0.50400001928E-02 0. -1.
        1   -1    0    0  501    0  0.00000000000E+00  0.00000000000E+00 -0.16207461153E+04  0.16207461153E+04  0.50400001928E-02 0.  1.
    10030    2    1    2    0    0  0.00000000000E+00  0.00000000000E+00 -0.10044700162E+04  0.22370222144E+04  0.19988267494E+04 0.  0.
        3    1    3    3  502    0 -0.10780575051E+03  0.55800661542E+03 -0.14222926575E+04  0.15316363395E+04  0.10100000352E+00 0.  1.
       -3    1    3    3    0  502  0.10780575051E+03 -0.55800661542E+03  0.41782264132E+03  0.70538587488E+03  0.10100000352E+00 0. -1.
</event>
<event>
 5   0  0.9140695E-06  0.2027743E+04  0.7818609E-02  0.8593759E-01
        1   -1    0    0  501    0  0.00000000000E+00  0.00000000000E+00  0.97198702806E+03  0.97198702808E+03  0.50400001928E-02 0. -1.
       -1   -1    0    0    0  501  0.00000000000E+00  0.00000000000E+00 -0.10575604825E+04  0.10575604826E+04  0.50400001928E-02 0.  1.
    10030    2    1    2    0    0  0.00000000000E+00  0.00000000000E+00 -0.85573454477E+02  0.20295475106E+04  0.20277426567E+04 0.  0.
        1    1    3    3  502    0  0.83529253396E+03 -0.56827617227E+03 -0.12820696482E+03  0.10183753979E+04  0.50400001928E-02 0.  1.
       -1    1    3    3    0  502 -0.83529253396E+03  0.56827617227E+03  0.42633510343E+02  0.10111721127E+04  0.50400001928E-02 0. -1.
</event>
<event>
 5   0  0.9220260E-06  0.1999392E+04  0.7818609E-02  0.8606905E-01
       -1   -1    0    0    0  501  0.00000000000E+00  0.00000000000E+00  0.98350557329E+03  0.98350557330E+03  0.50400001928E-02 0.  1.
        1   -1    0    0  501    0  0.00000000000E+00  0.00000000000E+00 -0.10161534257E+04  0.10161534257E+04  0.50400001928E-02 0. -1.
    10030    2    1    2    0    0  0.00000000000E+00  0.00000000000E+00 -0.32647852379E+02  0.19996589990E+04  0.19993924652E+04 0.  0.
        3    1    3    3  502    0  0.13463338660E+03 -0.19340182518E+03 -0.98797911033E+03  0.10156934318E+04  0.10100000352E+00 0. -1.
       -3    1    3    3    0  502 -0.13463338660E+03  0.19340182518E+03  0.95533125795E+03  0.98396556718E+03  0.10100000352E+00 0.  1.
</event>
<event>
 5   0  0.2038882E-05  0.1999846E+04  0.7818609E-02  0.8606693E-01
       -2   -1    0    0    0  501  0.00000000000E+00  0.00000000000E+00  0.52658852548E+03  0.52658852549E+03  0.25500000920E-02 0.  1.
        2   -1    0    0  501    0  0.00000000000E+00  0.00000000000E+00 -0.18987232039E+04  0.18987232039E+04  0.25500000920E-02 0. -1.
    10030    2    1    2    0    0  0.00000000000E+00  0.00000000000E+00 -0.13721346784E+04  0.24253117294E+04  0.19998458463E+04 0.  0.
        3    1    3    3  502    0 -0.16954485290E+03 -0.72344833770E+03 -0.14975433673E+04  0.16717533017E+04  0.10100000352E+00 0. -1.
       -3    1    3    3    0  502  0.16954485290E+03  0.72344833770E+03  0.12540868894E+03  0.75355842768E+03  0.10100000352E+00 0.  1.
</event>
<event>
 5   0  0.1979765E-05  0.2001320E+04  0.7818609E-02  0.8606004E-01
       -2   -1    0    0    0  501  0.00000000000E+00  0.00000000000E+00  0.11223064495E+04  0.11223064495E+04  0.25500000920E-02 0.  1.
        2   -1    0    0  501    0  0.00000000000E+00  0.00000000000E+00 -0.89219848432E+03  0.89219848432E+03  0.25500000920E-02 0. -1.
    10030    2    1    2    0    0  0.00000000000E+00  0.00000000000E+00  0.23010796522E+03  0.20145049339E+04  0.20013196778E+04 0.  0.
        2    1    3    3  502    0  0.37197969385E+03 -0.66022203725E+03 -0.54274824899E+03  0.93211463506E+03  0.25500000920E-02 0. -1.
       -2    1    3    3    0  502 -0.37197969385E+03  0.66022203725E+03  0.77285621421E+03  0.10823902988E+04  0.25500000920E-02 0.  1.
</event>
<event>
 5   0  0.9370269E-06  0.1998668E+04  0.7818609E-02  0.8607244E-01
        1   -1    0    0  501    0  0.00000000000E+00  0.00000000000E+00  0.13443123219E+04  0.13443123219E+04  0.50400001928E-02 0.  1.
       -1   -1    0    0    0  501  0.00000000000E+00  0.00000000000E+00 -0.74288436994E+03  0.74288436996E+03  0.50400001928E-02 0. -1.
    10030    2    1    2    0    0  0.00000000000E+00  0.00000000000E+00  0.60142795197E+03  0.20871966919E+04  0.19986681689E+04 0.  0.
        4    1    3    3  502    0  0.35510883965E+03  0.82857756486E+03 -0.14969505515E+03  0.91381250343E+03  0.12699999809E+01 0. -1.
       -4    1    3    3    0  502 -0.35510883965E+03 -0.82857756486E+03  0.75112300712E+03  0.11733841885E+04  0.12699999809E+01 0.  1.
</event>
<event>
 5   0  0.1999142E-05  0.1998485E+04  0.7818609E-02  0.8607329E-01
        2   -1    0    0  501    0  0.00000000000E+00  0.00000000000E+00  0.13656636337E+04  0.13656636337E+04  0.25500000920E-02 0. -1.
       -2   -1    0    0    0  501  0.00000000000E+00  0.00000000000E+00 -0.73113566428E+03  0.73113566428E+03  0.25500000920E-02 0.  1.
    10030    2    1    2    0    0  0.00000000000E+00  0.00000000000E+00  0.63452796943E+03  0.20967992980E+04  0.19984848141E+04 0.  0.
        1    1    3    3  502    0  0.39789899640E+03 -0.69145624591E+03 -0.31404258362E+03  0.85735529140E+03  0.50400001928E-02 0.  1.
       -1    1    3    3    0  502 -0.39789899640E+03  0.69145624591E+03  0.94857055305E+03  0.12394440066E+04  0.50400001928E-02 0. -1.
</event>
<event>
 5   0  0.2020029E-05  0.2006577E+04  0.7818609E-02  0.8603552E-01
        2   -1    0    0  501    0  0.00000000000E+00  0.00000000000E+00  0.14031998992E+04  0.14031998992E+04  0.25500000920E-02 0.  1.
       -2   -1    0    0    0  501  0.00000000000E+00  0.00000000000E+00 -0.71735133146E+03  0.71735133147E+03  0.25500000920E-02 0. -1.
    10030    2    1    2    0    0  0.00000000000E+00  0.00000000000E+00  0.68584856773E+03  0.21205512307E+04  0.20065765034E+04 0.  0.
        5    1    3    3  502    0 -0.68563914804E+03 -0.69781005475E+03  0.57810768004E+03  0.11363408351E+04  0.46999998093E+01 0.  1.
       -5    1    3    3    0  502  0.68563914804E+03  0.69781005475E+03  0.10774088770E+03  0.98421039555E+03  0.46999998093E+01 0. -1.
</event>
<event>
 5   0  0.9370269E-06  0.2000455E+04  0.7818609E-02  0.8606408E-01
       -1   -1    0    0    0  501  0.00000000000E+00  0.00000000000E+00  0.89731824670E+03  0.89731824672E+03  0.50400001928E-02 0.  1.
        1   -1    0    0  501    0  0.00000000000E+00  0.00000000000E+00 -0.11149388322E+04  0.11149388323E+04  0.50400001928E-02 0. -1.
    10030    2    1    2    0    0  0.00000000000E+00  0.00000000000E+00 -0.21762058554E+03  0.20122570790E+04  0.20004549064E+04 0.  0.
        4    1    3    3  502    0 -0.60454903383E+03  0.56300876621E+03 -0.67604762077E+03  0.10674738421E+04  0.12699999809E+01 0. -1.
       -4    1    3    3    0  502  0.60454903383E+03 -0.56300876621E+03  0.45842703523E+03  0.94478323687E+03  0.12699999809E+01 0.  1.
</event>
<event>
 5   0  0.1999142E-05  0.2003724E+04  0.7818609E-02  0.8604881E-01
        2   -1    0    0  501    0  0.00000000000E+00  0.00000000000E+00  0.20831313632E+04  0.20831313632E+04  0.25500000920E-02 0. -1.
       -2   -1    0    0    0  501  0.00000000000E+00  0.00000000000E+00 -0.48183609242E+03  0.48183609242E+03  0.25500000920E-02 0.  1.
    10030    2    1    2    0    0  0.00000000000E+00  0.00000000000E+00  0.16012952708E+04  0.25649674556E+04  0.20037244082E+04 0.  0.
        1    1    3    3  502    0  0.41254433908E+03 -0.28121402082E+03 -0.31123813525E+03  0.58833947180E+03  0.50400001928E-02 0.  1.
       -1    1    3    3    0  502 -0.41254433908E+03  0.28121402082E+03  0.19125334060E+04  0.19766279838E+04  0.50400001928E-02 0. -1.
</event>
<event>
 5   0  0.9140695E-06  0.2002265E+04  0.7818609E-02  0.8605562E-01
       -1   -1    0    0    0  501  0.00000000000E+00  0.00000000000E+00  0.10869548752E+04  0.10869548752E+04  0.50400001928E-02 0. -1.
        1   -1    0    0  501    0  0.00000000000E+00  0.00000000000E+00 -0.92208628903E+03  0.92208628904E+03  0.50400001928E-02 0.  1.
    10030    2    1    2    0    0  0.00000000000E+00  0.00000000000E+00  0.16486858618E+03  0.20090411643E+04  0.20022649048E+04 0.  0.
        1    1    3    3  502    0 -0.74243787326E+03 -0.40309029597E+03 -0.45657120411E+03  0.96028800201E+03  0.50400001928E-02 0.  1.
       -1    1    3    3    0  502  0.74243787326E+03  0.40309029597E+03  0.62143979030E+03  0.10487531623E+04  0.50400001928E-02 0. -1.
</event>
<event>
 5   0  0.1999142E-05  0.1998420E+04  0.7818609E-02  0.8607360E-01
        2   -1    0    0  501    0  0.00000000000E+00  0.00000000000E+00  0.10622393409E+04  0.10622393409E+04  0.25500000920E-02 0. -1.
       -2   -1    0    0    0  501  0.00000000000E+00  0.00000000000E+00 -0.93992024148E+03  0.93992024149E+03  0.25500000920E-02 0.  1.
    10030    2    1    2    0    0  0.00000000000E+00  0.00000000000E+00  0.12231909945E+03  0.20021595824E+04  0.19984196335E+04 0.  0.
        1    1    3    3  502    0 -0.92852929728E+03  0.19273453641E+03 -0.25424225075E+03  0.98181076563E+03  0.50400001928E-02 0. -1.
       -1    1    3    3    0  502  0.92852929728E+03 -0.19273453641E+03  0.37656135019E+03  0.10203488168E+04  0.50400001928E-02 0.  1.
</event>
<event>
 5   0  0.9370269E-06  0.1990462E+04  0.7818609E-02  0.8611093E-01
        1   -1    0    0  501    0  0.00000000000E+00  0.00000000000E+00  0.78002036544E+03  0.78002036545E+03  0.50400001928E-02 0. -1.
       -1   -1    0    0    0  501  0.00000000000E+00  0.00000000000E+00 -0.12698185577E+04  0.12698185577E+04  0.50400001928E-02 0.  1.
    10030    2    1    2    0    0  0.00000000000E+00  0.00000000000E+00 -0.48979819222E+03  0.20498389231E+04  0.19904615901E+04 0.  0.
        4    1    3    3  502    0 -0.85752227907E+03 -0.32904687788E+03 -0.63956279492E+03  0.11192222695E+04  0.12699999809E+01 0.  1.
       -4    1    3    3    0  502  0.85752227907E+03  0.32904687788E+03  0.14976460269E+03  0.93061665366E+03  0.12699999809E+01 0. -1.
</event>
<event>
 5   0  0.1979765E-05  0.1998349E+04  0.7818609E-02  0.8607393E-01
        2   -1    0    0  501    0  0.00000000000E+00  0.00000000000E+00  0.99739268562E+03  0.99739268563E+03  0.25500000920E-02 0. -1.
       -2   -1    0    0    0  501  0.00000000000E+00  0.00000000000E+00 -0.10009597296E+04  0.10009597296E+04  0.25500000920E-02 0.  1.
    10030    2    1    2    0    0  0.00000000000E+00  0.00000000000E+00 -0.35670439330E+01  0.19983524152E+04  0.19983492316E+04 0.  0.
        2    1    3    3  502    0  0.61546406332E+03 -0.67724900522E+03 -0.40289223189E+03  0.99989218360E+03  0.25500000920E-02 0.  1.
       -2    1    3    3    0  502 -0.61546406332E+03  0.67724900522E+03  0.39932518796E+03  0.99846023158E+03  0.25500000920E-02 0. -1.
</event>
<event>
 5   0  0.1979765E-05  0.2009882E+04  0.7818609E-02  0.8602014E-01
        2   -1    0    0  501    0  0.00000000000E+00  0.00000000000E+00  0.12846518616E+04  0.12846518616E+04  0.25500000920E-02 0. -1.
       -2   -1    0    0    0  501  0.00000000000E+00  0.00000000000E+00 -0.78613263438E+03  0.78613263438E+03  0.25500000920E-02 0.  1.
    10030    2    1    2    0    0  0.00000000000E+00  0.00000000000E+00  0.49851922720E+03  0.20707844960E+04  0.20098823371E+04 0.  0.
        2    1    3    3  502    0 -0.33277117926E+03 -0.93624314906E+03  0.94306741601E+02  0.99808900076E+03  0.25500000920E-02 0.  1.
       -2    1    3    3    0  502  0.33277117926E+03  0.93624314906E+03  0.40421248560E+03  0.10726954952E+04  0.25500000920E-02 0. -1.
</event>
<event>
 5   0  0.9370269E-06  0.2001639E+04  0.7818609E-02  0.8605855E-01
       -1   -1    0    0    0  501  0.00000000000E+00  0.00000000000E+00  0.36733740145E+03  0.36733740149E+03  0.50400001928E-02 0. -1.
        1   -1    0    0  501    0  0.00000000000E+00  0.00000000000E+00 -0.27267560283E+04  0.27267560283E+04  0.50400001928E-02 0.  1.
    10030    2    1    2    0    0  0.00000000000E+00  0.00000000000E+00 -0.23594186268E+04  0.30940934298E+04  0.20016388025E+04 0.  0.
        4    1    3    3  502    0  0.35404065019E+03  0.62322221587E+03 -0.99998622800E+02  0.72370715749E+03  0.12699999809E+01 0. -1.
       -4    1    3    3    0  502 -0.35404065019E+03 -0.62322221587E+03 -0.22594200040E+04  0.23703862723E+04  0.12699999809E+01 0.  1.
</event>
<event>
 5   0  0.9342635E-06  0.2004864E+04  0.7818609E-02  0.8604350E-01
       -1   -1    0    0    0  501  0.00000000000E+00  0.00000000000E+00  0.83073366576E+03  0.83073366577E+03  0.50400001928E-02 0. -1.
        1   -1    0    0  501    0  0.00000000000E+00  0.00000000000E+00 -0.12096172357E+04  0.12096172357E+04  0.50400001928E-02 0.  1.
    10030    2    1    2    0    0  0.00000000000E+00  0.00000000000E+00 -0.37888356990E+03  0.20403509014E+04  0.20048638461E+04 0.  0.
        5    1    3    3  502    0 -0.86876929231E+03 -0.35509788082E+03  0.16891753830E+03  0.95362980918E+03  0.46999998093E+01 0. -1.
       -5    1    3    3    0  502  0.86876929231E+03  0.35509788082E+03 -0.54780110820E+03  0.10867210923E+04  0.46999998093E+01 0.  1.
</event>
<event>
 5   0  0.9333353E-06  0.1990958E+04  0.7818609E-02  0.8610860E-01
       -1   -1    0    0    0  501  0.00000000000E+00  0.00000000000E+00  0.68564228540E+03  0.68564228542E+03  0.50400001928E-02 0. -1.
        1   -1    0    0  501    0  0.00000000000E+00  0.00000000000E+00 -0.14453280993E+04  0.14453280993E+04  0.50400001928E-02 0.  1.
    10030    2    1    2    0    0  0.00000000000E+00  0.00000000000E+00 -0.75968581393E+03  0.21309703848E+04  0.19909576201E+04 0.  0.
        2    1    3    3  502    0  0.31587147650E+03  0.12424250556E+03  0.62179258373E+03  0.70840455041E+03  0.25500000920E-02 0. -1.
       -2    1    3    3    0  502 -0.31587147650E+03 -0.12424250556E+03 -0.13814783977E+04  0.14225658344E+04  0.25500000920E-02 0.  1.
</event>
<event>
 5   0  0.2038882E-05  0.1998098E+04  0.7818609E-02  0.8607510E-01
       -2   -1    0    0    0  501  0.00000000000E+00  0.00000000000E+00  0.38353958100E+03  0.38353958101E+03  0.25500000920E-02 0.  1.
        2   -1    0    0  501    0  0.00000000000E+00  0.00000000000E+00 -0.26023371116E+04  0.26023371116E+04  0.25500000920E-02 0. -1.
    10030    2    1    2    0    0  0.00000000000E+00  0.00000000000E+00 -0.22187975306E+04  0.29858766926E+04  0.19980983814E+04 0.  0.
        3    1    3    3  502    0 -0.16736265519E+03  0.31447724135E+03 -0.25041996356E+04  0.25294113977E+04  0.10100000352E+00 0. -1.
       -3    1    3    3    0  502  0.16736265519E+03 -0.31447724135E+03  0.28540210503E+03  0.45646529488E+03  0.10100000352E+00 0.  1.
</event>
<event>
 5   0  0.9333353E-06  0.2001252E+04  0.7818609E-02  0.8606036E-01
       -1   -1    0    0    0  501  0.00000000000E+00  0.00000000000E+00  0.11704652399E+04  0.11704652399E+04  0.50400001928E-02 0. -1.
        1   -1    0    0  501    0  0.00000000000E+00  0.00000000000E+00 -0.85543110273E+03  0.85543110275E+03  0.50400001928E-02 0.  1.
    10030    2    1    2    0    0  0.00000000000E+00  0.00000000000E+00  0.31503413715E+03  0.20258963426E+04  0.20012519790E+04 0.  0.
        2    1    3    3  502    0  0.60332303265E+03  0.73280480529E+03  0.47804020482E+03  0.10627906670E+04  0.25500000920E-02 0.  1.
       -2    1    3    3    0  502 -0.60332303265E+03 -0.73280480529E+03 -0.16300606768E+03  0.96310567566E+03  0.25500000920E-02 0. -1.
</event>
<event>
 5   0  0.9140695E-06  0.2007001E+04  0.7818609E-02  0.8603354E-01
        1   -1    0    0  501    0  0.00000000000E+00  0.00000000000E+00  0.14087793732E+04  0.14087793732E+04  0.50400001928E-02 0. -1.
       -1   -1    0    0    0  501  0.00000000000E+00  0.00000000000E+00 -0.71481281654E+03  0.71481281655E+03  0.50400001928E-02 0.  1.
    10030    2    1    2    0    0  0.00000000000E+00  0.00000000000E+00  0.69396655664E+03  0.21235921897E+04  0.20070012971E+04 0.  0.
        1    1    3    3  502    0 -0.45873469503E+03 -0.65961628091E+03  0.98314427772E+03  0.12696865083E+04  0.50400001928E-02 0. -1.
       -1    1    3    3    0  502  0.45873469503E+03  0.65961628091E+03 -0.28917772107E+03  0.85390568147E+03  0.50400001928E-02 0.  1.
</event>
<event>
 5   0  0.1999142E-05  0.2002183E+04  0.7818609E-02  0.8605601E-01
       -2   -1    0    0    0  501  0.00000000000E+00  0.00000000000E+00  0.80555730607E+03  0.80555730607E+03  0.25500000920E-02 0.  1.
        2   -1    0    0  501    0  0.00000000000E+00  0.00000000000E+00 -0.12440881045E+04  0.12440881045E+04  0.25500000920E-02 0. -1.
    10030    2    1    2    0    0  0.00000000000E+00  0.00000000000E+00 -0.43853079844E+03  0.20496454106E+04  0.20021830705E+04 0.  0.
        1    1    3    3  502    0 -0.39060948241E+03 -0.87583649807E+03 -0.51333607851E+03  0.10877404418E+04  0.50400001928E-02 0. -1.
       -1    1    3    3    0  502  0.39060948241E+03  0.87583649807E+03  0.74805280076E+02  0.96190496883E+03  0.50400001928E-02 0.  1.
</event>
<event>
 5   0  0.9342635E-06  0.1987506E+04  0.7818609E-02  0.8612484E-01
        1   -1    0    0  501    0  0.00000000000E+00  0.00000000000E+00  0.13838864788E+04  0.13838864788E+04  0.50400001928E-02 0. -1.
       -1   -1    0    0    0  501  0.00000000000E+00  0.00000000000E+00 -0.71360283238E+03  0.71360283240E+03  0.50400001928E-02 0.  1.
    10030    2    1    2    0    0  0.00000000000E+00  0.00000000000E+00  0.67028364640E+03  0.20974893112E+04  0.19875062878E+04 0.  0.
        5    1    3    3  502    0 -0.14346464222E+03  0.95301981357E+03  0.79466153308E+02  0.96703972418E+03  0.46999998093E+01 0.  1.
       -5    1    3    3    0  502  0.14346464222E+03 -0.95301981357E+03  0.59081749309E+03  0.11304495870E+04  0.46999998093E+01 0. -1.
</event>
<event>
 5   0  0.9342635E-06  0.2001156E+04  0.7818609E-02  0.8606081E-01
        1   -1    0    0  501    0  0.00000000000E+00  0.00000000000E+00  0.92438213652E+03  0.92438213653E+03  0.50400001928E-02 0.  1.
       -1   -1    0    0    0  501  0.00000000000E+00  0.00000000000E+00 -0.10830541474E+04  0.10830541474E+04  0.50400001928E-02 0. -1.
    10030    2    1    2    0    0  0.00000000000E+00  0.00000000000E+00 -0.15867201087E+03  0.20074362839E+04  0.20011555729E+04 0.  0.
        5    1    3    3  502    0  0.36312415639E+02 -0.72983898052E+03  0.60629307145E+03  0.94952456919E+03  0.46999998093E+01 0.  1.
       -5    1    3    3    0  502 -0.36312415639E+02  0.72983898052E+03 -0.76496508231E+03  0.10579117147E+04  0.46999998093E+01 0. -1.
</event>
<event>
 5   0  0.1979765E-05  0.1996694E+04  0.7818609E-02  0.8608168E-01
        2   -1    0    0  501    0  0.00000000000E+00  0.00000000000E+00  0.13263362060E+04  0.13263362060E+04  0.25500000920E-02 0. -1.
       -2   -1    0    0    0  501  0.00000000000E+00  0.00000000000E+00 -0.75146592933E+03  0.75146592934E+03  0.25500000920E-02 0.  1.
    10030    2    1    2    0    0  0.00000000000E+00  0.00000000000E+00  0.57487027664E+03  0.20778021353E+04  0.19966937368E+04 0.  0.
        2    1    3    3  502    0 -0.82826845766E+03  0.11661697049E+03 -0.27974484854E+03  0.88197808139E+03  0.25500000920E-02 0.  1.
       -2    1    3    3    0  502  0.82826845766E+03 -0.11661697049E+03  0.85461512517E+03  0.11958240539E+04  0.25500000920E-02 0. -1.
</event>
<event>
 5   0  0.1979765E-05  0.2000120E+04  0.7818609E-02  0.8606565E-01
       -2   -1    0    0    0  501  0.00000000000E+00  0.00000000000E+00  0.39190626607E+03  0.39190626607E+03  0.25500000920E-02 0.  1.
        2   -1    0    0  501    0  0.00000000000E+00  0.00000000000E+00 -0.25519366676E+04  0.25519366676E+04  0.25500000920E-02 0. -1.
    10030    2    1    2    0    0  0.00000000000E+00  0.00000000000E+00 -0.21600304015E+04  0.29438429336E+04  0.20001199670E+04 0.  0.
        2    1    3    3  502    0  0.26547321384E+03  0.22173565219E+03  0.30106105112E+03  0.45856349967E+03  0.25500000920E-02 0.  1.
       -2    1    3    3    0  502 -0.26547321384E+03 -0.22173565219E+03 -0.24610914526E+04  0.24852794340E+04  0.25500000920E-02 0. -1.
</event>
<event>
 5   0  0.9220260E-06  0.1999526E+04  0.7818609E-02  0.8606842E-01
       -1   -1    0    0    0  501  0.00000000000E+00  0.00000000000E+00  0.93065132345E+03  0.93065132346E+03  0.50400001928E-02 0.  1.
        1   -1    0    0  501    0  0.00000000000E+00  0.00000000000E+00 -0.10740067038E+04  0.10740067038E+04  0.50400001928E-02 0. -1.
    10030    2    1    2    0    0  0.00000000000E+00  0.00000000000E+00 -0.14335538038E+03  0.20046580273E+04  0.19995257041E+04 0.  0.
        3    1    3    3  502    0 -0.45212586103E+03 -0.49210490384E+03  0.67383079810E+03  0.94901685194E+03  0.10100000352E+00 0.  1.
       -3    1    3    3    0  502  0.45212586103E+03  0.49210490384E+03 -0.81718617848E+03  0.10556411754E+04  0.10100000352E+00 0. -1.
</event>
<event>
 5   0  0.2020029E-05  0.1999122E+04  0.7818609E-02  0.8607031E-01
       -2   -1    0    0    0  501  0.00000000000E+00  0.00000000000E+00  0.57276837930E+03  0.57276837931E+03  0.25500000920E-02 0. -1.
        2   -1    0    0  501    0  0.00000000000E+00  0.00000000000E+00 -0.17443731337E+04  0.17443731337E+04  0.25500000920E-02 0.  1.
    10030    2    1    2    0    0  0.00000000000E+00  0.00000000000E+00 -0.11716047544E+04  0.23171415130E+04  0.19991215798E+04 0.  0.
        5    1    3    3  502    0 -0.23635986043E+03  0.72240467796E+03  0.16658703084E+03  0.77814383709E+03  0.46999998093E+01 0. -1.
       -5    1    3    3    0  502  0.23635986043E+03 -0.72240467796E+03 -0.13381917852E+04  0.15389976759E+04  0.46999998093E+01 0.  1.
</event>
<event>
 5   0  0.9370269E-06  0.2000820E+04  0.7818609E-02  0.8606237E-01
       -1   -1    0    0    0  501  0.00000000000E+00  0.00000000000E+00  0.76373678714E+03  0.76373678716E+03  0.50400001928E-02 0. -1.
        1   -1    0    0  501    0  0.00000000000E+00  0.00000000000E+00 -0.13104258025E+04  0.13104258025E+04  0.50400001928E-02 0.  1.
    10030    2    1    2    0    0  0.00000000000E+00  0.00000000000E+00 -0.54668901536E+03  0.20741625897E+04  0.20008202240E+04 0.  0.
        4    1    3    3  502    0  0.67981008643E+02  0.92808195960E+03  0.10735147989E+03  0.93674088968E+03  0.12699999809E+01 0. -1.
       -4    1    3    3    0  502 -0.67981008643E+02 -0.92808195960E+03 -0.65404049525E+03  0.11374217000E+04  0.12699999809E+01 0.  1.
</event>
<event>
 5   0  0.1979765E-05  0.2000930E+04  0.7818609E-02  0.8606186E-01
       -2   -1    0    0    0  501  0.00000000000E+00  0.00000000000E+00  0.32940200964E+03  0.32940200965E+03  0.25500000920E-02 0. -1.
        2   -1    0    0  501    0  0.00000000000E+00  0.00000000000E+00 -0.30386271432E+04  0.30386271432E+04  0.25500000920E-02 0.  1.
    10030    2    1    2    0    0  0.00000000000E+00  0.00000000000E+00 -0.27092251336E+04  0.33680291529E+04  0.20009296715E+04 0.  0.
        2    1    3    3  502    0  0.23919866928E+03 -0.96284371440E+03 -0.15717812571E+04  0.18587039414E+04  0.25500000920E-02 0.  1.
       -2    1    3    3    0  502 -0.23919866928E+03  0.96284371440E+03 -0.11374438765E+04  0.15093252114E+04  0.25500000920E-02 0. -1.
</event>
<event>
 5   0  0.9220260E-06  0.1999728E+04  0.7818609E-02  0.8606748E-01
        1   -1    0    0  501    0  0.00000000000E+00  0.00000000000E+00  0.12787026858E+04  0.12787026858E+04  0.50400001928E-02 0.  1.
       -1   -1    0    0    0  501  0.00000000000E+00  0.00000000000E+00 -0.78182985551E+03  0.78182985553E+03  0.50400001928E-02 0. -1.
    10030    2    1    2    0    0  0.00000000000E+00  0.00000000000E+00  0.49687283030E+03  0.20605325413E+04  0.19997279176E+04 0.  0.
        3    1    3    3  502    0 -0.65406962350E+03  0.54221168985E+03  0.79165447605E+03  0.11612568229E+04  0.10100000352E+00 0.  1.
       -3    1    3    3    0  502  0.65406962350E+03 -0.54221168985E+03 -0.29478164575E+03  0.89927571849E+03  0.10100000352E+00 0. -1.
</event>
<event>
 5   0  0.9342635E-06  0.2000603E+04  0.7818609E-02  0.8606339E-01
        1   -1    0    0  501    0  0.00000000000E+00  0.00000000000E+00  0.17103988982E+04  0.17103988983E+04  0.50400001928E-02 0.  1.
       -1   -1    0    0    0  501  0.00000000000E+00  0.00000000000E+00 -0.58501139401E+03  0.58501139403E+03  0.50400001928E-02 0. -1.
    10030    2    1    2    0    0  0.00000000000E+00  0.00000000000E+00  0.11253875042E+04  0.22954102923E+04  0.20006027530E+04 0.  0.
        5    1    3    3  502    0 -0.32895516125E+03 -0.93184115218E+03  0.38479264846E+03  0.10604842777E+04  0.46999998093E+01 0. -1.
       -5    1    3    3    0  502  0.32895516125E+03  0.93184115218E+03  0.74059485578E+03  0.12349260145E+04  0.46999998093E+01 0.  1.
</event>
<event>
 5   0  0.9333353E-06  0.2000612E+04  0.7818609E-02  0.8606335E-01
       -1   -1    0    0    0  501  0.00000000000E+00  0.00000000000E+00  0.10542828721E+04  0.10542828721E+04  0.50400001928E-02 0. -1.
        1   -1    0    0  501    0  0.00000000000E+00  0.00000000000E+00 -0.94909267837E+03  0.94909267838E+03  0.50400001928E-02 0.  1.
    10030    2    1    2    0    0  0.00000000000E+00  0.00000000000E+00  0.10519019375E+03  0.20033755505E+04  0.20006120612E+04 0.  0.
        2    1    3    3  502    0 -0.33084412196E+03 -0.19171809422E+03  0.97820868966E+03  0.10502884848E+04  0.25500000920E-02 0. -1.
       -2    1    3    3    0  502  0.33084412196E+03  0.19171809422E+03 -0.87301849591E+03  0.95308706575E+03  0.25500000920E-02 0.  1.
</event>
<event>
 5   0  0.9342635E-06  0.1999217E+04  0.7818609E-02  0.8606987E-01
        1   -1    0    0  501    0  0.00000000000E+00  0.00000000000E+00  0.98753551198E+03  0.98753551199E+03  0.50400001928E-02 0.  1.
       -1   -1    0    0    0  501  0.00000000000E+00  0.00000000000E+00 -0.10118290198E+04  0.10118290198E+04  0.50400001928E-02 0. -1.
    10030    2    1    2    0    0  0.00000000000E+00  0.00000000000E+00 -0.24293507850E+02  0.19993645318E+04  0.19992169359E+04 0.  0.
        5    1    3    3  502    0  0.65450842770E+03  0.16250847603E+03  0.72574558160E+03  0.99071642054E+03  0.46999998093E+01 0.  1.
       -5    1    3    3    0  502 -0.65450842770E+03 -0.16250847603E+03 -0.75003908945E+03  0.10086481113E+04  0.46999998093E+01 0. -1.
</event>
<event>
 5   0  0.1979765E-05  0.2001832E+04  0.7818609E-02  0.8605765E-01
       -2   -1    0    0    0  501  0.00000000000E+00  0.00000000000E+00  0.74421525550E+03  0.74421525551E+03  0.25500000920E-02 0. -1.
        2   -1    0    0  501    0  0.00000000000E+00  0.00000000000E+00 -0.13461596502E+04  0.13461596502E+04  0.25500000920E-02 0.  1.
    10030    2    1    2    0    0  0.00000000000E+00  0.00000000000E+00 -0.60194439472E+03  0.20903749057E+04  0.20018317092E+04 0.  0.
        2    1    3    3  502    0 -0.60116909586E+03  0.76522543719E+03 -0.54555041607E+03  0.11156162010E+04  0.25500000920E-02 0. -1.
       -2    1    3    3    0  502  0.60116909586E+03 -0.76522543719E+03 -0.56393978649E+02  0.97475870469E+03  0.25500000920E-02 0.  1.
</event>
<event>
 5   0  0.1979765E-05  0.1995730E+04  0.7818609E-02  0.8608620E-01
        2   -1    0    0  501    0  0.00000000000E+00  0.00000000000E+00  0.11233155459E+04  0.11233155459E+04  0.25500000920E-02 0.  1.
       -2   -1    0    0    0  501  0.00000000000E+00  0.00000000000E+00 -0.88642457717E+03  0.88642457717E+03  0.25500000920E-02 0. -1.
    10030    2    1    2    0    0  0.00000000000E+00  0.00000000000E+00  0.23689096872E+03  0.20097401231E+04  0.19957299495E+04 0.  0.
        2    1    3    3  502    0 -0.31778095384E+03 -0.40012679500E+03 -0.74468781822E+03  0.90313129350E+03  0.25500000920E-02 0. -1.
       -2    1    3    3    0  502  0.31778095384E+03  0.40012679500E+03  0.98157878694E+03  0.11066088296E+04  0.25500000920E-02 0.  1.
</event>
<event>
 5   0  0.9370269E-06  0.2000749E+04  0.7818609E-02  0.8606270E-01
       -1   -1    0    0    0  501  0.00000000000E+00  0.00000000000E+00  0.62816861230E+03  0.62816861232E+03  0.50400001928E-02 0.  1.
        1   -1    0    0  501    0  0.00000000000E+00  0.00000000000E+00 -0.15931225977E+04  0.15931225977E+04  0.50400001928E-02 0. -1.
    10030    2    1    2    0    0  0.00000000000E+00  0.00000000000E+00 -0.96495398543E+03  0.22212912101E+04  0.20007494710E+04 0.  0.
        4    1    3    3  502    0 -0.94842275277E+03 -0.31787131004E+03 -0.49818236029E+03  0.11174681941E+04  0.12699999809E+01 0. -1.
       -4    1    3    3    0  502  0.94842275277E+03  0.31787131004E+03 -0.46677162514E+03  0.11038230160E+04  0.12699999809E+01 0.  1.
</event>
<event>
 5   0  0.2003576E-05  0.1999522E+04  0.7818609E-02  0.8606844E-01
        2   -1    0    0  501    0  0.00000000000E+00  0.00000000000E+00  0.12797657461E+04  0.12797657461E+04  0.25500000920E-02 0.  1.
       -2   -1    0    0    0  501  0.00000000000E+00  0.00000000000E+00 -0.78101953637E+03  0.78101953637E+03  0.25500000920E-02 0. -1.
    10030    2    1    2    0    0  0.00000000000E+00  0.00000000000E+00  0.49874620978E+03  0.20607852825E+04  0.19995219926E+04 0.  0.
        4    1    3    3  502    0 -0.78962528163E+03  0.29334686875E+03 -0.30560465413E+03  0.89607828247E+03  0.12699999809E+01 0. -1.
       -4    1    3    3    0  502  0.78962528163E+03 -0.29334686875E+03  0.80435086391E+03  0.11647070000E+04  0.12699999809E+01 0.  1.
</event>
<event>
 5   0  0.7132000E-06  0.2000529E+04  0.7818609E-02  0.8606373E-01
       -3   -1    0    0    0  501  0.00000000000E+00  0.00000000000E+00  0.50786183336E+03  0.50786184340E+03  0.10100000352E+00 0. -1.
        3   -1    0    0  501    0  0.00000000000E+00  0.00000000000E+00 -0.19700819746E+04  0.19700819772E+04  0.10100000352E+00 0.  1.
    10030    2    1    2    0    0  0.00000000000E+00  0.00000000000E+00 -0.14622201413E+04  0.24779438206E+04  0.20005293891E+04 0.  0.
        2    1    3    3  502    0 -0.94893525405E+03  0.16825351229E+03 -0.39934278648E+03  0.10431979783E+04  0.25500000920E-02 0. -1.
       -2    1    3    3    0  502  0.94893525405E+03 -0.16825351229E+03 -0.10628773548E+04  0.14347458424E+04  0.25500000920E-02 0.  1.
</event>
<event>
 5   0  0.9342635E-06  0.2000478E+04  0.7818609E-02  0.8606397E-01
       -1   -1    0    0    0  501  0.00000000000E+00  0.00000000000E+00  0.10215422507E+04  0.10215422507E+04  0.50400001928E-02 0. -1.
        1   -1    0    0  501    0  0.00000000000E+00  0.00000000000E+00 -0.97937961101E+03  0.97937961102E+03  0.50400001928E-02 0.  1.
    10030    2    1    2    0    0  0.00000000000E+00  0.00000000000E+00  0.42162639708E+02  0.20009218617E+04  0.20004775951E+04 0.  0.
        5    1    3    3  502    0 -0.64639181902E+03  0.12806769303E+03 -0.73156957547E+03  0.98460136677E+03  0.46999998093E+01 0.  1.
       -5    1    3    3    0  502  0.64639181902E+03 -0.12806769303E+03  0.77373221518E+03  0.10163204950E+04  0.46999998093E+01 0. -1.
</event>
<event>
 5   0  0.9220260E-06  0.2013797E+04  0.7818609E-02  0.8600197E-01
       -1   -1    0    0    0  501  0.00000000000E+00  0.00000000000E+00  0.11712199912E+04  0.11712199912E+04  0.50400001928E-02 0.  1.
        1   -1    0    0  501    0  0.00000000000E+00  0.00000000000E+00 -0.86563107335E+03  0.86563107337E+03  0.50400001928E-02 0. -1.
    10030    2    1    2    0    0  0.00000000000E+00  0.00000000000E+00  0.30558891787E+03  0.20368510646E+04  0.20137968300E+04 0.  0.
        3    1    3    3  502    0  0.39200801335E+03  0.70211293072E+03  0.76571163581E+03  0.11103815423E+04  0.10100000352E+00 0.  1.
       -3    1    3    3    0  502 -0.39200801335E+03 -0.70211293072E+03 -0.46012271794E+03  0.92646952232E+03  0.10100000352E+00 0. -1.
</event>
<event>
 5   0  0.1979765E-05  0.1989999E+04  0.7818609E-02  0.8611311E-01
       -2   -1    0    0    0  501  0.00000000000E+00  0.00000000000E+00  0.17603829935E+04  0.17603829936E+04  0.25500000920E-02 0. -1.
        2   -1    0    0  501    0  0.00000000000E+00  0.00000000000E+00 -0.56239113985E+03  0.56239113985E+03  0.25500000920E-02 0.  1.
    10030    2    1    2    0    0  0.00000000000E+00  0.00000000000E+00  0.11979918537E+04  0.23227741334E+04  0.19899987923E+04 0.  0.
        2    1    3    3  502    0  0.26623522515E+03  0.63177066205E+03 -0.24270801656E+03  0.72727061391E+03  0.25500000920E-02 0.  1.
       -2    1    3    3    0  502 -0.26623522515E+03 -0.63177066205E+03  0.14406998703E+04  0.15955035195E+04  0.25500000920E-02 0. -1.
</event>
<event>
 5   0  0.9140695E-06  0.1964784E+04  0.7818609E-02  0.8623265E-01
       -1   -1    0    0    0  501  0.00000000000E+00  0.00000000000E+00  0.72102009114E+03  0.72102009116E+03  0.50400001928E-02 0.  1.
        1   -1    0    0  501    0  0.00000000000E+00  0.00000000000E+00 -0.13385117617E+04  0.13385117617E+04  0.50400001928E-02 0. -1.
    10030    2    1    2    0    0  0.00000000000E+00  0.00000000000E+00 -0.61749167053E+03  0.20595318528E+04  0.19647838277E+04 0.  0.
        1    1    3    3  502    0  0.29304309395E+03 -0.24941040355E+02  0.67379076081E+03  0.73518045389E+03  0.50400001928E-02 0.  1.
       -1    1    3    3    0  502 -0.29304309395E+03  0.24941040355E+02 -0.12912824313E+04  0.13243513990E+04  0.50400001928E-02 0. -1.
</event>
<event>
 5   0  0.1979765E-05  0.2001542E+04  0.7818609E-02  0.8605900E-01
       -2   -1    0    0    0  501  0.00000000000E+00  0.00000000000E+00  0.55001860361E+03  0.55001860362E+03  0.25500000920E-02 0. -1.
        2   -1    0    0  501    0  0.00000000000E+00  0.00000000000E+00 -0.18209242095E+04  0.18209242096E+04  0.25500000920E-02 0.  1.
    10030    2    1    2    0    0  0.00000000000E+00  0.00000000000E+00 -0.12709056059E+04  0.23709428132E+04  0.20015415969E+04 0.  0.
        2    1    3    3  502    0 -0.42269256436E+03 -0.88346075558E+03 -0.87928279687E+03  0.13161725371E+04  0.25500000920E-02 0. -1.
       -2    1    3    3    0  502  0.42269256436E+03  0.88346075558E+03 -0.39162280907E+03  0.10547702760E+04  0.25500000920E-02 0.  1.
</event>
<event>
 5   0  0.1979765E-05  0.1995680E+04  0.7818609E-02  0.8608643E-01
       -2   -1    0    0    0  501  0.00000000000E+00  0.00000000000E+00  0.11118742027E+04  0.11118742027E+04  0.25500000920E-02 0. -1.
        2   -1    0    0  501    0  0.00000000000E+00  0.00000000000E+00 -0.89550073742E+03  0.89550073742E+03  0.25500000920E-02 0.  1.
    10030    2    1    2    0    0  0.00000000000E+00  0.00000000000E+00  0.21637346526E+03  0.20073749401E+04  0.19956795017E+04 0.  0.
        2    1    3    3  502    0  0.39067874334E+03 -0.59123664035E+03 -0.59842107217E+03  0.92752273558E+03  0.25500000920E-02 0.  1.
       -2    1    3    3    0  502 -0.39067874334E+03  0.59123664035E+03  0.81479453743E+03  0.10798522045E+04  0.25500000920E-02 0. -1.
</event>
<event>
 5   0  0.9220260E-06  0.2009615E+04  0.7818609E-02  0.8602138E-01
        1   -1    0    0  501    0  0.00000000000E+00  0.00000000000E+00  0.69339863024E+03  0.69339863026E+03  0.50400001928E-02 0.  1.
       -1   -1    0    0    0  501  0.00000000000E+00  0.00000000000E+00 -0.14560718463E+04  0.14560718463E+04  0.50400001928E-02 0. -1.
    10030    2    1    2    0    0  0.00000000000E+00  0.00000000000E+00 -0.76267321602E+03  0.21494704765E+04  0.20096151112E+04 0.  0.
        3    1    3    3  502    0 -0.95962322078E+03 -0.89457576964E+02 -0.68529462662E+03  0.11825853540E+04  0.10100000352E+00 0. -1.
       -3    1    3    3    0  502  0.95962322078E+03  0.89457576964E+02 -0.77378589402E+02  0.96688512256E+03  0.10100000352E+00 0.  1.
</event>
<event>
 5   0  0.9140695E-06  0.2001059E+04  0.7818609E-02  0.8606126E-01
       -1   -1    0    0    0  501  0.00000000000E+00  0.00000000000E+00  0.11997885439E+04  0.11997885439E+04  0.50400001928E-02 0. -1.
        1   -1    0    0  501    0  0.00000000000E+00  0.00000000000E+00 -0.83436308441E+03  0.83436308442E+03  0.50400001928E-02 0.  1.
    10030    2    1    2    0    0  0.00000000000E+00  0.00000000000E+00  0.36542545948E+03  0.20341516283E+04  0.20010589898E+04 0.  0.
        1    1    3    3  502    0  0.84407246681E+03  0.31516050645E+02 -0.36244687773E+03  0.91914053870E+03  0.50400001928E-02 0.  1.
       -1    1    3    3    0  502 -0.84407246681E+03 -0.31516050645E+02  0.72787233721E+03  0.11150110896E+04  0.50400001928E-02 0. -1.
</event>
<event>
 5   0  0.9220260E-06  0.2001713E+04  0.7818609E-02  0.8605820E-01
        1   -1    0    0  501    0  0.00000000000E+00  0.00000000000E+00  0.10033591106E+04  0.10033591106E+04  0.50400001928E-02 0. -1.
       -1   -1    0    0    0  501  0.00000000000E+00  0.00000000000E+00 -0.99836053163E+03  0.99836053164E+03  0.50400001928E-02 0.  1.
    10030    2    1    2    0    0  0.00000000000E+00  0.00000000000E+00  0.49985789726E+01  0.20017196423E+04  0.20017134012E+04 0.  0.
        3    1    3    3  502    0 -0.22913836542E+03  0.10707964679E+03  0.97087397481E+03  0.10032779906E+04  0.10100000352E+00 0. -1.
       -3    1    3    3    0  502  0.22913836542E+03 -0.10707964679E+03 -0.96587539584E+03  0.99844165165E+03  0.10100000352E+00 0.  1.
</event>
<event>
 5   0  0.9342635E-06  0.1990666E+04  0.7818609E-02  0.8610997E-01
       -1   -1    0    0    0  501  0.00000000000E+00  0.00000000000E+00  0.87648208065E+03  0.87648208066E+03  0.50400001928E-02 0. -1.
        1   -1    0    0  501    0  0.00000000000E+00  0.00000000000E+00 -0.11302999927E+04  0.11302999927E+04  0.50400001928E-02 0.  1.
    10030    2    1    2    0    0  0.00000000000E+00  0.00000000000E+00 -0.25381791205E+03  0.20067820734E+04  0.19906659081E+04 0.  0.
        5    1    3    3  502    0  0.86877138306E+03  0.45464794885E+03  0.45346063367E+02  0.98160421193E+03  0.46999998093E+01 0.  1.
       -5    1    3    3    0  502 -0.86877138306E+03 -0.45464794885E+03 -0.29916397542E+03  0.10251778614E+04  0.46999998093E+01 0. -1.
</event>
<event>
 5   0  0.9370269E-06  0.1998304E+04  0.7818609E-02  0.8607414E-01
       -1   -1    0    0    0  501  0.00000000000E+00  0.00000000000E+00  0.86132999875E+03  0.86132999876E+03  0.50400001928E-02 0. -1.
        1   -1    0    0  501    0  0.00000000000E+00  0.00000000000E+00 -0.11590268277E+04  0.11590268277E+04  0.50400001928E-02 0.  1.
    10030    2    1    2    0    0  0.00000000000E+00  0.00000000000E+00 -0.29769682893E+03  0.20203568265E+04  0.19983038568E+04 0.  0.
        4    1    3    3  502    0  0.35513785525E+03  0.19010261552E+03  0.77559505125E+03  0.87396292660E+03  0.12699999809E+01 0. -1.
       -4    1    3    3    0  502 -0.35513785525E+03 -0.19010261552E+03 -0.10732918802E+04  0.11463938998E+04  0.12699999809E+01 0.  1.
</event>
<event>
 5   0  0.9370269E-06  0.1996332E+04  0.7818609E-02  0.8608337E-01
       -1   -1    0    0    0  501  0.00000000000E+00  0.00000000000E+00  0.51709078318E+03  0.51709078320E+03  0.50400001928E-02 0.  1.
        1   -1    0    0  501    0  0.00000000000E+00  0.00000000000E+00 -0.19268093570E+04  0.19268093570E+04  0.50400001928E-02 0. -1.
    10030    2    1    2    0    0  0.00000000000E+00  0.00000000000E+00 -0.14097185738E+04  0.24439001402E+04  0.19963319959E+04 0.  0.
        4    1    3    3  502    0  0.41619241633E+03 -0.82335028027E+03 -0.11713594989E+04  0.14910420852E+04  0.12699999809E+01 0.  1.
       -4    1    3    3    0  502 -0.41619241633E+03  0.82335028027E+03 -0.23835907495E+03  0.95285805498E+03  0.12699999809E+01 0. -1.
</event>
<event>
 5   0  0.1999142E-05  0.2020218E+04  0.7818609E-02  0.8597226E-01
        2   -1    0    0  501    0  0.00000000000E+00  0.00000000000E+00  0.14614507007E+04  0.14614507007E+04  0.25500000920E-02 0. -1.
       -2   -1    0    0    0  501  0.00000000000E+00  0.00000000000E+00 -0.69815601589E+03  0.69815601589E+03  0.25500000920E-02 0.  1.
    10030    2    1    2    0    0  0.00000000000E+00  0.00000000000E+00  0.76329468478E+03  0.21596067166E+04  0.20202184026E+04 0.  0.
        1    1    3    3  502    0  0.50853916997E+02 -0.65684139676E+03  0.12001762440E+04  0.13691054590E+04  0.50400001928E-02 0. -1.
       -1    1    3    3    0  502 -0.50853916997E+02  0.65684139676E+03 -0.43688155918E+03  0.79050125752E+03  0.50400001928E-02 0.  1.
</event>
<event>
 5   0  0.2038882E-05  0.2000669E+04  0.7818609E-02  0.8606308E-01
        2   -1    0    0  501    0  0.00000000000E+00  0.00000000000E+00  0.74794599571E+03  0.74794599571E+03  0.25500000920E-02 0.  1.
       -2   -1    0    0    0  501  0.00000000000E+00  0.00000000000E+00 -0.13378897760E+04  0.13378897760E+04  0.25500000920E-02 0. -1.
    10030    2    1    2    0    0  0.00000000000E+00  0.00000000000E+00 -0.58994378033E+03  0.20858357718E+04  0.20006691887E+04 0.  0.
        3    1    3    3  502    0 -0.63346889784E+03 -0.15755259389E+03  0.49529519120E+03  0.81940405235E+03  0.10100000352E+00 0.  1.
       -3    1    3    3    0  502  0.63346889784E+03  0.15755259389E+03 -0.10852389715E+04  0.12664317194E+04  0.10100000352E+00 0. -1.
</event>
<event>
 5   0  0.9342635E-06  0.1998895E+04  0.7818609E-02  0.8607137E-01
        1   -1    0    0  501    0  0.00000000000E+00  0.00000000000E+00  0.97884955476E+03  0.97884955477E+03  0.50400001928E-02 0.  1.
       -1   -1    0    0    0  501  0.00000000000E+00  0.00000000000E+00 -0.10204791232E+04  0.10204791232E+04  0.50400001928E-02 0. -1.
    10030    2    1    2    0    0  0.00000000000E+00  0.00000000000E+00 -0.41629568435E+02  0.19993286780E+04  0.19988952303E+04 0.  0.
        5    1    3    3  502    0  0.68103564998E+03 -0.23987382389E+03 -0.71199606015E+03  0.10140559588E+04  0.46999998093E+01 0. -1.
       -5    1    3    3    0  502 -0.68103564998E+03  0.23987382389E+03  0.67036649171E+03  0.98527271917E+03  0.46999998093E+01 0.  1.
</event>
<event>
 5   0  0.1979765E-05  0.2013350E+04  0.7818609E-02  0.8600405E-01
       -2   -1    0    0    0  501  0.00000000000E+00  0.00000000000E+00  0.12753601790E+04  0.12753601790E+04  0.25500000920E-02 0.  1.
        2   -1    0    0  501    0  0.00000000000E+00  0.00000000000E+00 -0.79459460692E+03  0.79459460692E+03  0.25500000920E-02 0. -1.
    10030    2    1    2    0    0  0.00000000000E+00  0.00000000000E+00  0.48076557208E+03  0.20699547859E+04  0.20133497660E+04 0.  0.
        2    1    3    3  502    0  0.13199503988E+03  0.71783739403E+03 -0.47242126008E+03  0.86942225748E+03  0.25500000920E-02 0. -1.
       -2    1    3    3    0  502 -0.13199503988E+03 -0.71783739403E+03  0.95318683216E+03  0.12005325284E+04  0.25500000920E-02 0.  1.
</event>
<event>
 5   0  0.2003576E-05  0.1998448E+04  0.7818609E-02  0.8607347E-01
        2   -1    0    0  501    0  0.00000000000E+00  0.00000000000E+00  0.68839874396E+03  0.68839874397E+03  0.25500000920E-02 0.  1.
       -2   -1    0    0    0  501  0.00000000000E+00  0.00000000000E+00 -0.14503921057E+04  0.14503921057E+04  0.25500000920E-02 0. -1.
    10030    2    1    2    0    0  0.00000000000E+00  0.00000000000E+00 -0.76199336174E+03  0.21387908497E+04  0.19984475013E+04 0.  0.
        4    1    3    3  502    0 -0.76843119785E+03 -0.62472288749E+02 -0.10612912399E+04  0.13117659858E+04  0.12699999809E+01 0. -1.
       -4    1    3    3    0  502  0.76843119785E+03  0.62472288749E+02  0.29929787816E+03  0.82702486387E+03  0.12699999809E+01 0.  1.
</event>
<event>
 5   0  0.9370269E-06  0.2000600E+04  0.7818609E-02  0.8606340E-01
       -1   -1    0    0    0  501  0.00000000000E+00  0.00000000000E+00  0.61323859477E+03  0.61323859479E+03  0.50400001928E-02 0. -1.
        1   -1    0    0  501    0  0.00000000000E+00  0.00000000000E+00 -0.16316656344E+04  0.16316656344E+04  0.50400001928E-02 0.  1.
    10030    2    1    2    0    0  0.00000000000E+00  0.00000000000E+00 -0.10184270396E+04  0.22449042292E+04  0.20006002507E+04 0.  0.
        4    1    3    3  502    0  0.80617738655E+03 -0.44455710251E+03 -0.70230106965E+02  0.92330215899E+03  0.12699999809E+01 0. -1.
       -4    1    3    3    0  502 -0.80617738655E+03  0.44455710251E+03 -0.94819693265E+03  0.13216020702E+04  0.12699999809E+01 0.  1.
</event>
<event>
 5   0  0.2020029E-05  0.1997438E+04  0.7818609E-02  0.8607819E-01
        2   -1    0    0  501    0  0.00000000000E+00  0.00000000000E+00  0.17409176869E+04  0.17409176869E+04  0.25500000920E-02 0.  1.
       -2   -1    0    0    0  501  0.00000000000E+00  0.00000000000E+00 -0.57293911809E+03  0.57293911809E+03  0.25500000920E-02 0. -1.
    10030    2    1    2    0    0  0.00000000000E+00  0.00000000000E+00  0.11679785689E+04  0.23138568050E+04  0.19974382035E+04 0.  0.
        5    1    3    3  502    0 -0.68121668494E+03 -0.71210500954E+03  0.77173798624E+03  0.12516993752E+04  0.46999998093E+01 0.  1.
       -5    1    3    3    0  502  0.68121668494E+03  0.71210500954E+03  0.39624058262E+03  0.10621574298E+04  0.46999998093E+01 0. -1.
</event>
<event>
 5   0  0.2038882E-05  0.2001567E+04  0.7818609E-02  0.8605888E-01
       -2   -1    0    0    0  501  0.00000000000E+00  0.00000000000E+00  0.71451842051E+03  0.71451842052E+03  0.25500000920E-02 0.  1.
        2   -1    0    0  501    0  0.00000000000E+00  0.00000000000E+00 -0.14017380704E+04  0.14017380704E+04  0.25500000920E-02 0. -1.
    10030    2    1    2    0    0  0.00000000000E+00  0.00000000000E+00 -0.68721964988E+03  0.21162564909E+04  0.20015670581E+04 0.  0.
        3    1    3    3  502    0 -0.23581018719E+03  0.12074685798E+03 -0.13639898351E+04  0.13894799490E+04  0.10100000352E+00 0. -1.
       -3    1    3    3    0  502  0.23581018719E+03 -0.12074685798E+03  0.67677018523E+03  0.72677654194E+03  0.10100000352E+00 0.  1.
</event>
<event>
 5   0  0.9370269E-06  0.2029824E+04  0.7818609E-02  0.8592803E-01
       -1   -1    0    0    0  501  0.00000000000E+00  0.00000000000E+00  0.54861021736E+03  0.54861021739E+03  0.50400001928E-02 0. -1.
        1   -1    0    0  501    0  0.00000000000E+00  0.00000000000E+00 -0.18775559202E+04  0.18775559202E+04  0.50400001928E-02 0.  1.
    10030    2    1    2    0    0  0.00000000000E+00  0.00000000000E+00 -0.13289457028E+04  0.24261661376E+04  0.20298239939E+04 0.  0.
        4    1    3    3  502    0 -0.48079809929E+03 -0.67805736554E+03  0.31570658917E+02  0.83182144878E+03  0.12699999809E+01 0. -1.
       -4    1    3    3    0  502  0.48079809929E+03  0.67805736554E+03 -0.13605163618E+04  0.15943446888E+04  0.12699999809E+01 0.  1.
</event>
<event>
 5   0  0.9220260E-06  0.1999747E+04  0.7818609E-02  0.8606739E-01
       -1   -1    0    0    0  501  0.00000000000E+00  0.00000000000E+00  0.75874169534E+03  0.75874169536E+03  0.50400001928E-02 0. -1.
        1   -1    0    0  501    0  0.00000000000E+00  0.00000000000E+00 -0.13176386222E+04  0.13176386222E+04  0.50400001928E-02 0.  1.
    10030    2    1    2    0    0  0.00000000000E+00  0.00000000000E+00 -0.55889692688E+03  0.20763803176E+04  0.19997473461E+04 0.  0.
        3    1    3    3  502    0  0.22867360927E+03 -0.27954895153E+03  0.68864801761E+03  0.77760873082E+03  0.10100000352E+00 0. -1.
       -3    1    3    3    0  502 -0.22867360927E+03  0.27954895153E+03 -0.12475449445E+04  0.12987715868E+04  0.10100000352E+00 0.  1.
</event>
<event>
 5   0  0.2003576E-05  0.1995725E+04  0.7818609E-02  0.8608622E-01
       -2   -1    0    0    0  501  0.00000000000E+00  0.00000000000E+00  0.45470244924E+03  0.45470244925E+03  0.25500000920E-02 0.  1.
        2   -1    0    0  501    0  0.00000000000E+00  0.00000000000E+00 -0.21898489200E+04  0.21898489200E+04  0.25500000920E-02 0. -1.
    10030    2    1    2    0    0  0.00000000000E+00  0.00000000000E+00 -0.17351464707E+04  0.26445513692E+04  0.19957250987E+04 0.  0.
        4    1    3    3  502    0  0.15844892287E+02  0.69438718514E+03 -0.18169495047E+04  0.19451816725E+04  0.12699999809E+01 0. -1.
       -4    1    3    3    0  502 -0.15844892287E+02 -0.69438718514E+03  0.81803033925E+02  0.69936969677E+03  0.12699999809E+01 0.  1.
</event>
<event>
 5   0  0.2038882E-05  0.2006559E+04  0.7818609E-02  0.8603560E-01
        2   -1    0    0  501    0  0.00000000000E+00  0.00000000000E+00  0.13399373503E+04  0.13399373503E+04  0.25500000920E-02 0.  1.
       -2   -1    0    0    0  501  0.00000000000E+00  0.00000000000E+00 -0.75120678632E+03  0.75120678632E+03  0.25500000920E-02 0. -1.
    10030    2    1    2    0    0  0.00000000000E+00  0.00000000000E+00  0.58873056397E+03  0.20911441366E+04  0.20065592748E+04 0.  0.
        3    1    3    3  502    0  0.46096188814E+03 -0.15549675375E+03 -0.62006483635E+03  0.78812785398E+03  0.10100000352E+00 0. -1.
       -3    1    3    3    0  502 -0.46096188814E+03  0.15549675375E+03  0.12087954003E+04  0.13030162826E+04  0.10100000352E+00 0.  1.
</event>
<event>
 5   0  0.1979765E-05  0.1998392E+04  0.7818609E-02  0.8607373E-01
        2   -1    0    0  501    0  0.00000000000E+00  0.00000000000E+00  0.13118212580E+04  0.13118212580E+04  0.25500000920E-02 0.  1.
       -2   -1    0    0    0  501  0.00000000000E+00  0.00000000000E+00 -0.76107391288E+03  0.76107391288E+03  0.25500000920E-02 0. -1.
    10030    2    1    2    0    0  0.00000000000E+00  0.00000000000E+00  0.55074734514E+03  0.20728951709E+04  0.19983922917E+04 0.  0.
        2    1    3    3  502    0 -0.76858045876E+03 -0.58929638779E+03  0.53031453460E+03  0.11041828018E+04  0.25500000920E-02 0.  1.
       -2    1    3    3    0  502  0.76858045876E+03  0.58929638779E+03  0.20432810539E+02  0.96871236907E+03  0.25500000920E-02 0. -1.
</event>
<event>
 5   0  0.1979765E-05  0.2000582E+04  0.7818609E-02  0.8606349E-01
        2   -1    0    0  501    0  0.00000000000E+00  0.00000000000E+00  0.17738754102E+04  0.17738754102E+04  0.25500000920E-02 0.  1.
       -2   -1    0    0    0  501  0.00000000000E+00  0.00000000000E+00 -0.56406553370E+03  0.56406553371E+03  0.25500000920E-02 0. -1.
    10030    2    1    2    0    0  0.00000000000E+00  0.00000000000E+00  0.12098098765E+04  0.23379409439E+04  0.20005818953E+04 0.  0.
        2    1    3    3  502    0 -0.86573611615E+03 -0.19716740226E+03  0.11432466743E+04  0.14475451515E+04  0.25500000920E-02 0.  1.
       -2    1    3    3    0  502  0.86573611615E+03  0.19716740226E+03  0.66563202239E+02  0.89039579245E+03  0.25500000920E-02 0. -1.
</event>
<event>
 5   0  0.2003576E-05  0.1993590E+04  0.7818609E-02  0.8609623E-01
       -2   -1    0    0    0  501  0.00000000000E+00  0.00000000000E+00  0.63917034572E+03  0.63917034573E+03  0.25500000920E-02 0. -1.
        2   -1    0    0  501    0  0.00000000000E+00  0.00000000000E+00 -0.15545162827E+04  0.15545162827E+04  0.25500000920E-02 0.  1.
    10030    2    1    2    0    0  0.00000000000E+00  0.00000000000E+00 -0.91534593700E+03  0.21936866285E+04  0.19935904392E+04 0.  0.
        4    1    3    3  502    0 -0.43360020319E+03 -0.74706183412E+03 -0.10050873778E+04  0.13252595104E+04  0.12699999809E+01 0.  1.
       -4    1    3    3    0  502  0.43360020319E+03  0.74706183412E+03  0.89741440752E+02  0.86842711801E+03  0.12699999809E+01 0. -1.
</event>
<event>
 5   0  0.2020029E-05  0.2000852E+04  0.7818609E-02  0.8606222E-01
        2   -1    0    0  501    0  0.00000000000E+00  0.00000000000E+00  0.22288891463E+04  0.22288891463E+04  0.25500000920E-02 0.  1.
       -2   -1    0    0    0  501  0.00000000000E+00  0.00000000000E+00 -0.44903633247E+03  0.44903633248E+03  0.25500000920E-02 0. -1.
    10030    2    1    2    0    0  0.00000000000E+00  0.00000000000E+00  0.17798528138E+04  0.26779254788E+04  0.20008520263E+04 0.  0.
        5    1    3    3  502    0 -0.74518898684E+02 -0.46590410001E+03 -0.29075313192E+03  0.55423746750E+03  0.46999998093E+01 0. -1.
       -5    1    3    3    0  502  0.74518898684E+02  0.46590410001E+03  0.20706059458E+04  0.21236880113E+04  0.46999998093E+01 0.  1.
</event>
<event>
 5   0  0.2020029E-05  0.1998929E+04  0.7818609E-02  0.8607122E-01
       -2   -1    0    0    0  501  0.00000000000E+00  0.00000000000E+00  0.34537718593E+03  0.34537718594E+03  0.25500000920E-02 0.  1.
        2   -1    0    0  501    0  0.00000000000E+00  0.00000000000E+00 -0.28922852526E+04  0.28922852526E+04  0.25500000920E-02 0. -1.
    10030    2    1    2    0    0  0.00000000000E+00  0.00000000000E+00 -0.25469080666E+04  0.32376624385E+04  0.19989290547E+04 0.  0.
        5    1    3    3  502    0 -0.33810847945E+03  0.93574302874E+03 -0.14268976392E+04  0.17395376749E+04  0.46999998093E+01 0. -1.
       -5    1    3    3    0  502  0.33810847945E+03 -0.93574302874E+03 -0.11200104274E+04  0.14981247636E+04  0.46999998093E+01 0.  1.
</event>
<event>
 5   0  0.2038882E-05  0.2000328E+04  0.7818609E-02  0.8606467E-01
        2   -1    0    0  501    0  0.00000000000E+00  0.00000000000E+00  0.81006675831E+03  0.81006675832E+03  0.25500000920E-02 0.  1.
       -2   -1    0    0    0  501  0.00000000000E+00  0.00000000000E+00 -0.12348710280E+04  0.12348710280E+04  0.25500000920E-02 0. -1.
    10030    2    1    2    0    0  0.00000000000E+00  0.00000000000E+00 -0.42480426968E+03  0.20449377863E+04  0.20003279437E+04 0.  0.
        3    1    3    3  502    0 -0.19318576928E+03  0.42254838736E+03 -0.11178518193E+04  0.12105620931E+04  0.10100000352E+00 0. -1.
       -3    1    3    3    0  502  0.19318576928E+03 -0.42254838736E+03  0.69304754965E+03  0.83437569319E+03  0.10100000352E+00 0.  1.
</event>
<event>
 5   0  0.9140695E-06  0.1998754E+04  0.7818609E-02  0.8607204E-01
        1   -1    0    0  501    0  0.00000000000E+00  0.00000000000E+00  0.66638753293E+03  0.66638753295E+03  0.50400001928E-02 0. -1.
       -1   -1    0    0    0  501  0.00000000000E+00  0.00000000000E+00 -0.14987586305E+04  0.14987586305E+04  0.50400001928E-02 0.  1.
    10030    2    1    2    0    0  0.00000000000E+00  0.00000000000E+00 -0.83237109752E+03  0.21651461634E+04  0.19987536779E+04 0.  0.
        1    1    3    3  502    0  0.81619900719E+03 -0.57392891775E+03 -0.35511067636E+03  0.10590933927E+04  0.50400001928E-02 0. -1.
       -1    1    3    3    0  502 -0.81619900719E+03  0.57392891775E+03 -0.47726042116E+03  0.11060527707E+04  0.50400001928E-02 0.  1.
</event>
<event>
 5   0  0.9140695E-06  0.1998765E+04  0.7818609E-02  0.8607198E-01
       -1   -1    0    0    0  501  0.00000000000E+00  0.00000000000E+00  0.97547913938E+03  0.97547913939E+03  0.50400001928E-02 0.  1.
        1   -1    0    0  501    0  0.00000000000E+00  0.00000000000E+00 -0.10238716772E+04  0.10238716772E+04  0.50400001928E-02 0. -1.
    10030    2    1    2    0    0  0.00000000000E+00  0.00000000000E+00 -0.48392537789E+02  0.19993508166E+04  0.19987650812E+04 0.  0.
        1    1    3    3  502    0 -0.30279553125E+03  0.54214431351E+02 -0.97533827533E+03  0.10226969686E+04  0.50400001928E-02 0. -1.
       -1    1    3    3    0  502  0.30279553125E+03 -0.54214431351E+02  0.92694573754E+03  0.97665384793E+03  0.50400001928E-02 0.  1.
</event>
<event>
 5   0  0.1979765E-05  0.2000974E+04  0.7818609E-02  0.8606165E-01
        2   -1    0    0  501    0  0.00000000000E+00  0.00000000000E+00  0.17775135117E+04  0.17775135117E+04  0.25500000920E-02 0. -1.
       -2   -1    0    0    0  501  0.00000000000E+00  0.00000000000E+00 -0.56313193984E+03  0.56313193984E+03  0.25500000920E-02 0.  1.
    10030    2    1    2    0    0  0.00000000000E+00  0.00000000000E+00  0.12143815719E+04  0.23406454515E+04  0.20009743946E+04 0.  0.
        2    1    3    3  502    0 -0.42577419743E+03  0.72296783026E+03 -0.30306776150E+02  0.83957408933E+03  0.25500000920E-02 0.  1.
       -2    1    3    3    0  502  0.42577419743E+03 -0.72296783026E+03  0.12446883480E+04  0.15010713622E+04  0.25500000920E-02 0. -1.
</event>
<event>
 5   0  0.2003576E-05  0.2000666E+04  0.7818609E-02  0.8606310E-01
       -2   -1    0    0    0  501  0.00000000000E+00  0.00000000000E+00  0.43334289262E+03  0.43334289263E+03  0.25500000920E-02 0.  1.
        2   -1    0    0  501    0  0.00000000000E+00  0.00000000000E+00 -0.23091776199E+04  0.23091776199E+04  0.25500000920E-02 0. -1.
    10030    2    1    2    0    0  0.00000000000E+00  0.00000000000E+00 -0.18758347273E+04  0.27425205126E+04  0.20006655987E+04 0.  0.
        4    1    3    3  502    0  0.25550275338E+03 -0.42452350831E+03  0.25331232939E+03  0.55648056140E+03  0.12699999809E+01 0.  1.
       -4    1    3    3    0  502 -0.25550275338E+03  0.42452350831E+03 -0.21291470567E+04  0.21860399512E+04  0.12699999809E+01 0. -1.
</event>
<event>
 5   0  0.9342635E-06  0.2007545E+04  0.7818609E-02  0.8603101E-01
        1   -1    0    0  501    0  0.00000000000E+00  0.00000000000E+00  0.23267522464E+04  0.23267522464E+04  0.50400001928E-02 0.  1.
       -1   -1    0    0    0  501  0.00000000000E+00  0.00000000000E+00 -0.43303229350E+03  0.43303229353E+03  0.50400001928E-02 0. -1.
    10030    2    1    2    0    0  0.00000000000E+00  0.00000000000E+00  0.18937199529E+04  0.27597845399E+04  0.20075446314E+04 0.  0.
        5    1    3    3  502    0 -0.42053774203E+03 -0.32898673935E+03 -0.22160209251E+03  0.57811231136E+03  0.46999998093E+01 0. -1.
       -5    1    3    3    0  502  0.42053774203E+03  0.32898673935E+03  0.21153220454E+04  0.21816722286E+04  0.46999998093E+01 0.  1.
</event>
<event>
 5   0  0.7132000E-06  0.2002513E+04  0.7818609E-02  0.8605447E-01
        3   -1    0    0  501    0  0.00000000000E+00  0.00000000000E+00  0.23858593569E+04  0.23858593590E+04  0.10100000352E+00 0. -1.
       -3   -1    0    0    0  501  0.00000000000E+00  0.00000000000E+00 -0.42018994888E+03  0.42018996102E+03  0.10100000352E+00 0.  1.
    10030    2    1    2    0    0  0.00000000000E+00  0.00000000000E+00  0.19656694080E+04  0.28060493200E+04  0.20025125630E+04 0.  0.
        3    1    3    3  502    0 -0.91400948856E+03 -0.37234507594E+02  0.41240761003E+03  0.10034340042E+04  0.10100000352E+00 0.  1.
       -3    1    3    3    0  502  0.91400948856E+03  0.37234507594E+02  0.15532617980E+04  0.18026153159E+04  0.10100000352E+00 0. -1.
</event>
<event>
 5   0  0.1999142E-05  0.1999757E+04  0.7818609E-02  0.8606734E-01
       -2   -1    0    0    0  501  0.00000000000E+00  0.00000000000E+00  0.91493436689E+03  0.91493436689E+03  0.25500000920E-02 0. -1.
        2   -1    0    0  501    0  0.00000000000E+00  0.00000000000E+00 -0.10927086613E+04  0.10927086613E+04  0.25500000920E-02 0.  1.
    10030    2    1    2    0    0  0.00000000000E+00  0.00000000000E+00 -0.17777429440E+03  0.20076430282E+04  0.19997566924E+04 0.  0.
        1    1    3    3  502    0 -0.85301369342E+03 -0.20942224474E+03  0.39076963233E+03  0.96134850253E+03  0.50400001928E-02 0. -1.
       -1    1    3    3    0  502  0.85301369342E+03  0.20942224474E+03 -0.56854392673E+03  0.10462945256E+04  0.50400001928E-02 0.  1.
</event>
<event>
 5   0  0.9342635E-06  0.1990503E+04  0.7818609E-02  0.8611074E-01
       -1   -1    0    0    0  501  0.00000000000E+00  0.00000000000E+00  0.11124961738E+04  0.11124961738E+04  0.50400001928E-02 0. -1.
        1   -1    0    0  501    0  0.00000000000E+00  0.00000000000E+00 -0.89036294593E+03  0.89036294595E+03  0.50400001928E-02 0.  1.
    10030    2    1    2    0    0  0.00000000000E+00  0.00000000000E+00  0.22213322786E+03  0.20028591198E+04  0.19905028216E+04 0.  0.
        5    1    3    3  502    0 -0.17659400468E+03 -0.55720317186E+03 -0.69944125758E+03  0.91153770082E+03  0.46999998093E+01 0. -1.
       -5    1    3    3    0  502  0.17659400468E+03  0.55720317186E+03  0.92157448544E+03  0.10913214189E+04  0.46999998093E+01 0.  1.
</event>
<event>
 5   0  0.9370269E-06  0.2002574E+04  0.7818609E-02  0.8605418E-01
        1   -1    0    0  501    0  0.00000000000E+00  0.00000000000E+00  0.95134821974E+03  0.95134821975E+03  0.50400001928E-02 0. -1.
       -1   -1    0    0    0  501  0.00000000000E+00  0.00000000000E+00 -0.10538466846E+04  0.10538466846E+04  0.50400001928E-02 0.  1.
    10030    2    1    2    0    0  0.00000000000E+00  0.00000000000E+00 -0.10249846489E+03  0.20051949044E+04  0.20025735116E+04 0.  0.
        4    1    3    3  502    0 -0.80394594355E+03  0.52760252314E+03  0.22818605014E+03  0.98831370978E+03  0.12699999809E+01 0. -1.
       -4    1    3    3    0  502  0.80394594355E+03 -0.52760252314E+03 -0.33068451503E+03  0.10168811946E+04  0.12699999809E+01 0.  1.
</event>
<event>
 5   0  0.9140695E-06  0.2001112E+04  0.7818609E-02  0.8606101E-01
       -1   -1    0    0    0  501  0.00000000000E+00  0.00000000000E+00  0.94774457665E+03  0.94774457666E+03  0.50400001928E-02 0.  1.
        1   -1    0    0  501    0  0.00000000000E+00  0.00000000000E+00 -0.10563099163E+04  0.10563099163E+04  0.50400001928E-02 0. -1.
    10030    2    1    2    0    0  0.00000000000E+00  0.00000000000E+00 -0.10856533961E+03  0.20040544929E+04  0.20011116855E+04 0.  0.
        1    1    3    3  502    0  0.41021263341E+03 -0.58542587809E+03 -0.75539371753E+03  0.10400084288E+04  0.50400001928E-02 0. -1.
       -1    1    3    3    0  502 -0.41021263341E+03  0.58542587809E+03  0.64682837792E+03  0.96404606418E+03  0.50400001928E-02 0.  1.
</event>
<event>
 5   0  0.9140695E-06  0.2028059E+04  0.7818609E-02  0.8593613E-01
        1   -1    0    0  501    0  0.00000000000E+00  0.00000000000E+00  0.16132205059E+04  0.16132205059E+04  0.50400001928E-02 0. -1.
       -1   -1    0    0    0  501  0.00000000000E+00  0.00000000000E+00 -0.63739309040E+03  0.63739309042E+03  0.50400001928E-02 0.  1.
    10030    2    1    2    0    0  0.00000000000E+00  0.00000000000E+00  0.97582741550E+03  0.22506135963E+04  0.20280587800E+04 0.  0.
        1    1    3    3  502    0 -0.12814540258E+03  0.74044678185E+03  0.12434919275E+04  0.14529125421E+04  0.50400001928E-02 0. -1.
       -1    1    3    3    0  502  0.12814540258E+03 -0.74044678185E+03 -0.26766451204E+03  0.79770105428E+03  0.50400001928E-02 0.  1.
</event>
<event>
 5   0  0.9140695E-06  0.2000783E+04  0.7818609E-02  0.8606255E-01
        1   -1    0    0  501    0  0.00000000000E+00  0.00000000000E+00  0.94520195849E+03  0.94520195850E+03  0.50400001928E-02 0.  1.
       -1   -1    0    0    0  501  0.00000000000E+00  0.00000000000E+00 -0.10588038327E+04  0.10588038327E+04  0.50400001928E-02 0. -1.
    10030    2    1    2    0    0  0.00000000000E+00  0.00000000000E+00 -0.11360187423E+03  0.20040057912E+04  0.20007833030E+04 0.  0.
        1    1    3    3  502    0 -0.17653183803E+03 -0.37881862460E+03  0.85357242991E+03  0.95039619807E+03  0.50400001928E-02 0.  1.
       -1    1    3    3    0  502  0.17653183803E+03  0.37881862460E+03 -0.96717430415E+03  0.10536095932E+04  0.50400001928E-02 0. -1.
</event>
<event>
 5   0  0.9333353E-06  0.2002166E+04  0.7818609E-02  0.8605609E-01
       -1   -1    0    0    0  501  0.00000000000E+00  0.00000000000E+00  0.72088005335E+03  0.72088005337E+03  0.50400001928E-02 0. -1.
        1   -1    0    0  501    0  0.00000000000E+00  0.00000000000E+00 -0.13901994761E+04  0.13901994761E+04  0.50400001928E-02 0.  1.
    10030    2    1    2    0    0  0.00000000000E+00  0.00000000000E+00 -0.66931942275E+03  0.21110795295E+04  0.20021658998E+04 0.  0.
        2    1    3    3  502    0 -0.94988561953E+03  0.21332889745E+03 -0.58052930505E+03  0.11334929125E+04  0.25500000920E-02 0. -1.
       -2    1    3    3    0  502  0.94988561953E+03 -0.21332889745E+03 -0.88790117703E+02  0.97758661698E+03  0.25500000920E-02 0.  1.
</event>
<event>
 5   0  0.9342635E-06  0.2000403E+04  0.7818609E-02  0.8606432E-01
       -1   -1    0    0    0  501  0.00000000000E+00  0.00000000000E+00  0.13711698521E+04  0.13711698522E+04  0.50400001928E-02 0.  1.
        1   -1    0    0  501    0  0.00000000000E+00  0.00000000000E+00 -0.72959850068E+03  0.72959850070E+03  0.50400001928E-02 0. -1.
    10030    2    1    2    0    0  0.00000000000E+00  0.00000000000E+00  0.64157135147E+03  0.21007683529E+04  0.20004034276E+04 0.  0.
        5    1    3    3  502    0 -0.48435254725E+03 -0.83190877989E+03  0.35664812691E+02  0.96330871321E+03  0.46999998093E+01 0. -1.
       -5    1    3    3    0  502  0.48435254725E+03  0.83190877989E+03  0.60590653878E+03  0.11374596396E+04  0.46999998093E+01 0.  1.
</event>
<event>
 5   0  0.2038882E-05  0.2003199E+04  0.7818609E-02  0.8605127E-01
       -2   -1    0    0    0  501  0.00000000000E+00  0.00000000000E+00  0.81999083658E+03  0.81999083658E+03  0.25500000920E-02 0.  1.
        2   -1    0    0  501    0  0.00000000000E+00  0.00000000000E+00 -0.12234298107E+04  0.12234298107E+04  0.25500000920E-02 0. -1.
    10030    2    1    2    0    0  0.00000000000E+00  0.00000000000E+00 -0.40343897412E+03  0.20434206473E+04  0.20031986761E+04 0.  0.
        3    1    3    3  502    0 -0.63710777972E+02  0.17613430066E+03 -0.12054060156E+04  0.12198713161E+04  0.10100000352E+00 0. -1.
       -3    1    3    3    0  502  0.63710777972E+02 -0.17613430066E+03  0.80196704149E+03  0.82354933121E+03  0.10100000352E+00 0.  1.
</event>
<event>
 5   0  0.9220260E-06  0.2000425E+04  0.7818609E-02  0.8606422E-01
        1   -1    0    0  501    0  0.00000000000E+00  0.00000000000E+00  0.57430501333E+03  0.57430501335E+03  0.50400001928E-02 0.  1.
       -1   -1    0    0    0  501  0.00000000000E+00  0.00000000000E+00 -0.17419748594E+04  0.17419748594E+04  0.50400001928E-02 0. -1.
    10030    2    1    2    0    0  0.00000000000E+00  0.00000000000E+00 -0.11676698461E+04  0.23162798728E+04  0.20004248498E+04 0.  0.
        3    1    3    3  502    0  0.65817454786E+03  0.37680475383E+03  0.17124097863E+03  0.77749536392E+03  0.10100000352E+00 0.  1.
       -3    1    3    3    0  502 -0.65817454786E+03 -0.37680475383E+03 -0.13389108247E+04  0.15387845088E+04  0.10100000352E+00 0. -1.
</event>
<event>
 5   0  0.9333353E-06  0.2001501E+04  0.7818609E-02  0.8605919E-01
        1   -1    0    0  501    0  0.00000000000E+00  0.00000000000E+00  0.87300480660E+03  0.87300480661E+03  0.50400001928E-02 0. -1.
       -1   -1    0    0    0  501  0.00000000000E+00  0.00000000000E+00 -0.11471891035E+04  0.11471891035E+04  0.50400001928E-02 0.  1.
    10030    2    1    2    0    0  0.00000000000E+00  0.00000000000E+00 -0.27418429691E+03  0.20201939101E+04  0.20015010382E+04 0.  0.
        2    1    3    3  502    0 -0.29509683571E+03  0.84054962739E+03 -0.59730641527E+03  0.10725580508E+04  0.25500000920E-02 0.  1.
       -2    1    3    3    0  502  0.29509683571E+03 -0.84054962739E+03  0.32312211837E+03  0.94763585935E+03  0.25500000920E-02 0. -1.
</event>
<event>
 5   0  0.2020029E-05  0.1991427E+04  0.7818609E-02  0.8610639E-01
       -2   -1    0    0    0  501  0.00000000000E+00  0.00000000000E+00  0.88069822380E+03  0.88069822380E+03  0.25500000920E-02 0.  1.
        2   -1    0    0  501    0  0.00000000000E+00  0.00000000000E+00 -0.11257488891E+04  0.11257488891E+04  0.25500000920E-02 0. -1.
    10030    2    1    2    0    0  0.00000000000E+00  0.00000000000E+00 -0.24505066531E+03  0.20064471129E+04  0.19914266716E+04 0.  0.
        5    1    3    3  502    0 -0.38248542842E+03  0.10597347689E+03 -0.10425929110E+04  0.11155929136E+04  0.46999998093E+01 0. -1.
       -5    1    3    3    0  502  0.38248542842E+03 -0.10597347689E+03  0.79754224571E+03  0.89085419932E+03  0.46999998093E+01 0.  1.
</event>
<event>
 5   0  0.2038882E-05  0.2004558E+04  0.7818609E-02  0.8604493E-01
       -2   -1    0    0    0  501  0.00000000000E+00  0.00000000000E+00  0.93453799103E+03  0.93453799103E+03  0.25500000920E-02 0.  1.
        2   -1    0    0  501    0  0.00000000000E+00  0.00000000000E+00 -0.10749301773E+04  0.10749301773E+04  0.25500000920E-02 0. -1.
    10030    2    1    2    0    0  0.00000000000E+00  0.00000000000E+00 -0.14039218630E+03  0.20094681684E+04  0.20045578948E+04 0.  0.
        3    1    3    3  502    0  0.64130946863E+02  0.97012859999E+03 -0.31431015714E+03  0.10217891974E+04  0.10100000352E+00 0.  1.
       -3    1    3    3    0  502 -0.64130946863E+02 -0.97012859999E+03  0.17391797084E+03  0.98767897095E+03  0.10100000352E+00 0. -1.
</event>
<event>
 5   0  0.9140695E-06  0.1999586E+04  0.7818609E-02  0.8606814E-01
       -1   -1    0    0    0  501  0.00000000000E+00  0.00000000000E+00  0.70469066924E+03  0.70469066926E+03  0.50400001928E-02 0.  1.
        1   -1    0    0  501    0  0.00000000000E+00  0.00000000000E+00 -0.14184745902E+04  0.14184745902E+04  0.50400001928E-02 0. -1.
    10030    2    1    2    0    0  0.00000000000E+00  0.00000000000E+00 -0.71378392092E+03  0.21231652594E+04  0.19995857654E+04 0.  0.
        1    1    3    3  502    0 -0.24637091474E+03  0.51675640501E+03  0.51342996227E+03  0.76899033539E+03  0.50400001928E-02 0.  1.
       -1    1    3    3    0  502  0.24637091474E+03 -0.51675640501E+03 -0.12272138832E+04  0.13541749240E+04  0.50400001928E-02 0. -1.
</event>
<event>
 5   0  0.2003576E-05  0.1992844E+04  0.7818609E-02  0.8609974E-01
       -2   -1    0    0    0  501  0.00000000000E+00  0.00000000000E+00  0.61920351508E+03  0.61920351509E+03  0.25500000920E-02 0.  1.
        2   -1    0    0  501    0  0.00000000000E+00  0.00000000000E+00 -0.16034415560E+04  0.16034415560E+04  0.25500000920E-02 0. -1.
    10030    2    1    2    0    0  0.00000000000E+00  0.00000000000E+00 -0.98423804095E+03  0.22226450711E+04  0.19928438451E+04 0.  0.
        4    1    3    3  502    0  0.81983221803E+03 -0.40028878680E+03 -0.45298522040E+02  0.91346020578E+03  0.12699999809E+01 0.  1.
       -4    1    3    3    0  502 -0.81983221803E+03  0.40028878680E+03 -0.93893951891E+03  0.13091848653E+04  0.12699999809E+01 0. -1.
</event>
<event>
 5   0  0.1999142E-05  0.2003423E+04  0.7818609E-02  0.8605022E-01
        2   -1    0    0  501    0  0.00000000000E+00  0.00000000000E+00  0.77309753468E+03  0.77309753469E+03  0.25500000920E-02 0.  1.
       -2   -1    0    0    0  501  0.00000000000E+00  0.00000000000E+00 -0.12979297590E+04  0.12979297590E+04  0.25500000920E-02 0. -1.
    10030    2    1    2    0    0  0.00000000000E+00  0.00000000000E+00 -0.52483222430E+03  0.20710272937E+04  0.20034233670E+04 0.  0.
        1    1    3    3  502    0  0.12286850827E+03  0.38385208023E+03 -0.12104149005E+04  0.12757520610E+04  0.50400001928E-02 0. -1.
       -1    1    3    3    0  502 -0.12286850827E+03 -0.38385208023E+03  0.68558267617E+03  0.79527523268E+03  0.50400001928E-02 0.  1.
</event>
<event>
 5   0  0.2038882E-05  0.2000740E+04  0.7818609E-02  0.8606275E-01
        2   -1    0    0  501    0  0.00000000000E+00  0.00000000000E+00  0.19928075821E+04  0.19928075821E+04  0.25500000920E-02 0.  1.
       -2   -1    0    0    0  501  0.00000000000E+00  0.00000000000E+00 -0.50217590785E+03  0.50217590786E+03  0.25500000920E-02 0. -1.
    10030    2    1    2    0    0  0.00000000000E+00  0.00000000000E+00  0.14906316742E+04  0.24949834899E+04  0.20007398199E+04 0.  0.
        3    1    3    3  502    0  0.28914019500E+03 -0.48565226208E+03  0.17746107072E+04  0.18624455279E+04  0.10100000352E+00 0.  1.
       -3    1    3    3    0  502 -0.28914019500E+03  0.48565226208E+03 -0.28397903300E+03  0.63253796203E+03  0.10100000352E+00 0. -1.
</event>
<event>
 5   0  0.9342635E-06  0.2003938E+04  0.7818609E-02  0.8604782E-01
        1   -1    0    0  501    0  0.00000000000E+00  0.00000000000E+00  0.97944090652E+03  0.97944090654E+03  0.50400001928E-02 0. -1.
       -1   -1    0    0    0  501  0.00000000000E+00  0.00000000000E+00 -0.10250154914E+04  0.10250154914E+04  0.50400001928E-02 0.  1.
    10030    2    1    2    0    0  0.00000000000E+00  0.00000000000E+00 -0.45574584843E+02  0.20044563979E+04  0.20039382247E+04 0.  0.
        5    1    3    3  502    0  0.74667133019E+03 -0.27390098421E+03  0.58677999142E+03  0.98836869275E+03  0.46999998093E+01 0. -1.
       -5    1    3    3    0  502 -0.74667133019E+03  0.27390098421E+03 -0.63235457626E+03  0.10160877052E+04  0.46999998093E+01 0.  1.
</event>
<event>
 5   0  0.9333353E-06  0.1998945E+04  0.7818609E-02  0.8607114E-01
        1   -1    0    0  501    0  0.00000000000E+00  0.00000000000E+00  0.22080129308E+04  0.22080129308E+04  0.50400001928E-02 0.  1.
       -1   -1    0    0    0  501  0.00000000000E+00  0.00000000000E+00 -0.45241828637E+03  0.45241828639E+03  0.50400001928E-02 0. -1.
    10030    2    1    2    0    0  0.00000000000E+00  0.00000000000E+00  0.17555946445E+04  0.26604312172E+04  0.19989451483E+04 0.  0.
        2    1    3    3  502    0  0.24535590266E+01  0.55606329729E+03  0.19831265795E+04  0.20596124492E+04  0.25500000920E-02 0.  1.
       -2    1    3    3    0  502 -0.24535590266E+01 -0.55606329729E+03 -0.22753193505E+03  0.60081876803E+03  0.25500000920E-02 0. -1.
</event>
<event>
 5   0  0.9140695E-06  0.1998453E+04  0.7818609E-02  0.8607344E-01
        1   -1    0    0  501    0  0.00000000000E+00  0.00000000000E+00  0.16659966863E+04  0.16659966863E+04  0.50400001928E-02 0. -1.
       -1   -1    0    0    0  501  0.00000000000E+00  0.00000000000E+00 -0.59931291678E+03  0.59931291680E+03  0.50400001928E-02 0.  1.
    10030    2    1    2    0    0  0.00000000000E+00  0.00000000000E+00  0.10666837695E+04  0.22653096031E+04  0.19984527349E+04 0.  0.
        1    1    3    3  502    0 -0.70309845078E+03  0.38245567368E+03 -0.14472762947E+03  0.81336699010E+03  0.50400001928E-02 0.  1.
       -1    1    3    3    0  502  0.70309845078E+03 -0.38245567368E+03  0.12114113990E+04  0.14519426130E+04  0.50400001928E-02 0. -1.
</event>
<event>
 5   0  0.1979765E-05  0.2007586E+04  0.7818609E-02  0.8603082E-01
        2   -1    0    0  501    0  0.00000000000E+00  0.00000000000E+00  0.13723317533E+04  0.13723317533E+04  0.25500000920E-02 0. -1.
       -2   -1    0    0    0  501  0.00000000000E+00  0.00000000000E+00 -0.73422473770E+03  0.73422473770E+03  0.25500000920E-02 0.  1.
    10030    2    1    2    0    0  0.00000000000E+00  0.00000000000E+00  0.63810701564E+03  0.21065564910E+04  0.20075855365E+04 0.  0.
        2    1    3    3  502    0  0.62070712828E+03  0.70164450247E+03 -0.59302018813E+02  0.93866877885E+03  0.25500000920E-02 0. -1.
       -2    1    3    3    0  502 -0.62070712828E+03 -0.70164450247E+03  0.69740903445E+03  0.11678877122E+04  0.25500000920E-02 0.  1.
</event>
<event>
 5   0  0.2003576E-05  0.2004623E+04  0.7818609E-02  0.8604462E-01
       -2   -1    0    0    0  501  0.00000000000E+00  0.00000000000E+00  0.78617754616E+03  0.78617754617E+03  0.25500000920E-02 0.  1.
        2   -1    0    0  501    0  0.00000000000E+00  0.00000000000E+00 -0.12778650702E+04  0.12778650702E+04  0.25500000920E-02 0. -1.
    10030    2    1    2    0    0  0.00000000000E+00  0.00000000000E+00 -0.49168752403E+03  0.20640426164E+04  0.20046234811E+04 0.  0.
        4    1    3    3  502    0 -0.53652150413E+03  0.40301380480E+03 -0.10124609684E+04  0.12146416248E+04  0.12699999809E+01 0. -1.
       -4    1    3    3    0  502  0.53652150413E+03 -0.40301380480E+03  0.52077344436E+03  0.84940099158E+03  0.12699999809E+01 0.  1.
</event>
<event>
 5   0  0.9333353E-06  0.1998995E+04  0.7818609E-02  0.8607091E-01
        1   -1    0    0  501    0  0.00000000000E+00  0.00000000000E+00  0.16665307409E+04  0.16665307409E+04  0.50400001928E-02 0.  1.
       -1   -1    0    0    0  501  0.00000000000E+00  0.00000000000E+00 -0.59944582053E+03  0.59944582055E+03  0.50400001928E-02 0. -1.
    10030    2    1    2    0    0  0.00000000000E+00  0.00000000000E+00  0.10670849203E+04  0.22659765614E+04  0.19989946347E+04 0.  0.
        2    1    3    3  502    0  0.31721047465E+03 -0.70447549136E+02  0.16049854776E+04  0.16375480835E+04  0.25500000920E-02 0.  1.
       -2    1    3    3    0  502 -0.31721047465E+03  0.70447549136E+02 -0.53790055725E+03  0.62842847795E+03  0.25500000920E-02 0. -1.
</event>
<event>
 5   0  0.9342635E-06  0.2001004E+04  0.7818609E-02  0.8606152E-01
       -1   -1    0    0    0  501  0.00000000000E+00  0.00000000000E+00  0.16584886536E+04  0.16584886536E+04  0.50400001928E-02 0. -1.
        1   -1    0    0  501    0  0.00000000000E+00  0.00000000000E+00 -0.60356383170E+03  0.60356383172E+03  0.50400001928E-02 0.  1.
    10030    2    1    2    0    0  0.00000000000E+00  0.00000000000E+00  0.10549248219E+04  0.22620524854E+04  0.20010035149E+04 0.  0.
        5    1    3    3  502    0 -0.49750987171E+03 -0.34827807082E+03  0.14262789941E+04  0.15501959702E+04  0.46999998093E+01 0. -1.
       -5    1    3    3    0  502  0.49750987171E+03  0.34827807082E+03 -0.37135417212E+03  0.71185651519E+03  0.46999998093E+01 0.  1.
</event>
<event>
 5   0  0.9333353E-06  0.2014677E+04  0.7818609E-02  0.8599789E-01
        1   -1    0    0  501    0  0.00000000000E+00  0.00000000000E+00  0.18228667786E+04  0.18228667786E+04  0.50400001928E-02 0. -1.
       -1   -1    0    0    0  501  0.00000000000E+00  0.00000000000E+00 -0.55666775802E+03  0.55666775805E+03  0.50400001928E-02 0.  1.
    10030    2    1    2    0    0  0.00000000000E+00  0.00000000000E+00  0.12661990205E+04  0.23795345366E+04  0.20146773070E+04 0.  0.
        2    1    3    3  502    0 -0.49380443651E+03  0.50135673574E+03 -0.21821833075E+03  0.73676362415E+03  0.25500000920E-02 0.  1.
       -2    1    3    3    0  502  0.49380443651E+03 -0.50135673574E+03  0.14844173513E+04  0.16427709124E+04  0.25500000920E-02 0. -1.
</event>
<event>
 5   0  0.7132000E-06  0.2006729E+04  0.7818609E-02  0.8603481E-01
        3   -1    0    0  501    0  0.00000000000E+00  0.00000000000E+00  0.46405407719E+03  0.46405408818E+03  0.10100000352E+00 0. -1.
       -3   -1    0    0    0  501  0.00000000000E+00  0.00000000000E+00 -0.21694467141E+04  0.21694467164E+04  0.10100000352E+00 0.  1.
    10030    2    1    2    0    0  0.00000000000E+00  0.00000000000E+00 -0.17053926369E+04  0.26335008046E+04  0.20067292896E+04 0.  0.
        1    1    3    3  502    0  0.78589332513E+02  0.67711102242E+03 -0.18189215118E+04  0.19424549123E+04  0.50400001928E-02 0.  1.
       -1    1    3    3    0  502 -0.78589332513E+02 -0.67711102242E+03  0.11352887494E+03  0.69104589236E+03  0.50400001928E-02 0. -1.
</event>
<event>
 5   0  0.1979765E-05  0.1998204E+04  0.7818609E-02  0.8607461E-01
        2   -1    0    0  501    0  0.00000000000E+00  0.00000000000E+00  0.63352556550E+03  0.63352556550E+03  0.25500000920E-02 0. -1.
       -2   -1    0    0    0  501  0.00000000000E+00  0.00000000000E+00 -0.15756342976E+04  0.15756342976E+04  0.25500000920E-02 0.  1.
    10030    2    1    2    0    0  0.00000000000E+00  0.00000000000E+00 -0.94210873209E+03  0.22091598631E+04  0.19982038028E+04 0.  0.
        2    1    3    3  502    0 -0.19047384481E+03 -0.42807235221E+03  0.50453357346E+03  0.68853493087E+03  0.25500000920E-02 0. -1.
       -2    1    3    3    0  502  0.19047384481E+03  0.42807235221E+03 -0.14466423055E+04  0.15206249322E+04  0.25500000920E-02 0.  1.
</event>
<event>
 5   0  0.2038882E-05  0.2010253E+04  0.7818609E-02  0.8601842E-01
        2   -1    0    0  501    0  0.00000000000E+00  0.00000000000E+00  0.18338091426E+04  0.18338091426E+04  0.25500000920E-02 0. -1.
       -2   -1    0    0    0  501  0.00000000000E+00  0.00000000000E+00 -0.55091825272E+03  0.55091825272E+03  0.25500000920E-02 0.  1.
    10030    2    1    2    0    0  0.00000000000E+00  0.00000000000E+00  0.12828908899E+04  0.23847273954E+04  0.20102526495E+04 0.  0.
        3    1    3    3  502    0  0.28466638890E+03  0.69907065738E+03 -0.14593175081E+03  0.76878529062E+03  0.10100000352E+00 0.  1.
       -3    1    3    3    0  502 -0.28466638890E+03 -0.69907065738E+03  0.14288226407E+04  0.16159421047E+04  0.10100000352E+00 0. -1.
</event>
<event>
 5   0  0.1979765E-05  0.1998137E+04  0.7818609E-02  0.8607492E-01
       -2   -1    0    0    0  501  0.00000000000E+00  0.00000000000E+00  0.12796055139E+04  0.12796055139E+04  0.25500000920E-02 0. -1.
        2   -1    0    0  501    0  0.00000000000E+00  0.00000000000E+00 -0.78003573183E+03  0.78003573184E+03  0.25500000920E-02 0.  1.
    10030    2    1    2    0    0  0.00000000000E+00  0.00000000000E+00  0.49956978206E+03  0.20596412457E+04  0.19981371559E+04 0.  0.
        2    1    3    3  502    0 -0.37647623425E+03 -0.44919309068E+03 -0.58421113856E+03  0.82753334803E+03  0.25500000920E-02 0.  1.
       -2    1    3    3    0  502  0.37647623425E+03  0.44919309068E+03  0.10837809206E+04  0.12321078977E+04  0.25500000920E-02 0. -1.
</event>
<event>
 5   0  0.9220260E-06  0.1998366E+04  0.7818609E-02  0.8607385E-01
       -1   -1    0    0    0  501  0.00000000000E+00  0.00000000000E+00  0.55209132109E+03  0.55209132112E+03  0.50400001928E-02 0.  1.
        1   -1    0    0  501    0  0.00000000000E+00  0.00000000000E+00 -0.18083353489E+04  0.18083353489E+04  0.50400001928E-02 0. -1.
    10030    2    1    2    0    0  0.00000000000E+00  0.00000000000E+00 -0.12562440278E+04  0.23604266700E+04  0.19983655839E+04 0.  0.
        3    1    3    3  502    0  0.72894760186E+03 -0.23848917932E+03 -0.13845602148E+04  0.15827977424E+04  0.10100000352E+00 0. -1.
       -3    1    3    3    0  502 -0.72894760186E+03  0.23848917932E+03  0.12831618701E+03  0.77762892755E+03  0.10100000352E+00 0.  1.
</event>
<event>
 5   0  0.9342635E-06  0.2001861E+04  0.7818609E-02  0.8605751E-01
        1   -1    0    0  501    0  0.00000000000E+00  0.00000000000E+00  0.11049421756E+04  0.11049421756E+04  0.50400001928E-02 0. -1.
       -1   -1    0    0    0  501  0.00000000000E+00  0.00000000000E+00 -0.90670961570E+03  0.90670961571E+03  0.50400001928E-02 0.  1.
    10030    2    1    2    0    0  0.00000000000E+00  0.00000000000E+00  0.19823255992E+03  0.20116517913E+04  0.20018608298E+04 0.  0.
        5    1    3    3  502    0 -0.30286893000E+03 -0.22158484489E+03  0.10315609437E+04  0.10977110288E+04  0.46999998093E+01 0. -1.
       -5    1    3    3    0  502  0.30286893000E+03  0.22158484489E+03 -0.83332838376E+03  0.91394076253E+03  0.46999998093E+01 0.  1.
</event>
<event>
 5   0  0.2020029E-05  0.2001525E+04  0.7818609E-02  0.8605908E-01
       -2   -1    0    0    0  501  0.00000000000E+00  0.00000000000E+00  0.79148223485E+03  0.79148223485E+03  0.25500000920E-02 0.  1.
        2   -1    0    0  501    0  0.00000000000E+00  0.00000000000E+00 -0.12653799262E+04  0.12653799262E+04  0.25500000920E-02 0. -1.
    10030    2    1    2    0    0  0.00000000000E+00  0.00000000000E+00 -0.47389769131E+03  0.20568621610E+04  0.20015251504E+04 0.  0.
        5    1    3    3  502    0 -0.66713255142E+03 -0.69334490998E+03  0.45814157729E+02  0.96328294515E+03  0.46999998093E+01 0.  1.
       -5    1    3    3    0  502  0.66713255142E+03  0.69334490998E+03 -0.51971184904E+03  0.10935792159E+04  0.46999998093E+01 0. -1.
</event>
<event>
 5   0  0.9342635E-06  0.1995583E+04  0.7818609E-02  0.8608689E-01
        1   -1    0    0  501    0  0.00000000000E+00  0.00000000000E+00  0.84832010635E+03  0.84832010636E+03  0.50400001928E-02 0.  1.
       -1   -1    0    0    0  501  0.00000000000E+00  0.00000000000E+00 -0.11735991324E+04  0.11735991324E+04  0.50400001928E-02 0. -1.
    10030    2    1    2    0    0  0.00000000000E+00  0.00000000000E+00 -0.32527902604E+03  0.20219192388E+04  0.19955828630E+04 0.  0.
        5    1    3    3  502    0  0.37515720914E+02 -0.50638625304E+03  0.70760863888E+03  0.87095725636E+03  0.46999998093E+01 0.  1.
       -5    1    3    3    0  502 -0.37515720914E+02  0.50638625304E+03 -0.10328876649E+04  0.11509619824E+04  0.46999998093E+01 0. -1.
</event>
<event>
 5   0  0.9333353E-06  0.2002133E+04  0.7818609E-02  0.8605624E-01
       -1   -1    0    0    0  501  0.00000000000E+00  0.00000000000E+00  0.64291269089E+03  0.64291269091E+03  0.50400001928E-02 0. -1.
        1   -1    0    0  501    0  0.00000000000E+00  0.00000000000E+00 -0.15587411128E+04  0.15587411128E+04  0.50400001928E-02 0.  1.
    10030    2    1    2    0    0  0.00000000000E+00  0.00000000000E+00 -0.91582842191E+03  0.22016538037E+04  0.20021333055E+04 0.  0.
        2    1    3    3  502    0 -0.29561113677E+02 -0.58571965007E+03 -0.13500535584E+04  0.14719327357E+04  0.25500000920E-02 0.  1.
       -2    1    3    3    0  502  0.29561113677E+02  0.58571965007E+03  0.43422513650E+03  0.72972106800E+03  0.25500000920E-02 0. -1.
</event>
<event>
 5   0  0.2020029E-05  0.1998831E+04  0.7818609E-02  0.8607168E-01
        2   -1    0    0  501    0  0.00000000000E+00  0.00000000000E+00  0.97088976392E+03  0.97088976392E+03  0.25500000920E-02 0.  1.
       -2   -1    0    0    0  501  0.00000000000E+00  0.00000000000E+00 -0.10287789803E+04  0.10287789803E+04  0.25500000920E-02 0. -1.
    10030    2    1    2    0    0  0.00000000000E+00  0.00000000000E+00 -0.57889216430E+02  0.19996687443E+04  0.19988306395E+04 0.  0.
        5    1    3    3  502    0  0.66911335799E+03  0.73363076669E+03 -0.14249155362E+03  0.10031214884E+04  0.46999998093E+01 0.  1.
       -5    1    3    3    0  502 -0.66911335799E+03 -0.73363076669E+03  0.84602337192E+02  0.99654725585E+03  0.46999998093E+01 0. -1.
</event>
<event>
 5   0  0.9140695E-06  0.2000722E+04  0.7818609E-02  0.8606283E-01
       -1   -1    0    0    0  501  0.00000000000E+00  0.00000000000E+00  0.46871924807E+03  0.46871924810E+03  0.50400001928E-02 0. -1.
        1   -1    0    0  501    0  0.00000000000E+00  0.00000000000E+00 -0.21350142565E+04  0.21350142565E+04  0.50400001928E-02 0.  1.
    10030    2    1    2    0    0  0.00000000000E+00  0.00000000000E+00 -0.16662950085E+04  0.26037335046E+04  0.20007221466E+04 0.  0.
        1    1    3    3  502    0 -0.71410981252E+02  0.29576803173E+03  0.40703932797E+03  0.50819215990E+03  0.50400001928E-02 0. -1.
       -1    1    3    3    0  502  0.71410981252E+02 -0.29576803173E+03 -0.20733343364E+04  0.20955413447E+04  0.50400001928E-02 0.  1.
</event>
<event>
 5   0  0.2038882E-05  0.2015616E+04  0.7818609E-02  0.8599354E-01
        2   -1    0    0  501    0  0.00000000000E+00  0.00000000000E+00  0.11999587019E+04  0.11999587019E+04  0.25500000920E-02 0.  1.
       -2   -1    0    0    0  501  0.00000000000E+00  0.00000000000E+00 -0.84642692355E+03  0.84642692356E+03  0.25500000920E-02 0. -1.
    10030    2    1    2    0    0  0.00000000000E+00  0.00000000000E+00  0.35353177837E+03  0.20463856255E+04  0.20156163846E+04 0.  0.
        3    1    3    3  502    0 -0.73410953949E+03 -0.14586377441E+03  0.86196421890E+03  0.11415670727E+04  0.10100000352E+00 0.  1.
       -3    1    3    3    0  502  0.73410953949E+03  0.14586377441E+03 -0.50843244053E+03  0.90481855277E+03  0.10100000352E+00 0. -1.
</event>
<event>
 5   0  0.1999142E-05  0.1996998E+04  0.7818609E-02  0.8608025E-01
       -2   -1    0    0    0  501  0.00000000000E+00  0.00000000000E+00  0.11348514470E+04  0.11348514470E+04  0.25500000920E-02 0.  1.
        2   -1    0    0  501    0  0.00000000000E+00  0.00000000000E+00 -0.87852972094E+03  0.87852972095E+03  0.25500000920E-02 0. -1.
    10030    2    1    2    0    0  0.00000000000E+00  0.00000000000E+00  0.25632172605E+03  0.20133811679E+04  0.19969984728E+04 0.  0.
        1    1    3    3  502    0  0.88852340121E+03  0.19014553740E+03 -0.28920569807E+03  0.95355602652E+03  0.50400001928E-02 0. -1.
       -1    1    3    3    0  502 -0.88852340121E+03 -0.19014553740E+03  0.54552742412E+03  0.10598251414E+04  0.50400001928E-02 0.  1.
</event>
<event>
 5   0  0.2038882E-05  0.2000524E+04  0.7818609E-02  0.8606376E-01
        2   -1    0    0  501    0  0.00000000000E+00  0.00000000000E+00  0.10017733598E+04  0.10017733598E+04  0.25500000920E-02 0.  1.
       -2   -1    0    0    0  501  0.00000000000E+00  0.00000000000E+00 -0.99875279486E+03  0.99875279487E+03  0.25500000920E-02 0. -1.
    10030    2    1    2    0    0  0.00000000000E+00  0.00000000000E+00  0.30205649336E+01  0.20005261547E+04  0.20005238743E+04 0.  0.
        3    1    3    3  502    0  0.14029010797E+03 -0.19247607753E+03  0.97300280922E+03  0.10017299196E+04  0.10100000352E+00 0.  1.
       -3    1    3    3    0  502 -0.14029010797E+03  0.19247607753E+03 -0.96998224428E+03  0.99879623510E+03  0.10100000352E+00 0. -1.
</event>
<event>
 5   0  0.9333353E-06  0.2002015E+04  0.7818609E-02  0.8605679E-01
        1   -1    0    0  501    0  0.00000000000E+00  0.00000000000E+00  0.21377141159E+04  0.21377141159E+04  0.50400001928E-02 0.  1.
       -1   -1    0    0    0  501  0.00000000000E+00  0.00000000000E+00 -0.46873254452E+03  0.46873254455E+03  0.50400001928E-02 0. -1.
    10030    2    1    2    0    0  0.00000000000E+00  0.00000000000E+00  0.16689815713E+04  0.26064466604E+04  0.20020151618E+04 0.  0.
        2    1    3    3  502    0 -0.86008324969E+03  0.38449611336E+02  0.14993516710E+04  0.17289525738E+04  0.25500000920E-02 0.  1.
       -2    1    3    3    0  502  0.86008324969E+03 -0.38449611336E+02  0.16962990034E+03  0.87749408665E+03  0.25500000920E-02 0. -1.
</event>
<event>
 5   0  0.2003576E-05  0.1998707E+04  0.7818609E-02  0.8607225E-01
       -2   -1    0    0    0  501  0.00000000000E+00  0.00000000000E+00  0.59518426376E+03  0.59518426377E+03  0.25500000920E-02 0. -1.
        2   -1    0    0  501    0  0.00000000000E+00  0.00000000000E+00 -0.16779807079E+04  0.16779807079E+04  0.25500000920E-02 0.  1.
    10030    2    1    2    0    0  0.00000000000E+00  0.00000000000E+00 -0.10827964441E+04  0.22731649717E+04  0.19987072945E+04 0.  0.
        4    1    3    3  502    0  0.60265658227E+03  0.54059519871E+03  0.12494563948E+03  0.81917711806E+03  0.12699999809E+01 0. -1.
       -4    1    3    3    0  502 -0.60265658227E+03 -0.54059519871E+03 -0.12077420836E+04  0.14539878536E+04  0.12699999809E+01 0.  1.
</event>
<event>
 5   0  0.9342635E-06  0.1999407E+04  0.7818609E-02  0.8606898E-01
       -1   -1    0    0    0  501  0.00000000000E+00  0.00000000000E+00  0.60500168266E+03  0.60500168268E+03  0.50400001928E-02 0.  1.
        1   -1    0    0  501    0  0.00000000000E+00  0.00000000000E+00 -0.16519076335E+04  0.16519076335E+04  0.50400001928E-02 0. -1.
    10030    2    1    2    0    0  0.00000000000E+00  0.00000000000E+00 -0.10469059509E+04  0.22569093162E+04  0.19994068099E+04 0.  0.
        5    1    3    3  502    0  0.20418369500E+03  0.71328830262E+03 -0.12797533844E+04  0.14792775260E+04  0.46999998093E+01 0. -1.
       -5    1    3    3    0  502 -0.20418369500E+03 -0.71328830262E+03  0.23284743350E+03  0.77763179027E+03  0.46999998093E+01 0.  1.
</event>
<event>
 5   0  0.9333353E-06  0.2002367E+04  0.7818609E-02  0.8605515E-01
        1   -1    0    0  501    0  0.00000000000E+00  0.00000000000E+00  0.10860386457E+04  0.10860386457E+04  0.50400001928E-02 0.  1.
       -1   -1    0    0    0  501  0.00000000000E+00  0.00000000000E+00 -0.92295792159E+03  0.92295792160E+03  0.50400001928E-02 0. -1.
    10030    2    1    2    0    0  0.00000000000E+00  0.00000000000E+00  0.16308072408E+03  0.20089965673E+04  0.20023665710E+04 0.  0.
        2    1    3    3  502    0 -0.55530173458E+03 -0.83108349779E+03  0.13924753669E+03  0.10091826758E+04  0.25500000920E-02 0. -1.
       -2    1    3    3    0  502  0.55530173458E+03  0.83108349779E+03  0.23833187389E+02  0.99981389145E+03  0.25500000920E-02 0.  1.
</event>
<event>
 5   0  0.7132000E-06  0.1998293E+04  0.7818609E-02  0.8607419E-01
       -3   -1    0    0    0  501  0.00000000000E+00  0.00000000000E+00  0.99589584997E+03  0.99589585510E+03  0.10100000352E+00 0.  1.
        3   -1    0    0  501    0  0.00000000000E+00  0.00000000000E+00 -0.10024080226E+04  0.10024080277E+04  0.10100000352E+00 0. -1.
    10030    2    1    2    0    0  0.00000000000E+00  0.00000000000E+00 -0.65121726029E+01  0.19983038828E+04  0.19982932716E+04 0.  0.
        4    1    3    3  502    0 -0.18888487071E+03  0.40758868987E+03 -0.89572166622E+03  0.10020603528E+04  0.12699999809E+01 0. -1.
       -4    1    3    3    0  502  0.18888487071E+03 -0.40758868987E+03  0.88920949362E+03  0.99624352993E+03  0.12699999809E+01 0.  1.
</event>
<event>
 5   0  0.9333353E-06  0.1998042E+04  0.7818609E-02  0.8607536E-01
       -1   -1    0    0    0  501  0.00000000000E+00  0.00000000000E+00  0.84479257771E+03  0.84479257773E+03  0.50400001928E-02 0.  1.
        1   -1    0    0  501    0  0.00000000000E+00  0.00000000000E+00 -0.11814062792E+04  0.11814062792E+04  0.50400001928E-02 0. -1.
    10030    2    1    2    0    0  0.00000000000E+00  0.00000000000E+00 -0.33661370146E+03  0.20261988569E+04  0.19980422978E+04 0.  0.
        2    1    3    3  502    0 -0.59393711707E+03 -0.86092436181E+01  0.64626088746E+03  0.87777477337E+03  0.25500000920E-02 0.  1.
       -2    1    3    3    0  502  0.59393711707E+03  0.86092436181E+01 -0.98287458891E+03  0.11484240835E+04  0.25500000920E-02 0. -1.
</event>
<event>
 5   0  0.9220260E-06  0.2000525E+04  0.7818609E-02  0.8606375E-01
       -1   -1    0    0    0  501  0.00000000000E+00  0.00000000000E+00  0.69363535578E+03  0.69363535580E+03  0.50400001928E-02 0. -1.
        1   -1    0    0  501    0  0.00000000000E+00  0.00000000000E+00 -0.14424373724E+04  0.14424373724E+04  0.50400001928E-02 0.  1.
    10030    2    1    2    0    0  0.00000000000E+00  0.00000000000E+00 -0.74880201660E+03  0.21360727282E+04  0.20005254910E+04 0.  0.
        3    1    3    3  502    0 -0.46741820763E+03  0.10774132255E+03  0.56281710594E+03  0.73949379872E+03  0.10100000352E+00 0. -1.
       -3    1    3    3    0  502  0.46741820763E+03 -0.10774132255E+03 -0.13116191225E+04  0.13965789295E+04  0.10100000352E+00 0.  1.
</event>
<event>
 5   0  0.9342635E-06  0.1998523E+04  0.7818609E-02  0.8607311E-01
       -1   -1    0    0    0  501  0.00000000000E+00  0.00000000000E+00  0.89049962688E+03  0.89049962690E+03  0.50400001928E-02 0. -1.
        1   -1    0    0  501    0  0.00000000000E+00  0.00000000000E+00 -0.11213071606E+04  0.11213071606E+04  0.50400001928E-02 0.  1.
    10030    2    1    2    0    0  0.00000000000E+00  0.00000000000E+00 -0.23080753372E+03  0.20118067875E+04  0.19985230628E+04 0.  0.
        5    1    3    3  502    0 -0.22203326131E+03  0.34750777688E+03 -0.10316409688E+04  0.11110200730E+04  0.46999998093E+01 0.  1.
       -5    1    3    3    0  502  0.22203326131E+03 -0.34750777688E+03  0.80083343513E+03  0.90078671446E+03  0.46999998093E+01 0. -1.
</event>
<event>
 5   0  0.2020029E-05  0.1998537E+04  0.7818609E-02  0.8607305E-01
       -2   -1    0    0    0  501  0.00000000000E+00  0.00000000000E+00  0.53729409477E+03  0.53729409478E+03  0.25500000920E-02 0. -1.
        2   -1    0    0  501    0  0.00000000000E+00  0.00000000000E+00 -0.18584559016E+04  0.18584559016E+04  0.25500000920E-02 0.  1.
    10030    2    1    2    0    0  0.00000000000E+00  0.00000000000E+00 -0.13211618068E+04  0.23957499964E+04  0.19985368461E+04 0.  0.
        5    1    3    3  502    0  0.92007407595E+03  0.24594472787E+03 -0.29799027895E+03  0.99792054330E+03  0.46999998093E+01 0. -1.
       -5    1    3    3    0  502 -0.92007407595E+03 -0.24594472787E+03 -0.10231715279E+04  0.13978294531E+04  0.46999998093E+01 0.  1.
</event>
<event>
 5   0  0.9140695E-06  0.2000076E+04  0.7818609E-02  0.8606585E-01
       -1   -1    0    0    0  501  0.00000000000E+00  0.00000000000E+00  0.21813631702E+04  0.21813631702E+04  0.50400001928E-02 0.  1.
        1   -1    0    0  501    0  0.00000000000E+00  0.00000000000E+00 -0.45846372942E+03  0.45846372945E+03  0.50400001928E-02 0. -1.
    10030    2    1    2    0    0  0.00000000000E+00  0.00000000000E+00  0.17228994408E+04  0.26398268997E+04  0.20000758929E+04 0.  0.
        1    1    3    3  502    0  0.80641824168E+03  0.48049562690E+03  0.40635618811E+03  0.10228938262E+04  0.50400001928E-02 0. -1.
       -1    1    3    3    0  502 -0.80641824168E+03 -0.48049562690E+03  0.13165432527E+04  0.16169330735E+04  0.50400001928E-02 0.  1.
</event>
<event>
 5   0  0.9342635E-06  0.2005632E+04  0.7818609E-02  0.8603992E-01
       -1   -1    0    0    0  501  0.00000000000E+00  0.00000000000E+00  0.73641575142E+03  0.73641575144E+03  0.50400001928E-02 0.  1.
        1   -1    0    0  501    0  0.00000000000E+00  0.00000000000E+00 -0.13655872073E+04  0.13655872073E+04  0.50400001928E-02 0. -1.
    10030    2    1    2    0    0  0.00000000000E+00  0.00000000000E+00 -0.62917145589E+03  0.21020029588E+04  0.20056319996E+04 0.  0.
        5    1    3    3  502    0 -0.56434743603E+03 -0.82308820420E+03 -0.41757029149E+03  0.10818268155E+04  0.46999998093E+01 0.  1.
       -5    1    3    3    0  502  0.56434743603E+03  0.82308820420E+03 -0.21160116440E+03  0.10201761432E+04  0.46999998093E+01 0. -1.
</event>
<event>
 5   0  0.9370269E-06  0.2004126E+04  0.7818609E-02  0.8604694E-01
        1   -1    0    0  501    0  0.00000000000E+00  0.00000000000E+00  0.11934273365E+04  0.11934273365E+04  0.50400001928E-02 0. -1.
       -1   -1    0    0    0  501  0.00000000000E+00  0.00000000000E+00 -0.84138353426E+03  0.84138353427E+03  0.50400001928E-02 0.  1.
    10030    2    1    2    0    0  0.00000000000E+00  0.00000000000E+00  0.35204380221E+03  0.20348108707E+04  0.20041258546E+04 0.  0.
        4    1    3    3  502    0 -0.10013579431E+04  0.36261928809E+02  0.16608223930E+03  0.10156857688E+04  0.12699999809E+01 0.  1.
       -4    1    3    3    0  502  0.10013579431E+04 -0.36261928809E+02  0.18596156291E+03  0.10191251020E+04  0.12699999809E+01 0. -1.
</event>
<event>
 5   0  0.9333353E-06  0.1999063E+04  0.7818609E-02  0.8607059E-01
       -1   -1    0    0    0  501  0.00000000000E+00  0.00000000000E+00  0.16410225349E+04  0.16410225349E+04  0.50400001928E-02 0.  1.
        1   -1    0    0  501    0  0.00000000000E+00  0.00000000000E+00 -0.60880512679E+03  0.60880512681E+03  0.50400001928E-02 0. -1.
    10030    2    1    2    0    0  0.00000000000E+00  0.00000000000E+00  0.10322174081E+04  0.22498276617E+04  0.19990627128E+04 0.  0.
        2    1    3    3  502    0 -0.52706689429E+03  0.44313817337E+03  0.13314844753E+04  0.14990069579E+04  0.25500000920E-02 0.  1.
       -2    1    3    3    0  502  0.52706689429E+03 -0.44313817337E+03 -0.29926706722E+03  0.75082070382E+03  0.25500000920E-02 0. -1.
</event>
<event>
 5   0  0.1979765E-05  0.1999241E+04  0.7818609E-02  0.8606976E-01
       -2   -1    0    0    0  501  0.00000000000E+00  0.00000000000E+00  0.11077360499E+04  0.11077360499E+04  0.25500000920E-02 0.  1.
        2   -1    0    0  501    0  0.00000000000E+00  0.00000000000E+00 -0.90205702514E+03  0.90205702514E+03  0.25500000920E-02 0. -1.
    10030    2    1    2    0    0  0.00000000000E+00  0.00000000000E+00  0.20567902475E+03  0.20097930750E+04  0.19992409418E+04 0.  0.
        2    1    3    3  502    0  0.43676706498E+03 -0.18034653951E+03  0.98836952500E+03  0.10955202697E+04  0.25500000920E-02 0.  1.
       -2    1    3    3    0  502 -0.43676706498E+03  0.18034653951E+03 -0.78269050026E+03  0.91427280533E+03  0.25500000920E-02 0. -1.
</event>
<event>
 5   0  0.2038882E-05  0.1990947E+04  0.7818609E-02  0.8610865E-01
       -2   -1    0    0    0  501  0.00000000000E+00  0.00000000000E+00  0.91187493996E+03  0.91187493996E+03  0.25500000920E-02 0.  1.
        2   -1    0    0  501    0  0.00000000000E+00  0.00000000000E+00 -0.10867358345E+04  0.10867358345E+04  0.25500000920E-02 0. -1.
    10030    2    1    2    0    0  0.00000000000E+00  0.00000000000E+00 -0.17486089457E+03  0.19986107745E+04  0.19909466832E+04 0.  0.
        3    1    3    3  502    0 -0.47016758592E+03 -0.45615180749E+03 -0.83987246818E+03  0.10651374575E+04  0.10100000352E+00 0.  1.
       -3    1    3    3    0  502  0.47016758592E+03  0.45615180749E+03  0.66501157362E+03  0.93347331701E+03  0.10100000352E+00 0. -1.
</event>
<event>
 5   0  0.2003576E-05  0.2001671E+04  0.7818609E-02  0.8605840E-01
        2   -1    0    0  501    0  0.00000000000E+00  0.00000000000E+00  0.13094054831E+04  0.13094054831E+04  0.25500000920E-02 0. -1.
       -2   -1    0    0    0  501  0.00000000000E+00  0.00000000000E+00 -0.76498225874E+03  0.76498225875E+03  0.25500000920E-02 0.  1.
    10030    2    1    2    0    0  0.00000000000E+00  0.00000000000E+00  0.54442322436E+03  0.20743877419E+04  0.20016712658E+04 0.  0.
        4    1    3    3  502    0 -0.41333775809E+03 -0.13108991163E+03 -0.66257548665E+03  0.79185892406E+03  0.12699999809E+01 0. -1.
       -4    1    3    3    0  502  0.41333775809E+03  0.13108991163E+03  0.12069987110E+04  0.12825288178E+04  0.12699999809E+01 0.  1.
</event>
<event>
 5   0  0.9342635E-06  0.2000297E+04  0.7818609E-02  0.8606482E-01
       -1   -1    0    0    0  501  0.00000000000E+00  0.00000000000E+00  0.63493230922E+03  0.63493230924E+03  0.50400001928E-02 0.  1.
        1   -1    0    0  501    0  0.00000000000E+00  0.00000000000E+00 -0.15754390773E+04  0.15754390774E+04  0.50400001928E-02 0. -1.
    10030    2    1    2    0    0  0.00000000000E+00  0.00000000000E+00 -0.94050676813E+03  0.22103713866E+04  0.20002971494E+04 0.  0.
        5    1    3    3  502    0  0.63479084447E+03  0.71825332066E+03 -0.78557748889E+03  0.12393552073E+04  0.46999998093E+01 0. -1.
       -5    1    3    3    0  502 -0.63479084447E+03 -0.71825332066E+03 -0.15492927924E+03  0.97101617928E+03  0.46999998093E+01 0.  1.
</event>
<event>
 5   0  0.1999142E-05  0.2002326E+04  0.7818609E-02  0.8605534E-01
        2   -1    0    0  501    0  0.00000000000E+00  0.00000000000E+00  0.13890971228E+04  0.13890971228E+04  0.25500000920E-02 0.  1.
       -2   -1    0    0    0  501  0.00000000000E+00  0.00000000000E+00 -0.72156736438E+03  0.72156736438E+03  0.25500000920E-02 0. -1.
    10030    2    1    2    0    0  0.00000000000E+00  0.00000000000E+00  0.66752975838E+03  0.21106644871E+04  0.20023257974E+04 0.  0.
        1    1    3    3  502    0  0.54155692323E+03  0.53023978753E+03 -0.35576014082E+03  0.83725946469E+03  0.50400001928E-02 0. -1.
       -1    1    3    3    0  502 -0.54155692323E+03 -0.53023978753E+03  0.10232898992E+04  0.12734050225E+04  0.50400001928E-02 0.  1.
</event>
<event>
 5   0  0.2020029E-05  0.2000563E+04  0.7818609E-02  0.8606357E-01
       -2   -1    0    0    0  501  0.00000000000E+00  0.00000000000E+00  0.51762109414E+03  0.51762109415E+03  0.25500000920E-02 0.  1.
        2   -1    0    0  501    0  0.00000000000E+00  0.00000000000E+00 -0.19330035732E+04  0.19330035732E+04  0.25500000920E-02 0. -1.
    10030    2    1    2    0    0  0.00000000000E+00  0.00000000000E+00 -0.14153824791E+04  0.24506246673E+04  0.20005633452E+04 0.  0.
        5    1    3    3  502    0  0.60321908957E+03 -0.20605935862E+03  0.23657311673E+03  0.67994312913E+03  0.46999998093E+01 0.  1.
       -5    1    3    3    0  502 -0.60321908957E+03  0.20605935862E+03 -0.16519555958E+04  0.17706815382E+04  0.46999998093E+01 0. -1.
</event>
<event>
 5   0  0.9370269E-06  0.2000649E+04  0.7818609E-02  0.8606317E-01
        1   -1    0    0  501    0  0.00000000000E+00  0.00000000000E+00  0.17129165801E+04  0.17129165801E+04  0.50400001928E-02 0.  1.
       -1   -1    0    0    0  501  0.00000000000E+00  0.00000000000E+00 -0.58417858140E+03  0.58417858142E+03  0.50400001928E-02 0. -1.
    10030    2    1    2    0    0  0.00000000000E+00  0.00000000000E+00  0.11287379987E+04  0.22970951615E+04  0.20006490725E+04 0.  0.
        4    1    3    3  502    0  0.62740115760E+03  0.76081774716E+03  0.75708361751E+03  0.12432429665E+04  0.12699999809E+01 0.  1.
       -4    1    3    3    0  502 -0.62740115760E+03 -0.76081774716E+03  0.37165438115E+03  0.10538521950E+04  0.12699999809E+01 0. -1.
</event>
<event>
 5   0  0.9333353E-06  0.1996993E+04  0.7818609E-02  0.8608028E-01
       -1   -1    0    0    0  501  0.00000000000E+00  0.00000000000E+00  0.65227711028E+03  0.65227711030E+03  0.50400001928E-02 0.  1.
        1   -1    0    0  501    0  0.00000000000E+00  0.00000000000E+00 -0.15284835403E+04  0.15284835403E+04  0.50400001928E-02 0. -1.
    10030    2    1    2    0    0  0.00000000000E+00  0.00000000000E+00 -0.87620643002E+03  0.21807606506E+04  0.19969925656E+04 0.  0.
        2    1    3    3  502    0  0.63217821788E+02 -0.16151828746E+03  0.63569980162E+03  0.65893769657E+03  0.25500000920E-02 0.  1.
       -2    1    3    3    0  502 -0.63217821788E+02  0.16151828746E+03 -0.15119062316E+04  0.15218229540E+04  0.25500000920E-02 0. -1.
</event>
<event>
 5   0  0.9333353E-06  0.2000386E+04  0.7818609E-02  0.8606440E-01
        1   -1    0    0  501    0  0.00000000000E+00  0.00000000000E+00  0.17048350786E+04  0.17048350786E+04  0.50400001928E-02 0. -1.
       -1   -1    0    0    0  501  0.00000000000E+00  0.00000000000E+00 -0.58679316772E+03  0.58679316774E+03  0.50400001928E-02 0.  1.
    10030    2    1    2    0    0  0.00000000000E+00  0.00000000000E+00  0.11180419109E+04  0.22916282463E+04  0.20003855391E+04 0.  0.
        2    1    3    3  502    0 -0.58890558427E+03  0.80214414759E+03  0.67438257226E+03  0.12020968657E+04  0.25500000920E-02 0.  1.
       -2    1    3    3    0  502  0.58890558427E+03 -0.80214414759E+03  0.44365933863E+03  0.10895313807E+04  0.25500000920E-02 0. -1.
</event>
<event>
 5   0  0.9220260E-06  0.1996576E+04  0.7818609E-02  0.8608223E-01
        1   -1    0    0  501    0  0.00000000000E+00  0.00000000000E+00  0.13318351299E+04  0.13318351299E+04  0.50400001928E-02 0. -1.
       -1   -1    0    0    0  501  0.00000000000E+00  0.00000000000E+00 -0.74827500477E+03  0.74827500479E+03  0.50400001928E-02 0.  1.
    10030    2    1    2    0    0  0.00000000000E+00  0.00000000000E+00  0.58356012515E+03  0.20801101347E+04  0.19965760073E+04 0.  0.
        3    1    3    3  502    0  0.64410371701E+02  0.17093260395E+03 -0.73071562907E+03  0.75320116293E+03  0.10100000352E+00 0.  1.
       -3    1    3    3    0  502 -0.64410371701E+02 -0.17093260395E+03  0.13142757542E+04  0.13269089718E+04  0.10100000352E+00 0. -1.
</event>
<event>
 5   0  0.9333353E-06  0.1997849E+04  0.7818609E-02  0.8607627E-01
        1   -1    0    0  501    0  0.00000000000E+00  0.00000000000E+00  0.21746655436E+04  0.21746655436E+04  0.50400001928E-02 0. -1.
       -1   -1    0    0    0  501  0.00000000000E+00  0.00000000000E+00 -0.45885243293E+03  0.45885243296E+03  0.50400001928E-02 0.  1.
    10030    2    1    2    0    0  0.00000000000E+00  0.00000000000E+00  0.17158131106E+04  0.26335179765E+04  0.19978494193E+04 0.  0.
        2    1    3    3  502    0  0.25165489594E+03 -0.93754529926E+03  0.11685300108E+04  0.15191391513E+04  0.25500000920E-02 0.  1.
       -2    1    3    3    0  502 -0.25165489594E+03  0.93754529926E+03  0.54728309987E+03  0.11143788253E+04  0.25500000920E-02 0. -1.
</event>
<event>
 5   0  0.1979765E-05  0.2004817E+04  0.7818609E-02  0.8604372E-01
       -2   -1    0    0    0  501  0.00000000000E+00  0.00000000000E+00  0.48316157076E+03  0.48316157076E+03  0.25500000920E-02 0. -1.
        2   -1    0    0  501    0  0.00000000000E+00  0.00000000000E+00 -0.20796831250E+04  0.20796831250E+04  0.25500000920E-02 0.  1.
    10030    2    1    2    0    0  0.00000000000E+00  0.00000000000E+00 -0.15965215542E+04  0.25628446957E+04  0.20048171641E+04 0.  0.
        2    1    3    3  502    0 -0.70671703333E+03  0.42969979225E+03 -0.74293854975E+02  0.83042787378E+03  0.25500000920E-02 0. -1.
       -2    1    3    3    0  502  0.70671703333E+03 -0.42969979225E+03 -0.15222276993E+04  0.17324168220E+04  0.25500000920E-02 0.  1.
</event>
<event>
 5   0  0.1979765E-05  0.1999502E+04  0.7818609E-02  0.8606854E-01
       -2   -1    0    0    0  501  0.00000000000E+00  0.00000000000E+00  0.17496925636E+04  0.17496925636E+04  0.25500000920E-02 0. -1.
        2   -1    0    0  501    0  0.00000000000E+00  0.00000000000E+00 -0.57124414817E+03  0.57124414817E+03  0.25500000920E-02 0.  1.
    10030    2    1    2    0    0  0.00000000000E+00  0.00000000000E+00  0.11784484154E+04  0.23209367118E+04  0.19995015759E+04 0.  0.
        2    1    3    3  502    0 -0.18240559068E+03 -0.38833244639E+03 -0.45895198350E+03  0.62826014643E+03  0.25500000920E-02 0.  1.
       -2    1    3    3    0  502  0.18240559068E+03  0.38833244639E+03  0.16374003989E+04  0.16926765653E+04  0.25500000920E-02 0. -1.
</event>
<event>
 5   0  0.2038882E-05  0.2002205E+04  0.7818609E-02  0.8605590E-01
       -2   -1    0    0    0  501  0.00000000000E+00  0.00000000000E+00  0.60174855106E+03  0.60174855107E+03  0.25500000920E-02 0.  1.
        2   -1    0    0  501    0  0.00000000000E+00  0.00000000000E+00 -0.16654905490E+04  0.16654905490E+04  0.25500000920E-02 0. -1.
    10030    2    1    2    0    0  0.00000000000E+00  0.00000000000E+00 -0.10637419980E+04  0.22672391001E+04  0.20022053089E+04 0.  0.
        3    1    3    3  502    0  0.40417015120E+02  0.47635605610E+03  0.46413784059E+03  0.66631266877E+03  0.10100000352E+00 0.  1.
       -3    1    3    3    0  502 -0.40417015120E+02 -0.47635605610E+03 -0.15278798386E+04  0.16009264313E+04  0.10100000352E+00 0. -1.
</event>
<event>
 5   0  0.9140695E-06  0.2040516E+04  0.7818609E-02  0.8587909E-01
        1   -1    0    0  501    0  0.00000000000E+00  0.00000000000E+00  0.11609722947E+04  0.11609722947E+04  0.50400001928E-02 0.  1.
       -1   -1    0    0    0  501  0.00000000000E+00  0.00000000000E+00 -0.89659862582E+03  0.89659862583E+03  0.50400001928E-02 0. -1.
    10030    2    1    2    0    0  0.00000000000E+00  0.00000000000E+00  0.26437366884E+03  0.20575709205E+04  0.20405157819E+04 0.  0.
        1    1    3    3  502    0 -0.12696398931E+03  0.87900063757E+01 -0.88856314171E+03  0.89763109105E+03  0.50400001928E-02 0. -1.
       -1    1    3    3    0  502  0.12696398931E+03 -0.87900063757E+01  0.11529368106E+04  0.11599398294E+04  0.50400001928E-02 0.  1.
</event>
<event>
 5   0  0.9333353E-06  0.1997827E+04  0.7818609E-02  0.8607637E-01
        1   -1    0    0  501    0  0.00000000000E+00  0.00000000000E+00  0.60005716065E+03  0.60005716067E+03  0.50400001928E-02 0.  1.
       -1   -1    0    0    0  501  0.00000000000E+00  0.00000000000E+00 -0.16628881254E+04  0.16628881254E+04  0.50400001928E-02 0. -1.
    10030    2    1    2    0    0  0.00000000000E+00  0.00000000000E+00 -0.10628309648E+04  0.22629452861E+04  0.19978267463E+04 0.  0.
        2    1    3    3  502    0 -0.46156963548E+02 -0.48257129691E+03  0.45788438485E+03  0.66683103691E+03  0.25500000920E-02 0.  1.
       -2    1    3    3    0  502  0.46156963548E+02  0.48257129691E+03 -0.15207153496E+04  0.15961142492E+04  0.25500000920E-02 0. -1.
</event>
<event>
 5   0  0.9333353E-06  0.1999734E+04  0.7818609E-02  0.8606745E-01
       -1   -1    0    0    0  501  0.00000000000E+00  0.00000000000E+00  0.84343309571E+03  0.84343309573E+03  0.50400001928E-02 0.  1.
        1   -1    0    0  501    0  0.00000000000E+00  0.00000000000E+00 -0.11853156327E+04  0.11853156327E+04  0.50400001928E-02 0. -1.
    10030    2    1    2    0    0  0.00000000000E+00  0.00000000000E+00 -0.34188253696E+03  0.20287487284E+04  0.19997344159E+04 0.  0.
        2    1    3    3  502    0  0.46850173580E+03  0.12273768650E+03  0.71649385696E+03  0.86482475867E+03  0.25500000920E-02 0.  1.
       -2    1    3    3    0  502 -0.46850173580E+03 -0.12273768650E+03 -0.10583763939E+04  0.11639239697E+04  0.25500000920E-02 0. -1.
</event>
<event>
 5   0  0.2038882E-05  0.1996955E+04  0.7818609E-02  0.8608046E-01
       -2   -1    0    0    0  501  0.00000000000E+00  0.00000000000E+00  0.12544098072E+04  0.12544098072E+04  0.25500000920E-02 0. -1.
        2   -1    0    0  501    0  0.00000000000E+00  0.00000000000E+00 -0.79476170262E+03  0.79476170262E+03  0.25500000920E-02 0.  1.
    10030    2    1    2    0    0  0.00000000000E+00  0.00000000000E+00  0.45964810458E+03  0.20491715098E+04  0.19969545555E+04 0.  0.
        3    1    3    3  502    0 -0.52459636193E+03  0.83590578937E+03  0.74143346846E+02  0.98966513414E+03  0.10100000352E+00 0. -1.
       -3    1    3    3    0  502  0.52459636193E+03 -0.83590578937E+03  0.38550475773E+03  0.10595063757E+04  0.10100000352E+00 0.  1.
</event>
<event>
 5   0  0.1979765E-05  0.1994303E+04  0.7818609E-02  0.8609289E-01
        2   -1    0    0  501    0  0.00000000000E+00  0.00000000000E+00  0.94844454553E+03  0.94844454553E+03  0.25500000920E-02 0. -1.
       -2   -1    0    0    0  501  0.00000000000E+00  0.00000000000E+00 -0.10483600363E+04  0.10483600363E+04  0.25500000920E-02 0.  1.
    10030    2    1    2    0    0  0.00000000000E+00  0.00000000000E+00 -0.99915490785E+02  0.19968045819E+04  0.19943032449E+04 0.  0.
        2    1    3    3  502    0 -0.29792561150E+03 -0.63110760238E+02 -0.10006583856E+04  0.10459731559E+04  0.25500000920E-02 0.  1.
       -2    1    3    3    0  502  0.29792561150E+03  0.63110760238E+02  0.90074289484E+03  0.95083142599E+03  0.25500000920E-02 0. -1.
</event>
<event>
 5   0  0.1979765E-05  0.1992603E+04  0.7818609E-02  0.8610087E-01
        2   -1    0    0  501    0  0.00000000000E+00  0.00000000000E+00  0.10857917796E+04  0.10857917796E+04  0.25500000920E-02 0.  1.
       -2   -1    0    0    0  501  0.00000000000E+00  0.00000000000E+00 -0.91418671921E+03  0.91418671921E+03  0.25500000920E-02 0. -1.
    10030    2    1    2    0    0  0.00000000000E+00  0.00000000000E+00  0.17160506039E+03  0.19999784988E+04  0.19926027449E+04 0.  0.
        2    1    3    3  502    0 -0.81937313702E+03 -0.55597089681E+03 -0.24789027759E+02  0.99050011190E+03  0.25500000920E-02 0. -1.
       -2    1    3    3    0  502  0.81937313702E+03  0.55597089681E+03  0.19639408815E+03  0.10094783869E+04  0.25500000920E-02 0.  1.
</event>
<event>
 5   0  0.9370269E-06  0.1999963E+04  0.7818609E-02  0.8606638E-01
       -1   -1    0    0    0  501  0.00000000000E+00  0.00000000000E+00  0.96428664442E+03  0.96428664443E+03  0.50400001928E-02 0.  1.
        1   -1    0    0  501    0  0.00000000000E+00  0.00000000000E+00 -0.10369977278E+04  0.10369977278E+04  0.50400001928E-02 0. -1.
    10030    2    1    2    0    0  0.00000000000E+00  0.00000000000E+00 -0.72711083375E+02  0.20012843722E+04  0.19999630589E+04 0.  0.
        4    1    3    3  502    0 -0.61498944493E+03 -0.73032440883E+03  0.26112134737E+03  0.98983419342E+03  0.12699999809E+01 0.  1.
       -4    1    3    3    0  502  0.61498944493E+03  0.73032440883E+03 -0.33383243075E+03  0.10114501788E+04  0.12699999809E+01 0. -1.
</event>
<event>
 5   0  0.9342635E-06  0.2021988E+04  0.7818609E-02  0.8596409E-01
        1   -1    0    0  501    0  0.00000000000E+00  0.00000000000E+00  0.17523174384E+04  0.17523174384E+04  0.50400001928E-02 0.  1.
       -1   -1    0    0    0  501  0.00000000000E+00  0.00000000000E+00 -0.58328958289E+03  0.58328958291E+03  0.50400001928E-02 0. -1.
    10030    2    1    2    0    0  0.00000000000E+00  0.00000000000E+00  0.11690278555E+04  0.23356070213E+04  0.20219876436E+04 0.  0.
        5    1    3    3  502    0 -0.98679574052E+03  0.57375299726E+01  0.83834183980E+03  0.12948505254E+04  0.46999998093E+01 0.  1.
       -5    1    3    3    0  502  0.98679574052E+03 -0.57375299726E+01  0.33068601567E+03  0.10407564959E+04  0.46999998093E+01 0. -1.
</event>
<event>
 5   0  0.1999142E-05  0.2001076E+04  0.7818609E-02  0.8606118E-01
       -2   -1    0    0    0  501  0.00000000000E+00  0.00000000000E+00  0.12894341579E+04  0.12894341579E+04  0.25500000920E-02 0. -1.
        2   -1    0    0  501    0  0.00000000000E+00  0.00000000000E+00 -0.77636904082E+03  0.77636904082E+03  0.25500000920E-02 0.  1.
    10030    2    1    2    0    0  0.00000000000E+00  0.00000000000E+00  0.51306511713E+03  0.20658031988E+04  0.20010764707E+04 0.  0.
        1    1    3    3  502    0 -0.79639746659E+03  0.50371762629E+03  0.60370850545E+03  0.11191265931E+04  0.50400001928E-02 0. -1.
       -1    1    3    3    0  502  0.79639746659E+03 -0.50371762629E+03 -0.90643388323E+02  0.94667660566E+03  0.50400001928E-02 0.  1.
</event>
<event>
 5   0  0.2038882E-05  0.1997389E+04  0.7818609E-02  0.8607843E-01
        2   -1    0    0  501    0  0.00000000000E+00  0.00000000000E+00  0.12196449144E+04  0.12196449144E+04  0.25500000920E-02 0.  1.
       -2   -1    0    0    0  501  0.00000000000E+00  0.00000000000E+00 -0.81777106323E+03  0.81777106323E+03  0.25500000920E-02 0. -1.
    10030    2    1    2    0    0  0.00000000000E+00  0.00000000000E+00  0.40187385116E+03  0.20374159776E+04  0.19973886136E+04 0.  0.
        3    1    3    3  502    0  0.56407449374E+03  0.69035358314E+03  0.66009333949E+03  0.11092751378E+04  0.10100000352E+00 0.  1.
       -3    1    3    3    0  502 -0.56407449374E+03 -0.69035358314E+03 -0.25821948833E+03  0.92814083985E+03  0.10100000352E+00 0. -1.
</event>
<event>
 5   0  0.9333353E-06  0.1998850E+04  0.7818609E-02  0.8607158E-01
        1   -1    0    0  501    0  0.00000000000E+00  0.00000000000E+00  0.11713143069E+04  0.11713143069E+04  0.50400001928E-02 0.  1.
       -1   -1    0    0    0  501  0.00000000000E+00  0.00000000000E+00 -0.85276066185E+03  0.85276066187E+03  0.50400001928E-02 0. -1.
    10030    2    1    2    0    0  0.00000000000E+00  0.00000000000E+00  0.31855364502E+03  0.20240749688E+04  0.19988504332E+04 0.  0.
        2    1    3    3  502    0  0.14877474740E+02 -0.54729345052E+03 -0.68739621567E+03  0.87878610455E+03  0.25500000920E-02 0. -1.
       -2    1    3    3    0  502 -0.14877474740E+02  0.54729345052E+03  0.10059498607E+04  0.11452888642E+04  0.25500000920E-02 0.  1.
</event>
<event>
 5   0  0.2038882E-05  0.2000021E+04  0.7818609E-02  0.8606611E-01
        2   -1    0    0  501    0  0.00000000000E+00  0.00000000000E+00  0.12976457904E+04  0.12976457904E+04  0.25500000920E-02 0. -1.
       -2   -1    0    0    0  501  0.00000000000E+00  0.00000000000E+00 -0.77064241216E+03  0.77064241217E+03  0.25500000920E-02 0.  1.
    10030    2    1    2    0    0  0.00000000000E+00  0.00000000000E+00  0.52700337820E+03  0.20682882025E+04  0.20000208819E+04 0.  0.
        3    1    3    3  502    0 -0.58688666098E+01 -0.60939387896E+03  0.10834236741E+04  0.12430616281E+04  0.10100000352E+00 0. -1.
       -3    1    3    3    0  502  0.58688666098E+01  0.60939387896E+03 -0.55642029592E+03  0.82522657448E+03  0.10100000352E+00 0.  1.
</event>
<event>
 5   0  0.1979765E-05  0.2000909E+04  0.7818609E-02  0.8606196E-01
        2   -1    0    0  501    0  0.00000000000E+00  0.00000000000E+00  0.23223954108E+04  0.23223954108E+04  0.25500000920E-02 0.  1.
       -2   -1    0    0    0  501  0.00000000000E+00  0.00000000000E+00 -0.43098155927E+03  0.43098155928E+03  0.25500000920E-02 0. -1.
    10030    2    1    2    0    0  0.00000000000E+00  0.00000000000E+00  0.18914138515E+04  0.27533769701E+04  0.20009093887E+04 0.  0.
        2    1    3    3  502    0  0.95077765618E+02  0.57200539240E+03 -0.17616800416E+03  0.60602402275E+03  0.25500000920E-02 0. -1.
       -2    1    3    3    0  502 -0.95077765618E+02 -0.57200539240E+03  0.20675818557E+04  0.21473529473E+04  0.25500000920E-02 0.  1.
</event>
<event>
 5   0  0.2020029E-05  0.2002413E+04  0.7818609E-02  0.8605493E-01
        2   -1    0    0  501    0  0.00000000000E+00  0.00000000000E+00  0.10440536976E+04  0.10440536976E+04  0.25500000920E-02 0. -1.
       -2   -1    0    0    0  501  0.00000000000E+00  0.00000000000E+00 -0.96011780889E+03  0.96011780889E+03  0.25500000920E-02 0.  1.
    10030    2    1    2    0    0  0.00000000000E+00  0.00000000000E+00  0.83935888731E+02  0.20041715065E+04  0.20024130928E+04 0.  0.
        5    1    3    3  502    0  0.38789758846E+03 -0.26342851692E+03  0.92735390453E+03  0.10391662412E+04  0.46999998093E+01 0. -1.
       -5    1    3    3    0  502 -0.38789758846E+03  0.26342851692E+03 -0.84341801580E+03  0.96500526529E+03  0.46999998093E+01 0.  1.
</event>
<event>
 5   0  0.9220260E-06  0.1941946E+04  0.7818609E-02  0.8634254E-01
       -1   -1    0    0    0  501  0.00000000000E+00  0.00000000000E+00  0.94101739322E+03  0.94101739323E+03  0.50400001928E-02 0. -1.
        1   -1    0    0  501    0  0.00000000000E+00  0.00000000000E+00 -0.10018824647E+04  0.10018824647E+04  0.50400001928E-02 0.  1.
    10030    2    1    2    0    0  0.00000000000E+00  0.00000000000E+00 -0.60865071481E+02  0.19428998579E+04  0.19419462663E+04 0.  0.
        3    1    3    3  502    0  0.37323408212E+03  0.55248247173E+03  0.67578110238E+03  0.94932642971E+03  0.10100000352E+00 0. -1.
       -3    1    3    3    0  502 -0.37323408212E+03 -0.55248247173E+03 -0.73664617386E+03  0.99357342823E+03  0.10100000352E+00 0.  1.
</event>
<event>
 5   0  0.9342635E-06  0.1998896E+04  0.7818609E-02  0.8607137E-01
       -1   -1    0    0    0  501  0.00000000000E+00  0.00000000000E+00  0.89789676172E+03  0.89789676173E+03  0.50400001928E-02 0. -1.
        1   -1    0    0  501    0  0.00000000000E+00  0.00000000000E+00 -0.11124843215E+04  0.11124843215E+04  0.50400001928E-02 0.  1.
    10030    2    1    2    0    0  0.00000000000E+00  0.00000000000E+00 -0.21458755979E+03  0.20103810832E+04  0.19988957649E+04 0.  0.
        5    1    3    3  502    0  0.63624011790E+03 -0.59663168636E+03  0.38346806124E+03  0.95280674892E+03  0.46999998093E+01 0. -1.
       -5    1    3    3    0  502 -0.63624011790E+03  0.59663168636E+03 -0.59805562103E+03  0.10575743343E+04  0.46999998093E+01 0.  1.
</event>
<event>
 5   0  0.1999142E-05  0.2001399E+04  0.7818609E-02  0.8605967E-01
       -2   -1    0    0    0  501  0.00000000000E+00  0.00000000000E+00  0.78642336033E+03  0.78642336034E+03  0.25500000920E-02 0.  1.
        2   -1    0    0  501    0  0.00000000000E+00  0.00000000000E+00 -0.12733588723E+04  0.12733588723E+04  0.25500000920E-02 0. -1.
    10030    2    1    2    0    0  0.00000000000E+00  0.00000000000E+00 -0.48693551192E+03  0.20597822326E+04  0.20013986742E+04 0.  0.
        1    1    3    3  502    0  0.73816205761E+03  0.62772353001E+03  0.13782085889E+02  0.96907687999E+03  0.50400001928E-02 0.  1.
       -1    1    3    3    0  502 -0.73816205761E+03 -0.62772353001E+03 -0.50071759781E+03  0.10907053526E+04  0.50400001928E-02 0. -1.
</event>
<event>
 5   0  0.9370269E-06  0.2003275E+04  0.7818609E-02  0.8605091E-01
       -1   -1    0    0    0  501  0.00000000000E+00  0.00000000000E+00  0.69721597783E+03  0.69721597785E+03  0.50400001928E-02 0.  1.
        1   -1    0    0  501    0  0.00000000000E+00  0.00000000000E+00 -0.14389775073E+04  0.14389775074E+04  0.50400001928E-02 0. -1.
    10030    2    1    2    0    0  0.00000000000E+00  0.00000000000E+00 -0.74176152951E+03  0.21361934852E+04  0.20032754278E+04 0.  0.
        4    1    3    3  502    0 -0.40186553781E+03 -0.91601632921E+03 -0.42623524886E+03  0.10873177669E+04  0.12699999809E+01 0. -1.
       -4    1    3    3    0  502  0.40186553781E+03  0.91601632921E+03 -0.31552628065E+03  0.10488757183E+04  0.12699999809E+01 0.  1.
</event>
<event>
 5   0  0.1979765E-05  0.1999982E+04  0.7818609E-02  0.8606629E-01
        2   -1    0    0  501    0  0.00000000000E+00  0.00000000000E+00  0.75612420439E+03  0.75612420440E+03  0.25500000920E-02 0.  1.
       -2   -1    0    0    0  501  0.00000000000E+00  0.00000000000E+00 -0.13225107304E+04  0.13225107304E+04  0.25500000920E-02 0. -1.
    10030    2    1    2    0    0  0.00000000000E+00  0.00000000000E+00 -0.56638652600E+03  0.20786349348E+04  0.19999823738E+04 0.  0.
        2    1    3    3  502    0 -0.86788412794E+03  0.48312992174E+03 -0.40325682650E+03  0.10720323917E+04  0.25500000920E-02 0. -1.
       -2    1    3    3    0  502  0.86788412794E+03 -0.48312992174E+03 -0.16312969950E+03  0.10066025431E+04  0.25500000920E-02 0.  1.
</event>
<event>
 5   0  0.9140695E-06  0.1998528E+04  0.7818609E-02  0.8607309E-01
        1   -1    0    0  501    0  0.00000000000E+00  0.00000000000E+00  0.21741193932E+04  0.21741193932E+04  0.50400001928E-02 0. -1.
       -1   -1    0    0    0  501  0.00000000000E+00  0.00000000000E+00 -0.45927942387E+03  0.45927942390E+03  0.50400001928E-02 0.  1.
    10030    2    1    2    0    0  0.00000000000E+00  0.00000000000E+00  0.17148399693E+04  0.26333988171E+04  0.19985277605E+04 0.  0.
        1    1    3    3  502    0  0.88921445695E+03 -0.26406918572E+03  0.13470780801E+04  0.16355593047E+04  0.50400001928E-02 0. -1.
       -1    1    3    3    0  502 -0.88921445695E+03  0.26406918572E+03  0.36776188922E+03  0.99783951239E+03  0.50400001928E-02 0.  1.
</event>
<event>
 5   0  0.2003576E-05  0.1976295E+04  0.7818609E-02  0.8617784E-01
        2   -1    0    0  501    0  0.00000000000E+00  0.00000000000E+00  0.10820703818E+04  0.10820703819E+04  0.25500000920E-02 0. -1.
       -2   -1    0    0    0  501  0.00000000000E+00  0.00000000000E+00 -0.90237695641E+03  0.90237695641E+03  0.25500000920E-02 0.  1.
    10030    2    1    2    0    0  0.00000000000E+00  0.00000000000E+00  0.17969342544E+03  0.19844473383E+04  0.19762948948E+04 0.  0.
        4    1    3    3  502    0  0.69045732580E+03 -0.19837472115E+03 -0.59144305112E+03  0.93053229087E+03  0.12699999809E+01 0.  1.
       -4    1    3    3    0  502 -0.69045732580E+03  0.19837472115E+03  0.77113647656E+03  0.10539150474E+04  0.12699999809E+01 0. -1.
</event>
<event>
 5   0  0.9370269E-06  0.2001504E+04  0.7818609E-02  0.8605918E-01
       -1   -1    0    0    0  501  0.00000000000E+00  0.00000000000E+00  0.59251442504E+03  0.59251442506E+03  0.50400001928E-02 0.  1.
        1   -1    0    0  501    0  0.00000000000E+00  0.00000000000E+00 -0.16902619671E+04  0.16902619671E+04  0.50400001928E-02 0. -1.
    10030    2    1    2    0    0  0.00000000000E+00  0.00000000000E+00 -0.10977475420E+04  0.22827763922E+04  0.20015040321E+04 0.  0.
        4    1    3    3  502    0 -0.88543939298E+02 -0.59832346089E+03  0.36046025358E+03  0.70410524806E+03  0.12699999809E+01 0.  1.
       -4    1    3    3    0  502  0.88543939298E+02  0.59832346089E+03 -0.14582077956E+04  0.15786711441E+04  0.12699999809E+01 0. -1.
</event>
<event>
 5   0  0.2020029E-05  0.1988932E+04  0.7818609E-02  0.8611813E-01
        2   -1    0    0  501    0  0.00000000000E+00  0.00000000000E+00  0.19119411855E+04  0.19119411855E+04  0.25500000920E-02 0.  1.
       -2   -1    0    0    0  501  0.00000000000E+00  0.00000000000E+00 -0.51725569145E+03  0.51725569146E+03  0.25500000920E-02 0. -1.
    10030    2    1    2    0    0  0.00000000000E+00  0.00000000000E+00  0.13946854940E+04  0.24291968769E+04  0.19889318338E+04 0.  0.
        5    1    3    3  502    0 -0.23599691515E+03 -0.76631062717E+03  0.14157811780E+04  0.16270786568E+04  0.46999998093E+01 0.  1.
       -5    1    3    3    0  502  0.23599691515E+03  0.76631062717E+03 -0.21095683978E+02  0.80211822019E+03  0.46999998093E+01 0. -1.
</event>
<event>
 5   0  0.9370269E-06  0.2004486E+04  0.7818609E-02  0.8604526E-01
        1   -1    0    0  501    0  0.00000000000E+00  0.00000000000E+00  0.10155531448E+04  0.10155531448E+04  0.50400001928E-02 0.  1.
       -1   -1    0    0    0  501  0.00000000000E+00  0.00000000000E+00 -0.98910750100E+03  0.98910750102E+03  0.50400001928E-02 0. -1.
    10030    2    1    2    0    0  0.00000000000E+00  0.00000000000E+00  0.26445643789E+02  0.20046606458E+04  0.20044862017E+04 0.  0.
        4    1    3    3  502    0  0.42343200224E+03  0.39793465856E+03  0.82989842385E+03  0.10131039729E+04  0.12699999809E+01 0.  1.
       -4    1    3    3    0  502 -0.42343200224E+03 -0.39793465856E+03 -0.80345278007E+03  0.99155667296E+03  0.12699999809E+01 0. -1.
</event>
<event>
 5   0  0.9220260E-06  0.1999652E+04  0.7818609E-02  0.8606783E-01
        1   -1    0    0  501    0  0.00000000000E+00  0.00000000000E+00  0.88770890057E+03  0.88770890058E+03  0.50400001928E-02 0.  1.
       -1   -1    0    0    0  501  0.00000000000E+00  0.00000000000E+00 -0.11261034340E+04  0.11261034340E+04  0.50400001928E-02 0. -1.
    10030    2    1    2    0    0  0.00000000000E+00  0.00000000000E+00 -0.23839453343E+03  0.20138123346E+04  0.19996520111E+04 0.  0.
        3    1    3    3  502    0  0.83805175945E+03  0.33094414450E+03  0.31722730042E+03  0.95524235073E+03  0.10100000352E+00 0.  1.
       -3    1    3    3    0  502 -0.83805175945E+03 -0.33094414450E+03 -0.55562183385E+03  0.10585699839E+04  0.10100000352E+00 0. -1.
</event>
<event>
 5   0  0.1999142E-05  0.2000629E+04  0.7818609E-02  0.8606326E-01
       -2   -1    0    0    0  501  0.00000000000E+00  0.00000000000E+00  0.98947307034E+03  0.98947307034E+03  0.25500000920E-02 0. -1.
        2   -1    0    0  501    0  0.00000000000E+00  0.00000000000E+00 -0.10112750807E+04  0.10112750807E+04  0.25500000920E-02 0.  1.
    10030    2    1    2    0    0  0.00000000000E+00  0.00000000000E+00 -0.21802010403E+02  0.20007481511E+04  0.20006293601E+04 0.  0.
        1    1    3    3  502    0  0.24056256941E+03 -0.56577686612E+03 -0.80003318162E+03  0.10089731928E+04  0.50400001928E-02 0.  1.
       -1    1    3    3    0  502 -0.24056256941E+03  0.56577686612E+03  0.77823117122E+03  0.99177495830E+03  0.50400001928E-02 0. -1.
</event>
<event>
 5   0  0.9220260E-06  0.2001928E+04  0.7818609E-02  0.8605720E-01
       -1   -1    0    0    0  501  0.00000000000E+00  0.00000000000E+00  0.10463727555E+04  0.10463727555E+04  0.50400001928E-02 0.  1.
        1   -1    0    0  501    0  0.00000000000E+00  0.00000000000E+00 -0.95752612959E+03  0.95752612960E+03  0.50400001928E-02 0. -1.
    10030    2    1    2    0    0  0.00000000000E+00  0.00000000000E+00  0.88846625934E+02  0.20038988851E+04  0.20019283251E+04 0.  0.
        3    1    3    3  502    0  0.72960348491E+03  0.29138615948E+03  0.66527742346E+03  0.10294761772E+04  0.10100000352E+00 0.  1.
       -3    1    3    3    0  502 -0.72960348491E+03 -0.29138615948E+03 -0.57643079753E+03  0.97442270790E+03  0.10100000352E+00 0. -1.
</event>
<event>
 5   0  0.1999142E-05  0.1992144E+04  0.7818609E-02  0.8610302E-01
       -2   -1    0    0    0  501  0.00000000000E+00  0.00000000000E+00  0.52298430985E+03  0.52298430985E+03  0.25500000920E-02 0. -1.
        2   -1    0    0  501    0  0.00000000000E+00  0.00000000000E+00 -0.18971116297E+04  0.18971116297E+04  0.25500000920E-02 0.  1.
    10030    2    1    2    0    0  0.00000000000E+00  0.00000000000E+00 -0.13741273198E+04  0.24200959395E+04  0.19921441879E+04 0.  0.
        1    1    3    3  502    0  0.11744626553E+03  0.10600141735E+03 -0.18817507547E+04  0.18883897449E+04  0.50400001928E-02 0.  1.
       -1    1    3    3    0  502 -0.11744626553E+03 -0.10600141735E+03  0.50762343487E+03  0.53170619464E+03  0.50400001928E-02 0. -1.
</event>
<event>
 5   0  0.9220260E-06  0.2001052E+04  0.7818609E-02  0.8606129E-01
       -1   -1    0    0    0  501  0.00000000000E+00  0.00000000000E+00  0.10978846015E+04  0.10978846015E+04  0.50400001928E-02 0. -1.
        1   -1    0    0  501    0  0.00000000000E+00  0.00000000000E+00 -0.91180079780E+03  0.91180079781E+03  0.50400001928E-02 0.  1.
    10030    2    1    2    0    0  0.00000000000E+00  0.00000000000E+00  0.18608380366E+03  0.20096853993E+04  0.20010517790E+04 0.  0.
        3    1    3    3  502    0  0.42033796180E+03 -0.15873278891E+03  0.99086312137E+03  0.10879751081E+04  0.10100000352E+00 0. -1.
       -3    1    3    3    0  502 -0.42033796180E+03  0.15873278891E+03 -0.80477931771E+03  0.92171029116E+03  0.10100000352E+00 0.  1.
</event>
<event>
 5   0  0.9342635E-06  0.1998920E+04  0.7818609E-02  0.8607126E-01
       -1   -1    0    0    0  501  0.00000000000E+00  0.00000000000E+00  0.27844156217E+04  0.27844156217E+04  0.50400001928E-02 0. -1.
        1   -1    0    0  501    0  0.00000000000E+00  0.00000000000E+00 -0.35875398016E+03  0.35875398019E+03  0.50400001928E-02 0.  1.
    10030    2    1    2    0    0  0.00000000000E+00  0.00000000000E+00  0.24256616416E+04  0.31431696019E+04  0.19989198951E+04 0.  0.
        5    1    3    3  502    0  0.36520057032E+03  0.83528781273E+03  0.18569933541E+04  0.20687009436E+04  0.46999998093E+01 0.  1.
       -5    1    3    3    0  502 -0.36520057032E+03 -0.83528781273E+03  0.56866828745E+03  0.10744686584E+04  0.46999998093E+01 0. -1.
</event>
<event>
 5   0  0.2003576E-05  0.2003122E+04  0.7818609E-02  0.8605163E-01
        2   -1    0    0  501    0  0.00000000000E+00  0.00000000000E+00  0.11346689293E+04  0.11346689293E+04  0.25500000920E-02 0.  1.
       -2   -1    0    0    0  501  0.00000000000E+00  0.00000000000E+00 -0.88406759370E+03  0.88406759371E+03  0.25500000920E-02 0. -1.
    10030    2    1    2    0    0  0.00000000000E+00  0.00000000000E+00  0.25060133560E+03  0.20187365230E+04  0.20031215939E+04 0.  0.
        4    1    3    3  502    0  0.44204113054E+03 -0.74130127630E+03 -0.38678874718E+03  0.94579865256E+03  0.12699999809E+01 0. -1.
       -4    1    3    3    0  502 -0.44204113054E+03  0.74130127630E+03  0.63739008278E+03  0.10729378705E+04  0.12699999809E+01 0.  1.
</event>
<event>
 5   0  0.1979765E-05  0.1998753E+04  0.7818609E-02  0.8607204E-01
       -2   -1    0    0    0  501  0.00000000000E+00  0.00000000000E+00  0.12335867298E+04  0.12335867298E+04  0.25500000920E-02 0. -1.
        2   -1    0    0  501    0  0.00000000000E+00  0.00000000000E+00 -0.80963356066E+03  0.80963356067E+03  0.25500000920E-02 0.  1.
    10030    2    1    2    0    0  0.00000000000E+00  0.00000000000E+00  0.42395316916E+03  0.20432202905E+04  0.19987528276E+04 0.  0.
        2    1    3    3  502    0 -0.54120179018E+03 -0.47415997803E+03 -0.49701396559E+03  0.87449982530E+03  0.25500000920E-02 0.  1.
       -2    1    3    3    0  502  0.54120179018E+03  0.47415997803E+03  0.92096713475E+03  0.11687204652E+04  0.25500000920E-02 0. -1.
</event>
<event>
 5   0  0.9370269E-06  0.2001259E+04  0.7818609E-02  0.8606032E-01
        1   -1    0    0  501    0  0.00000000000E+00  0.00000000000E+00  0.89123655761E+03  0.89123655762E+03  0.50400001928E-02 0.  1.
       -1   -1    0    0    0  501  0.00000000000E+00  0.00000000000E+00 -0.11234495915E+04  0.11234495915E+04  0.50400001928E-02 0. -1.
    10030    2    1    2    0    0  0.00000000000E+00  0.00000000000E+00 -0.23221303388E+03  0.20146861491E+04  0.20012589504E+04 0.  0.
        4    1    3    3  502    0 -0.10031191739E+03  0.59250735691E+03  0.68934295410E+03  0.91450684526E+03  0.12699999809E+01 0.  1.
       -4    1    3    3    0  502  0.10031191739E+03 -0.59250735691E+03 -0.92155598798E+03  0.11001793039E+04  0.12699999809E+01 0. -1.
</event>
<event>
 5   0  0.2020029E-05  0.2000894E+04  0.7818609E-02  0.8606203E-01
       -2   -1    0    0    0  501  0.00000000000E+00  0.00000000000E+00  0.39527608876E+03  0.39527608876E+03  0.25500000920E-02 0.  1.
        2   -1    0    0  501    0  0.00000000000E+00  0.00000000000E+00 -0.25321398809E+04  0.25321398809E+04  0.25500000920E-02 0. -1.
    10030    2    1    2    0    0  0.00000000000E+00  0.00000000000E+00 -0.21368637921E+04  0.29274159697E+04  0.20008941484E+04 0.  0.
        5    1    3    3  502    0 -0.95526221238E+03  0.29650870126E+03 -0.10381302877E+04  0.14415893619E+04  0.46999998093E+01 0. -1.
       -5    1    3    3    0  502  0.95526221238E+03 -0.29650870126E+03 -0.10987335045E+04  0.14858266077E+04  0.46999998093E+01 0.  1.
</event>
<event>
 5   0  0.9140695E-06  0.1991197E+04  0.7818609E-02  0.8610747E-01
        1   -1    0    0  501    0  0.00000000000E+00  0.00000000000E+00  0.90579078142E+03  0.90579078143E+03  0.50400001928E-02 0.  1.
       -1   -1    0    0    0  501  0.00000000000E+00  0.00000000000E+00 -0.10943110478E+04  0.10943110478E+04  0.50400001928E-02 0. -1.
    10030    2    1    2    0    0  0.00000000000E+00  0.00000000000E+00 -0.18852026636E+03  0.20001018292E+04  0.19911974881E+04 0.  0.
        1    1    3    3  502    0 -0.17903114606E+03  0.21390003585E+03  0.86573936212E+03  0.90956584135E+03  0.50400001928E-02 0.  1.
       -1    1    3    3    0  502  0.17903114606E+03 -0.21390003585E+03 -0.10542596285E+04  0.10905359879E+04  0.50400001928E-02 0. -1.
</event>
<event>
 5   0  0.2003576E-05  0.1999438E+04  0.7818609E-02  0.8606884E-01
        2   -1    0    0  501    0  0.00000000000E+00  0.00000000000E+00  0.11689211712E+04  0.11689211712E+04  0.25500000920E-02 0.  1.
       -2   -1    0    0    0  501  0.00000000000E+00  0.00000000000E+00 -0.85500860706E+03  0.85500860707E+03  0.25500000920E-02 0. -1.
    10030    2    1    2    0    0  0.00000000000E+00  0.00000000000E+00  0.31391256412E+03  0.20239297783E+04  0.19994375833E+04 0.  0.
        4    1    3    3  502    0 -0.41350003349E+03  0.65012460398E+03 -0.48786476866E+03  0.91195280787E+03  0.12699999809E+01 0. -1.
       -4    1    3    3    0  502  0.41350003349E+03 -0.65012460398E+03  0.80177733278E+03  0.11119769704E+04  0.12699999809E+01 0.  1.
</event>
<event>
 5   0  0.9333353E-06  0.1989522E+04  0.7818609E-02  0.8611535E-01
        1   -1    0    0  501    0  0.00000000000E+00  0.00000000000E+00  0.88825433562E+03  0.88825433564E+03  0.50400001928E-02 0. -1.
       -1   -1    0    0    0  501  0.00000000000E+00  0.00000000000E+00 -0.11140383734E+04  0.11140383734E+04  0.50400001928E-02 0.  1.
    10030    2    1    2    0    0  0.00000000000E+00  0.00000000000E+00 -0.22578403781E+03  0.20022927091E+04  0.19895219680E+04 0.  0.
        2    1    3    3  502    0 -0.77551531952E+03  0.35932556735E+03  0.39930558991E+03  0.94338954219E+03  0.25500000920E-02 0. -1.
       -2    1    3    3    0  502  0.77551531952E+03 -0.35932556735E+03 -0.62508962771E+03  0.10589031669E+04  0.25500000920E-02 0.  1.
</event>
<event>
 5   0  0.9333353E-06  0.2001087E+04  0.7818609E-02  0.8606113E-01
       -1   -1    0    0    0  501  0.00000000000E+00  0.00000000000E+00  0.87712509297E+03  0.87712509299E+03  0.50400001928E-02 0.  1.
        1   -1    0    0  501    0  0.00000000000E+00  0.00000000000E+00 -0.11413275280E+04  0.11413275280E+04  0.50400001928E-02 0. -1.
    10030    2    1    2    0    0  0.00000000000E+00  0.00000000000E+00 -0.26420243499E+03  0.20184526210E+04  0.20010867189E+04 0.  0.
        2    1    3    3  502    0  0.67758820551E+03 -0.38536236347E+02  0.60944963049E+03  0.91216208531E+03  0.25500000920E-02 0.  1.
       -2    1    3    3    0  502 -0.67758820551E+03  0.38536236347E+02 -0.87365206548E+03  0.11062905357E+04  0.25500000920E-02 0. -1.
</event>
<event>
 5   0  0.1979765E-05  0.2013916E+04  0.7818609E-02  0.8600142E-01
       -2   -1    0    0    0  501  0.00000000000E+00  0.00000000000E+00  0.64580371295E+03  0.64580371296E+03  0.25500000920E-02 0. -1.
        2   -1    0    0  501    0  0.00000000000E+00  0.00000000000E+00 -0.15700817904E+04  0.15700817904E+04  0.25500000920E-02 0.  1.
    10030    2    1    2    0    0  0.00000000000E+00  0.00000000000E+00 -0.92427807747E+03  0.22158855034E+04  0.20139162345E+04 0.  0.
        2    1    3    3  502    0  0.10470924377E+03 -0.17818403731E+03 -0.15464944954E+04  0.15602431866E+04  0.25500000920E-02 0.  1.
       -2    1    3    3    0  502 -0.10470924377E+03  0.17818403731E+03  0.62221641793E+03  0.65564231684E+03  0.25500000920E-02 0. -1.
</event>
<event>
 5   0  0.9342635E-06  0.1998642E+04  0.7818609E-02  0.8607256E-01
        1   -1    0    0  501    0  0.00000000000E+00  0.00000000000E+00  0.86788414690E+03  0.86788414692E+03  0.50400001928E-02 0. -1.
       -1   -1    0    0    0  501  0.00000000000E+00  0.00000000000E+00 -0.11506636767E+04  0.11506636768E+04  0.50400001928E-02 0.  1.
    10030    2    1    2    0    0  0.00000000000E+00  0.00000000000E+00 -0.28277952984E+03  0.20185478237E+04  0.19986423027E+04 0.  0.
        5    1    3    3  502    0 -0.30854796849E+03  0.37006098575E+03 -0.10255940072E+04  0.11331425945E+04  0.46999998093E+01 0.  1.
       -5    1    3    3    0  502  0.30854796849E+03 -0.37006098575E+03  0.74281447733E+03  0.88540522913E+03  0.46999998093E+01 0. -1.
</event>
<event>
 5   0  0.9370269E-06  0.2003959E+04  0.7818609E-02  0.8604772E-01
       -1   -1    0    0    0  501  0.00000000000E+00  0.00000000000E+00  0.55182512679E+03  0.55182512682E+03  0.50400001928E-02 0. -1.
        1   -1    0    0  501    0  0.00000000000E+00  0.00000000000E+00 -0.18193495546E+04  0.18193495546E+04  0.50400001928E-02 0.  1.
    10030    2    1    2    0    0  0.00000000000E+00  0.00000000000E+00 -0.12675244278E+04  0.23711746814E+04  0.20039588805E+04 0.  0.
        4    1    3    3  502    0  0.10603902357E+03  0.54285365610E+03  0.35481545922E+03  0.65713772488E+03  0.12699999809E+01 0. -1.
       -4    1    3    3    0  502 -0.10603902357E+03 -0.54285365610E+03 -0.16223398870E+04  0.17140369565E+04  0.12699999809E+01 0.  1.
</event>
<event>
 5   0  0.9342635E-06  0.1993681E+04  0.7818609E-02  0.8609581E-01
        1   -1    0    0  501    0  0.00000000000E+00  0.00000000000E+00  0.79169341124E+03  0.79169341125E+03  0.50400001928E-02 0. -1.
       -1   -1    0    0    0  501  0.00000000000E+00  0.00000000000E+00 -0.12551459637E+04  0.12551459637E+04  0.50400001928E-02 0.  1.
    10030    2    1    2    0    0  0.00000000000E+00  0.00000000000E+00 -0.46345255247E+03  0.20468393750E+04  0.19936808066E+04 0.  0.
        5    1    3    3  502    0  0.91927992704E+03 -0.29149852214E+03  0.27232635781E+02  0.96478530209E+03  0.46999998093E+01 0.  1.
       -5    1    3    3    0  502 -0.91927992704E+03  0.29149852214E+03 -0.49068518825E+03  0.10820540729E+04  0.46999998093E+01 0. -1.
</event>
<event>
 5   0  0.1979765E-05  0.2001893E+04  0.7818609E-02  0.8605736E-01
        2   -1    0    0  501    0  0.00000000000E+00  0.00000000000E+00  0.74364679199E+03  0.74364679199E+03  0.25500000920E-02 0. -1.
       -2   -1    0    0    0  501  0.00000000000E+00  0.00000000000E+00 -0.13472717546E+04  0.13472717546E+04  0.25500000920E-02 0.  1.
    10030    2    1    2    0    0  0.00000000000E+00  0.00000000000E+00 -0.60362496260E+03  0.20909185466E+04  0.20018934220E+04 0.  0.
        2    1    3    3  502    0  0.68599940845E+02  0.39492297817E+03 -0.12597827777E+04  0.13220146586E+04  0.25500000920E-02 0.  1.
       -2    1    3    3    0  502 -0.68599940845E+02 -0.39492297817E+03  0.65615781512E+03  0.76890388796E+03  0.25500000920E-02 0. -1.
</event>
<event>
 5   0  0.1979765E-05  0.1999609E+04  0.7818609E-02  0.8606804E-01
        2   -1    0    0  501    0  0.00000000000E+00  0.00000000000E+00  0.96185626060E+03  0.96185626060E+03  0.25500000920E-02 0.  1.
       -2   -1    0    0    0  501  0.00000000000E+00  0.00000000000E+00 -0.10392495672E+04  0.10392495672E+04  0.25500000920E-02 0. -1.
    10030    2    1    2    0    0  0.00000000000E+00  0.00000000000E+00 -0.77393306621E+02  0.20011058278E+04  0.19996086643E+04 0.  0.
        2    1    3    3  502    0  0.11291959527E+03 -0.39550081951E+03 -0.95066210120E+03  0.10358234231E+04  0.25500000920E-02 0. -1.
       -2    1    3    3    0  502 -0.11291959527E+03  0.39550081951E+03  0.87326879458E+03  0.96528240470E+03  0.25500000920E-02 0.  1.
</event>
<event>
 5   0  0.9140695E-06  0.1999842E+04  0.7818609E-02  0.8606695E-01
       -1   -1    0    0    0  501  0.00000000000E+00  0.00000000000E+00  0.10355274919E+04  0.10355274919E+04  0.50400001928E-02 0.  1.
        1   -1    0    0  501    0  0.00000000000E+00  0.00000000000E+00 -0.96553877119E+03  0.96553877120E+03  0.50400001928E-02 0. -1.
    10030    2    1    2    0    0  0.00000000000E+00  0.00000000000E+00  0.69988720722E+02  0.20010662631E+04  0.19998419359E+04 0.  0.
        1    1    3    3  502    0 -0.37715779538E+03  0.26900347004E+03 -0.85168079023E+03  0.96952103535E+03  0.50400001928E-02 0. -1.
       -1    1    3    3    0  502  0.37715779538E+03 -0.26900347004E+03  0.92166951095E+03  0.10315452278E+04  0.50400001928E-02 0.  1.
</event>
<event>
 5   0  0.2038882E-05  0.2000812E+04  0.7818609E-02  0.8606241E-01
       -2   -1    0    0    0  501  0.00000000000E+00  0.00000000000E+00  0.11562185206E+04  0.11562185206E+04  0.25500000920E-02 0.  1.
        2   -1    0    0  501    0  0.00000000000E+00  0.00000000000E+00 -0.86559055071E+03  0.86559055071E+03  0.25500000920E-02 0. -1.
    10030    2    1    2    0    0  0.00000000000E+00  0.00000000000E+00  0.29062796985E+03  0.20218090713E+04  0.20008116613E+04 0.  0.
        3    1    3    3  502    0 -0.91934018016E+03 -0.53550065471E+02 -0.24963016421E+03  0.95413269803E+03  0.10100000352E+00 0. -1.
       -3    1    3    3    0  502  0.91934018016E+03  0.53550065471E+02  0.54025813405E+03  0.10676763732E+04  0.10100000352E+00 0.  1.
</event>
<event>
 5   0  0.2038882E-05  0.1999131E+04  0.7818609E-02  0.8607027E-01
        2   -1    0    0  501    0  0.00000000000E+00  0.00000000000E+00  0.25164512582E+04  0.25164512582E+04  0.25500000920E-02 0. -1.
       -2   -1    0    0    0  501  0.00000000000E+00  0.00000000000E+00 -0.39703991500E+03  0.39703991501E+03  0.25500000920E-02 0.  1.
    10030    2    1    2    0    0  0.00000000000E+00  0.00000000000E+00  0.21194113432E+04  0.29134911732E+04  0.19991314051E+04 0.  0.
        3    1    3    3  502    0 -0.17430229731E+01  0.92801919874E+03  0.16009190597E+04  0.18504498149E+04  0.10100000352E+00 0. -1.
       -3    1    3    3    0  502  0.17430229731E+01 -0.92801919874E+03  0.51849228349E+03  0.10630413584E+04  0.10100000352E+00 0.  1.
</event>
<event>
 5   0  0.2003576E-05  0.1992966E+04  0.7818609E-02  0.8609916E-01
        2   -1    0    0  501    0  0.00000000000E+00  0.00000000000E+00  0.79469683328E+03  0.79469683328E+03  0.25500000920E-02 0. -1.
       -2   -1    0    0    0  501  0.00000000000E+00  0.00000000000E+00 -0.12495056916E+04  0.12495056916E+04  0.25500000920E-02 0.  1.
    10030    2    1    2    0    0  0.00000000000E+00  0.00000000000E+00 -0.45480885836E+03  0.20442025249E+04  0.19929658465E+04 0.  0.
        4    1    3    3  502    0 -0.58867028973E+03 -0.61822838652E+03 -0.75466019250E+03  0.11394089112E+04  0.12699999809E+01 0.  1.
       -4    1    3    3    0  502  0.58867028973E+03  0.61822838652E+03  0.29985133414E+03  0.90479361370E+03  0.12699999809E+01 0. -1.
</event>
<event>
 5   0  0.9370269E-06  0.2009137E+04  0.7818609E-02  0.8602361E-01
       -1   -1    0    0    0  501  0.00000000000E+00  0.00000000000E+00  0.99060872823E+03  0.99060872825E+03  0.50400001928E-02 0. -1.
        1   -1    0    0  501    0  0.00000000000E+00  0.00000000000E+00 -0.10187246531E+04  0.10187246531E+04  0.50400001928E-02 0.  1.
    10030    2    1    2    0    0  0.00000000000E+00  0.00000000000E+00 -0.28115924861E+02  0.20093333814E+04  0.20091366634E+04 0.  0.
        4    1    3    3  502    0  0.45600618132E+03 -0.20040258700E+03  0.85841101991E+03  0.99245852623E+03  0.12699999809E+01 0. -1.
       -4    1    3    3    0  502 -0.45600618132E+03  0.20040258700E+03 -0.88652694477E+03  0.10168748551E+04  0.12699999809E+01 0.  1.
</event>
<event>
 5   0  0.9370269E-06  0.1995185E+04  0.7818609E-02  0.8608875E-01
       -1   -1    0    0    0  501  0.00000000000E+00  0.00000000000E+00  0.48308217173E+03  0.48308217175E+03  0.50400001928E-02 0. -1.
        1   -1    0    0  501    0  0.00000000000E+00  0.00000000000E+00 -0.20600860963E+04  0.20600860963E+04  0.50400001928E-02 0.  1.
    10030    2    1    2    0    0  0.00000000000E+00  0.00000000000E+00 -0.15770039246E+04  0.25431682681E+04  0.19951850695E+04 0.  0.
        4    1    3    3  502    0  0.89461936379E+02  0.71333754864E+03  0.93070775473E+02  0.72492598140E+03  0.12699999809E+01 0. -1.
       -4    1    3    3    0  502 -0.89461936379E+02 -0.71333754864E+03 -0.16700747000E+04  0.18182422866E+04  0.12699999809E+01 0.  1.
</event>
<event>
 5   0  0.2020029E-05  0.1997051E+04  0.7818609E-02  0.8608001E-01
        2   -1    0    0  501    0  0.00000000000E+00  0.00000000000E+00  0.27216187189E+04  0.27216187189E+04  0.25500000920E-02 0.  1.
       -2   -1    0    0    0  501  0.00000000000E+00  0.00000000000E+00 -0.36634560200E+03  0.36634560201E+03  0.25500000920E-02 0. -1.
    10030    2    1    2    0    0  0.00000000000E+00  0.00000000000E+00  0.23552731169E+04  0.30879643209E+04  0.19970508737E+04 0.  0.
        5    1    3    3  502    0  0.63455146950E+03  0.35733944868E+03  0.12131885415E+03  0.73830034769E+03  0.46999998093E+01 0. -1.
       -5    1    3    3    0  502 -0.63455146950E+03 -0.35733944868E+03  0.22339542627E+04  0.23496639732E+04  0.46999998093E+01 0.  1.
</event>
<event>
 5   0  0.9370269E-06  0.2003560E+04  0.7818609E-02  0.8604958E-01
       -1   -1    0    0    0  501  0.00000000000E+00  0.00000000000E+00  0.96025246948E+03  0.96025246949E+03  0.50400001928E-02 0. -1.
        1   -1    0    0  501    0  0.00000000000E+00  0.00000000000E+00 -0.10451033881E+04  0.10451033881E+04  0.50400001928E-02 0.  1.
    10030    2    1    2    0    0  0.00000000000E+00  0.00000000000E+00 -0.84850918598E+02  0.20053558576E+04  0.20035599410E+04 0.  0.
        4    1    3    3  502    0 -0.99619315229E+03  0.13827100341E+02 -0.14725477368E+03  0.10071134825E+04  0.12699999809E+01 0.  1.
       -4    1    3    3    0  502  0.99619315229E+03 -0.13827100341E+02  0.62403855081E+02  0.99824237508E+03  0.12699999809E+01 0. -1.
</event>
<event>
 5   0  0.2038882E-05  0.1982615E+04  0.7818609E-02  0.8614792E-01
        2   -1    0    0  501    0  0.00000000000E+00  0.00000000000E+00  0.12566657774E+04  0.12566657774E+04  0.25500000920E-02 0. -1.
       -2   -1    0    0    0  501  0.00000000000E+00  0.00000000000E+00 -0.78198259395E+03  0.78198259395E+03  0.25500000920E-02 0.  1.
    10030    2    1    2    0    0  0.00000000000E+00  0.00000000000E+00  0.47468318343E+03  0.20386483713E+04  0.19826152066E+04 0.  0.
        3    1    3    3  502    0  0.93058109339E+03 -0.20787946767E+03  0.51610443506E+03  0.10842319136E+04  0.10100000352E+00 0. -1.
       -3    1    3    3    0  502 -0.93058109339E+03  0.20787946767E+03 -0.41421251626E+02  0.95441645771E+03  0.10100000352E+00 0.  1.
</event>
<event>
 5   0  0.2038882E-05  0.2001174E+04  0.7818609E-02  0.8606072E-01
        2   -1    0    0  501    0  0.00000000000E+00  0.00000000000E+00  0.11581430126E+04  0.11581430126E+04  0.25500000920E-02 0. -1.
       -2   -1    0    0    0  501  0.00000000000E+00  0.00000000000E+00 -0.86446507440E+03  0.86446507440E+03  0.25500000920E-02 0.  1.
    10030    2    1    2    0    0  0.00000000000E+00  0.00000000000E+00  0.29367793816E+03  0.20226080870E+04  0.20011738410E+04 0.  0.
        3    1    3    3  502    0 -0.98105669894E+03  0.10388385477E+03 -0.22013498664E+02  0.98678706221E+03  0.10100000352E+00 0.  1.
       -3    1    3    3    0  502  0.98105669894E+03 -0.10388385477E+03  0.31569143682E+03  0.10358210247E+04  0.10100000352E+00 0. -1.
</event>
<event>
 5   0  0.9370269E-06  0.2001555E+04  0.7818609E-02  0.8605894E-01
        1   -1    0    0  501    0  0.00000000000E+00  0.00000000000E+00  0.10546241857E+04  0.10546241857E+04  0.50400001928E-02 0.  1.
       -1   -1    0    0    0  501  0.00000000000E+00  0.00000000000E+00 -0.94967995281E+03  0.94967995282E+03  0.50400001928E-02 0. -1.
    10030    2    1    2    0    0  0.00000000000E+00  0.00000000000E+00  0.10494423291E+03  0.20043041385E+04  0.20015548426E+04 0.  0.
        4    1    3    3  502    0 -0.31737176854E+03  0.75656304724E+03  0.62635734091E+03  0.10322003756E+04  0.12699999809E+01 0.  1.
       -4    1    3    3    0  502  0.31737176854E+03 -0.75656304724E+03 -0.52141310800E+03  0.97210376298E+03  0.12699999809E+01 0. -1.
</event>
<event>
 5   0  0.9220260E-06  0.2001530E+04  0.7818609E-02  0.8605906E-01
        1   -1    0    0  501    0  0.00000000000E+00  0.00000000000E+00  0.13164621086E+04  0.13164621087E+04  0.50400001928E-02 0. -1.
       -1   -1    0    0    0  501  0.00000000000E+00  0.00000000000E+00 -0.76077422731E+03  0.76077422732E+03  0.50400001928E-02 0.  1.
    10030    2    1    2    0    0  0.00000000000E+00  0.00000000000E+00  0.55568788134E+03  0.20772363360E+04  0.20015298584E+04 0.  0.
        3    1    3    3  502    0 -0.40411519067E+02 -0.32127232403E+03 -0.70490577548E+03  0.77571976871E+03  0.10100000352E+00 0.  1.
       -3    1    3    3    0  502  0.40411519067E+02  0.32127232403E+03  0.12605936568E+04  0.13015165673E+04  0.10100000352E+00 0. -1.
</event>
<event>
 5   0  0.9370269E-06  0.1998757E+04  0.7818609E-02  0.8607202E-01
       -1   -1    0    0    0  501  0.00000000000E+00  0.00000000000E+00  0.53339332469E+03  0.53339332471E+03  0.50400001928E-02 0. -1.
        1   -1    0    0  501    0  0.00000000000E+00  0.00000000000E+00 -0.18724592764E+04  0.18724592764E+04  0.50400001928E-02 0.  1.
    10030    2    1    2    0    0  0.00000000000E+00  0.00000000000E+00 -0.13390659517E+04  0.24058526011E+04  0.19987568925E+04 0.  0.
        4    1    3    3  502    0  0.56440188947E+03 -0.37639751957E+03 -0.15528455811E+04  0.16945664924E+04  0.12699999809E+01 0.  1.
       -4    1    3    3    0  502 -0.56440188947E+03  0.37639751957E+03  0.21377962940E+03  0.71128610870E+03  0.12699999809E+01 0. -1.
</event>
<event>
 5   0  0.2020029E-05  0.1998763E+04  0.7818609E-02  0.8607199E-01
       -2   -1    0    0    0  501  0.00000000000E+00  0.00000000000E+00  0.90927641078E+03  0.90927641078E+03  0.25500000920E-02 0. -1.
        2   -1    0    0  501    0  0.00000000000E+00  0.00000000000E+00 -0.10984157619E+04  0.10984157619E+04  0.25500000920E-02 0.  1.
    10030    2    1    2    0    0  0.00000000000E+00  0.00000000000E+00 -0.18913935110E+03  0.20076921727E+04  0.19987631591E+04 0.  0.
        5    1    3    3  502    0 -0.26352411162E+03  0.85966465492E+03 -0.53272144772E+03  0.10451232019E+04  0.46999998093E+01 0.  1.
       -5    1    3    3    0  502  0.26352411162E+03 -0.85966465492E+03  0.34358209662E+03  0.96256897075E+03  0.46999998093E+01 0. -1.
</event>
<event>
 5   0  0.9370269E-06  0.2000811E+04  0.7818609E-02  0.8606241E-01
       -1   -1    0    0    0  501  0.00000000000E+00  0.00000000000E+00  0.93220742839E+03  0.93220742840E+03  0.50400001928E-02 0. -1.
        1   -1    0    0  501    0  0.00000000000E+00  0.00000000000E+00 -0.10735932691E+04  0.10735932691E+04  0.50400001928E-02 0.  1.
    10030    2    1    2    0    0  0.00000000000E+00  0.00000000000E+00 -0.14138584067E+03  0.20058006975E+04  0.20008114559E+04 0.  0.
        4    1    3    3  502    0 -0.60640302887E+03 -0.64310913197E+03  0.39897936747E+03  0.96979386346E+03  0.12699999809E+01 0. -1.
       -4    1    3    3    0  502  0.60640302887E+03  0.64310913197E+03 -0.54036520815E+03  0.10360068340E+04  0.12699999809E+01 0.  1.
</event>
<event>
 5   0  0.7132000E-06  0.1999471E+04  0.7818609E-02  0.8606868E-01
        3   -1    0    0  501    0  0.00000000000E+00  0.00000000000E+00  0.75004522104E+03  0.75004522784E+03  0.10100000352E+00 0.  1.
       -3   -1    0    0    0  501  0.00000000000E+00  0.00000000000E+00 -0.13325479737E+04  0.13325479775E+04  0.10100000352E+00 0. -1.
    10030    2    1    2    0    0  0.00000000000E+00  0.00000000000E+00 -0.58250275265E+03  0.20825932054E+04  0.19994711806E+04 0.  0.
        3    1    3    3  502    0 -0.28424534236E+03 -0.54028475675E+03  0.53334757423E+03  0.81065570877E+03  0.10100000352E+00 0.  1.
       -3    1    3    3    0  502  0.28424534236E+03  0.54028475675E+03 -0.11158503269E+04  0.12719374966E+04  0.10100000352E+00 0. -1.
</event>
<event>
 5   0  0.9333353E-06  0.2005566E+04  0.7818609E-02  0.8604023E-01
        1   -1    0    0  501    0  0.00000000000E+00  0.00000000000E+00  0.13274929421E+04  0.13274929421E+04  0.50400001928E-02 0. -1.
       -1   -1    0    0    0  501  0.00000000000E+00  0.00000000000E+00 -0.75749869725E+03  0.75749869727E+03  0.50400001928E-02 0.  1.
    10030    2    1    2    0    0  0.00000000000E+00  0.00000000000E+00  0.56999424486E+03  0.20849916394E+04  0.20055664280E+04 0.  0.
        2    1    3    3  502    0  0.27899648622E+03  0.39286503814E+03 -0.62925748908E+03  0.79255723143E+03  0.25500000920E-02 0.  1.
       -2    1    3    3    0  502 -0.27899648622E+03 -0.39286503814E+03  0.11992517339E+04  0.12924344080E+04  0.25500000920E-02 0. -1.
</event>
<event>
 5   0  0.9342635E-06  0.1998831E+04  0.7818609E-02  0.8607167E-01
        1   -1    0    0  501    0  0.00000000000E+00  0.00000000000E+00  0.11862419249E+04  0.11862419249E+04  0.50400001928E-02 0.  1.
       -1   -1    0    0    0  501  0.00000000000E+00  0.00000000000E+00 -0.84201323277E+03  0.84201323278E+03  0.50400001928E-02 0. -1.
    10030    2    1    2    0    0  0.00000000000E+00  0.00000000000E+00  0.34422869216E+03  0.20282551577E+04  0.19988310565E+04 0.  0.
        5    1    3    3  502    0  0.39351677102E+03 -0.84401681712E+03 -0.19597824121E+03  0.95165613416E+03  0.46999998093E+01 0. -1.
       -5    1    3    3    0  502 -0.39351677102E+03  0.84401681712E+03  0.54020693337E+03  0.10765990236E+04  0.46999998093E+01 0.  1.
</event>
<event>
 5   0  0.1979765E-05  0.2006925E+04  0.7818609E-02  0.8603390E-01
       -2   -1    0    0    0  501  0.00000000000E+00  0.00000000000E+00  0.46237651289E+03  0.46237651290E+03  0.25500000920E-02 0.  1.
        2   -1    0    0  501    0  0.00000000000E+00  0.00000000000E+00 -0.21777415668E+04  0.21777415668E+04  0.25500000920E-02 0. -1.
    10030    2    1    2    0    0  0.00000000000E+00  0.00000000000E+00 -0.17153650539E+04  0.26401180797E+04  0.20069245642E+04 0.  0.
        2    1    3    3  502    0 -0.63747648989E+03 -0.35232442332E+03  0.50327908343E+02  0.73009702971E+03  0.25500000920E-02 0.  1.
       -2    1    3    3    0  502  0.63747648989E+03  0.35232442332E+03 -0.17656929622E+04  0.19100210500E+04  0.25500000920E-02 0. -1.
</event>
<event>
 5   0  0.2003576E-05  0.1999651E+04  0.7818609E-02  0.8606784E-01
       -2   -1    0    0    0  501  0.00000000000E+00  0.00000000000E+00  0.50872834135E+03  0.50872834136E+03  0.25500000920E-02 0. -1.
        2   -1    0    0  501    0  0.00000000000E+00  0.00000000000E+00 -0.19649988551E+04  0.19649988551E+04  0.25500000920E-02 0.  1.
    10030    2    1    2    0    0  0.00000000000E+00  0.00000000000E+00 -0.14562705137E+04  0.24737271964E+04  0.19996505778E+04 0.  0.
        4    1    3    3  502    0 -0.50089071676E+03 -0.84319548035E+03 -0.48768671020E+03  0.10953127720E+04  0.12699999809E+01 0.  1.
       -4    1    3    3    0  502  0.50089071676E+03  0.84319548035E+03 -0.96858380351E+03  0.13784144245E+04  0.12699999809E+01 0. -1.
</event>
<event>
 5   0  0.2038882E-05  0.1999171E+04  0.7818609E-02  0.8607008E-01
       -2   -1    0    0    0  501  0.00000000000E+00  0.00000000000E+00  0.13204614469E+04  0.13204614469E+04  0.25500000920E-02 0.  1.
        2   -1    0    0  501    0  0.00000000000E+00  0.00000000000E+00 -0.75668347809E+03  0.75668347810E+03  0.25500000920E-02 0. -1.
    10030    2    1    2    0    0  0.00000000000E+00  0.00000000000E+00  0.56377796885E+03  0.20771449250E+04  0.19991711886E+04 0.  0.
        3    1    3    3  502    0  0.83525223821E+03 -0.41475795603E+03  0.65578702182E+03  0.11400557406E+04  0.10100000352E+00 0.  1.
       -3    1    3    3    0  502 -0.83525223821E+03  0.41475795603E+03 -0.92009052972E+02  0.93708918442E+03  0.10100000352E+00 0. -1.
</event>
<event>
 5   0  0.9370269E-06  0.2012206E+04  0.7818609E-02  0.8600935E-01
        1   -1    0    0  501    0  0.00000000000E+00  0.00000000000E+00  0.10687774416E+04  0.10687774416E+04  0.50400001928E-02 0.  1.
       -1   -1    0    0    0  501  0.00000000000E+00  0.00000000000E+00 -0.94710388307E+03  0.94710388308E+03  0.50400001928E-02 0. -1.
    10030    2    1    2    0    0  0.00000000000E+00  0.00000000000E+00  0.12167355849E+03  0.20158813247E+04  0.20122060183E+04 0.  0.
        4    1    3    3  502    0  0.88213810267E+03 -0.89935319147E+02  0.53708455150E+03  0.10366857876E+04  0.12699999809E+01 0.  1.
       -4    1    3    3    0  502 -0.88213810267E+03  0.89935319147E+02 -0.41541099301E+03  0.97919553707E+03  0.12699999809E+01 0. -1.
</event>
<event>
 5   0  0.9220260E-06  0.2004785E+04  0.7818609E-02  0.8604387E-01
       -1   -1    0    0    0  501  0.00000000000E+00  0.00000000000E+00  0.11080840416E+04  0.11080840416E+04  0.50400001928E-02 0. -1.
        1   -1    0    0  501    0  0.00000000000E+00  0.00000000000E+00 -0.90678231602E+03  0.90678231604E+03  0.50400001928E-02 0.  1.
    10030    2    1    2    0    0  0.00000000000E+00  0.00000000000E+00  0.20130172557E+03  0.20148663576E+04  0.20047852889E+04 0.  0.
        3    1    3    3  502    0  0.57662358452E+02  0.36110945489E+03 -0.83735146086E+03  0.91371902968E+03  0.10100000352E+00 0.  1.
       -3    1    3    3    0  502 -0.57662358452E+02 -0.36110945489E+03  0.10386531864E+04  0.11011473280E+04  0.10100000352E+00 0. -1.
</event>
<event>
 5   0  0.9342635E-06  0.1997626E+04  0.7818609E-02  0.8607731E-01
        1   -1    0    0  501    0  0.00000000000E+00  0.00000000000E+00  0.91270353621E+03  0.91270353622E+03  0.50400001928E-02 0.  1.
       -1   -1    0    0    0  501  0.00000000000E+00  0.00000000000E+00 -0.10930468960E+04  0.10930468960E+04  0.50400001928E-02 0. -1.
    10030    2    1    2    0    0  0.00000000000E+00  0.00000000000E+00 -0.18034335981E+03  0.20057504322E+04  0.19976263587E+04 0.  0.
        5    1    3    3  502    0  0.86423995466E+03 -0.19554981713E+03  0.37263153299E+03  0.96126311673E+03  0.46999998093E+01 0.  1.
       -5    1    3    3    0  502 -0.86423995466E+03  0.19554981713E+03 -0.55297489280E+03  0.10444873155E+04  0.46999998093E+01 0. -1.
</event>
<event>
 5   0  0.9342635E-06  0.2000676E+04  0.7818609E-02  0.8606305E-01
        1   -1    0    0  501    0  0.00000000000E+00  0.00000000000E+00  0.92406836854E+03  0.92406836855E+03  0.50400001928E-02 0.  1.
       -1   -1    0    0    0  501  0.00000000000E+00  0.00000000000E+00 -0.10829029678E+04  0.10829029678E+04  0.50400001928E-02 0. -1.
    10030    2    1    2    0    0  0.00000000000E+00  0.00000000000E+00 -0.15883459924E+03  0.20069713364E+04  0.20006762644E+04 0.  0.
        5    1    3    3  502    0 -0.50000567003E+03  0.45869346134E+03 -0.81674628463E+03  0.10618389449E+04  0.46999998093E+01 0. -1.
       -5    1    3    3    0  502  0.50000567003E+03 -0.45869346134E+03  0.65791168539E+03  0.94513239141E+03  0.46999998093E+01 0.  1.
</event>
<event>
 5   0  0.1979765E-05  0.2001821E+04  0.7818609E-02  0.8605770E-01
        2   -1    0    0  501    0  0.00000000000E+00  0.00000000000E+00  0.14020435502E+04  0.14020435502E+04  0.25500000920E-02 0.  1.
       -2   -1    0    0    0  501  0.00000000000E+00  0.00000000000E+00 -0.71454383885E+03  0.71454383886E+03  0.25500000920E-02 0. -1.
    10030    2    1    2    0    0  0.00000000000E+00  0.00000000000E+00  0.68749971137E+03  0.21165873891E+04  0.20018207518E+04 0.  0.
        2    1    3    3  502    0  0.67824567330E+03 -0.39649918212E+03 -0.31195980754E+03  0.84530924299E+03  0.25500000920E-02 0. -1.
       -2    1    3    3    0  502 -0.67824567330E+03  0.39649918212E+03  0.99945951891E+03  0.12712781461E+04  0.25500000920E-02 0.  1.
</event>
<event>
 5   0  0.1979765E-05  0.1999581E+04  0.7818609E-02  0.8606817E-01
       -2   -1    0    0    0  501  0.00000000000E+00  0.00000000000E+00  0.67438659068E+03  0.67438659068E+03  0.25500000920E-02 0.  1.
        2   -1    0    0  501    0  0.00000000000E+00  0.00000000000E+00 -0.14822076871E+04  0.14822076871E+04  0.25500000920E-02 0. -1.
    10030    2    1    2    0    0  0.00000000000E+00  0.00000000000E+00 -0.80782109646E+03  0.21565942778E+04  0.19995809449E+04 0.  0.
        2    1    3    3  502    0  0.76793456246E+03  0.50712460905E+03 -0.82533871648E+03  0.12361564862E+04  0.25500000920E-02 0. -1.
       -2    1    3    3    0  502 -0.76793456246E+03 -0.50712460905E+03  0.17517620024E+02  0.92043779167E+03  0.25500000920E-02 0.  1.
</event>
<event>
 5   0  0.9220260E-06  0.2000761E+04  0.7818609E-02  0.8606265E-01
       -1   -1    0    0    0  501  0.00000000000E+00  0.00000000000E+00  0.72421590463E+03  0.72421590465E+03  0.50400001928E-02 0. -1.
        1   -1    0    0  501    0  0.00000000000E+00  0.00000000000E+00 -0.13818546585E+04  0.13818546585E+04  0.50400001928E-02 0.  1.
    10030    2    1    2    0    0  0.00000000000E+00  0.00000000000E+00 -0.65763875386E+03  0.21060705632E+04  0.20007609768E+04 0.  0.
        3    1    3    3  502    0  0.57955880341E+03  0.62208690627E+03  0.22607051371E+03  0.87976611263E+03  0.10100000352E+00 0. -1.
       -3    1    3    3    0  502 -0.57955880341E+03 -0.62208690627E+03 -0.88370926757E+03  0.12263044505E+04  0.10100000352E+00 0.  1.
</event>
<event>
 5   0  0.9140695E-06  0.2000852E+04  0.7818609E-02  0.8606222E-01
       -1   -1    0    0    0  501  0.00000000000E+00  0.00000000000E+00  0.96011327993E+03  0.96011327994E+03  0.50400001928E-02 0. -1.
        1   -1    0    0  501    0  0.00000000000E+00  0.00000000000E+00 -0.10424318367E+04  0.10424318367E+04  0.50400001928E-02 0.  1.
    10030    2    1    2    0    0  0.00000000000E+00  0.00000000000E+00 -0.82318556738E+02  0.20025451166E+04  0.20008524682E+04 0.  0.
        1    1    3    3  502    0 -0.91902343221E+02 -0.99615866732E+03 -0.32519557597E+02  0.10009174056E+04  0.50400001928E-02 0.  1.
       -1    1    3    3    0  502  0.91902343221E+02  0.99615866732E+03 -0.49798999140E+02  0.10016277110E+04  0.50400001928E-02 0. -1.
</event>
<event>
 5   0  0.1999142E-05  0.1995807E+04  0.7818609E-02  0.8608584E-01
       -2   -1    0    0    0  501  0.00000000000E+00  0.00000000000E+00  0.75625317866E+03  0.75625317867E+03  0.25500000920E-02 0. -1.
        2   -1    0    0  501    0  0.00000000000E+00  0.00000000000E+00 -0.13167692847E+04  0.13167692847E+04  0.25500000920E-02 0.  1.
    10030    2    1    2    0    0  0.00000000000E+00  0.00000000000E+00 -0.56051610608E+03  0.20730224634E+04  0.19958065609E+04 0.  0.
        1    1    3    3  502    0 -0.37734941791E+03 -0.40570332922E+03 -0.11423219150E+04  0.12696011705E+04  0.50400001928E-02 0.  1.
       -1    1    3    3    0  502  0.37734941791E+03  0.40570332922E+03  0.58180580895E+03  0.80342129291E+03  0.50400001928E-02 0. -1.
</event>
<event>
 5   0  0.2020029E-05  0.1998482E+04  0.7818609E-02  0.8607331E-01
        2   -1    0    0  501    0  0.00000000000E+00  0.00000000000E+00  0.16971984453E+04  0.16971984453E+04  0.25500000920E-02 0.  1.
       -2   -1    0    0    0  501  0.00000000000E+00  0.00000000000E+00 -0.58831239287E+03  0.58831239288E+03  0.25500000920E-02 0. -1.
    10030    2    1    2    0    0  0.00000000000E+00  0.00000000000E+00  0.11088860524E+04  0.22855108382E+04  0.19984823027E+04 0.  0.
        5    1    3    3  502    0 -0.46839969721E+02  0.51831251197E+02  0.16943895283E+04  0.16958356126E+04  0.46999998093E+01 0.  1.
       -5    1    3    3    0  502  0.46839969721E+02 -0.51831251197E+02 -0.58550347589E+03  0.58967522556E+03  0.46999998093E+01 0. -1.
</event>
<event>
 5   0  0.9333353E-06  0.1999762E+04  0.7818609E-02  0.8606732E-01
        1   -1    0    0  501    0  0.00000000000E+00  0.00000000000E+00  0.20646164309E+04  0.20646164309E+04  0.50400001928E-02 0. -1.
       -1   -1    0    0    0  501  0.00000000000E+00  0.00000000000E+00 -0.48423634532E+03  0.48423634535E+03  0.50400001928E-02 0.  1.
    10030    2    1    2    0    0  0.00000000000E+00  0.00000000000E+00  0.15803800856E+04  0.25488527762E+04  0.19997623009E+04 0.  0.
        2    1    3    3  502    0  0.75270002566E+02 -0.40318937805E+03  0.19524590536E+04  0.19950748367E+04  0.25500000920E-02 0. -1.
       -2    1    3    3    0  502 -0.75270002566E+02  0.40318937805E+03 -0.37207896806E+03  0.55377793956E+03  0.25500000920E-02 0.  1.
</event>
<event>
 5   0  0.9333353E-06  0.1996861E+04  0.7818609E-02  0.8608090E-01
       -1   -1    0    0    0  501  0.00000000000E+00  0.00000000000E+00  0.77052141677E+03  0.77052141679E+03  0.50400001928E-02 0. -1.
        1   -1    0    0  501    0  0.00000000000E+00  0.00000000000E+00 -0.12937515801E+04  0.12937515801E+04  0.50400001928E-02 0.  1.
    10030    2    1    2    0    0  0.00000000000E+00  0.00000000000E+00 -0.52323016331E+03  0.20642729969E+04  0.19968608369E+04 0.  0.
        2    1    3    3  502    0  0.64272064548E+03  0.23312802188E+03 -0.10137945448E+04  0.12227910213E+04  0.25500000920E-02 0.  1.
       -2    1    3    3    0  502 -0.64272064548E+03 -0.23312802188E+03  0.49056438154E+03  0.84148197553E+03  0.25500000920E-02 0. -1.
</event>
<event>
 5   0  0.9220260E-06  0.1986690E+04  0.7818609E-02  0.8612869E-01
       -1   -1    0    0    0  501  0.00000000000E+00  0.00000000000E+00  0.63806920885E+03  0.63806920887E+03  0.50400001928E-02 0. -1.
        1   -1    0    0  501    0  0.00000000000E+00  0.00000000000E+00 -0.15464381957E+04  0.15464381957E+04  0.50400001928E-02 0.  1.
    10030    2    1    2    0    0  0.00000000000E+00  0.00000000000E+00 -0.90836898686E+03  0.21845074046E+04  0.19866903091E+04 0.  0.
        3    1    3    3  502    0  0.73759999364E+03  0.43488878553E+03  0.99493630101E+02  0.86202146089E+03  0.10100000352E+00 0. -1.
       -3    1    3    3    0  502 -0.73759999364E+03 -0.43488878553E+03 -0.10078626170E+04  0.13224859437E+04  0.10100000352E+00 0.  1.
</event>
<event>
 5   0  0.2038882E-05  0.2009597E+04  0.7818609E-02  0.8602147E-01
       -2   -1    0    0    0  501  0.00000000000E+00  0.00000000000E+00  0.15586980280E+04  0.15586980280E+04  0.25500000920E-02 0. -1.
        2   -1    0    0  501    0  0.00000000000E+00  0.00000000000E+00 -0.64773283609E+03  0.64773283609E+03  0.25500000920E-02 0.  1.
    10030    2    1    2    0    0  0.00000000000E+00  0.00000000000E+00  0.91096519190E+03  0.22064308641E+04  0.20095968693E+04 0.  0.
        3    1    3    3  502    0  0.54846269927E+02 -0.32842997864E+03 -0.58539520818E+03  0.67347006181E+03  0.10100000352E+00 0.  1.
       -3    1    3    3    0  502 -0.54846269927E+02  0.32842997864E+03  0.14963604001E+04  0.15329608023E+04  0.10100000352E+00 0. -1.
</event>
<event>
 5   0  0.9342635E-06  0.2000981E+04  0.7818609E-02  0.8606162E-01
        1   -1    0    0  501    0  0.00000000000E+00  0.00000000000E+00  0.88008851278E+03  0.88008851280E+03  0.50400001928E-02 0. -1.
       -1   -1    0    0    0  501  0.00000000000E+00  0.00000000000E+00 -0.11373641632E+04  0.11373641633E+04  0.50400001928E-02 0.  1.
    10030    2    1    2    0    0  0.00000000000E+00  0.00000000000E+00 -0.25727565046E+03  0.20174526761E+04  0.20009808944E+04 0.  0.
        5    1    3    3  502    0  0.23265090057E+03 -0.43163826934E+03  0.75061955372E+03  0.89659904167E+03  0.46999998093E+01 0. -1.
       -5    1    3    3    0  502 -0.23265090057E+03  0.43163826934E+03 -0.10078952042E+04  0.11208536344E+04  0.46999998093E+01 0.  1.
</event>
<event>
 5   0  0.9333353E-06  0.1998856E+04  0.7818609E-02  0.8607156E-01
       -1   -1    0    0    0  501  0.00000000000E+00  0.00000000000E+00  0.59944441078E+03  0.59944441080E+03  0.50400001928E-02 0.  1.
        1   -1    0    0  501    0  0.00000000000E+00  0.00000000000E+00 -0.16663039514E+04  0.16663039514E+04  0.50400001928E-02 0. -1.
    10030    2    1    2    0    0  0.00000000000E+00  0.00000000000E+00 -0.10668595406E+04  0.22657483622E+04  0.19988562633E+04 0.  0.
        2    1    3    3  502    0  0.81284906843E+03 -0.19549752887E+03 -0.11541962541E+04  0.14251708266E+04  0.25500000920E-02 0. -1.
       -2    1    3    3    0  502 -0.81284906843E+03  0.19549752887E+03  0.87336713526E+02  0.84057753561E+03  0.25500000920E-02 0.  1.
</event>
<event>
 5   0  0.2038882E-05  0.1999350E+04  0.7818609E-02  0.8606925E-01
        2   -1    0    0  501    0  0.00000000000E+00  0.00000000000E+00  0.48095182483E+03  0.48095182483E+03  0.25500000920E-02 0. -1.
       -2   -1    0    0    0  501  0.00000000000E+00  0.00000000000E+00 -0.20778594157E+04  0.20778594157E+04  0.25500000920E-02 0.  1.
    10030    2    1    2    0    0  0.00000000000E+00  0.00000000000E+00 -0.15969075909E+04  0.25588112405E+04  0.19993501722E+04 0.  0.
        3    1    3    3  502    0  0.84379936550E+03  0.29699297086E+02 -0.11345532171E+03  0.85191052211E+03  0.10100000352E+00 0. -1.
       -3    1    3    3    0  502 -0.84379936550E+03 -0.29699297086E+02 -0.14834522692E+04  0.17069007184E+04  0.10100000352E+00 0.  1.
</event>
<event>
 5   0  0.2020029E-05  0.2004135E+04  0.7818609E-02  0.8604690E-01
        2   -1    0    0  501    0  0.00000000000E+00  0.00000000000E+00  0.13749435431E+04  0.13749435431E+04  0.25500000920E-02 0. -1.
       -2   -1    0    0    0  501  0.00000000000E+00  0.00000000000E+00 -0.73031341590E+03  0.73031341591E+03  0.25500000920E-02 0.  1.
    10030    2    1    2    0    0  0.00000000000E+00  0.00000000000E+00  0.64463012719E+03  0.21052569590E+04  0.20041354402E+04 0.  0.
        5    1    3    3  502    0 -0.38754656907E+03 -0.24744940641E+02  0.12926735695E+04  0.13497524597E+04  0.46999998093E+01 0. -1.
       -5    1    3    3    0  502  0.38754656907E+03  0.24744940641E+02 -0.64804344231E+03  0.75550449926E+03  0.46999998093E+01 0.  1.
</event>
<event>
 5   0  0.2020029E-05  0.1999783E+04  0.7818609E-02  0.8606722E-01
       -2   -1    0    0    0  501  0.00000000000E+00  0.00000000000E+00  0.63080047725E+03  0.63080047725E+03  0.25500000920E-02 0. -1.
        2   -1    0    0  501    0  0.00000000000E+00  0.00000000000E+00 -0.15849433494E+04  0.15849433494E+04  0.25500000920E-02 0.  1.
    10030    2    1    2    0    0  0.00000000000E+00  0.00000000000E+00 -0.95414287211E+03  0.22157438266E+04  0.19997830094E+04 0.  0.
        5    1    3    3  502    0 -0.24415393024E+03  0.14210206179E+02  0.59713699186E+03  0.64529663617E+03  0.46999998093E+01 0. -1.
       -5    1    3    3    0  502  0.24415393024E+03 -0.14210206179E+02 -0.15512798640E+04  0.15704471904E+04  0.46999998093E+01 0.  1.
</event>
<event>
 5   0  0.2020029E-05  0.1998879E+04  0.7818609E-02  0.8607145E-01
       -2   -1    0    0    0  501  0.00000000000E+00  0.00000000000E+00  0.73357395512E+03  0.73357395513E+03  0.25500000920E-02 0. -1.
        2   -1    0    0  501    0  0.00000000000E+00  0.00000000000E+00 -0.13616612688E+04  0.13616612688E+04  0.25500000920E-02 0.  1.
    10030    2    1    2    0    0  0.00000000000E+00  0.00000000000E+00 -0.62808731368E+03  0.20952352239E+04  0.19988789283E+04 0.  0.
        5    1    3    3  502    0 -0.38137186513E+03  0.11178589881E+03 -0.12752635512E+04  0.13357618807E+04  0.46999998093E+01 0.  1.
       -5    1    3    3    0  502  0.38137186513E+03 -0.11178589881E+03  0.64717623756E+03  0.75947334328E+03  0.46999998093E+01 0. -1.
</event>
<event>
 5   0  0.1979765E-05  0.2000643E+04  0.7818609E-02  0.8606320E-01
        2   -1    0    0  501    0  0.00000000000E+00  0.00000000000E+00  0.10275087453E+04  0.10275087453E+04  0.25500000920E-02 0.  1.
       -2   -1    0    0    0  501  0.00000000000E+00  0.00000000000E+00 -0.97385320782E+03  0.97385320782E+03  0.25500000920E-02 0. -1.
    10030    2    1    2    0    0  0.00000000000E+00  0.00000000000E+00  0.53655537460E+02  0.20013619531E+04  0.20006425844E+04 0.  0.
        2    1    3    3  502    0  0.21232246497E+03  0.10628106666E+03  0.99891077590E+03  0.10267420477E+04  0.25500000920E-02 0.  1.
       -2    1    3    3    0  502 -0.21232246497E+03 -0.10628106666E+03 -0.94525523844E+03  0.97461990543E+03  0.25500000920E-02 0. -1.
</event>
<event>
 5   0  0.2003576E-05  0.2001632E+04  0.7818609E-02  0.8605858E-01
        2   -1    0    0  501    0  0.00000000000E+00  0.00000000000E+00  0.21012515292E+04  0.21012515292E+04  0.25500000920E-02 0. -1.
       -2   -1    0    0    0  501  0.00000000000E+00  0.00000000000E+00 -0.47668407518E+03  0.47668407519E+03  0.25500000920E-02 0.  1.
    10030    2    1    2    0    0  0.00000000000E+00  0.00000000000E+00  0.16245674541E+04  0.25779356044E+04  0.20016324757E+04 0.  0.
        4    1    3    3  502    0  0.15190175316E+03  0.96685696812E+03  0.54291207794E+03  0.11192147590E+04  0.12699999809E+01 0.  1.
       -4    1    3    3    0  502 -0.15190175316E+03 -0.96685696812E+03  0.10816553761E+04  0.14587208455E+04  0.12699999809E+01 0. -1.
</event>
<event>
 5   0  0.2038882E-05  0.1999454E+04  0.7818609E-02  0.8606876E-01
        2   -1    0    0  501    0  0.00000000000E+00  0.00000000000E+00  0.14459303133E+04  0.14459303133E+04  0.25500000920E-02 0.  1.
       -2   -1    0    0    0  501  0.00000000000E+00  0.00000000000E+00 -0.69121873882E+03  0.69121873883E+03  0.25500000920E-02 0. -1.
    10030    2    1    2    0    0  0.00000000000E+00  0.00000000000E+00  0.75471157444E+03  0.21371490521E+04  0.19994540530E+04 0.  0.
        3    1    3    3  502    0  0.67662046801E+03  0.40837086810E+03  0.10317884091E+04  0.12996804819E+04  0.10100000352E+00 0.  1.
       -3    1    3    3    0  502 -0.67662046801E+03 -0.40837086810E+03 -0.27707683462E+03  0.83746857023E+03  0.10100000352E+00 0. -1.
</event>
<event>
 5   0  0.2020029E-05  0.2000543E+04  0.7818609E-02  0.8606367E-01
        2   -1    0    0  501    0  0.00000000000E+00  0.00000000000E+00  0.13820298299E+04  0.13820298299E+04  0.25500000920E-02 0. -1.
       -2   -1    0    0    0  501  0.00000000000E+00  0.00000000000E+00 -0.72396631429E+03  0.72396631430E+03  0.25500000920E-02 0.  1.
    10030    2    1    2    0    0  0.00000000000E+00  0.00000000000E+00  0.65806351558E+03  0.21059961442E+04  0.20005429685E+04 0.  0.
        5    1    3    3  502    0 -0.44494632203E+03  0.69550258280E+03 -0.26537314776E+03  0.86726355263E+03  0.46999998093E+01 0. -1.
       -5    1    3    3    0  502  0.44494632203E+03 -0.69550258280E+03  0.92343666334E+03  0.12387325915E+04  0.46999998093E+01 0.  1.
</event>
<event>
 5   0  0.1999142E-05  0.2001563E+04  0.7818609E-02  0.8605890E-01
        2   -1    0    0  501    0  0.00000000000E+00  0.00000000000E+00  0.19353362394E+04  0.19353362394E+04  0.25500000920E-02 0.  1.
       -2   -1    0    0    0  501  0.00000000000E+00  0.00000000000E+00 -0.51751386847E+03  0.51751386848E+03  0.25500000920E-02 0. -1.
    10030    2    1    2    0    0  0.00000000000E+00  0.00000000000E+00  0.14178223709E+04  0.24528501079E+04  0.20015627335E+04 0.  0.
        1    1    3    3  502    0  0.16726390383E+03 -0.97363021974E+03  0.51272028263E+03  0.11130207126E+04  0.50400001928E-02 0. -1.
       -1    1    3    3    0  502 -0.16726390383E+03  0.97363021974E+03  0.90510208829E+03  0.13398293953E+04  0.50400001928E-02 0.  1.
</event>
<event>
 5   0  0.7132000E-06  0.2003524E+04  0.7818609E-02  0.8604975E-01
       -3   -1    0    0    0  501  0.00000000000E+00  0.00000000000E+00  0.76313929628E+03  0.76313930297E+03  0.10100000352E+00 0. -1.
        3   -1    0    0  501    0  0.00000000000E+00  0.00000000000E+00 -0.13149979431E+04  0.13149979470E+04  0.10100000352E+00 0.  1.
    10030    2    1    2    0    0  0.00000000000E+00  0.00000000000E+00 -0.55185864683E+03  0.20781372500E+04  0.20035235121E+04 0.  0.
        4    1    3    3  502    0  0.18818780100E+03  0.73611771710E+03  0.40125582640E+03  0.85923907790E+03  0.12699999809E+01 0. -1.
       -4    1    3    3    0  502 -0.18818780100E+03 -0.73611771710E+03 -0.95311447322E+03  0.12188981721E+04  0.12699999809E+01 0.  1.
</event>
<event>
 5   0  0.1999142E-05  0.1981456E+04  0.7818609E-02  0.8615340E-01
       -2   -1    0    0    0  501  0.00000000000E+00  0.00000000000E+00  0.84328220227E+03  0.84328220227E+03  0.25500000920E-02 0. -1.
        2   -1    0    0  501    0  0.00000000000E+00  0.00000000000E+00 -0.11639546197E+04  0.11639546198E+04  0.25500000920E-02 0.  1.
    10030    2    1    2    0    0  0.00000000000E+00  0.00000000000E+00 -0.32067241748E+03  0.20072368220E+04  0.19814562474E+04 0.  0.
        1    1    3    3  502    0 -0.19161479109E+03 -0.97117618171E+03 -0.20139516691E+03  0.10101779137E+04  0.50400001928E-02 0. -1.
       -1    1    3    3    0  502  0.19161479109E+03  0.97117618171E+03 -0.11927725057E+03  0.99705890830E+03  0.50400001928E-02 0.  1.
</event>
<event>
 5   0  0.9333353E-06  0.1998881E+04  0.7818609E-02  0.8607144E-01
        1   -1    0    0  501    0  0.00000000000E+00  0.00000000000E+00  0.10672207069E+04  0.10672207069E+04  0.50400001928E-02 0. -1.
       -1   -1    0    0    0  501  0.00000000000E+00  0.00000000000E+00 -0.93596473853E+03  0.93596473855E+03  0.50400001928E-02 0.  1.
    10030    2    1    2    0    0  0.00000000000E+00  0.00000000000E+00  0.13125596834E+03  0.20031854454E+04  0.19988806366E+04 0.  0.
        2    1    3    3  502    0 -0.40912034111E+02 -0.25039498145E+03  0.10344101993E+04  0.10650708436E+04  0.25500000920E-02 0. -1.
       -2    1    3    3    0  502  0.40912034111E+02  0.25039498145E+03 -0.90315423100E+03  0.93811460188E+03  0.25500000920E-02 0.  1.
</event>
<event>
 5   0  0.2038882E-05  0.2003473E+04  0.7818609E-02  0.8604999E-01
       -2   -1    0    0    0  501  0.00000000000E+00  0.00000000000E+00  0.95041036097E+03  0.95041036098E+03  0.25500000920E-02 0. -1.
        2   -1    0    0  501    0  0.00000000000E+00  0.00000000000E+00 -0.10558347362E+04  0.10558347362E+04  0.25500000920E-02 0.  1.
    10030    2    1    2    0    0  0.00000000000E+00  0.00000000000E+00 -0.10542437520E+03  0.20062450972E+04  0.20034732569E+04 0.  0.
        3    1    3    3  502    0  0.46313402200E+03 -0.29271105161E+03  0.78707992461E+03  0.95899306567E+03  0.10100000352E+00 0. -1.
       -3    1    3    3    0  502 -0.46313402200E+03  0.29271105161E+03 -0.89250429981E+03  0.10472520315E+04  0.10100000352E+00 0.  1.
</event>
<event>
 5   0  0.9370269E-06  0.1999521E+04  0.7818609E-02  0.8606844E-01
       -1   -1    0    0    0  501  0.00000000000E+00  0.00000000000E+00  0.13550710936E+04  0.13550710936E+04  0.50400001928E-02 0.  1.
        1   -1    0    0  501    0  0.00000000000E+00  0.00000000000E+00 -0.73761551530E+03  0.73761551531E+03  0.50400001928E-02 0. -1.
    10030    2    1    2    0    0  0.00000000000E+00  0.00000000000E+00  0.61745557833E+03  0.20926866089E+04  0.19995214058E+04 0.  0.
        4    1    3    3  502    0 -0.42827726239E+03  0.82555740917E+03 -0.75178721112E+02  0.93307014866E+03  0.12699999809E+01 0. -1.
       -4    1    3    3    0  502  0.42827726239E+03 -0.82555740917E+03  0.69263429944E+03  0.11596164603E+04  0.12699999809E+01 0.  1.
</event>
<event>
 5   0  0.9140695E-06  0.2001505E+04  0.7818609E-02  0.8605917E-01
        1   -1    0    0  501    0  0.00000000000E+00  0.00000000000E+00  0.15769942650E+04  0.15769942650E+04  0.50400001928E-02 0. -1.
       -1   -1    0    0    0  501  0.00000000000E+00  0.00000000000E+00 -0.63507236103E+03  0.63507236105E+03  0.50400001928E-02 0.  1.
    10030    2    1    2    0    0  0.00000000000E+00  0.00000000000E+00  0.94192190401E+03  0.22120666261E+04  0.20015049051E+04 0.  0.
        1    1    3    3  502    0  0.46966241391E+02  0.97934591642E+03  0.24942046761E+03  0.10116989777E+04  0.50400001928E-02 0.  1.
       -1    1    3    3    0  502 -0.46966241391E+02 -0.97934591642E+03  0.69250143640E+03  0.12003676484E+04  0.50400001928E-02 0. -1.
</event>
<event>
 5   0  0.9342635E-06  0.2002991E+04  0.7818609E-02  0.8605223E-01
       -1   -1    0    0    0  501  0.00000000000E+00  0.00000000000E+00  0.40955747104E+03  0.40955747107E+03  0.50400001928E-02 0. -1.
        1   -1    0    0  501    0  0.00000000000E+00  0.00000000000E+00 -0.24489689184E+04  0.24489689184E+04  0.50400001928E-02 0.  1.
    10030    2    1    2    0    0  0.00000000000E+00  0.00000000000E+00 -0.20394114473E+04  0.28585263894E+04  0.20029912800E+04 0.  0.
        5    1    3    3  502    0  0.94100446645E+03  0.14667335327E+03 -0.14618138681E+04  0.17446846000E+04  0.46999998093E+01 0.  1.
       -5    1    3    3    0  502 -0.94100446645E+03 -0.14667335327E+03 -0.57759757923E+03  0.11138417895E+04  0.46999998093E+01 0. -1.
</event>
<event>
 5   0  0.2003576E-05  0.2000868E+04  0.7818609E-02  0.8606215E-01
       -2   -1    0    0    0  501  0.00000000000E+00  0.00000000000E+00  0.10169331529E+04  0.10169331529E+04  0.25500000920E-02 0. -1.
        2   -1    0    0  501    0  0.00000000000E+00  0.00000000000E+00 -0.98420226693E+03  0.98420226693E+03  0.25500000920E-02 0.  1.
    10030    2    1    2    0    0  0.00000000000E+00  0.00000000000E+00  0.32730885989E+02  0.20011354198E+04  0.20008677262E+04 0.  0.
        4    1    3    3  502    0  0.38000496945E+03  0.92544200095E+03  0.20796338461E+02  0.10006401823E+04  0.12699999809E+01 0.  1.
       -4    1    3    3    0  502 -0.38000496945E+03 -0.92544200095E+03  0.11934547528E+02  0.10004952375E+04  0.12699999809E+01 0. -1.
</event>
<event>
 5   0  0.9333353E-06  0.2003014E+04  0.7818609E-02  0.8605213E-01
       -1   -1    0    0    0  501  0.00000000000E+00  0.00000000000E+00  0.50526967139E+03  0.50526967141E+03  0.50400001928E-02 0. -1.
        1   -1    0    0  501    0  0.00000000000E+00  0.00000000000E+00 -0.19851114214E+04  0.19851114214E+04  0.50400001928E-02 0.  1.
    10030    2    1    2    0    0  0.00000000000E+00  0.00000000000E+00 -0.14798417500E+04  0.24903810928E+04  0.20030143241E+04 0.  0.
        2    1    3    3  502    0 -0.33702079638E+03 -0.81886786448E+03 -0.15822802857E+03  0.89953527207E+03  0.25500000920E-02 0. -1.
       -2    1    3    3    0  502  0.33702079638E+03  0.81886786448E+03 -0.13216137214E+04  0.15908458207E+04  0.25500000920E-02 0.  1.
</event>
<event>
 5   0  0.1979765E-05  0.2000447E+04  0.7818609E-02  0.8606411E-01
       -2   -1    0    0    0  501  0.00000000000E+00  0.00000000000E+00  0.43026535138E+03  0.43026535139E+03  0.25500000920E-02 0.  1.
        2   -1    0    0  501    0  0.00000000000E+00  0.00000000000E+00 -0.23251872373E+04  0.23251872373E+04  0.25500000920E-02 0. -1.
    10030    2    1    2    0    0  0.00000000000E+00  0.00000000000E+00 -0.18949218859E+04  0.27554525887E+04  0.20004474536E+04 0.  0.
        2    1    3    3  502    0 -0.51582564271E+03  0.68777102047E+02 -0.21240381894E+04  0.21868572458E+04  0.25500000920E-02 0. -1.
       -2    1    3    3    0  502  0.51582564271E+03 -0.68777102047E+02  0.22911630348E+03  0.56859534290E+03  0.25500000920E-02 0.  1.
</event>
<event>
 5   0  0.1999142E-05  0.1999116E+04  0.7818609E-02  0.8607034E-01
        2   -1    0    0  501    0  0.00000000000E+00  0.00000000000E+00  0.79629076329E+03  0.79629076329E+03  0.25500000920E-02 0. -1.
       -2   -1    0    0    0  501  0.00000000000E+00  0.00000000000E+00 -0.12547129045E+04  0.12547129045E+04  0.25500000920E-02 0.  1.
    10030    2    1    2    0    0  0.00000000000E+00  0.00000000000E+00 -0.45842214124E+03  0.20510036678E+04  0.19991161011E+04 0.  0.
        1    1    3    3  502    0 -0.38796989192E+03  0.57873251778E+03 -0.96451709663E+03  0.11898509125E+04  0.50400001928E-02 0.  1.
       -1    1    3    3    0  502  0.38796989192E+03 -0.57873251778E+03  0.50609495539E+03  0.86115275536E+03  0.50400001928E-02 0. -1.
</event>
<event>
 5   0  0.2020029E-05  0.2000043E+04  0.7818609E-02  0.8606601E-01
        2   -1    0    0  501    0  0.00000000000E+00  0.00000000000E+00  0.14911048197E+04  0.14911048197E+04  0.25500000920E-02 0.  1.
       -2   -1    0    0    0  501  0.00000000000E+00  0.00000000000E+00 -0.67067224923E+03  0.67067224924E+03  0.25500000920E-02 0. -1.
    10030    2    1    2    0    0  0.00000000000E+00  0.00000000000E+00  0.82043257043E+03  0.21617770689E+04  0.20000426228E+04 0.  0.
        5    1    3    3  502    0 -0.91129098156E+03 -0.22159818357E+03  0.78536152393E+03  0.12232627769E+04  0.46999998093E+01 0.  1.
       -5    1    3    3    0  502  0.91129098156E+03  0.22159818357E+03  0.35071046506E+02  0.93851429202E+03  0.46999998093E+01 0. -1.
</event>
<event>
 5   0  0.9333353E-06  0.2004583E+04  0.7818609E-02  0.8604481E-01
        1   -1    0    0  501    0  0.00000000000E+00  0.00000000000E+00  0.95597504693E+03  0.95597504694E+03  0.50400001928E-02 0. -1.
       -1   -1    0    0    0  501  0.00000000000E+00  0.00000000000E+00 -0.10508516476E+04  0.10508516476E+04  0.50400001928E-02 0.  1.
    10030    2    1    2    0    0  0.00000000000E+00  0.00000000000E+00 -0.94876600637E+02  0.20068266945E+04  0.20045827028E+04 0.  0.
        2    1    3    3  502    0 -0.63046340154E+03 -0.62847770289E+03  0.41364173798E+03  0.98161489960E+03  0.25500000920E-02 0. -1.
       -2    1    3    3    0  502  0.63046340154E+03  0.62847770289E+03 -0.50851833862E+03  0.10252117949E+04  0.25500000920E-02 0.  1.
</event>
<event>
 5   0  0.9370269E-06  0.2002508E+04  0.7818609E-02  0.8605449E-01
       -1   -1    0    0    0  501  0.00000000000E+00  0.00000000000E+00  0.41679423123E+03  0.41679423126E+03  0.50400001928E-02 0. -1.
        1   -1    0    0  501    0  0.00000000000E+00  0.00000000000E+00 -0.24052855656E+04  0.24052855656E+04  0.50400001928E-02 0.  1.
    10030    2    1    2    0    0  0.00000000000E+00  0.00000000000E+00 -0.19884913344E+04  0.28220797969E+04  0.20025075763E+04 0.  0.
        4    1    3    3  502    0  0.45438841707E+03  0.14540882290E+02 -0.22514461197E+04  0.22968873533E+04  0.12699999809E+01 0.  1.
       -4    1    3    3    0  502 -0.45438841707E+03 -0.14540882290E+02  0.26295478530E+03  0.52519244363E+03  0.12699999809E+01 0. -1.
</event>
<event>
 5   0  0.2003576E-05  0.2000765E+04  0.7818609E-02  0.8606263E-01
       -2   -1    0    0    0  501  0.00000000000E+00  0.00000000000E+00  0.63889071720E+03  0.63889071721E+03  0.25500000920E-02 0.  1.
        2   -1    0    0  501    0  0.00000000000E+00  0.00000000000E+00 -0.15664107713E+04  0.15664107713E+04  0.25500000920E-02 0. -1.
    10030    2    1    2    0    0  0.00000000000E+00  0.00000000000E+00 -0.92752005413E+03  0.22053014885E+04  0.20007651548E+04 0.  0.
        4    1    3    3  502    0  0.37509727842E+03 -0.91328554413E+03 -0.64140445792E+03  0.11773655953E+04  0.12699999809E+01 0. -1.
       -4    1    3    3    0  502 -0.37509727842E+03  0.91328554413E+03 -0.28611559621E+03  0.10279358933E+04  0.12699999809E+01 0.  1.
</event>
<event>
 5   0  0.2038882E-05  0.2000153E+04  0.7818609E-02  0.8606549E-01
        2   -1    0    0  501    0  0.00000000000E+00  0.00000000000E+00  0.99431341853E+03  0.99431341854E+03  0.25500000920E-02 0.  1.
       -2   -1    0    0    0  501  0.00000000000E+00  0.00000000000E+00 -0.10058732421E+04  0.10058732421E+04  0.25500000920E-02 0. -1.
    10030    2    1    2    0    0  0.00000000000E+00  0.00000000000E+00 -0.11559823569E+02  0.20001866606E+04  0.20001532561E+04 0.  0.
        3    1    3    3  502    0 -0.22535260999E+03  0.68316906836E+03 -0.70052130149E+03  0.10041084995E+04  0.10100000352E+00 0. -1.
       -3    1    3    3    0  502  0.22535260999E+03 -0.68316906836E+03  0.68896147792E+03  0.99607816111E+03  0.10100000352E+00 0.  1.
</event>
<event>
 5   0  0.9140695E-06  0.2002262E+04  0.7818609E-02  0.8605564E-01
        1   -1    0    0  501    0  0.00000000000E+00  0.00000000000E+00  0.14145347924E+04  0.14145347924E+04  0.50400001928E-02 0. -1.
       -1   -1    0    0    0  501  0.00000000000E+00  0.00000000000E+00 -0.70854650717E+03  0.70854650719E+03  0.50400001928E-02 0.  1.
    10030    2    1    2    0    0  0.00000000000E+00  0.00000000000E+00  0.70598828524E+03  0.21230812996E+04  0.20022624069E+04 0.  0.
        1    1    3    3  502    0  0.60711645926E+03  0.74079009255E+03  0.44030060875E+02  0.95880081488E+03  0.50400001928E-02 0.  1.
       -1    1    3    3    0  502 -0.60711645926E+03 -0.74079009255E+03  0.66195822437E+03  0.11642804847E+04  0.50400001928E-02 0. -1.
</event>
<event>
 5   0  0.9140695E-06  0.2001247E+04  0.7818609E-02  0.8606038E-01
       -1   -1    0    0    0  501  0.00000000000E+00  0.00000000000E+00  0.18765938068E+04  0.18765938068E+04  0.50400001928E-02 0. -1.
        1   -1    0    0  501    0  0.00000000000E+00  0.00000000000E+00 -0.53354481818E+03  0.53354481820E+03  0.50400001928E-02 0.  1.
    10030    2    1    2    0    0  0.00000000000E+00  0.00000000000E+00  0.13430489886E+04  0.24101386250E+04  0.20012465130E+04 0.  0.
        1    1    3    3  502    0  0.15407625883E+03  0.87226622285E+03  0.11095450166E+03  0.89269186090E+03  0.50400001928E-02 0.  1.
       -1    1    3    3    0  502 -0.15407625883E+03 -0.87226622285E+03  0.12320944869E+04  0.15174467641E+04  0.50400001928E-02 0. -1.
</event>
<event>
 5   0  0.9333353E-06  0.1999629E+04  0.7818609E-02  0.8606794E-01
       -1   -1    0    0    0  501  0.00000000000E+00  0.00000000000E+00  0.14072098926E+04  0.14072098926E+04  0.50400001928E-02 0.  1.
        1   -1    0    0  501    0  0.00000000000E+00  0.00000000000E+00 -0.71036272210E+03  0.71036272212E+03  0.50400001928E-02 0. -1.
    10030    2    1    2    0    0  0.00000000000E+00  0.00000000000E+00  0.69684717045E+03  0.21175726147E+04  0.19996294155E+04 0.  0.
        2    1    3    3  502    0 -0.79846209147E+03  0.18987434343E+03 -0.25625031247E+03  0.85980125637E+03  0.25500000920E-02 0. -1.
       -2    1    3    3    0  502  0.79846209147E+03 -0.18987434343E+03  0.95309748293E+03  0.12577713583E+04  0.25500000920E-02 0.  1.
</event>
<event>
 5   0  0.9333353E-06  0.1999376E+04  0.7818609E-02  0.8606912E-01
       -1   -1    0    0    0  501  0.00000000000E+00  0.00000000000E+00  0.11902622164E+04  0.11902622164E+04  0.50400001928E-02 0.  1.
        1   -1    0    0  501    0  0.00000000000E+00  0.00000000000E+00 -0.83962690078E+03  0.83962690079E+03  0.50400001928E-02 0. -1.
    10030    2    1    2    0    0  0.00000000000E+00  0.00000000000E+00  0.35063531565E+03  0.20298891172E+04  0.19993760786E+04 0.  0.
        2    1    3    3  502    0  0.18569816633E+03 -0.13079668966E+03  0.11637174508E+04  0.11856769747E+04  0.25500000920E-02 0.  1.
       -2    1    3    3    0  502 -0.18569816633E+03  0.13079668966E+03 -0.81308213518E+03  0.84421214251E+03  0.25500000920E-02 0. -1.
</event>
<event>
 5   0  0.2020029E-05  0.2016978E+04  0.7818609E-02  0.8598724E-01
       -2   -1    0    0    0  501  0.00000000000E+00  0.00000000000E+00  0.50186013065E+03  0.50186013065E+03  0.25500000920E-02 0. -1.
        2   -1    0    0  501    0  0.00000000000E+00  0.00000000000E+00 -0.20265614064E+04  0.20265614064E+04  0.25500000920E-02 0.  1.
    10030    2    1    2    0    0  0.00000000000E+00  0.00000000000E+00 -0.15247012758E+04  0.25284215371E+04  0.20169783065E+04 0.  0.
        5    1    3    3  502    0 -0.17829988195E+03  0.13170534033E+03  0.47092885608E+03  0.52051246101E+03  0.46999998093E+01 0. -1.
       -5    1    3    3    0  502  0.17829988195E+03 -0.13170534033E+03 -0.19956301319E+04  0.20079090761E+04  0.46999998093E+01 0.  1.
</event>
<event>
 5   0  0.9342635E-06  0.2001886E+04  0.7818609E-02  0.8605740E-01
       -1   -1    0    0    0  501  0.00000000000E+00  0.00000000000E+00  0.18952023909E+04  0.18952023909E+04  0.50400001928E-02 0.  1.
        1   -1    0    0  501    0  0.00000000000E+00  0.00000000000E+00 -0.52864356337E+03  0.52864356340E+03  0.50400001928E-02 0. -1.
    10030    2    1    2    0    0  0.00000000000E+00  0.00000000000E+00  0.13665588275E+04  0.24238459543E+04  0.20018856563E+04 0.  0.
        5    1    3    3  502    0  0.49868959297E+03 -0.70999265422E+03  0.78999312370E+02  0.87123123253E+03  0.46999998093E+01 0. -1.
       -5    1    3    3    0  502 -0.49868959297E+03  0.70999265422E+03  0.12875595151E+04  0.15526147217E+04  0.46999998093E+01 0.  1.
</event>
<event>
 5   0  0.9220260E-06  0.1999601E+04  0.7818609E-02  0.8606807E-01
        1   -1    0    0  501    0  0.00000000000E+00  0.00000000000E+00  0.15697473544E+04  0.15697473544E+04  0.50400001928E-02 0.  1.
       -1   -1    0    0    0  501  0.00000000000E+00  0.00000000000E+00 -0.63679103998E+03  0.63679104000E+03  0.50400001928E-02 0. -1.
    10030    2    1    2    0    0  0.00000000000E+00  0.00000000000E+00  0.93295631442E+03  0.22065383944E+04  0.19996010105E+04 0.  0.
        3    1    3    3  502    0 -0.94739514684E+01 -0.82478084270E+02  0.15659371712E+04  0.15681363539E+04  0.10100000352E+00 0.  1.
       -3    1    3    3    0  502  0.94739514684E+01  0.82478084270E+02 -0.63298085674E+03  0.63840204052E+03  0.10100000352E+00 0. -1.
</event>
<event>
 5   0  0.9342635E-06  0.1995299E+04  0.7818609E-02  0.8608821E-01
       -1   -1    0    0    0  501  0.00000000000E+00  0.00000000000E+00  0.55212496816E+03  0.55212496818E+03  0.50400001928E-02 0.  1.
        1   -1    0    0  501    0  0.00000000000E+00  0.00000000000E+00 -0.18026806555E+04  0.18026806555E+04  0.50400001928E-02 0. -1.
    10030    2    1    2    0    0  0.00000000000E+00  0.00000000000E+00 -0.12505556874E+04  0.23548056237E+04  0.19952994758E+04 0.  0.
        5    1    3    3  502    0  0.90660306520E+03 -0.20963822657E+03 -0.10498226388E+04  0.14028638447E+04  0.46999998093E+01 0. -1.
       -5    1    3    3    0  502 -0.90660306520E+03  0.20963822657E+03 -0.20073304861E+03  0.95194177904E+03  0.46999998093E+01 0.  1.
</event>
<event>
 5   0  0.9140695E-06  0.1991192E+04  0.7818609E-02  0.8610750E-01
        1   -1    0    0  501    0  0.00000000000E+00  0.00000000000E+00  0.12293171894E+04  0.12293171894E+04  0.50400001928E-02 0.  1.
       -1   -1    0    0    0  501  0.00000000000E+00  0.00000000000E+00 -0.80631041599E+03  0.80631041600E+03  0.50400001928E-02 0. -1.
    10030    2    1    2    0    0  0.00000000000E+00  0.00000000000E+00  0.42300677337E+03  0.20356276054E+04  0.19911918585E+04 0.  0.
        1    1    3    3  502    0 -0.48084907260E+03  0.64659538044E+03  0.80928289336E+03  0.11420333700E+04  0.50400001928E-02 0.  1.
       -1    1    3    3    0  502  0.48084907260E+03 -0.64659538044E+03 -0.38627611998E+03  0.89359423539E+03  0.50400001928E-02 0. -1.
</event>
<event>
 5   0  0.1979765E-05  0.1997566E+04  0.7818609E-02  0.8607759E-01
        2   -1    0    0  501    0  0.00000000000E+00  0.00000000000E+00  0.17922774046E+04  0.17922774046E+04  0.25500000920E-02 0. -1.
       -2   -1    0    0    0  501  0.00000000000E+00  0.00000000000E+00 -0.55659219307E+03  0.55659219308E+03  0.25500000920E-02 0.  1.
    10030    2    1    2    0    0  0.00000000000E+00  0.00000000000E+00  0.12356852115E+04  0.23488695977E+04  0.19975661303E+04 0.  0.
        2    1    3    3  502    0 -0.20116510081E+02  0.59707833487E+03  0.15590204193E+04  0.16695663748E+04  0.25500000920E-02 0. -1.
       -2    1    3    3    0  502  0.20116510081E+02 -0.59707833487E+03 -0.32333520783E+03  0.67930322285E+03  0.25500000920E-02 0.  1.
</event>
<event>
 5   0  0.1999142E-05  0.2009469E+04  0.7818609E-02  0.8602206E-01
        2   -1    0    0  501    0  0.00000000000E+00  0.00000000000E+00  0.11595357872E+04  0.11595357872E+04  0.25500000920E-02 0. -1.
       -2   -1    0    0    0  501  0.00000000000E+00  0.00000000000E+00 -0.87059996135E+03  0.87059996136E+03  0.25500000920E-02 0.  1.
    10030    2    1    2    0    0  0.00000000000E+00  0.00000000000E+00  0.28893582589E+03  0.20301357486E+04  0.20094693942E+04 0.  0.
        1    1    3    3  502    0  0.51293930827E+03  0.44365134301E+03  0.89341420091E+03  0.11216604578E+04  0.50400001928E-02 0. -1.
       -1    1    3    3    0  502 -0.51293930827E+03 -0.44365134301E+03 -0.60447837503E+03  0.90847529082E+03  0.50400001928E-02 0.  1.
</event>
<event>
 5   0  0.9342635E-06  0.1993981E+04  0.7818609E-02  0.8609440E-01
       -1   -1    0    0    0  501  0.00000000000E+00  0.00000000000E+00  0.52489127738E+03  0.52489127741E+03  0.50400001928E-02 0.  1.
        1   -1    0    0  501    0  0.00000000000E+00  0.00000000000E+00 -0.18937074927E+04  0.18937074927E+04  0.50400001928E-02 0. -1.
    10030    2    1    2    0    0  0.00000000000E+00  0.00000000000E+00 -0.13688162153E+04  0.24185987701E+04  0.19939814893E+04 0.  0.
        5    1    3    3  502    0  0.53929549627E+03 -0.76581209167E+03 -0.10986985604E+04  0.14437688211E+04  0.46999998093E+01 0. -1.
       -5    1    3    3    0  502 -0.53929549627E+03  0.76581209167E+03 -0.27011765487E+03  0.97482994902E+03  0.46999998093E+01 0.  1.
</event>
<event>
 5   0  0.9333353E-06  0.1999445E+04  0.7818609E-02  0.8606880E-01
       -1   -1    0    0    0  501  0.00000000000E+00  0.00000000000E+00  0.41887069063E+03  0.41887069066E+03  0.50400001928E-02 0. -1.
        1   -1    0    0  501    0  0.00000000000E+00  0.00000000000E+00 -0.23860473517E+04  0.23860473517E+04  0.50400001928E-02 0.  1.
    10030    2    1    2    0    0  0.00000000000E+00  0.00000000000E+00 -0.19671766611E+04  0.28049180424E+04  0.19994452252E+04 0.  0.
        2    1    3    3  502    0  0.50486111903E+03  0.32617267779E+03  0.13708623680E+03  0.61649493231E+03  0.25500000920E-02 0. -1.
       -2    1    3    3    0  502 -0.50486111903E+03 -0.32617267779E+03 -0.21042628979E+04  0.21884231101E+04  0.25500000920E-02 0.  1.
</event>
<event>
 5   0  0.9220260E-06  0.2000651E+04  0.7818609E-02  0.8606316E-01
       -1   -1    0    0    0  501  0.00000000000E+00  0.00000000000E+00  0.63977447039E+03  0.63977447041E+03  0.50400001928E-02 0. -1.
        1   -1    0    0  501    0  0.00000000000E+00  0.00000000000E+00 -0.15640681852E+04  0.15640681852E+04  0.50400001928E-02 0.  1.
    10030    2    1    2    0    0  0.00000000000E+00  0.00000000000E+00 -0.92429371477E+03  0.22038426556E+04  0.20006507890E+04 0.  0.
        3    1    3    3  502    0 -0.33028864404E+02 -0.89118404135E+03  0.37033730509E+02  0.89256451243E+03  0.10100000352E+00 0.  1.
       -3    1    3    3    0  502  0.33028864404E+02  0.89118404135E+03 -0.96132744528E+03  0.13112781431E+04  0.10100000352E+00 0. -1.
</event>
<event>
 5   0  0.1979765E-05  0.1999337E+04  0.7818609E-02  0.8606931E-01
        2   -1    0    0  501    0  0.00000000000E+00  0.00000000000E+00  0.19386190175E+04  0.19386190175E+04  0.25500000920E-02 0. -1.
       -2   -1    0    0    0  501  0.00000000000E+00  0.00000000000E+00 -0.51548921507E+03  0.51548921508E+03  0.25500000920E-02 0.  1.
    10030    2    1    2    0    0  0.00000000000E+00  0.00000000000E+00  0.14231298025E+04  0.24541082326E+04  0.19993370858E+04 0.  0.
        2    1    3    3  502    0 -0.63526211228E+03  0.36082886490E+03  0.15491051299E+04  0.17127411143E+04  0.25500000920E-02 0. -1.
       -2    1    3    3    0  502  0.63526211228E+03 -0.36082886490E+03 -0.12597532742E+03  0.74136711835E+03  0.25500000920E-02 0.  1.
</event>
<event>
 5   0  0.1999142E-05  0.1997982E+04  0.7818609E-02  0.8607565E-01
        2   -1    0    0  501    0  0.00000000000E+00  0.00000000000E+00  0.76942110875E+03  0.76942110876E+03  0.25500000920E-02 0.  1.
       -2   -1    0    0    0  501  0.00000000000E+00  0.00000000000E+00 -0.12970566308E+04  0.12970566308E+04  0.25500000920E-02 0. -1.
    10030    2    1    2    0    0  0.00000000000E+00  0.00000000000E+00 -0.52763552205E+03  0.20664777396E+04  0.19979817326E+04 0.  0.
        1    1    3    3  502    0  0.29793899883E+03 -0.62057010988E+03 -0.10125896776E+04  0.12244234413E+04  0.50400001928E-02 0. -1.
       -1    1    3    3    0  502 -0.29793899883E+03  0.62057010988E+03  0.48495415554E+03  0.84205429831E+03  0.50400001928E-02 0.  1.
</event>
<event>
 5   0  0.9140695E-06  0.2012940E+04  0.7818609E-02  0.8600594E-01
       -1   -1    0    0    0  501  0.00000000000E+00  0.00000000000E+00  0.73444250160E+03  0.73444250161E+03  0.50400001928E-02 0.  1.
        1   -1    0    0  501    0  0.00000000000E+00  0.00000000000E+00 -0.13792531566E+04  0.13792531566E+04  0.50400001928E-02 0. -1.
    10030    2    1    2    0    0  0.00000000000E+00  0.00000000000E+00 -0.64481065500E+03  0.21136956582E+04  0.20129402760E+04 0.  0.
        1    1    3    3  502    0 -0.71778787082E+03 -0.49580334354E+03 -0.84946724963E+03  0.12176349992E+04  0.50400001928E-02 0. -1.
       -1    1    3    3    0  502  0.71778787082E+03  0.49580334354E+03  0.20465659463E+03  0.89606065906E+03  0.50400001928E-02 0.  1.
</event>
<event>
 5   0  0.1979765E-05  0.2000636E+04  0.7818609E-02  0.8606323E-01
       -2   -1    0    0    0  501  0.00000000000E+00  0.00000000000E+00  0.74307882622E+03  0.74307882623E+03  0.25500000920E-02 0.  1.
        2   -1    0    0  501    0  0.00000000000E+00  0.00000000000E+00 -0.13466084838E+04  0.13466084838E+04  0.25500000920E-02 0. -1.
    10030    2    1    2    0    0  0.00000000000E+00  0.00000000000E+00 -0.60352965762E+03  0.20896873101E+04  0.20006361504E+04 0.  0.
        2    1    3    3  502    0  0.56659034581E+03  0.97995323737E+02  0.55321007140E+03  0.79791546328E+03  0.25500000920E-02 0.  1.
       -2    1    3    3    0  502 -0.56659034581E+03 -0.97995323737E+02 -0.11567397290E+04  0.12917718468E+04  0.25500000920E-02 0. -1.
</event>
<event>
 5   0  0.9370269E-06  0.1997077E+04  0.7818609E-02  0.8607988E-01
        1   -1    0    0  501    0  0.00000000000E+00  0.00000000000E+00  0.16866899678E+04  0.16866899679E+04  0.50400001928E-02 0.  1.
       -1   -1    0    0    0  501  0.00000000000E+00  0.00000000000E+00 -0.59114544720E+03  0.59114544722E+03  0.50400001928E-02 0. -1.
    10030    2    1    2    0    0  0.00000000000E+00  0.00000000000E+00  0.10955445206E+04  0.22778354151E+04  0.19970769593E+04 0.  0.
        4    1    3    3  502    0 -0.15449817819E+03 -0.46736681118E+03  0.15386877060E+04  0.16155070080E+04  0.12699999809E+01 0.  1.
       -4    1    3    3    0  502  0.15449817819E+03  0.46736681118E+03 -0.44314318536E+03  0.66232840712E+03  0.12699999809E+01 0. -1.
</event>
<event>
 5   0  0.7132000E-06  0.1999142E+04  0.7818609E-02  0.8607022E-01
        3   -1    0    0  501    0  0.00000000000E+00  0.00000000000E+00  0.14436304860E+04  0.14436304896E+04  0.10100000352E+00 0. -1.
       -3   -1    0    0    0  501  0.00000000000E+00  0.00000000000E+00 -0.69210377454E+03  0.69210378191E+03  0.10100000352E+00 0.  1.
    10030    2    1    2    0    0  0.00000000000E+00  0.00000000000E+00  0.75152671148E+03  0.21357342715E+04  0.19991419360E+04 0.  0.
        5    1    3    3  502    0 -0.82039176035E+03  0.51209917928E+03  0.10585135054E+03  0.97288992608E+03  0.46999998093E+01 0.  1.
       -5    1    3    3    0  502  0.82039176035E+03 -0.51209917928E+03  0.64567536094E+03  0.11628443454E+04  0.46999998093E+01 0. -1.
</event>
<event>
 5   0  0.9220260E-06  0.2002001E+04  0.7818609E-02  0.8605686E-01
       -1   -1    0    0    0  501  0.00000000000E+00  0.00000000000E+00  0.59030883071E+03  0.59030883073E+03  0.50400001928E-02 0. -1.
        1   -1    0    0  501    0  0.00000000000E+00  0.00000000000E+00 -0.16974201176E+04  0.16974201176E+04  0.50400001928E-02 0.  1.
    10030    2    1    2    0    0  0.00000000000E+00  0.00000000000E+00 -0.11071112869E+04  0.22877289484E+04  0.20020010838E+04 0.  0.
        3    1    3    3  502    0  0.12502384694E+03 -0.63826205001E+02 -0.16861170040E+04  0.16919501494E+04  0.10100000352E+00 0.  1.
       -3    1    3    3    0  502 -0.12502384694E+03  0.63826205001E+02  0.57900571705E+03  0.59577879899E+03  0.10100000352E+00 0. -1.
</event>
<event>
 5   0  0.2020029E-05  0.1985622E+04  0.7818609E-02  0.8613373E-01
        2   -1    0    0  501    0  0.00000000000E+00  0.00000000000E+00  0.16724081168E+04  0.16724081168E+04  0.25500000920E-02 0. -1.
       -2   -1    0    0    0  501  0.00000000000E+00  0.00000000000E+00 -0.58937367340E+03  0.58937367341E+03  0.25500000920E-02 0.  1.
    10030    2    1    2    0    0  0.00000000000E+00  0.00000000000E+00  0.10830344434E+04  0.22617817902E+04  0.19856216309E+04 0.  0.
        5    1    3    3  502    0  0.64140449009E+03  0.14249120650E+03 -0.30627341110E+03  0.72493375986E+03  0.46999998093E+01 0.  1.
       -5    1    3    3    0  502 -0.64140449009E+03 -0.14249120650E+03  0.13893078545E+04  0.15368480304E+04  0.46999998093E+01 0. -1.
</event>
<event>
 5   0  0.1979765E-05  0.2002617E+04  0.7818609E-02  0.8605398E-01
       -2   -1    0    0    0  501  0.00000000000E+00  0.00000000000E+00  0.36132487156E+03  0.36132487157E+03  0.25500000920E-02 0. -1.
        2   -1    0    0  501    0  0.00000000000E+00  0.00000000000E+00 -0.27748387055E+04  0.27748387055E+04  0.25500000920E-02 0.  1.
    10030    2    1    2    0    0  0.00000000000E+00  0.00000000000E+00 -0.24135138339E+04  0.31361635771E+04  0.20026165273E+04 0.  0.
        2    1    3    3  502    0  0.48944595100E+03 -0.46102256877E+03 -0.44807820110E+02  0.67387453477E+03  0.25500000920E-02 0. -1.
       -2    1    3    3    0  502 -0.48944595100E+03  0.46102256877E+03 -0.23687060138E+04  0.24622890423E+04  0.25500000920E-02 0.  1.
</event>
<event>
 5   0  0.7132000E-06  0.1998010E+04  0.7818609E-02  0.8607551E-01
       -3   -1    0    0    0  501  0.00000000000E+00  0.00000000000E+00  0.57015775423E+03  0.57015776318E+03  0.10100000352E+00 0.  1.
        3   -1    0    0  501    0  0.00000000000E+00  0.00000000000E+00 -0.17504124694E+04  0.17504124723E+04  0.10100000352E+00 0. -1.
    10030    2    1    2    0    0  0.00000000000E+00  0.00000000000E+00 -0.11802547151E+04  0.23205702355E+04  0.19980102665E+04 0.  0.
        2    1    3    3  502    0  0.50728386282E+03  0.56966534388E+03 -0.13393742389E+04  0.15413561799E+04  0.25500000920E-02 0. -1.
       -2    1    3    3    0  502 -0.50728386282E+03 -0.56966534388E+03  0.15911952379E+03  0.77921405554E+03  0.25500000920E-02 0.  1.
</event>
<event>
 5   0  0.9342635E-06  0.2000451E+04  0.7818609E-02  0.8606410E-01
       -1   -1    0    0    0  501  0.00000000000E+00  0.00000000000E+00  0.13572217534E+04  0.13572217534E+04  0.50400001928E-02 0.  1.
        1   -1    0    0  501    0  0.00000000000E+00  0.00000000000E+00 -0.73713179644E+03  0.73713179646E+03  0.50400001928E-02 0. -1.
    10030    2    1    2    0    0  0.00000000000E+00  0.00000000000E+00  0.62008995699E+03  0.20943535499E+04  0.20004512584E+04 0.  0.
        5    1    3    3  502    0  0.94014878984E+03  0.53879206309E+01 -0.47329130725E+02  0.94136651382E+03  0.46999998093E+01 0. -1.
       -5    1    3    3    0  502 -0.94014878984E+03 -0.53879206309E+01  0.66741908771E+03  0.11529870361E+04  0.46999998093E+01 0.  1.
</event>
<event>
 5   0  0.9333353E-06  0.2003695E+04  0.7818609E-02  0.8604895E-01
        1   -1    0    0  501    0  0.00000000000E+00  0.00000000000E+00  0.11665697377E+04  0.11665697378E+04  0.50400001928E-02 0.  1.
       -1   -1    0    0    0  501  0.00000000000E+00  0.00000000000E+00 -0.86038466076E+03  0.86038466078E+03  0.50400001928E-02 0. -1.
    10030    2    1    2    0    0  0.00000000000E+00  0.00000000000E+00  0.30618507698E+03  0.20269543985E+04  0.20036952943E+04 0.  0.
        2    1    3    3  502    0  0.47370725520E+03  0.48801310644E+03  0.89725620835E+03  0.11258881202E+04  0.25500000920E-02 0.  1.
       -2    1    3    3    0  502 -0.47370725520E+03 -0.48801310644E+03 -0.59107113137E+03  0.90106627838E+03  0.25500000920E-02 0. -1.
</event>
<event>
 5   0  0.9140695E-06  0.1999987E+04  0.7818609E-02  0.8606627E-01
       -1   -1    0    0    0  501  0.00000000000E+00  0.00000000000E+00  0.22360117661E+04  0.22360117661E+04  0.50400001928E-02 0.  1.
        1   -1    0    0  501    0  0.00000000000E+00  0.00000000000E+00 -0.44721894583E+03  0.44721894586E+03  0.50400001928E-02 0. -1.
    10030    2    1    2    0    0  0.00000000000E+00  0.00000000000E+00  0.17887928203E+04  0.26832307120E+04  0.19999868249E+04 0.  0.
        1    1    3    3  502    0  0.87472105766E+03  0.43736247655E+03  0.11744199611E+04  0.15282948373E+04  0.50400001928E-02 0.  1.
       -1    1    3    3    0  502 -0.87472105766E+03 -0.43736247655E+03  0.61437285924E+03  0.11549358748E+04  0.50400001928E-02 0. -1.
</event>
<event>
 5   0  0.1979765E-05  0.1992524E+04  0.7818609E-02  0.8610124E-01
        2   -1    0    0  501    0  0.00000000000E+00  0.00000000000E+00  0.16834790563E+04  0.16834790563E+04  0.25500000920E-02 0.  1.
       -2   -1    0    0    0  501  0.00000000000E+00  0.00000000000E+00 -0.58957524126E+03  0.58957524127E+03  0.25500000920E-02 0. -1.
    10030    2    1    2    0    0  0.00000000000E+00  0.00000000000E+00  0.10939038150E+04  0.22730542976E+04  0.19925235966E+04 0.  0.
        2    1    3    3  502    0 -0.98446409693E+03 -0.14784512886E+03  0.50262469390E+03  0.11151947468E+04  0.25500000920E-02 0.  1.
       -2    1    3    3    0  502  0.98446409693E+03  0.14784512886E+03  0.59127912113E+03  0.11578595508E+04  0.25500000920E-02 0. -1.
</event>
<event>
 5   0  0.9140695E-06  0.2008130E+04  0.7818609E-02  0.8602829E-01
       -1   -1    0    0    0  501  0.00000000000E+00  0.00000000000E+00  0.14344104215E+04  0.14344104215E+04  0.50400001928E-02 0.  1.
        1   -1    0    0  501    0  0.00000000000E+00  0.00000000000E+00 -0.70282977439E+03  0.70282977441E+03  0.50400001928E-02 0. -1.
    10030    2    1    2    0    0  0.00000000000E+00  0.00000000000E+00  0.73158064708E+03  0.21372401959E+04  0.20081298294E+04 0.  0.
        1    1    3    3  502    0 -0.52152517615E+02 -0.29196481483E+03  0.13867266394E+04  0.14180881886E+04  0.50400001928E-02 0.  1.
       -1    1    3    3    0  502  0.52152517615E+02  0.29196481483E+03 -0.65514599236E+03  0.71915200724E+03  0.50400001928E-02 0. -1.
</event>
<event>
 5   0  0.2020029E-05  0.2001886E+04  0.7818609E-02  0.8605739E-01
        2   -1    0    0  501    0  0.00000000000E+00  0.00000000000E+00  0.24263019200E+04  0.24263019200E+04  0.25500000920E-02 0.  1.
       -2   -1    0    0    0  501  0.00000000000E+00  0.00000000000E+00 -0.41292769498E+03  0.41292769499E+03  0.25500000920E-02 0. -1.
    10030    2    1    2    0    0  0.00000000000E+00  0.00000000000E+00  0.20133742250E+04  0.28392296150E+04  0.20018863696E+04 0.  0.
        5    1    3    3  502    0  0.42348520922E+03 -0.54223443299E+03  0.20377533717E+04  0.21507716747E+04  0.46999998093E+01 0.  1.
       -5    1    3    3    0  502 -0.42348520922E+03  0.54223443299E+03 -0.24379146703E+02  0.68845794028E+03  0.46999998093E+01 0. -1.
</event>
<event>
 5   0  0.9220260E-06  0.1998729E+04  0.7818609E-02  0.8607215E-01
        1   -1    0    0  501    0  0.00000000000E+00  0.00000000000E+00  0.63082199134E+03  0.63082199136E+03  0.50400001928E-02 0. -1.
       -1   -1    0    0    0  501  0.00000000000E+00  0.00000000000E+00 -0.15832196654E+04  0.15832196654E+04  0.50400001928E-02 0.  1.
    10030    2    1    2    0    0  0.00000000000E+00  0.00000000000E+00 -0.95239767407E+03  0.22140416568E+04  0.19987293785E+04 0.  0.
        3    1    3    3  502    0 -0.84067965961E+03 -0.35955743310E+02 -0.10734408127E+04  0.13639319243E+04  0.10100000352E+00 0.  1.
       -3    1    3    3    0  502  0.84067965961E+03  0.35955743310E+02  0.12104313867E+03  0.85010973244E+03  0.10100000352E+00 0. -1.
</event>
<event>
 5   0  0.9342635E-06  0.1990852E+04  0.7818609E-02  0.8610910E-01
       -1   -1    0    0    0  501  0.00000000000E+00  0.00000000000E+00  0.12486038597E+04  0.12486038598E+04  0.50400001928E-02 0. -1.
        1   -1    0    0  501    0  0.00000000000E+00  0.00000000000E+00 -0.79358472498E+03  0.79358472499E+03  0.50400001928E-02 0.  1.
    10030    2    1    2    0    0  0.00000000000E+00  0.00000000000E+00  0.45501913477E+03  0.20421885847E+04  0.19908520293E+04 0.  0.
        5    1    3    3  502    0 -0.99207442909E+02  0.29999253724E+03 -0.74076591745E+03  0.80535326012E+03  0.46999998093E+01 0.  1.
       -5    1    3    3    0  502  0.99207442909E+02 -0.29999253724E+03  0.11957850522E+04  0.12368353246E+04  0.46999998093E+01 0. -1.
</event>
<event>
 5   0  0.9342635E-06  0.1997813E+04  0.7818609E-02  0.8607644E-01
        1   -1    0    0  501    0  0.00000000000E+00  0.00000000000E+00  0.15015299383E+04  0.15015299384E+04  0.50400001928E-02 0. -1.
       -1   -1    0    0    0  501  0.00000000000E+00  0.00000000000E+00 -0.66453159646E+03  0.66453159648E+03  0.50400001928E-02 0.  1.
    10030    2    1    2    0    0  0.00000000000E+00  0.00000000000E+00  0.83699834188E+03  0.21660615348E+04  0.19978128912E+04 0.  0.
        5    1    3    3  502    0 -0.38250377726E+03 -0.38510313655E+03  0.13276768180E+04  0.14343505110E+04  0.46999998093E+01 0. -1.
       -5    1    3    3    0  502  0.38250377726E+03  0.38510313655E+03 -0.49067847615E+03  0.73171102380E+03  0.46999998093E+01 0.  1.
</event>
<event>
 5   0  0.1979765E-05  0.1998530E+04  0.7818609E-02  0.8607308E-01
        2   -1    0    0  501    0  0.00000000000E+00  0.00000000000E+00  0.14306742926E+04  0.14306742926E+04  0.25500000920E-02 0.  1.
       -2   -1    0    0    0  501  0.00000000000E+00  0.00000000000E+00 -0.69794426305E+03  0.69794426305E+03  0.25500000920E-02 0. -1.
    10030    2    1    2    0    0  0.00000000000E+00  0.00000000000E+00  0.73273002959E+03  0.21286185557E+04  0.19985303749E+04 0.  0.
        2    1    3    3  502    0  0.78562051002E+03 -0.20110321835E+03  0.98822623166E+03  0.12783712978E+04  0.25500000920E-02 0.  1.
       -2    1    3    3    0  502 -0.78562051002E+03  0.20110321835E+03 -0.25549620207E+03  0.85024725785E+03  0.25500000920E-02 0. -1.
</event>
<event>
 5   0  0.9342635E-06  0.1997457E+04  0.7818609E-02  0.8607811E-01
        1   -1    0    0  501    0  0.00000000000E+00  0.00000000000E+00  0.98728272263E+03  0.98728272264E+03  0.50400001928E-02 0.  1.
       -1   -1    0    0    0  501  0.00000000000E+00  0.00000000000E+00 -0.10103065545E+04  0.10103065545E+04  0.50400001928E-02 0. -1.
    10030    2    1    2    0    0  0.00000000000E+00  0.00000000000E+00 -0.23023831856E+02  0.19975892771E+04  0.19974565886E+04 0.  0.
        5    1    3    3  502    0 -0.28606161790E+03  0.80604656406E+03 -0.52719508447E+03  0.10047383041E+04  0.46999998093E+01 0. -1.
       -5    1    3    3    0  502  0.28606161790E+03 -0.80604656406E+03  0.50417125261E+03  0.99285097302E+03  0.46999998093E+01 0.  1.
</event>
<event>
 5   0  0.9140695E-06  0.1998616E+04  0.7818609E-02  0.8607268E-01
       -1   -1    0    0    0  501  0.00000000000E+00  0.00000000000E+00  0.81794522817E+03  0.81794522818E+03  0.50400001928E-02 0.  1.
        1   -1    0    0  501    0  0.00000000000E+00  0.00000000000E+00 -0.12208842855E+04  0.12208842855E+04  0.50400001928E-02 0. -1.
    10030    2    1    2    0    0  0.00000000000E+00  0.00000000000E+00 -0.40293905735E+03  0.20388295137E+04  0.19986159966E+04 0.  0.
        1    1    3    3  502    0  0.54294396931E+03 -0.44878272282E+03  0.52160996440E+03  0.87651071933E+03  0.50400001928E-02 0.  1.
       -1    1    3    3    0  502 -0.54294396931E+03  0.44878272282E+03 -0.92454902175E+03  0.11623187944E+04  0.50400001928E-02 0. -1.
</event>
<event>
 5   0  0.1979765E-05  0.1997579E+04  0.7818609E-02  0.8607753E-01
       -2   -1    0    0    0  501  0.00000000000E+00  0.00000000000E+00  0.10912542255E+04  0.10912542255E+04  0.25500000920E-02 0. -1.
        2   -1    0    0  501    0  0.00000000000E+00  0.00000000000E+00 -0.91415944450E+03  0.91415944450E+03  0.25500000920E-02 0.  1.
    10030    2    1    2    0    0  0.00000000000E+00  0.00000000000E+00  0.17709478098E+03  0.20054136700E+04  0.19975788911E+04 0.  0.
        2    1    3    3  502    0  0.92672900121E+03  0.29711755368E+03  0.31409470135E+03  0.10226245468E+04  0.25500000920E-02 0. -1.
       -2    1    3    3    0  502 -0.92672900121E+03 -0.29711755368E+03 -0.13699992037E+03  0.98278912314E+03  0.25500000920E-02 0.  1.
</event>
<event>
 5   0  0.9333353E-06  0.1996497E+04  0.7818609E-02  0.8608260E-01
        1   -1    0    0  501    0  0.00000000000E+00  0.00000000000E+00  0.16719098484E+04  0.16719098484E+04  0.50400001928E-02 0. -1.
       -1   -1    0    0    0  501  0.00000000000E+00  0.00000000000E+00 -0.59602490279E+03  0.59602490281E+03  0.50400001928E-02 0.  1.
    10030    2    1    2    0    0  0.00000000000E+00  0.00000000000E+00  0.10758849456E+04  0.22679347512E+04  0.19964968369E+04 0.  0.
        2    1    3    3  502    0  0.94088345112E+03 -0.10730312011E+03  0.17921686771E+03  0.96379163404E+03  0.25500000920E-02 0.  1.
       -2    1    3    3    0  502 -0.94088345112E+03  0.10730312011E+03  0.89666807790E+03  0.13041431172E+04  0.25500000920E-02 0. -1.
</event>
<event>
 5   0  0.9333353E-06  0.1997016E+04  0.7818609E-02  0.8608017E-01
        1   -1    0    0  501    0  0.00000000000E+00  0.00000000000E+00  0.56321663658E+03  0.56321663660E+03  0.50400001928E-02 0. -1.
       -1   -1    0    0    0  501  0.00000000000E+00  0.00000000000E+00 -0.17702215810E+04  0.17702215810E+04  0.50400001928E-02 0.  1.
    10030    2    1    2    0    0  0.00000000000E+00  0.00000000000E+00 -0.12070049444E+04  0.23334382176E+04  0.19970160188E+04 0.  0.
        2    1    3    3  502    0 -0.34373013173E+03 -0.90092596744E+03 -0.30060184087E+03  0.10100393403E+04  0.25500000920E-02 0.  1.
       -2    1    3    3    0  502  0.34373013173E+03  0.90092596744E+03 -0.90640310355E+03  0.13233988773E+04  0.25500000920E-02 0. -1.
</event>
<event>
 5   0  0.9370269E-06  0.2000197E+04  0.7818609E-02  0.8606528E-01
        1   -1    0    0  501    0  0.00000000000E+00  0.00000000000E+00  0.12985124804E+04  0.12985124804E+04  0.50400001928E-02 0. -1.
       -1   -1    0    0    0  501  0.00000000000E+00  0.00000000000E+00 -0.77026400076E+03  0.77026400077E+03  0.50400001928E-02 0.  1.
    10030    2    1    2    0    0  0.00000000000E+00  0.00000000000E+00  0.52824847964E+03  0.20687764812E+04  0.20001974085E+04 0.  0.
        4    1    3    3  502    0 -0.69441562473E+03 -0.43554659262E+03 -0.32847922525E+03  0.88307084004E+03  0.12699999809E+01 0.  1.
       -4    1    3    3    0  502  0.69441562473E+03  0.43554659262E+03  0.85672770489E+03  0.11857056411E+04  0.12699999809E+01 0. -1.
</event>
<event>
 5   0  0.9370269E-06  0.2001754E+04  0.7818609E-02  0.8605801E-01
        1   -1    0    0  501    0  0.00000000000E+00  0.00000000000E+00  0.22317970532E+04  0.22317970532E+04  0.50400001928E-02 0. -1.
       -1   -1    0    0    0  501  0.00000000000E+00  0.00000000000E+00 -0.44885554486E+03  0.44885554489E+03  0.50400001928E-02 0.  1.
    10030    2    1    2    0    0  0.00000000000E+00  0.00000000000E+00  0.17829415083E+04  0.26806525981E+04  0.20017537135E+04 0.  0.
        4    1    3    3  502    0 -0.41409332757E+03 -0.39744726388E+03 -0.20656473173E+03  0.61000673177E+03  0.12699999809E+01 0.  1.
       -4    1    3    3    0  502  0.41409332757E+03  0.39744726388E+03  0.19895062400E+04  0.20706458663E+04  0.12699999809E+01 0. -1.
</event>
<event>
 5   0  0.9342635E-06  0.2001900E+04  0.7818609E-02  0.8605733E-01
        1   -1    0    0  501    0  0.00000000000E+00  0.00000000000E+00  0.82817212970E+03  0.82817212972E+03  0.50400001928E-02 0.  1.
       -1   -1    0    0    0  501  0.00000000000E+00  0.00000000000E+00 -0.12097742825E+04  0.12097742825E+04  0.50400001928E-02 0. -1.
    10030    2    1    2    0    0  0.00000000000E+00  0.00000000000E+00 -0.38160215279E+03  0.20379464122E+04  0.20019004411E+04 0.  0.
        5    1    3    3  502    0 -0.32105741051E+02 -0.70312010561E+03  0.53368059315E+03  0.88331519121E+03  0.46999998093E+01 0.  1.
       -5    1    3    3    0  502  0.32105741051E+02  0.70312010561E+03 -0.91528274594E+03  0.11546312210E+04  0.46999998093E+01 0. -1.
</event>
<event>
 5   0  0.9220260E-06  0.1997300E+04  0.7818609E-02  0.8607884E-01
        1   -1    0    0  501    0  0.00000000000E+00  0.00000000000E+00  0.81638226061E+03  0.81638226062E+03  0.50400001928E-02 0. -1.
       -1   -1    0    0    0  501  0.00000000000E+00  0.00000000000E+00 -0.12216113835E+04  0.12216113835E+04  0.50400001928E-02 0.  1.
    10030    2    1    2    0    0  0.00000000000E+00  0.00000000000E+00 -0.40522912288E+03  0.20379936441E+04  0.19973000404E+04 0.  0.
        3    1    3    3  502    0 -0.27016526718E+02 -0.88363886869E+03 -0.67657190229E+03  0.11132372129E+04  0.10100000352E+00 0.  1.
       -3    1    3    3    0  502  0.27016526718E+02  0.88363886869E+03  0.27134277941E+03  0.92475643124E+03  0.10100000352E+00 0. -1.
</event>
<event>
 5   0  0.2020029E-05  0.2003682E+04  0.7818609E-02  0.8604901E-01
       -2   -1    0    0    0  501  0.00000000000E+00  0.00000000000E+00  0.71020012161E+03  0.71020012161E+03  0.25500000920E-02 0.  1.
        2   -1    0    0  501    0  0.00000000000E+00  0.00000000000E+00 -0.14132430860E+04  0.14132430860E+04  0.25500000920E-02 0. -1.
    10030    2    1    2    0    0  0.00000000000E+00  0.00000000000E+00 -0.70304296436E+03  0.21234432076E+04  0.20036820222E+04 0.  0.
        5    1    3    3  502    0  0.14776783735E+03 -0.47254493435E+03  0.57147069738E+03  0.75613153400E+03  0.46999998093E+01 0.  1.
       -5    1    3    3    0  502 -0.14776783735E+03  0.47254493435E+03 -0.12745136617E+04  0.13673116736E+04  0.46999998093E+01 0. -1.
</event>
<event>
 5   0  0.9342635E-06  0.2000209E+04  0.7818609E-02  0.8606523E-01
        1   -1    0    0  501    0  0.00000000000E+00  0.00000000000E+00  0.22620158103E+04  0.22620158103E+04  0.50400001928E-02 0.  1.
       -1   -1    0    0    0  501  0.00000000000E+00  0.00000000000E+00 -0.44217614921E+03  0.44217614924E+03  0.50400001928E-02 0. -1.
    10030    2    1    2    0    0  0.00000000000E+00  0.00000000000E+00  0.18198396611E+04  0.27041919596E+04  0.20002094295E+04 0.  0.
        5    1    3    3  502    0  0.53289582192E+03 -0.84629089935E+03  0.91134239487E+03  0.13530533227E+04  0.46999998093E+01 0. -1.
       -5    1    3    3    0  502 -0.53289582192E+03  0.84629089935E+03  0.90849726626E+03  0.13511386369E+04  0.46999998093E+01 0.  1.
</event>
<event>
 5   0  0.1999142E-05  0.2006137E+04  0.7818609E-02  0.8603757E-01
        2   -1    0    0  501    0  0.00000000000E+00  0.00000000000E+00  0.22739053625E+04  0.22739053625E+04  0.25500000920E-02 0. -1.
       -2   -1    0    0    0  501  0.00000000000E+00  0.00000000000E+00 -0.44247513744E+03  0.44247513745E+03  0.25500000920E-02 0.  1.
    10030    2    1    2    0    0  0.00000000000E+00  0.00000000000E+00  0.18314302251E+04  0.27163805000E+04  0.20061371716E+04 0.  0.
        1    1    3    3  502    0 -0.42177370801E+03  0.88805186684E+03  0.11852239513E+04  0.15398977218E+04  0.50400001928E-02 0. -1.
       -1    1    3    3    0  502  0.42177370801E+03 -0.88805186684E+03  0.64620627383E+03  0.11764827782E+04  0.50400001928E-02 0.  1.
</event>
<event>
 5   0  0.9220260E-06  0.2008248E+04  0.7818609E-02  0.8602774E-01
        1   -1    0    0  501    0  0.00000000000E+00  0.00000000000E+00  0.15963087810E+04  0.15963087810E+04  0.50400001928E-02 0. -1.
       -1   -1    0    0    0  501  0.00000000000E+00  0.00000000000E+00 -0.63162267878E+03  0.63162267880E+03  0.50400001928E-02 0.  1.
    10030    2    1    2    0    0  0.00000000000E+00  0.00000000000E+00  0.96468610226E+03  0.22279314598E+04  0.20082478218E+04 0.  0.
        3    1    3    3  502    0 -0.67329162947E+02 -0.99992999865E+03  0.41331434136E+03  0.10840765533E+04  0.10100000352E+00 0.  1.
       -3    1    3    3    0  502  0.67329162947E+02  0.99992999865E+03  0.55137176090E+03  0.11438549066E+04  0.10100000352E+00 0. -1.
</event>
<event>
 5   0  0.9370269E-06  0.1996349E+04  0.7818609E-02  0.8608329E-01
        1   -1    0    0  501    0  0.00000000000E+00  0.00000000000E+00  0.21528126771E+04  0.21528126771E+04  0.50400001928E-02 0. -1.
       -1   -1    0    0    0  501  0.00000000000E+00  0.00000000000E+00 -0.46281432442E+03  0.46281432445E+03  0.50400001928E-02 0.  1.
    10030    2    1    2    0    0  0.00000000000E+00  0.00000000000E+00  0.16899983526E+04  0.26156270015E+04  0.19963492127E+04 0.  0.
        4    1    3    3  502    0  0.20931206589E+03  0.81936255653E+03  0.15023902005E+03  0.85891787501E+03  0.12699999809E+01 0.  1.
       -4    1    3    3    0  502 -0.20931206589E+03 -0.81936255653E+03  0.15397593326E+04  0.17567091265E+04  0.12699999809E+01 0. -1.
</event>
<event>
 5   0  0.1999142E-05  0.2005148E+04  0.7818609E-02  0.8604218E-01
        2   -1    0    0  501    0  0.00000000000E+00  0.00000000000E+00  0.14053543420E+04  0.14053543420E+04  0.25500000920E-02 0.  1.
       -2   -1    0    0    0  501  0.00000000000E+00  0.00000000000E+00 -0.71523218053E+03  0.71523218053E+03  0.25500000920E-02 0. -1.
    10030    2    1    2    0    0  0.00000000000E+00  0.00000000000E+00  0.69012216145E+03  0.21205865225E+04  0.20051480249E+04 0.  0.
        1    1    3    3  502    0  0.61941855431E+03  0.78420474897E+03  0.25980867318E+03  0.10325487787E+04  0.50400001928E-02 0. -1.
       -1    1    3    3    0  502 -0.61941855431E+03 -0.78420474897E+03  0.43031348827E+03  0.10880377438E+04  0.50400001928E-02 0.  1.
</event>
<event>
 5   0  0.2038882E-05  0.2000270E+04  0.7818609E-02  0.8606495E-01
        2   -1    0    0  501    0  0.00000000000E+00  0.00000000000E+00  0.76581739327E+03  0.76581739328E+03  0.25500000920E-02 0. -1.
       -2   -1    0    0    0  501  0.00000000000E+00  0.00000000000E+00 -0.13061465863E+04  0.13061465863E+04  0.25500000920E-02 0.  1.
    10030    2    1    2    0    0  0.00000000000E+00  0.00000000000E+00 -0.54032919303E+03  0.20719639796E+04  0.20002697558E+04 0.  0.
        3    1    3    3  502    0 -0.65639393136E+03  0.58799785347E+03 -0.76005918481E+03  0.11637372742E+04  0.10100000352E+00 0.  1.
       -3    1    3    3    0  502  0.65639393136E+03 -0.58799785347E+03  0.21972999178E+03  0.90822670535E+03  0.10100000352E+00 0. -1.
</event>
<event>
 5   0  0.1999142E-05  0.1998731E+04  0.7818609E-02  0.8607214E-01
        2   -1    0    0  501    0  0.00000000000E+00  0.00000000000E+00  0.18232307019E+04  0.18232307019E+04  0.25500000920E-02 0. -1.
       -2   -1    0    0    0  501  0.00000000000E+00  0.00000000000E+00 -0.54778098129E+03  0.54778098130E+03  0.25500000920E-02 0.  1.
    10030    2    1    2    0    0  0.00000000000E+00  0.00000000000E+00  0.12754497206E+04  0.23710116832E+04  0.19987307003E+04 0.  0.
        1    1    3    3  502    0  0.90685750113E+03 -0.41840152980E+03  0.68017793378E+03  0.12083428276E+04  0.50400001928E-02 0. -1.
       -1    1    3    3    0  502 -0.90685750113E+03  0.41840152980E+03  0.59527178685E+03  0.11626688556E+04  0.50400001928E-02 0.  1.
</event>
<event>
 5   0  0.2038882E-05  0.2001950E+04  0.7818609E-02  0.8605710E-01
        2   -1    0    0  501    0  0.00000000000E+00  0.00000000000E+00  0.10651109946E+04  0.10651109946E+04  0.25500000920E-02 0. -1.
       -2   -1    0    0    0  501  0.00000000000E+00  0.00000000000E+00 -0.94070069874E+03  0.94070069875E+03  0.25500000920E-02 0.  1.
    10030    2    1    2    0    0  0.00000000000E+00  0.00000000000E+00  0.12441029585E+03  0.20058116933E+04  0.20019497065E+04 0.  0.
        3    1    3    3  502    0  0.98362337904E+03  0.44238125880E+02  0.24277124122E+03  0.10141054429E+04  0.10100000352E+00 0. -1.
       -3    1    3    3    0  502 -0.98362337904E+03 -0.44238125880E+02 -0.11836094537E+03  0.99170625044E+03  0.10100000352E+00 0.  1.
</event>
<event>
 5   0  0.1979765E-05  0.2015282E+04  0.7818609E-02  0.8599509E-01
       -2   -1    0    0    0  501  0.00000000000E+00  0.00000000000E+00  0.55485057982E+03  0.55485057983E+03  0.25500000920E-02 0.  1.
        2   -1    0    0  501    0  0.00000000000E+00  0.00000000000E+00 -0.18299353495E+04  0.18299353495E+04  0.25500000920E-02 0. -1.
    10030    2    1    2    0    0  0.00000000000E+00  0.00000000000E+00 -0.12750847697E+04  0.23847859294E+04  0.20152823025E+04 0.  0.
        2    1    3    3  502    0 -0.15613350574E+02 -0.16406172766E+03  0.53879441929E+03  0.56343540310E+03  0.25500000920E-02 0.  1.
       -2    1    3    3    0  502  0.15613350574E+02  0.16406172766E+03 -0.18138791890E+04  0.18213505263E+04  0.25500000920E-02 0. -1.
</event>
<event>
 5   0  0.1999142E-05  0.2001981E+04  0.7818609E-02  0.8605695E-01
       -2   -1    0    0    0  501  0.00000000000E+00  0.00000000000E+00  0.11746149941E+04  0.11746149941E+04  0.25500000920E-02 0.  1.
        2   -1    0    0  501    0  0.00000000000E+00  0.00000000000E+00 -0.85303033241E+03  0.85303033241E+03  0.25500000920E-02 0. -1.
    10030    2    1    2    0    0  0.00000000000E+00  0.00000000000E+00  0.32158466168E+03  0.20276453265E+04  0.20019812375E+04 0.  0.
        1    1    3    3  502    0  0.67583590765E+03 -0.87940297346E+02  0.90333090554E+03  0.11315893225E+04  0.50400001928E-02 0.  1.
       -1    1    3    3    0  502 -0.67583590765E+03  0.87940297346E+02 -0.58174624386E+03  0.89605600396E+03  0.50400001928E-02 0. -1.
</event>
<event>
 5   0  0.9342635E-06  0.2004298E+04  0.7818609E-02  0.8604614E-01
        1   -1    0    0  501    0  0.00000000000E+00  0.00000000000E+00  0.11092072705E+04  0.11092072705E+04  0.50400001928E-02 0. -1.
       -1   -1    0    0    0  501  0.00000000000E+00  0.00000000000E+00 -0.90542368701E+03  0.90542368703E+03  0.50400001928E-02 0.  1.
    10030    2    1    2    0    0  0.00000000000E+00  0.00000000000E+00  0.20378358346E+03  0.20146309575E+04  0.20042979185E+04 0.  0.
        5    1    3    3  502    0  0.59868280974E+03  0.78569904888E+03 -0.67906140375E+02  0.99014010927E+03  0.46999998093E+01 0.  1.
       -5    1    3    3    0  502 -0.59868280974E+03 -0.78569904888E+03  0.27168972384E+03  0.10244908482E+04  0.46999998093E+01 0. -1.
</event>
<event>
 5   0  0.9342635E-06  0.2000783E+04  0.7818609E-02  0.8606255E-01
       -1   -1    0    0    0  501  0.00000000000E+00  0.00000000000E+00  0.12956723399E+04  0.12956723399E+04  0.50400001928E-02 0. -1.
        1   -1    0    0  501    0  0.00000000000E+00  0.00000000000E+00 -0.77240444658E+03  0.77240444660E+03  0.50400001928E-02 0.  1.
    10030    2    1    2    0    0  0.00000000000E+00  0.00000000000E+00  0.52326789330E+03  0.20680767865E+04  0.20007829234E+04 0.  0.
        5    1    3    3  502    0  0.69605574785E+03 -0.39221423874E+03 -0.36064051354E+03  0.87658957511E+03  0.46999998093E+01 0.  1.
       -5    1    3    3    0  502 -0.69605574785E+03  0.39221423874E+03  0.88390840684E+03  0.11914872114E+04  0.46999998093E+01 0. -1.
</event>
<event>
 5   0  0.1979765E-05  0.2000557E+04  0.7818609E-02  0.8606360E-01
       -2   -1    0    0    0  501  0.00000000000E+00  0.00000000000E+00  0.10202623697E+04  0.10202623697E+04  0.25500000920E-02 0.  1.
        2   -1    0    0  501    0  0.00000000000E+00  0.00000000000E+00 -0.98068624453E+03  0.98068624453E+03  0.25500000920E-02 0. -1.
    10030    2    1    2    0    0  0.00000000000E+00  0.00000000000E+00  0.39576125171E+02  0.20009486142E+04  0.20005571942E+04 0.  0.
        2    1    3    3  502    0 -0.92757310640E+03 -0.23390956900E+03 -0.27259038918E+03  0.99469144687E+03  0.25500000920E-02 0. -1.
       -2    1    3    3    0  502  0.92757310640E+03  0.23390956900E+03  0.31216651435E+03  0.10062571674E+04  0.25500000920E-02 0.  1.
</event>
<event>
 5   0  0.9220260E-06  0.1996646E+04  0.7818609E-02  0.8608191E-01
       -1   -1    0    0    0  501  0.00000000000E+00  0.00000000000E+00  0.11487016340E+04  0.11487016340E+04  0.50400001928E-02 0. -1.
        1   -1    0    0  501    0  0.00000000000E+00  0.00000000000E+00 -0.86763043097E+03  0.86763043099E+03  0.50400001928E-02 0.  1.
    10030    2    1    2    0    0  0.00000000000E+00  0.00000000000E+00  0.28107120303E+03  0.20163320650E+04  0.19966456809E+04 0.  0.
        3    1    3    3  502    0  0.13546798307E+03  0.65976533805E+03  0.88469095569E+03  0.11118992639E+04  0.10100000352E+00 0. -1.
       -3    1    3    3    0  502 -0.13546798307E+03 -0.65976533805E+03 -0.60361975267E+03  0.90443280112E+03  0.10100000352E+00 0.  1.
</event>
<event>
 5   0  0.9342635E-06  0.1985856E+04  0.7818609E-02  0.8613262E-01
       -1   -1    0    0    0  501  0.00000000000E+00  0.00000000000E+00  0.95448655997E+03  0.95448655998E+03  0.50400001928E-02 0. -1.
        1   -1    0    0  501    0  0.00000000000E+00  0.00000000000E+00 -0.10329173562E+04  0.10329173562E+04  0.50400001928E-02 0.  1.
    10030    2    1    2    0    0  0.00000000000E+00  0.00000000000E+00 -0.78430796190E+02  0.19874039162E+04  0.19858557189E+04 0.  0.
        5    1    3    3  502    0 -0.31204666710E+03 -0.42251901549E+03 -0.88248028267E+03  0.10269805160E+04  0.46999998093E+01 0.  1.
       -5    1    3    3    0  502  0.31204666710E+03  0.42251901549E+03  0.80404948648E+03  0.96042340018E+03  0.46999998093E+01 0. -1.
</event>
<event>
 5   0  0.7132000E-06  0.2001832E+04  0.7818609E-02  0.8605765E-01
       -4   -1    0    0    0  501  0.00000000000E+00  0.00000000000E+00  0.20674998713E+04  0.20675002613E+04  0.12699999809E+01 0. -1.
        4   -1    0    0  501    0  0.00000000000E+00  0.00000000000E+00 -0.48456120229E+03  0.48456286657E+03  0.12699999809E+01 0.  1.
    10030    2    1    2    0    0  0.00000000000E+00  0.00000000000E+00  0.15829386690E+04  0.25520631279E+04  0.20018320057E+04 0.  0.
        4    1    3    3  502    0  0.96188763607E+03 -0.27191724507E+03  0.72566339889E+03  0.12352148777E+04  0.12699999809E+01 0.  1.
       -4    1    3    3    0  502 -0.96188763607E+03  0.27191724507E+03  0.85727527009E+03  0.13168482503E+04  0.12699999809E+01 0. -1.
</event>
<event>
 5   0  0.2038882E-05  0.1953374E+04  0.7818609E-02  0.8628735E-01
       -2   -1    0    0    0  501  0.00000000000E+00  0.00000000000E+00  0.37195952690E+03  0.37195952691E+03  0.25500000920E-02 0. -1.
        2   -1    0    0  501    0  0.00000000000E+00  0.00000000000E+00 -0.25645739002E+04  0.25645739002E+04  0.25500000920E-02 0.  1.
    10030    2    1    2    0    0  0.00000000000E+00  0.00000000000E+00 -0.21926143733E+04  0.29365334271E+04  0.19533742034E+04 0.  0.
        3    1    3    3  502    0 -0.16369202952E+03 -0.18109084831E+03  0.32536048200E+03  0.40675352404E+03  0.10100000352E+00 0. -1.
       -3    1    3    3    0  502  0.16369202952E+03  0.18109084831E+03 -0.25179748553E+04  0.25297799031E+04  0.10100000352E+00 0.  1.
</event>
<event>
 5   0  0.9342635E-06  0.2010488E+04  0.7818609E-02  0.8601733E-01
        1   -1    0    0  501    0  0.00000000000E+00  0.00000000000E+00  0.12106609982E+04  0.12106609982E+04  0.50400001928E-02 0. -1.
       -1   -1    0    0    0  501  0.00000000000E+00  0.00000000000E+00 -0.83468117145E+03  0.83468117147E+03  0.50400001928E-02 0.  1.
    10030    2    1    2    0    0  0.00000000000E+00  0.00000000000E+00  0.37597982676E+03  0.20453421697E+04  0.20104884384E+04 0.  0.
        5    1    3    3  502    0 -0.74531209260E+03  0.49818929056E+03 -0.27465882661E+03  0.93762585589E+03  0.46999998093E+01 0.  1.
       -5    1    3    3    0  502  0.74531209260E+03 -0.49818929056E+03  0.65063865337E+03  0.11077163138E+04  0.46999998093E+01 0. -1.
</event>
<event>
 5   0  0.1979765E-05  0.2001785E+04  0.7818609E-02  0.8605787E-01
        2   -1    0    0  501    0  0.00000000000E+00  0.00000000000E+00  0.10647676057E+04  0.10647676057E+04  0.25500000920E-02 0.  1.
       -2   -1    0    0    0  501  0.00000000000E+00  0.00000000000E+00 -0.94084896750E+03  0.94084896750E+03  0.25500000920E-02 0. -1.
    10030    2    1    2    0    0  0.00000000000E+00  0.00000000000E+00  0.12391863824E+03  0.20056165732E+04  0.20017847062E+04 0.  0.
        2    1    3    3  502    0  0.94554885578E+03  0.19751044085E+03  0.32459176899E+03  0.10190352444E+04  0.25500000920E-02 0.  1.
       -2    1    3    3    0  502 -0.94554885578E+03 -0.19751044085E+03 -0.20067313075E+03  0.98658132880E+03  0.25500000920E-02 0. -1.
</event>
<event>
 5   0  0.9140695E-06  0.1995538E+04  0.7818609E-02  0.8608710E-01
        1   -1    0    0  501    0  0.00000000000E+00  0.00000000000E+00  0.87875002365E+03  0.87875002366E+03  0.50400001928E-02 0. -1.
       -1   -1    0    0    0  501  0.00000000000E+00  0.00000000000E+00 -0.11329078749E+04  0.11329078749E+04  0.50400001928E-02 0.  1.
    10030    2    1    2    0    0  0.00000000000E+00  0.00000000000E+00 -0.25415785121E+03  0.20116578985E+04  0.19955378441E+04 0.  0.
        1    1    3    3  502    0  0.71763620845E+03 -0.60558635439E+03 -0.46715590697E+03  0.10487951191E+04  0.50400001928E-02 0.  1.
       -1    1    3    3    0  502 -0.71763620845E+03  0.60558635439E+03  0.21299805577E+03  0.96286277947E+03  0.50400001928E-02 0. -1.
</event>
<event>
 5   0  0.7132000E-06  0.1986961E+04  0.7818609E-02  0.8612741E-01
       -3   -1    0    0    0  501  0.00000000000E+00  0.00000000000E+00  0.13172227552E+04  0.13172227591E+04  0.10100000352E+00 0. -1.
        3   -1    0    0  501    0  0.00000000000E+00  0.00000000000E+00 -0.74930642060E+03  0.74930642741E+03  0.10100000352E+00 0.  1.
    10030    2    1    2    0    0  0.00000000000E+00  0.00000000000E+00  0.56791633461E+03  0.20665291865E+04  0.19869609748E+04 0.  0.
        1    1    3    3  502    0 -0.71635988548E+03  0.34440421758E+03 -0.33591026843E+03  0.86291451435E+03  0.50400001928E-02 0.  1.
       -1    1    3    3    0  502  0.71635988548E+03 -0.34440421758E+03  0.90382660303E+03  0.12036146721E+04  0.50400001928E-02 0. -1.
</event>
<event>
 5   0  0.2038882E-05  0.2001056E+04  0.7818609E-02  0.8606127E-01
        2   -1    0    0  501    0  0.00000000000E+00  0.00000000000E+00  0.58491860911E+03  0.58491860911E+03  0.25500000920E-02 0. -1.
       -2   -1    0    0    0  501  0.00000000000E+00  0.00000000000E+00 -0.17114459213E+04  0.17114459213E+04  0.25500000920E-02 0.  1.
    10030    2    1    2    0    0  0.00000000000E+00  0.00000000000E+00 -0.11265273122E+04  0.22963645305E+04  0.20010562889E+04 0.  0.
        3    1    3    3  502    0 -0.51774629844E+03 -0.18129029271E+03  0.39695603386E+03  0.67712739038E+03  0.10100000352E+00 0. -1.
       -3    1    3    3    0  502  0.51774629844E+03  0.18129029271E+03 -0.15234833461E+04  0.16192371401E+04  0.10100000352E+00 0.  1.
</event>
<event>
 5   0  0.9333353E-06  0.2013411E+04  0.7818609E-02  0.8600376E-01
       -1   -1    0    0    0  501  0.00000000000E+00  0.00000000000E+00  0.12803805244E+04  0.12803805244E+04  0.50400001928E-02 0.  1.
        1   -1    0    0  501    0  0.00000000000E+00  0.00000000000E+00 -0.79152725753E+03  0.79152725755E+03  0.50400001928E-02 0. -1.
    10030    2    1    2    0    0  0.00000000000E+00  0.00000000000E+00  0.48885326691E+03  0.20719077820E+04  0.20134111206E+04 0.  0.
        2    1    3    3  502    0  0.77667875250E+03  0.33288206137E+03  0.80751333098E+03  0.11688105625E+04  0.25500000920E-02 0. -1.
       -2    1    3    3    0  502 -0.77667875250E+03 -0.33288206137E+03 -0.31866006407E+03  0.90309721947E+03  0.25500000920E-02 0.  1.
</event>
<event>
 5   0  0.9220260E-06  0.1989224E+04  0.7818609E-02  0.8611676E-01
       -1   -1    0    0    0  501  0.00000000000E+00  0.00000000000E+00  0.88996127964E+03  0.88996127965E+03  0.50400001928E-02 0.  1.
        1   -1    0    0  501    0  0.00000000000E+00  0.00000000000E+00 -0.11115681902E+04  0.11115681903E+04  0.50400001928E-02 0. -1.
    10030    2    1    2    0    0  0.00000000000E+00  0.00000000000E+00 -0.22160691061E+03  0.20015294699E+04  0.19892236164E+04 0.  0.
        3    1    3    3  502    0 -0.13606499771E+03 -0.20552214650E+03 -0.10803512958E+04  0.11081118936E+04  0.10100000352E+00 0. -1.
       -3    1    3    3    0  502  0.13606499771E+03  0.20552214650E+03  0.85874438518E+03  0.89341757627E+03  0.10100000352E+00 0.  1.
</event>
<event>
 5   0  0.9342635E-06  0.2001440E+04  0.7818609E-02  0.8605948E-01
       -1   -1    0    0    0  501  0.00000000000E+00  0.00000000000E+00  0.10369674776E+04  0.10369674776E+04  0.50400001928E-02 0. -1.
        1   -1    0    0  501    0  0.00000000000E+00  0.00000000000E+00 -0.96573921222E+03  0.96573921224E+03  0.50400001928E-02 0.  1.
    10030    2    1    2    0    0  0.00000000000E+00  0.00000000000E+00  0.71228265400E+02  0.20027066899E+04  0.20014396368E+04 0.  0.
        5    1    3    3  502    0  0.64916825564E+03 -0.39813002666E+03  0.68524861385E+03  0.10244582447E+04  0.46999998093E+01 0.  1.
       -5    1    3    3    0  502 -0.64916825564E+03  0.39813002666E+03 -0.61402034845E+03  0.97824844522E+03  0.46999998093E+01 0. -1.
</event>
<event>
 5   0  0.9333353E-06  0.1994089E+04  0.7818609E-02  0.8609389E-01
        1   -1    0    0  501    0  0.00000000000E+00  0.00000000000E+00  0.10817071984E+04  0.10817071984E+04  0.50400001928E-02 0.  1.
       -1   -1    0    0    0  501  0.00000000000E+00  0.00000000000E+00 -0.91900803749E+03  0.91900803750E+03  0.50400001928E-02 0. -1.
    10030    2    1    2    0    0  0.00000000000E+00  0.00000000000E+00  0.16269916093E+03  0.20007152359E+04  0.19940888742E+04 0.  0.
        2    1    3    3  502    0  0.20831158275E+03 -0.14263939255E+03  0.10491054039E+04  0.10790560042E+04  0.25500000920E-02 0.  1.
       -2    1    3    3    0  502 -0.20831158275E+03  0.14263939255E+03 -0.88640624295E+03  0.92165923169E+03  0.25500000920E-02 0. -1.
</event>
<event>
 5   0  0.2003576E-05  0.1999314E+04  0.7818609E-02  0.8606942E-01
        2   -1    0    0  501    0  0.00000000000E+00  0.00000000000E+00  0.16430952701E+04  0.16430952701E+04  0.25500000920E-02 0. -1.
       -2   -1    0    0    0  501  0.00000000000E+00  0.00000000000E+00 -0.60818970377E+03  0.60818970377E+03  0.25500000920E-02 0.  1.
    10030    2    1    2    0    0  0.00000000000E+00  0.00000000000E+00  0.10349055663E+04  0.22512849738E+04  0.19993135077E+04 0.  0.
        4    1    3    3  502    0 -0.96737158371E+02 -0.48245023610E+02  0.16364935475E+04  0.16400604879E+04  0.12699999809E+01 0. -1.
       -4    1    3    3    0  502  0.96737158371E+02  0.48245023610E+02 -0.60158798122E+03  0.61122448590E+03  0.12699999809E+01 0.  1.
</event>
<event>
 5   0  0.9370269E-06  0.2003006E+04  0.7818609E-02  0.8605217E-01
        1   -1    0    0  501    0  0.00000000000E+00  0.00000000000E+00  0.12031322063E+04  0.12031322063E+04  0.50400001928E-02 0. -1.
       -1   -1    0    0    0  501  0.00000000000E+00  0.00000000000E+00 -0.83366383088E+03  0.83366383089E+03  0.50400001928E-02 0.  1.
    10030    2    1    2    0    0  0.00000000000E+00  0.00000000000E+00  0.36946837542E+03  0.20367960372E+04  0.20030055459E+04 0.  0.
        4    1    3    3  502    0  0.25052233751E+03 -0.31893820417E+03 -0.74642283656E+03  0.84948907203E+03  0.12699999809E+01 0.  1.
       -4    1    3    3    0  502 -0.25052233751E+03  0.31893820417E+03  0.11158912120E+04  0.11873069652E+04  0.12699999809E+01 0. -1.
</event>
<event>
 5   0  0.9220260E-06  0.1997902E+04  0.7818609E-02  0.8607602E-01
        1   -1    0    0  501    0  0.00000000000E+00  0.00000000000E+00  0.98631602765E+03  0.98631602767E+03  0.50400001928E-02 0.  1.
       -1   -1    0    0    0  501  0.00000000000E+00  0.00000000000E+00 -0.10117481976E+04  0.10117481976E+04  0.50400001928E-02 0. -1.
    10030    2    1    2    0    0  0.00000000000E+00  0.00000000000E+00 -0.25432169957E+02  0.19980642253E+04  0.19979023633E+04 0.  0.
        3    1    3    3  502    0 -0.63250332675E+03 -0.63274510791E+03 -0.45713550621E+03  0.10046888629E+04  0.10100000352E+00 0. -1.
       -3    1    3    3    0  502  0.63250332675E+03  0.63274510791E+03  0.43170333625E+03  0.99337536242E+03  0.10100000352E+00 0.  1.
</event>
<event>
 5   0  0.9333353E-06  0.1954278E+04  0.7818609E-02  0.8628301E-01
       -1   -1    0    0    0  501  0.00000000000E+00  0.00000000000E+00  0.45747800893E+03  0.45747800896E+03  0.50400001928E-02 0. -1.
        1   -1    0    0  501    0  0.00000000000E+00  0.00000000000E+00 -0.20870953022E+04  0.20870953022E+04  0.50400001928E-02 0.  1.
    10030    2    1    2    0    0  0.00000000000E+00  0.00000000000E+00 -0.16296172933E+04  0.25445733112E+04  0.19542775682E+04 0.  0.
        2    1    3    3  502    0 -0.12156405759E+03 -0.91126347250E+03 -0.12459067670E+04  0.15483741823E+04  0.25500000920E-02 0.  1.
       -2    1    3    3    0  502  0.12156405759E+03  0.91126347250E+03 -0.38371052633E+03  0.99619912891E+03  0.25500000920E-02 0. -1.
</event>
<event>
 5   0  0.1999142E-05  0.2003867E+04  0.7818609E-02  0.8604815E-01
        2   -1    0    0  501    0  0.00000000000E+00  0.00000000000E+00  0.83863804517E+03  0.83863804517E+03  0.25500000920E-02 0. -1.
       -2   -1    0    0    0  501  0.00000000000E+00  0.00000000000E+00 -0.11970247371E+04  0.11970247371E+04  0.25500000920E-02 0.  1.
    10030    2    1    2    0    0  0.00000000000E+00  0.00000000000E+00 -0.35838669193E+03  0.20356627823E+04  0.20038667476E+04 0.  0.
        1    1    3    3  502    0 -0.27183655853E+03 -0.36752858556E+03  0.72652409348E+03  0.85837616124E+03  0.50400001928E-02 0. -1.
       -1    1    3    3    0  502  0.27183655853E+03  0.36752858556E+03 -0.10849107854E+04  0.11772866210E+04  0.50400001928E-02 0.  1.
</event>
<event>
 5   0  0.2038882E-05  0.2001442E+04  0.7818609E-02  0.8605947E-01
       -2   -1    0    0    0  501  0.00000000000E+00  0.00000000000E+00  0.33592937995E+03  0.33592937996E+03  0.25500000920E-02 0.  1.
        2   -1    0    0  501    0  0.00000000000E+00  0.00000000000E+00 -0.29811098245E+04  0.29811098245E+04  0.25500000920E-02 0. -1.
    10030    2    1    2    0    0  0.00000000000E+00  0.00000000000E+00 -0.26451804446E+04  0.33170392045E+04  0.20014418552E+04 0.  0.
        3    1    3    3  502    0  0.43302712260E+03 -0.61211123987E+03 -0.24209974108E+04  0.25344469085E+04  0.10100000352E+00 0. -1.
       -3    1    3    3    0  502 -0.43302712260E+03  0.61211123987E+03 -0.22418303379E+03  0.78259229598E+03  0.10100000352E+00 0.  1.
</event>
<event>
 5   0  0.2038882E-05  0.1999410E+04  0.7818609E-02  0.8606896E-01
       -2   -1    0    0    0  501  0.00000000000E+00  0.00000000000E+00  0.10192595455E+04  0.10192595455E+04  0.25500000920E-02 0. -1.
        2   -1    0    0  501    0  0.00000000000E+00  0.00000000000E+00 -0.98052573848E+03  0.98052573848E+03  0.25500000920E-02 0.  1.
    10030    2    1    2    0    0  0.00000000000E+00  0.00000000000E+00  0.38733807042E+02  0.19997852840E+04  0.19994101316E+04 0.  0.
        3    1    3    3  502    0 -0.43167219035E+03 -0.88841358652E+03 -0.13490414470E+03  0.99690456870E+03  0.10100000352E+00 0.  1.
       -3    1    3    3    0  502  0.43167219035E+03  0.88841358652E+03  0.17363795174E+03  0.10028807153E+04  0.10100000352E+00 0. -1.
</event>
<event>
 5   0  0.9370269E-06  0.1986662E+04  0.7818609E-02  0.8612882E-01
        1   -1    0    0  501    0  0.00000000000E+00  0.00000000000E+00  0.19156271442E+04  0.19156271443E+04  0.50400001928E-02 0.  1.
       -1   -1    0    0    0  501  0.00000000000E+00  0.00000000000E+00 -0.51508251649E+03  0.51508251652E+03  0.50400001928E-02 0. -1.
    10030    2    1    2    0    0  0.00000000000E+00  0.00000000000E+00  0.14005446278E+04  0.24307096608E+04  0.19866615717E+04 0.  0.
        4    1    3    3  502    0 -0.26418121942E+03  0.33091577107E+03 -0.39912729520E+03  0.58189447060E+03  0.12699999809E+01 0. -1.
       -4    1    3    3    0  502  0.26418121942E+03 -0.33091577107E+03  0.17996719230E+04  0.18488151902E+04  0.12699999809E+01 0.  1.
</event>
<event>
 5   0  0.1999142E-05  0.2000854E+04  0.7818609E-02  0.8606222E-01
       -2   -1    0    0    0  501  0.00000000000E+00  0.00000000000E+00  0.63046667004E+03  0.63046667005E+03  0.25500000920E-02 0. -1.
        2   -1    0    0  501    0  0.00000000000E+00  0.00000000000E+00 -0.15874811263E+04  0.15874811263E+04  0.25500000920E-02 0.  1.
    10030    2    1    2    0    0  0.00000000000E+00  0.00000000000E+00 -0.95701445630E+03  0.22179477964E+04  0.20008537573E+04 0.  0.
        1    1    3    3  502    0 -0.65310417556E+03 -0.37773933739E+03 -0.12067693011E+04  0.14232091263E+04  0.50400001928E-02 0. -1.
       -1    1    3    3    0  502  0.65310417556E+03  0.37773933739E+03  0.24975484481E+03  0.79473867006E+03  0.50400001928E-02 0.  1.
</event>
<event>
 5   0  0.9333353E-06  0.2012751E+04  0.7818609E-02  0.8600682E-01
       -1   -1    0    0    0  501  0.00000000000E+00  0.00000000000E+00  0.76078116893E+03  0.76078116894E+03  0.50400001928E-02 0.  1.
        1   -1    0    0  501    0  0.00000000000E+00  0.00000000000E+00 -0.13312520623E+04  0.13312520623E+04  0.50400001928E-02 0. -1.
    10030    2    1    2    0    0  0.00000000000E+00  0.00000000000E+00 -0.57047089334E+03  0.20920332312E+04  0.20127508540E+04 0.  0.
        2    1    3    3  502    0  0.56056897329E+03 -0.46682146854E+03  0.43534875961E+03  0.84952245397E+03  0.25500000920E-02 0.  1.
       -2    1    3    3    0  502 -0.56056897329E+03  0.46682146854E+03 -0.10058196529E+04  0.12425107772E+04  0.25500000920E-02 0. -1.
</event>
<event>
 5   0  0.9140695E-06  0.2004311E+04  0.7818609E-02  0.8604608E-01
        1   -1    0    0  501    0  0.00000000000E+00  0.00000000000E+00  0.19608443813E+04  0.19608443813E+04  0.50400001928E-02 0.  1.
       -1   -1    0    0    0  501  0.00000000000E+00  0.00000000000E+00 -0.51218530497E+03  0.51218530500E+03  0.50400001928E-02 0. -1.
    10030    2    1    2    0    0  0.00000000000E+00  0.00000000000E+00  0.14486590763E+04  0.24730296863E+04  0.20043110312E+04 0.  0.
        1    1    3    3  502    0 -0.64314750375E+03  0.73404454391E+03  0.10053008204E+04  0.14011030810E+04  0.50400001928E-02 0. -1.
       -1    1    3    3    0  502  0.64314750375E+03 -0.73404454391E+03  0.44335825589E+03  0.10719266053E+04  0.50400001928E-02 0.  1.
</event>
<event>
 5   0  0.9342635E-06  0.2032238E+04  0.7818609E-02  0.8591695E-01
       -1   -1    0    0    0  501  0.00000000000E+00  0.00000000000E+00  0.10815591839E+04  0.10815591840E+04  0.50400001928E-02 0.  1.
        1   -1    0    0  501    0  0.00000000000E+00  0.00000000000E+00 -0.95463845560E+03  0.95463845561E+03  0.50400001928E-02 0. -1.
    10030    2    1    2    0    0  0.00000000000E+00  0.00000000000E+00  0.12692072834E+03  0.20361976396E+04  0.20322381642E+04 0.  0.
        5    1    3    3  502    0  0.74221572876E+03  0.66417247419E+03 -0.13809477483E+03  0.10055354396E+04  0.46999998093E+01 0.  1.
       -5    1    3    3    0  502 -0.74221572876E+03 -0.66417247419E+03  0.26501550317E+03  0.10306622000E+04  0.46999998093E+01 0. -1.
</event>
<event>
 5   0  0.1979765E-05  0.1999771E+04  0.7818609E-02  0.8606728E-01
       -2   -1    0    0    0  501  0.00000000000E+00  0.00000000000E+00  0.50670803698E+03  0.50670803699E+03  0.25500000920E-02 0. -1.
        2   -1    0    0  501    0  0.00000000000E+00  0.00000000000E+00 -0.19730711015E+04  0.19730711015E+04  0.25500000920E-02 0.  1.
    10030    2    1    2    0    0  0.00000000000E+00  0.00000000000E+00 -0.14663630645E+04  0.24797791385E+04  0.19997709716E+04 0.  0.
        2    1    3    3  502    0 -0.70116765862E+03 -0.50226581342E+03 -0.10593640838E+03  0.86898190744E+03  0.25500000920E-02 0. -1.
       -2    1    3    3    0  502  0.70116765862E+03  0.50226581342E+03 -0.13604266562E+04  0.16107972311E+04  0.25500000920E-02 0.  1.
</event>
<event>
 5   0  0.1999142E-05  0.1996307E+04  0.7818609E-02  0.8608349E-01
       -2   -1    0    0    0  501  0.00000000000E+00  0.00000000000E+00  0.54329289258E+03  0.54329289258E+03  0.25500000920E-02 0. -1.
        2   -1    0    0  501    0  0.00000000000E+00  0.00000000000E+00 -0.18338369997E+04  0.18338369998E+04  0.25500000920E-02 0.  1.
    10030    2    1    2    0    0  0.00000000000E+00  0.00000000000E+00 -0.12905441072E+04  0.23771298923E+04  0.19963071989E+04 0.  0.
        1    1    3    3  502    0 -0.42425145548E+03 -0.86541307781E+03 -0.33617424411E+03  0.10207557079E+04  0.50400001928E-02 0. -1.
       -1    1    3    3    0  502  0.42425145548E+03  0.86541307781E+03 -0.95436986306E+03  0.13563741845E+04  0.50400001928E-02 0.  1.
</event>
<event>
 5   0  0.2020029E-05  0.2014744E+04  0.7818609E-02  0.8599758E-01
       -2   -1    0    0    0  501  0.00000000000E+00  0.00000000000E+00  0.58275692755E+03  0.58275692755E+03  0.25500000920E-02 0. -1.
        2   -1    0    0  501    0  0.00000000000E+00  0.00000000000E+00 -0.17413753438E+04  0.17413753438E+04  0.25500000920E-02 0.  1.
    10030    2    1    2    0    0  0.00000000000E+00  0.00000000000E+00 -0.11586184162E+04  0.23241322713E+04  0.20147441972E+04 0.  0.
        5    1    3    3  502    0 -0.87009689868E+03  0.48979715401E+03 -0.42537635981E+03  0.10853280622E+04  0.46999998093E+01 0. -1.
       -5    1    3    3    0  502  0.87009689868E+03 -0.48979715401E+03 -0.73324205639E+03  0.12388042091E+04  0.46999998093E+01 0.  1.
</event>
<event>
 5   0  0.7132000E-06  0.2000295E+04  0.7818609E-02  0.8606483E-01
        3   -1    0    0  501    0  0.00000000000E+00  0.00000000000E+00  0.94037563997E+03  0.94037564539E+03  0.10100000352E+00 0. -1.
       -3   -1    0    0    0  501  0.00000000000E+00  0.00000000000E+00 -0.10637183634E+04  0.10637183682E+04  0.10100000352E+00 0.  1.
    10030    2    1    2    0    0  0.00000000000E+00  0.00000000000E+00 -0.12334272346E+03  0.20040940136E+04  0.20002948253E+04 0.  0.
        4    1    3    3  502    0 -0.65984663880E+03 -0.69997546933E+03  0.21258197225E+03  0.98516798172E+03  0.12699999809E+01 0.  1.
       -4    1    3    3    0  502  0.65984663880E+03  0.69997546933E+03 -0.33592469571E+03  0.10189260319E+04  0.12699999809E+01 0. -1.
</event>
<event>
 5   0  0.7132000E-06  0.1999339E+04  0.7818609E-02  0.8606930E-01
        4   -1    0    0  501    0  0.00000000000E+00  0.00000000000E+00  0.23159656622E+04  0.23159660104E+04  0.12699999809E+01 0. -1.
       -4   -1    0    0    0  501  0.00000000000E+00  0.00000000000E+00 -0.43149853566E+03  0.43150040461E+03  0.12699999809E+01 0.  1.
    10030    2    1    2    0    0  0.00000000000E+00  0.00000000000E+00  0.18844671265E+04  0.27474664150E+04  0.19993387284E+04 0.  0.
        5    1    3    3  502    0  0.52890625170E+03 -0.84347557081E+03  0.81837446187E+03  0.12887791554E+04  0.46999998093E+01 0. -1.
       -5    1    3    3    0  502 -0.52890625170E+03  0.84347557081E+03  0.10660926647E+04  0.14586872596E+04  0.46999998093E+01 0.  1.
</event>
<event>
 5   0  0.2003576E-05  0.1985752E+04  0.7818609E-02  0.8613311E-01
        2   -1    0    0  501    0  0.00000000000E+00  0.00000000000E+00  0.11026143527E+04  0.11026143527E+04  0.25500000920E-02 0.  1.
       -2   -1    0    0    0  501  0.00000000000E+00  0.00000000000E+00 -0.89405967589E+03  0.89405967590E+03  0.25500000920E-02 0. -1.
    10030    2    1    2    0    0  0.00000000000E+00  0.00000000000E+00  0.20855467676E+03  0.19966740286E+04  0.19857522814E+04 0.  0.
        4    1    3    3  502    0 -0.21091715857E+03 -0.34866632475E+03 -0.80610130330E+03  0.90324701930E+03  0.12699999809E+01 0. -1.
       -4    1    3    3    0  502  0.21091715857E+03  0.34866632475E+03  0.10146559801E+04  0.10934270093E+04  0.12699999809E+01 0.  1.
</event>
<event>
 5   0  0.1999142E-05  0.1983685E+04  0.7818609E-02  0.8614287E-01
       -2   -1    0    0    0  501  0.00000000000E+00  0.00000000000E+00  0.49325263572E+03  0.49325263573E+03  0.25500000920E-02 0. -1.
        2   -1    0    0  501    0  0.00000000000E+00  0.00000000000E+00 -0.19944174423E+04  0.19944174423E+04  0.25500000920E-02 0.  1.
    10030    2    1    2    0    0  0.00000000000E+00  0.00000000000E+00 -0.15011648066E+04  0.24876700780E+04  0.19836851163E+04 0.  0.
        1    1    3    3  502    0  0.11722572350E+03  0.69058270361E+03  0.13004032758E+03  0.71243022648E+03  0.50400001928E-02 0. -1.
       -1    1    3    3    0  502 -0.11722572350E+03 -0.69058270361E+03 -0.16312051341E+04  0.17752398515E+04  0.50400001928E-02 0.  1.
</event>
<event>
 5   0  0.9140695E-06  0.2002726E+04  0.7818609E-02  0.8605347E-01
       -1   -1    0    0    0  501  0.00000000000E+00  0.00000000000E+00  0.86040550449E+03  0.86040550450E+03  0.50400001928E-02 0.  1.
        1   -1    0    0  501    0  0.00000000000E+00  0.00000000000E+00 -0.11654133164E+04  0.11654133164E+04  0.50400001928E-02 0. -1.
    10030    2    1    2    0    0  0.00000000000E+00  0.00000000000E+00 -0.30500781195E+03  0.20258188209E+04  0.20027261745E+04 0.  0.
        1    1    3    3  502    0  0.86804499562E+03  0.12398339355E+03  0.33665668699E+03  0.93926126356E+03  0.50400001928E-02 0.  1.
       -1    1    3    3    0  502 -0.86804499562E+03 -0.12398339355E+03 -0.64166449894E+03  0.10865575574E+04  0.50400001928E-02 0. -1.
</event>
<event>
 5   0  0.9342635E-06  0.1996642E+04  0.7818609E-02  0.8608192E-01
       -1   -1    0    0    0  501  0.00000000000E+00  0.00000000000E+00  0.10055837578E+04  0.10055837578E+04  0.50400001928E-02 0. -1.
        1   -1    0    0  501    0  0.00000000000E+00  0.00000000000E+00 -0.99111079076E+03  0.99111079078E+03  0.50400001928E-02 0.  1.
    10030    2    1    2    0    0  0.00000000000E+00  0.00000000000E+00  0.14472967046E+02  0.19966945486E+04  0.19966420945E+04 0.  0.
        5    1    3    3  502    0 -0.56630598327E+02  0.61983085190E+02 -0.98756293900E+03  0.99113650725E+03  0.46999998093E+01 0.  1.
       -5    1    3    3    0  502  0.56630598327E+02 -0.61983085190E+02  0.10020359060E+04  0.10055580413E+04  0.46999998093E+01 0. -1.
</event>
<event>
 5   0  0.2020029E-05  0.1999383E+04  0.7818609E-02  0.8606909E-01
       -2   -1    0    0    0  501  0.00000000000E+00  0.00000000000E+00  0.92352974869E+03  0.92352974869E+03  0.25500000920E-02 0. -1.
        2   -1    0    0  501    0  0.00000000000E+00  0.00000000000E+00 -0.10821338337E+04  0.10821338337E+04  0.25500000920E-02 0.  1.
    10030    2    1    2    0    0  0.00000000000E+00  0.00000000000E+00 -0.15860408498E+03  0.20056635824E+04  0.19993826922E+04 0.  0.
        5    1    3    3  502    0  0.15833960564E+03  0.48471506432E+03  0.78324825751E+03  0.93462294385E+03  0.46999998093E+01 0. -1.
       -5    1    3    3    0  502 -0.15833960564E+03 -0.48471506432E+03 -0.94185234248E+03  0.10710406385E+04  0.46999998093E+01 0.  1.
</event>
<event>
 5   0  0.2020029E-05  0.2001837E+04  0.7818609E-02  0.8605762E-01
       -2   -1    0    0    0  501  0.00000000000E+00  0.00000000000E+00  0.12493857217E+04  0.12493857217E+04  0.25500000920E-02 0. -1.
        2   -1    0    0  501    0  0.00000000000E+00  0.00000000000E+00 -0.80186403737E+03  0.80186403738E+03  0.25500000920E-02 0.  1.
    10030    2    1    2    0    0  0.00000000000E+00  0.00000000000E+00  0.44752168432E+03  0.20512497591E+04  0.20018366357E+04 0.  0.
        5    1    3    3  502    0  0.41488414980E+03 -0.47505534001E+03 -0.57260312029E+03  0.85188195027E+03  0.46999998093E+01 0.  1.
       -5    1    3    3    0  502 -0.41488414980E+03  0.47505534001E+03  0.10201248046E+04  0.11993678088E+04  0.46999998093E+01 0. -1.
</event>
<event>
 5   0  0.2020029E-05  0.1999630E+04  0.7818609E-02  0.8606794E-01
        2   -1    0    0  501    0  0.00000000000E+00  0.00000000000E+00  0.79126470199E+03  0.79126470199E+03  0.25500000920E-02 0.  1.
       -2   -1    0    0    0  501  0.00000000000E+00  0.00000000000E+00 -0.12633315583E+04  0.12633315583E+04  0.25500000920E-02 0. -1.
    10030    2    1    2    0    0  0.00000000000E+00  0.00000000000E+00 -0.47206685634E+03  0.20545962603E+04  0.19996296347E+04 0.  0.
        5    1    3    3  502    0  0.35066531629E+03 -0.27867125086E+03 -0.11544630911E+04  0.12383177899E+04  0.46999998093E+01 0. -1.
       -5    1    3    3    0  502 -0.35066531629E+03  0.27867125086E+03  0.68239623474E+03  0.81627847043E+03  0.46999998093E+01 0.  1.
</event>
<event>
 5   0  0.2003576E-05  0.2000136E+04  0.7818609E-02  0.8606557E-01
        2   -1    0    0  501    0  0.00000000000E+00  0.00000000000E+00  0.24096554989E+04  0.24096554989E+04  0.25500000920E-02 0. -1.
       -2   -1    0    0    0  501  0.00000000000E+00  0.00000000000E+00 -0.41505336986E+03  0.41505336987E+03  0.25500000920E-02 0.  1.
    10030    2    1    2    0    0  0.00000000000E+00  0.00000000000E+00  0.19946021291E+04  0.28247088688E+04  0.20001356304E+04 0.  0.
        4    1    3    3  502    0 -0.37938356175E+03  0.54842844789E+03  0.20498160247E+04  0.21555632669E+04  0.12699999809E+01 0. -1.
       -4    1    3    3    0  502  0.37938356175E+03 -0.54842844789E+03 -0.55213895670E+02  0.66914560191E+03  0.12699999809E+01 0.  1.
</event>
<event>
 5   0  0.2003576E-05  0.2055448E+04  0.7818609E-02  0.8581127E-01
       -2   -1    0    0    0  501  0.00000000000E+00  0.00000000000E+00  0.38587660330E+03  0.38587660331E+03  0.25500000920E-02 0. -1.
        2   -1    0    0  501    0  0.00000000000E+00  0.00000000000E+00 -0.27371869301E+04  0.27371869301E+04  0.25500000920E-02 0.  1.
    10030    2    1    2    0    0  0.00000000000E+00  0.00000000000E+00 -0.23513103268E+04  0.31230635334E+04  0.20554477811E+04 0.  0.
        4    1    3    3  502    0 -0.22162991609E+03  0.93120353599E+03 -0.17440740284E+04  0.19894862841E+04  0.12699999809E+01 0.  1.
       -4    1    3    3    0  502  0.22162991609E+03 -0.93120353599E+03 -0.60723629833E+03  0.11335772493E+04  0.12699999809E+01 0. -1.
</event>
<event>
 5   0  0.9342635E-06  0.2001355E+04  0.7818609E-02  0.8605987E-01
       -1   -1    0    0    0  501  0.00000000000E+00  0.00000000000E+00  0.98853191299E+03  0.98853191300E+03  0.50400001928E-02 0.  1.
        1   -1    0    0  501    0  0.00000000000E+00  0.00000000000E+00 -0.10129723020E+04  0.10129723020E+04  0.50400001928E-02 0. -1.
    10030    2    1    2    0    0  0.00000000000E+00  0.00000000000E+00 -0.24440389032E+02  0.20015042150E+04  0.20013549885E+04 0.  0.
        5    1    3    3  502    0  0.48568475350E+03  0.27246811819E+03 -0.84366946080E+03  0.10109049433E+04  0.46999998093E+01 0. -1.
       -5    1    3    3    0  502 -0.48568475350E+03 -0.27246811819E+03  0.81922907177E+03  0.99059927178E+03  0.46999998093E+01 0.  1.
</event>
<event>
 5   0  0.2038882E-05  0.1998441E+04  0.7818609E-02  0.8607350E-01
        2   -1    0    0  501    0  0.00000000000E+00  0.00000000000E+00  0.11490831222E+04  0.11490831222E+04  0.25500000920E-02 0.  1.
       -2   -1    0    0    0  501  0.00000000000E+00  0.00000000000E+00 -0.86890276960E+03  0.86890276961E+03  0.25500000920E-02 0. -1.
    10030    2    1    2    0    0  0.00000000000E+00  0.00000000000E+00  0.28018035262E+03  0.20179858918E+04  0.19984408997E+04 0.  0.
        3    1    3    3  502    0  0.30769894194E+03  0.22795196672E+03  0.10720470756E+04  0.11383873157E+04  0.10100000352E+00 0.  1.
       -3    1    3    3    0  502 -0.30769894194E+03 -0.22795196672E+03 -0.79186672298E+03  0.87959857615E+03  0.10100000352E+00 0. -1.
</event>
<event>
 5   0  0.1979765E-05  0.1999148E+04  0.7818609E-02  0.8607019E-01
        2   -1    0    0  501    0  0.00000000000E+00  0.00000000000E+00  0.12350750596E+04  0.12350750596E+04  0.25500000920E-02 0. -1.
       -2   -1    0    0    0  501  0.00000000000E+00  0.00000000000E+00 -0.80897775472E+03  0.80897775473E+03  0.25500000920E-02 0.  1.
    10030    2    1    2    0    0  0.00000000000E+00  0.00000000000E+00  0.42609730486E+03  0.20440528143E+04  0.19991480672E+04 0.  0.
        2    1    3    3  502    0 -0.55759480511E+03  0.57352708231E+03  0.82593162220E+03  0.11497862086E+04  0.25500000920E-02 0. -1.
       -2    1    3    3    0  502  0.55759480511E+03 -0.57352708231E+03 -0.39983431734E+03  0.89426660575E+03  0.25500000920E-02 0.  1.
</event>
<event>
 5   0  0.9220260E-06  0.2003214E+04  0.7818609E-02  0.8605119E-01
        1   -1    0    0  501    0  0.00000000000E+00  0.00000000000E+00  0.54181116646E+03  0.54181116649E+03  0.50400001928E-02 0. -1.
       -1   -1    0    0    0  501  0.00000000000E+00  0.00000000000E+00 -0.18515986456E+04  0.18515986456E+04  0.50400001928E-02 0.  1.
    10030    2    1    2    0    0  0.00000000000E+00  0.00000000000E+00 -0.13097874791E+04  0.23934098121E+04  0.20032142392E+04 0.  0.
        3    1    3    3  502    0  0.17615231501E+02 -0.51423497464E+03 -0.16816226133E+04  0.17585796909E+04  0.10100000352E+00 0.  1.
       -3    1    3    3    0  502 -0.17615231501E+02  0.51423497464E+03  0.37183513418E+03  0.63483012116E+03  0.10100000352E+00 0. -1.
</event>
<event>
 5   0  0.2020029E-05  0.1995993E+04  0.7818609E-02  0.8608496E-01
       -2   -1    0    0    0  501  0.00000000000E+00  0.00000000000E+00  0.55307134883E+03  0.55307134883E+03  0.25500000920E-02 0.  1.
        2   -1    0    0  501    0  0.00000000000E+00  0.00000000000E+00 -0.18008481036E+04  0.18008481036E+04  0.25500000920E-02 0. -1.
    10030    2    1    2    0    0  0.00000000000E+00  0.00000000000E+00 -0.12477767548E+04  0.23539194524E+04  0.19959934766E+04 0.  0.
        5    1    3    3  502    0  0.58050079026E+03 -0.75164863235E+03 -0.98549742740E+03  0.13686431615E+04  0.46999998093E+01 0. -1.
       -5    1    3    3    0  502 -0.58050079026E+03  0.75164863235E+03 -0.26227932738E+03  0.98527629098E+03  0.46999998093E+01 0.  1.
</event>
<event>
 5   0  0.1979765E-05  0.2012871E+04  0.7818609E-02  0.8600626E-01
        2   -1    0    0  501    0  0.00000000000E+00  0.00000000000E+00  0.18107447839E+04  0.18107447839E+04  0.25500000920E-02 0.  1.
       -2   -1    0    0    0  501  0.00000000000E+00  0.00000000000E+00 -0.55939019417E+03  0.55939019418E+03  0.25500000920E-02 0. -1.
    10030    2    1    2    0    0  0.00000000000E+00  0.00000000000E+00  0.12513545897E+04  0.23701349781E+04  0.20128714576E+04 0.  0.
        2    1    3    3  502    0 -0.38703398146E+03 -0.38997840573E+03  0.16185700670E+04  0.17092827506E+04  0.25500000920E-02 0.  1.
       -2    1    3    3    0  502  0.38703398146E+03  0.38997840573E+03 -0.36721547729E+03  0.66085222744E+03  0.25500000920E-02 0. -1.
</event>
<event>
 5   0  0.9140695E-06  0.2003369E+04  0.7818609E-02  0.8605047E-01
        1   -1    0    0  501    0  0.00000000000E+00  0.00000000000E+00  0.20279627484E+04  0.20279627484E+04  0.50400001928E-02 0.  1.
       -1   -1    0    0    0  501  0.00000000000E+00  0.00000000000E+00 -0.49476849028E+03  0.49476849031E+03  0.50400001928E-02 0. -1.
    10030    2    1    2    0    0  0.00000000000E+00  0.00000000000E+00  0.15331942581E+04  0.25227312387E+04  0.20033692295E+04 0.  0.
        1    1    3    3  502    0 -0.37739280978E+03  0.40218245467E+03 -0.28635700974E+03  0.62143092680E+03  0.50400001928E-02 0. -1.
       -1    1    3    3    0  502  0.37739280978E+03 -0.40218245467E+03  0.18195512679E+04  0.19013003119E+04  0.50400001928E-02 0.  1.
</event>
<event>
 5   0  0.2020029E-05  0.2003759E+04  0.7818609E-02  0.8604865E-01
       -2   -1    0    0    0  501  0.00000000000E+00  0.00000000000E+00  0.68948693534E+03  0.68948693534E+03  0.25500000920E-02 0.  1.
        2   -1    0    0  501    0  0.00000000000E+00  0.00000000000E+00 -0.14558112779E+04  0.14558112779E+04  0.25500000920E-02 0. -1.
    10030    2    1    2    0    0  0.00000000000E+00  0.00000000000E+00 -0.76632434260E+03  0.21452982133E+04  0.20037593233E+04 0.  0.
        5    1    3    3  502    0  0.39588153219E+03 -0.26990556184E+03  0.55885791319E+03  0.73614907252E+03  0.46999998093E+01 0.  1.
       -5    1    3    3    0  502 -0.39588153219E+03  0.26990556184E+03 -0.13251822558E+04  0.14091491408E+04  0.46999998093E+01 0. -1.
</event>
<event>
 5   0  0.7132000E-06  0.1999372E+04  0.7818609E-02  0.8606914E-01
        4   -1    0    0  501    0  0.00000000000E+00  0.00000000000E+00  0.95081223442E+03  0.95081308259E+03  0.12699999809E+01 0.  1.
       -4   -1    0    0    0  501  0.00000000000E+00  0.00000000000E+00 -0.10510701114E+04  0.10510708787E+04  0.12699999809E+01 0. -1.
    10030    2    1    2    0    0  0.00000000000E+00  0.00000000000E+00 -0.10025787700E+03  0.20018839613E+04  0.19993718395E+04 0.  0.
        2    1    3    3  502    0  0.44701677881E+02 -0.92711808190E+03  0.32158643887E+03  0.98232581941E+03  0.25500000920E-02 0.  1.
       -2    1    3    3    0  502 -0.44701677881E+02  0.92711808190E+03 -0.42184431588E+03  0.10195581419E+04  0.25500000920E-02 0. -1.
</event>
<event>
 5   0  0.2038882E-05  0.1999879E+04  0.7818609E-02  0.8606677E-01
       -2   -1    0    0    0  501  0.00000000000E+00  0.00000000000E+00  0.89227366838E+03  0.89227366839E+03  0.25500000920E-02 0.  1.
        2   -1    0    0  501    0  0.00000000000E+00  0.00000000000E+00 -0.11205973220E+04  0.11205973220E+04  0.25500000920E-02 0. -1.
    10030    2    1    2    0    0  0.00000000000E+00  0.00000000000E+00 -0.22832365363E+03  0.20128709904E+04  0.19998794797E+04 0.  0.
        3    1    3    3  502    0 -0.11717379122E+03 -0.19868209498E+03 -0.10934547517E+04  0.11175184904E+04  0.10100000352E+00 0. -1.
       -3    1    3    3    0  502  0.11717379122E+03  0.19868209498E+03  0.86513109806E+03  0.89535249999E+03  0.10100000352E+00 0.  1.
</event>
<event>
 5   0  0.9333353E-06  0.2000825E+04  0.7818609E-02  0.8606235E-01
       -1   -1    0    0    0  501  0.00000000000E+00  0.00000000000E+00  0.65509348544E+03  0.65509348546E+03  0.50400001928E-02 0. -1.
        1   -1    0    0  501    0  0.00000000000E+00  0.00000000000E+00 -0.15277597794E+04  0.15277597795E+04  0.50400001928E-02 0.  1.
    10030    2    1    2    0    0  0.00000000000E+00  0.00000000000E+00 -0.87266629401E+03  0.21828532649E+04  0.20008253086E+04 0.  0.
        2    1    3    3  502    0  0.13184810714E+03  0.13276210220E+03  0.63583405748E+03  0.66279306559E+03  0.25500000920E-02 0. -1.
       -2    1    3    3    0  502 -0.13184810714E+03 -0.13276210220E+03 -0.15085003515E+04  0.15200601993E+04  0.25500000920E-02 0.  1.
</event>
<event>
 5   0  0.9342635E-06  0.2003244E+04  0.7818609E-02  0.8605106E-01
        1   -1    0    0  501    0  0.00000000000E+00  0.00000000000E+00  0.89922771476E+03  0.89922771477E+03  0.50400001928E-02 0.  1.
       -1   -1    0    0    0  501  0.00000000000E+00  0.00000000000E+00 -0.11156757950E+04  0.11156757950E+04  0.50400001928E-02 0. -1.
    10030    2    1    2    0    0  0.00000000000E+00  0.00000000000E+00 -0.21644808026E+03  0.20149035098E+04  0.20032439648E+04 0.  0.
        5    1    3    3  502    0  0.48494750571E+03 -0.55919467120E+03  0.57050106201E+03  0.93454069754E+03  0.46999998093E+01 0.  1.
       -5    1    3    3    0  502 -0.48494750571E+03  0.55919467120E+03 -0.78694914227E+03  0.10803628123E+04  0.46999998093E+01 0. -1.
</event>
<event>
 5   0  0.1979765E-05  0.1999009E+04  0.7818609E-02  0.8607084E-01
       -2   -1    0    0    0  501  0.00000000000E+00  0.00000000000E+00  0.10488541472E+04  0.10488541472E+04  0.25500000920E-02 0.  1.
        2   -1    0    0  501    0  0.00000000000E+00  0.00000000000E+00 -0.95247720354E+03  0.95247720354E+03  0.25500000920E-02 0. -1.
    10030    2    1    2    0    0  0.00000000000E+00  0.00000000000E+00  0.96376943697E+02  0.20013313508E+04  0.19990094198E+04 0.  0.
        2    1    3    3  502    0  0.32427756373E+03 -0.94377613446E+03 -0.79153091700E+01  0.99796391841E+03  0.25500000920E-02 0.  1.
       -2    1    3    3    0  502 -0.32427756373E+03  0.94377613446E+03  0.10429225287E+03  0.10033674324E+04  0.25500000920E-02 0. -1.
</event>
<event>
 5   0  0.1999142E-05  0.1998572E+04  0.7818609E-02  0.8607289E-01
        2   -1    0    0  501    0  0.00000000000E+00  0.00000000000E+00  0.21545383918E+04  0.21545383918E+04  0.25500000920E-02 0.  1.
       -2   -1    0    0    0  501  0.00000000000E+00  0.00000000000E+00 -0.46347402097E+03  0.46347402098E+03  0.25500000920E-02 0. -1.
    10030    2    1    2    0    0  0.00000000000E+00  0.00000000000E+00  0.16910643709E+04  0.26180124128E+04  0.19985720621E+04 0.  0.
        1    1    3    3  502    0  0.78530248267E+02 -0.10616275867E+03 -0.45199445217E+03  0.47088906978E+03  0.50400001928E-02 0. -1.
       -1    1    3    3    0  502 -0.78530248267E+02  0.10616275867E+03  0.21430588230E+04  0.21471233430E+04  0.50400001928E-02 0.  1.
</event>
<event>
 5   0  0.9333353E-06  0.1995183E+04  0.7818609E-02  0.8608876E-01
        1   -1    0    0  501    0  0.00000000000E+00  0.00000000000E+00  0.15271860149E+04  0.15271860149E+04  0.50400001928E-02 0. -1.
       -1   -1    0    0    0  501  0.00000000000E+00  0.00000000000E+00 -0.65164839539E+03  0.65164839541E+03  0.50400001928E-02 0.  1.
    10030    2    1    2    0    0  0.00000000000E+00  0.00000000000E+00  0.87553761952E+03  0.21788344103E+04  0.19951825141E+04 0.  0.
        2    1    3    3  502    0 -0.42777498147E+01  0.78994480220E+03  0.11030734551E+04  0.13567616361E+04  0.25500000920E-02 0. -1.
       -2    1    3    3    0  502  0.42777498147E+01 -0.78994480220E+03 -0.22753583563E+03  0.82207277425E+03  0.25500000920E-02 0.  1.
</event>
<event>
 5   0  0.9220260E-06  0.1988040E+04  0.7818609E-02  0.8612233E-01
        1   -1    0    0  501    0  0.00000000000E+00  0.00000000000E+00  0.19042066377E+04  0.19042066377E+04  0.50400001928E-02 0. -1.
       -1   -1    0    0    0  501  0.00000000000E+00  0.00000000000E+00 -0.51889109616E+03  0.51889109618E+03  0.50400001928E-02 0.  1.
    10030    2    1    2    0    0  0.00000000000E+00  0.00000000000E+00  0.13853155415E+04  0.24230977339E+04  0.19880401098E+04 0.  0.
        3    1    3    3  502    0 -0.85033584801E+03  0.40660518615E+03  0.10774650940E+04  0.14315480679E+04  0.10100000352E+00 0. -1.
       -3    1    3    3    0  502  0.85033584801E+03 -0.40660518615E+03  0.30785044758E+03  0.99154966598E+03  0.10100000352E+00 0.  1.
</event>
<event>
 5   0  0.1979765E-05  0.1997076E+04  0.7818609E-02  0.8607989E-01
        2   -1    0    0  501    0  0.00000000000E+00  0.00000000000E+00  0.11565373832E+04  0.11565373832E+04  0.25500000920E-02 0. -1.
       -2   -1    0    0    0  501  0.00000000000E+00  0.00000000000E+00 -0.86212385347E+03  0.86212385348E+03  0.25500000920E-02 0.  1.
    10030    2    1    2    0    0  0.00000000000E+00  0.00000000000E+00  0.29441352977E+03  0.20186612367E+04  0.19970763286E+04 0.  0.
        2    1    3    3  502    0 -0.71214100965E+03  0.28233223340E+03  0.79461517532E+03  0.11037525015E+04  0.25500000920E-02 0. -1.
       -2    1    3    3    0  502  0.71214100965E+03 -0.28233223340E+03 -0.50020164555E+03  0.91490873526E+03  0.25500000920E-02 0.  1.
</event>
<event>
 5   0  0.9140695E-06  0.2000675E+04  0.7818609E-02  0.8606305E-01
       -1   -1    0    0    0  501  0.00000000000E+00  0.00000000000E+00  0.60303404325E+03  0.60303404327E+03  0.50400001928E-02 0.  1.
        1   -1    0    0  501    0  0.00000000000E+00  0.00000000000E+00 -0.16593998758E+04  0.16593998758E+04  0.50400001928E-02 0. -1.
    10030    2    1    2    0    0  0.00000000000E+00  0.00000000000E+00 -0.10563658326E+04  0.22624339191E+04  0.20006745028E+04 0.  0.
        1    1    3    3  502    0  0.11439471598E+03 -0.98781408684E+02  0.59004749652E+03  0.60909766534E+03  0.50400001928E-02 0.  1.
       -1    1    3    3    0  502 -0.11439471598E+03  0.98781408684E+02 -0.16464133291E+04  0.16533362538E+04  0.50400001928E-02 0. -1.
</event>
<event>
 5   0  0.9140695E-06  0.1997175E+04  0.7818609E-02  0.8607942E-01
        1   -1    0    0  501    0  0.00000000000E+00  0.00000000000E+00  0.85828309882E+03  0.85828309884E+03  0.50400001928E-02 0.  1.
       -1   -1    0    0    0  501  0.00000000000E+00  0.00000000000E+00 -0.11618279338E+04  0.11618279338E+04  0.50400001928E-02 0. -1.
    10030    2    1    2    0    0  0.00000000000E+00  0.00000000000E+00 -0.30354483499E+03  0.20201110327E+04  0.19971752846E+04 0.  0.
        1    1    3    3  502    0 -0.36938110987E+03 -0.88164573809E+03 -0.44394195290E+03  0.10539573376E+04  0.50400001928E-02 0. -1.
       -1    1    3    3    0  502  0.36938110987E+03  0.88164573809E+03  0.14039711791E+03  0.96615369510E+03  0.50400001928E-02 0.  1.
</event>
<event>
 5   0  0.9333353E-06  0.2002166E+04  0.7818609E-02  0.8605609E-01
       -1   -1    0    0    0  501  0.00000000000E+00  0.00000000000E+00  0.84507802241E+03  0.84507802242E+03  0.50400001928E-02 0. -1.
        1   -1    0    0  501    0  0.00000000000E+00  0.00000000000E+00 -0.11858874020E+04  0.11858874020E+04  0.50400001928E-02 0.  1.
    10030    2    1    2    0    0  0.00000000000E+00  0.00000000000E+00 -0.34080937962E+03  0.20309654245E+04  0.20021662074E+04 0.  0.
        2    1    3    3  502    0  0.56313504044E+03 -0.52282208395E+03 -0.82127523263E+03  0.11247030777E+04  0.25500000920E-02 0.  1.
       -2    1    3    3    0  502 -0.56313504044E+03  0.52282208395E+03  0.48046585302E+03  0.90626234676E+03  0.25500000920E-02 0. -1.
</event>
<event>
 5   0  0.2003576E-05  0.1999684E+04  0.7818609E-02  0.8606768E-01
        2   -1    0    0  501    0  0.00000000000E+00  0.00000000000E+00  0.19219723783E+04  0.19219723783E+04  0.25500000920E-02 0. -1.
       -2   -1    0    0    0  501  0.00000000000E+00  0.00000000000E+00 -0.52013449871E+03  0.52013449872E+03  0.25500000920E-02 0.  1.
    10030    2    1    2    0    0  0.00000000000E+00  0.00000000000E+00  0.14018378796E+04  0.24421068770E+04  0.19996841146E+04 0.  0.
        4    1    3    3  502    0 -0.47209292464E+03  0.25422241592E+03 -0.32970136247E+03  0.62944846299E+03  0.12699999809E+01 0.  1.
       -4    1    3    3    0  502  0.47209292464E+03 -0.25422241592E+03  0.17315392421E+04  0.18126584140E+04  0.12699999809E+01 0. -1.
</event>
<event>
 5   0  0.7132000E-06  0.2004978E+04  0.7818609E-02  0.8604297E-01
       -4   -1    0    0    0  501  0.00000000000E+00  0.00000000000E+00  0.85987870563E+03  0.85987964349E+03  0.12699999809E+01 0.  1.
        4   -1    0    0  501    0  0.00000000000E+00  0.00000000000E+00 -0.11687492978E+04  0.11687499878E+04  0.12699999809E+01 0. -1.
    10030    2    1    2    0    0  0.00000000000E+00  0.00000000000E+00 -0.30887059221E+03  0.20286296313E+04  0.20049780893E+04 0.  0.
        4    1    3    3  502    0  0.52998707438E+03 -0.28985840403E+03 -0.96392204953E+03  0.11375638548E+04  0.12699999809E+01 0. -1.
       -4    1    3    3    0  502 -0.52998707438E+03  0.28985840403E+03  0.65505145732E+03  0.89106577649E+03  0.12699999809E+01 0.  1.
</event>
<event>
 5   0  0.2003576E-05  0.1999684E+04  0.7818609E-02  0.8606768E-01
        2   -1    0    0  501    0  0.00000000000E+00  0.00000000000E+00  0.14400645495E+04  0.14400645495E+04  0.25500000920E-02 0.  1.
       -2   -1    0    0    0  501  0.00000000000E+00  0.00000000000E+00 -0.69419377580E+03  0.69419377580E+03  0.25500000920E-02 0. -1.
    10030    2    1    2    0    0  0.00000000000E+00  0.00000000000E+00  0.74587077373E+03  0.21342583253E+04  0.19996838220E+04 0.  0.
        4    1    3    3  502    0  0.37142244869E+02  0.68204073203E+03  0.11522259421E+04  0.13394720382E+04  0.12699999809E+01 0.  1.
       -4    1    3    3    0  502 -0.37142244869E+02 -0.68204073203E+03 -0.40635516837E+03  0.79478628716E+03  0.12699999809E+01 0. -1.
</event>
<event>
 5   0  0.1999142E-05  0.1995204E+04  0.7818609E-02  0.8608866E-01
        2   -1    0    0  501    0  0.00000000000E+00  0.00000000000E+00  0.25774888540E+04  0.25774888540E+04  0.25500000920E-02 0.  1.
       -2   -1    0    0    0  501  0.00000000000E+00  0.00000000000E+00 -0.38611615846E+03  0.38611615847E+03  0.25500000920E-02 0. -1.
    10030    2    1    2    0    0  0.00000000000E+00  0.00000000000E+00  0.21913726956E+04  0.29636050125E+04  0.19952043452E+04 0.  0.
        1    1    3    3  502    0 -0.96206576089E+03 -0.25986278051E+03  0.10274419578E+04  0.14313406896E+04  0.50400001928E-02 0.  1.
       -1    1    3    3    0  502  0.96206576089E+03  0.25986278051E+03  0.11639307377E+04  0.15322643229E+04  0.50400001928E-02 0. -1.
</event>
<event>
 5   0  0.2020029E-05  0.1997987E+04  0.7818609E-02  0.8607562E-01
       -2   -1    0    0    0  501  0.00000000000E+00  0.00000000000E+00  0.84963269024E+03  0.84963269025E+03  0.25500000920E-02 0. -1.
        2   -1    0    0  501    0  0.00000000000E+00  0.00000000000E+00 -0.11746112612E+04  0.11746112613E+04  0.25500000920E-02 0.  1.
    10030    2    1    2    0    0  0.00000000000E+00  0.00000000000E+00 -0.32497857101E+03  0.20242439515E+04  0.19979871130E+04 0.  0.
        5    1    3    3  502    0 -0.35915767088E+03 -0.61414215330E+03  0.54801216347E+03  0.89805581025E+03  0.46999998093E+01 0. -1.
       -5    1    3    3    0  502  0.35915767088E+03  0.61414215330E+03 -0.87299073447E+03  0.11261881412E+04  0.46999998093E+01 0.  1.
</event>
<event>
 5   0  0.2038882E-05  0.1998496E+04  0.7818609E-02  0.8607324E-01
        2   -1    0    0  501    0  0.00000000000E+00  0.00000000000E+00  0.16902906157E+04  0.16902906157E+04  0.25500000920E-02 0.  1.
       -2   -1    0    0    0  501  0.00000000000E+00  0.00000000000E+00 -0.59072453790E+03  0.59072453791E+03  0.25500000920E-02 0. -1.
    10030    2    1    2    0    0  0.00000000000E+00  0.00000000000E+00  0.10995660778E+04  0.22810151536E+04  0.19984955771E+04 0.  0.
        3    1    3    3  502    0  0.67960176959E+03 -0.23925546057E+03 -0.24047960605E+03  0.75956052542E+03  0.10100000352E+00 0. -1.
       -3    1    3    3    0  502 -0.67960176959E+03  0.23925546057E+03  0.13400456838E+04  0.15214546282E+04  0.10100000352E+00 0.  1.
</event>
<event>
 5   0  0.2003576E-05  0.2002465E+04  0.7818609E-02  0.8605469E-01
        2   -1    0    0  501    0  0.00000000000E+00  0.00000000000E+00  0.10746860865E+04  0.10746860865E+04  0.25500000920E-02 0.  1.
       -2   -1    0    0    0  501  0.00000000000E+00  0.00000000000E+00 -0.93279929054E+03  0.93279929055E+03  0.25500000920E-02 0. -1.
    10030    2    1    2    0    0  0.00000000000E+00  0.00000000000E+00  0.14188679594E+03  0.20074853770E+04  0.20024649001E+04 0.  0.
        4    1    3    3  502    0 -0.73782996478E+03  0.14166034727E+03  0.73442145417E+03  0.10506365671E+04  0.12699999809E+01 0.  1.
       -4    1    3    3    0  502  0.73782996478E+03 -0.14166034727E+03 -0.59253465823E+03  0.95684880991E+03  0.12699999809E+01 0. -1.
</event>
<event>
 5   0  0.9220260E-06  0.2000265E+04  0.7818609E-02  0.8606497E-01
       -1   -1    0    0    0  501  0.00000000000E+00  0.00000000000E+00  0.71172901382E+03  0.71172901384E+03  0.50400001928E-02 0.  1.
        1   -1    0    0  501    0  0.00000000000E+00  0.00000000000E+00 -0.14054011580E+04  0.14054011580E+04  0.50400001928E-02 0. -1.
    10030    2    1    2    0    0  0.00000000000E+00  0.00000000000E+00 -0.69367214417E+03  0.21171301718E+04  0.20002647627E+04 0.  0.
        3    1    3    3  502    0  0.65479817275E+03 -0.44489324287E+03 -0.99375293418E+03  0.12705256979E+04  0.10100000352E+00 0. -1.
       -3    1    3    3    0  502 -0.65479817275E+03  0.44489324287E+03  0.30008079001E+03  0.84660447396E+03  0.10100000352E+00 0.  1.
</event>
<event>
 5   0  0.9333353E-06  0.2002922E+04  0.7818609E-02  0.8605256E-01
        1   -1    0    0  501    0  0.00000000000E+00  0.00000000000E+00  0.16189482329E+04  0.16189482329E+04  0.50400001928E-02 0. -1.
       -1   -1    0    0    0  501  0.00000000000E+00  0.00000000000E+00 -0.61949132149E+03  0.61949132151E+03  0.50400001928E-02 0.  1.
    10030    2    1    2    0    0  0.00000000000E+00  0.00000000000E+00  0.99945691142E+03  0.22384395544E+04  0.20029222454E+04 0.  0.
        2    1    3    3  502    0  0.27567680446E+03  0.79058742629E+03  0.11137894960E+04  0.13933962898E+04  0.25500000920E-02 0. -1.
       -2    1    3    3    0  502 -0.27567680446E+03 -0.79058742629E+03 -0.11433258457E+03  0.84504326459E+03  0.25500000920E-02 0.  1.
</event>
<event>
 5   0  0.9220260E-06  0.1996261E+04  0.7818609E-02  0.8608371E-01
       -1   -1    0    0    0  501  0.00000000000E+00  0.00000000000E+00  0.13463792671E+04  0.13463792671E+04  0.50400001928E-02 0. -1.
        1   -1    0    0  501    0  0.00000000000E+00  0.00000000000E+00 -0.73995809150E+03  0.73995809152E+03  0.50400001928E-02 0.  1.
    10030    2    1    2    0    0  0.00000000000E+00  0.00000000000E+00  0.60642117557E+03  0.20863373586E+04  0.19962607374E+04 0.  0.
        3    1    3    3  502    0 -0.38236369394E+03 -0.68333789188E+03 -0.34367860307E+03  0.85514189544E+03  0.10100000352E+00 0.  1.
       -3    1    3    3    0  502  0.38236369394E+03  0.68333789188E+03  0.95009977864E+03  0.12311954632E+04  0.10100000352E+00 0. -1.
</event>
<event>
 5   0  0.2003576E-05  0.1947347E+04  0.7818609E-02  0.8631641E-01
       -2   -1    0    0    0  501  0.00000000000E+00  0.00000000000E+00  0.82495032194E+03  0.82495032195E+03  0.25500000920E-02 0. -1.
        2   -1    0    0  501    0  0.00000000000E+00  0.00000000000E+00 -0.11492084618E+04  0.11492084618E+04  0.25500000920E-02 0.  1.
    10030    2    1    2    0    0  0.00000000000E+00  0.00000000000E+00 -0.32425813986E+03  0.19741587838E+04  0.19473468007E+04 0.  0.
        4    1    3    3  502    0  0.86765567607E+03 -0.94962208714E+02  0.27531417903E+03  0.91522877106E+03  0.12699999809E+01 0. -1.
       -4    1    3    3    0  502 -0.86765567607E+03  0.94962208714E+02 -0.59957231889E+03  0.10589300127E+04  0.12699999809E+01 0.  1.
</event>
<event>
 5   0  0.9140695E-06  0.1998720E+04  0.7818609E-02  0.8607219E-01
        1   -1    0    0  501    0  0.00000000000E+00  0.00000000000E+00  0.63706760042E+03  0.63706760044E+03  0.50400001928E-02 0. -1.
       -1   -1    0    0    0  501  0.00000000000E+00  0.00000000000E+00 -0.15676842566E+04  0.15676842566E+04  0.50400001928E-02 0.  1.
    10030    2    1    2    0    0  0.00000000000E+00  0.00000000000E+00 -0.93061665615E+03  0.22047518570E+04  0.19987204383E+04 0.  0.
        1    1    3    3  502    0  0.88634572210E+03 -0.90781085283E+02 -0.96459250692E+03  0.13131217190E+04  0.50400001928E-02 0.  1.
       -1    1    3    3    0  502 -0.88634572210E+03  0.90781085283E+02  0.33975850770E+02  0.89163013800E+03  0.50400001928E-02 0. -1.
</event>
<event>
 5   0  0.9342635E-06  0.1997787E+04  0.7818609E-02  0.8607656E-01
       -1   -1    0    0    0  501  0.00000000000E+00  0.00000000000E+00  0.11440521554E+04  0.11440521554E+04  0.50400001928E-02 0.  1.
        1   -1    0    0  501    0  0.00000000000E+00  0.00000000000E+00 -0.87215300484E+03  0.87215300485E+03  0.50400001928E-02 0. -1.
    10030    2    1    2    0    0  0.00000000000E+00  0.00000000000E+00  0.27189915055E+03  0.20162051602E+04  0.19977873010E+04 0.  0.
        5    1    3    3  502    0 -0.64319513603E+03  0.26523069968E+03 -0.58740018534E+03  0.91055388352E+03  0.46999998093E+01 0. -1.
       -5    1    3    3    0  502  0.64319513603E+03 -0.26523069968E+03  0.85929933589E+03  0.11056512767E+04  0.46999998093E+01 0.  1.
</event>
<event>
 5   0  0.9140695E-06  0.2001537E+04  0.7818609E-02  0.8605902E-01
       -1   -1    0    0    0  501  0.00000000000E+00  0.00000000000E+00  0.10990809160E+04  0.10990809160E+04  0.50400001928E-02 0.  1.
        1   -1    0    0  501    0  0.00000000000E+00  0.00000000000E+00 -0.91125036037E+03  0.91125036038E+03  0.50400001928E-02 0. -1.
    10030    2    1    2    0    0  0.00000000000E+00  0.00000000000E+00  0.18783055564E+03  0.20103312764E+04  0.20015372900E+04 0.  0.
        1    1    3    3  502    0  0.94797711679E+03 -0.12831268004E+03 -0.20133736524E+03  0.97757940470E+03  0.50400001928E-02 0. -1.
       -1    1    3    3    0  502 -0.94797711679E+03  0.12831268004E+03  0.38916792087E+03  0.10327518717E+04  0.50400001928E-02 0.  1.
</event>
<event>
 5   0  0.9333353E-06  0.1996512E+04  0.7818609E-02  0.8608253E-01
        1   -1    0    0  501    0  0.00000000000E+00  0.00000000000E+00  0.15190502591E+04  0.15190502591E+04  0.50400001928E-02 0.  1.
       -1   -1    0    0    0  501  0.00000000000E+00  0.00000000000E+00 -0.65601168209E+03  0.65601168211E+03  0.50400001928E-02 0. -1.
    10030    2    1    2    0    0  0.00000000000E+00  0.00000000000E+00  0.86303857705E+03  0.21750619413E+04  0.19965116736E+04 0.  0.
        2    1    3    3  502    0  0.95530519806E+03 -0.20664446340E+03  0.21037614950E+03  0.99978401666E+03  0.25500000920E-02 0.  1.
       -2    1    3    3    0  502 -0.95530519806E+03  0.20664446340E+03  0.65266242755E+03  0.11752779246E+04  0.25500000920E-02 0. -1.
</event>
<event>
 5   0  0.2020029E-05  0.1993612E+04  0.7818609E-02  0.8609613E-01
        2   -1    0    0  501    0  0.00000000000E+00  0.00000000000E+00  0.94906665259E+03  0.94906665259E+03  0.25500000920E-02 0.  1.
       -2   -1    0    0    0  501  0.00000000000E+00  0.00000000000E+00 -0.10469465036E+04  0.10469465036E+04  0.25500000920E-02 0. -1.
    10030    2    1    2    0    0  0.00000000000E+00  0.00000000000E+00 -0.97879851039E+02  0.19960131562E+04  0.19936118114E+04 0.  0.
        5    1    3    3  502    0  0.28278542346E+03 -0.56328202902E+03 -0.82210431247E+03  0.10359207646E+04  0.46999998093E+01 0. -1.
       -5    1    3    3    0  502 -0.28278542346E+03  0.56328202902E+03  0.72422446143E+03  0.96009239163E+03  0.46999998093E+01 0.  1.
</event>
<event>
 5   0  0.2003576E-05  0.2003432E+04  0.7818609E-02  0.8605018E-01
        2   -1    0    0  501    0  0.00000000000E+00  0.00000000000E+00  0.58782889629E+03  0.58782889629E+03  0.25500000920E-02 0. -1.
       -2   -1    0    0    0  501  0.00000000000E+00  0.00000000000E+00 -0.17070179356E+04  0.17070179356E+04  0.25500000920E-02 0.  1.
    10030    2    1    2    0    0  0.00000000000E+00  0.00000000000E+00 -0.11191890393E+04  0.22948468319E+04  0.20034315252E+04 0.  0.
        4    1    3    3  502    0  0.44422043866E+02 -0.89563596532E+03 -0.48232785902E+02  0.89803402769E+03  0.12699999809E+01 0.  1.
       -4    1    3    3    0  502 -0.44422043866E+02  0.89563596532E+03 -0.10709562534E+04  0.13968128042E+04  0.12699999809E+01 0. -1.
</event>
<event>
 5   0  0.9220260E-06  0.2004029E+04  0.7818609E-02  0.8604739E-01
       -1   -1    0    0    0  501  0.00000000000E+00  0.00000000000E+00  0.13968682828E+04  0.13968682828E+04  0.50400001928E-02 0. -1.
        1   -1    0    0  501    0  0.00000000000E+00  0.00000000000E+00 -0.71877458327E+03  0.71877458329E+03  0.50400001928E-02 0.  1.
    10030    2    1    2    0    0  0.00000000000E+00  0.00000000000E+00  0.67809369955E+03  0.21156428661E+04  0.20040293590E+04 0.  0.
        3    1    3    3  502    0  0.26097604142E+03 -0.96707621519E+03  0.31134603025E+03  0.10489429255E+04  0.10100000352E+00 0.  1.
       -3    1    3    3    0  502 -0.26097604142E+03  0.96707621519E+03  0.36674766930E+03  0.10666999406E+04  0.10100000352E+00 0. -1.
</event>
<event>
 5   0  0.9333353E-06  0.1998738E+04  0.7818609E-02  0.8607211E-01
       -1   -1    0    0    0  501  0.00000000000E+00  0.00000000000E+00  0.11779055984E+04  0.11779055984E+04  0.50400001928E-02 0.  1.
        1   -1    0    0  501    0  0.00000000000E+00  0.00000000000E+00 -0.84789350153E+03  0.84789350154E+03  0.50400001928E-02 0. -1.
    10030    2    1    2    0    0  0.00000000000E+00  0.00000000000E+00  0.33001209685E+03  0.20257990999E+04  0.19987381042E+04 0.  0.
        2    1    3    3  502    0 -0.41375939927E+03  0.32536877970E+03  0.10260233128E+04  0.11531632676E+04  0.25500000920E-02 0.  1.
       -2    1    3    3    0  502  0.41375939927E+03 -0.32536877970E+03 -0.69601121591E+03  0.87263583239E+03  0.25500000920E-02 0. -1.
</event>
<event>
 5   0  0.2003576E-05  0.2001274E+04  0.7818609E-02  0.8606025E-01
        2   -1    0    0  501    0  0.00000000000E+00  0.00000000000E+00  0.14683358214E+04  0.14683358214E+04  0.25500000920E-02 0. -1.
       -2   -1    0    0    0  501  0.00000000000E+00  0.00000000000E+00 -0.68191071146E+03  0.68191071146E+03  0.25500000920E-02 0.  1.
    10030    2    1    2    0    0  0.00000000000E+00  0.00000000000E+00  0.78642510993E+03  0.21502465329E+04  0.20012735192E+04 0.  0.
        4    1    3    3  502    0  0.42467127013E+03  0.76059780058E+03  0.92222256469E+03  0.12686018972E+04  0.12699999809E+01 0. -1.
       -4    1    3    3    0  502 -0.42467127013E+03 -0.76059780058E+03 -0.13579745476E+03  0.88164463563E+03  0.12699999809E+01 0.  1.
</event>
<event>
 5   0  0.9140695E-06  0.1996464E+04  0.7818609E-02  0.8608275E-01
       -1   -1    0    0    0  501  0.00000000000E+00  0.00000000000E+00  0.48316801088E+03  0.48316801091E+03  0.50400001928E-02 0.  1.
        1   -1    0    0  501    0  0.00000000000E+00  0.00000000000E+00 -0.20623621811E+04  0.20623621811E+04  0.50400001928E-02 0. -1.
    10030    2    1    2    0    0  0.00000000000E+00  0.00000000000E+00 -0.15791941702E+04  0.25455301920E+04  0.19964643075E+04 0.  0.
        1    1    3    3  502    0 -0.11214738006E+02 -0.74599754678E+02  0.47952838259E+03  0.48542596086E+03  0.50400001928E-02 0.  1.
       -1    1    3    3    0  502  0.11214738006E+02  0.74599754678E+02 -0.20587225528E+04  0.20601042311E+04  0.50400001928E-02 0. -1.
</event>
<event>
 5   0  0.1999142E-05  0.1998880E+04  0.7818609E-02  0.8607144E-01
        2   -1    0    0  501    0  0.00000000000E+00  0.00000000000E+00  0.13021024525E+04  0.13021024525E+04  0.25500000920E-02 0.  1.
       -2   -1    0    0    0  501  0.00000000000E+00  0.00000000000E+00 -0.76712902687E+03  0.76712902687E+03  0.25500000920E-02 0. -1.
    10030    2    1    2    0    0  0.00000000000E+00  0.00000000000E+00  0.53497342559E+03  0.20692314793E+04  0.19988802738E+04 0.  0.
        1    1    3    3  502    0 -0.14678773016E+03 -0.31212015727E+03  0.12385390650E+04  0.12856689488E+04  0.50400001928E-02 0.  1.
       -1    1    3    3    0  502  0.14678773016E+03  0.31212015727E+03 -0.70356563941E+03  0.78356253055E+03  0.50400001928E-02 0. -1.
</event>
<event>
 5   0  0.9140695E-06  0.1999241E+04  0.7818609E-02  0.8606975E-01
       -1   -1    0    0    0  501  0.00000000000E+00  0.00000000000E+00  0.67275108295E+03  0.67275108297E+03  0.50400001928E-02 0. -1.
        1   -1    0    0  501    0  0.00000000000E+00  0.00000000000E+00 -0.14853063436E+04  0.14853063436E+04  0.50400001928E-02 0.  1.
    10030    2    1    2    0    0  0.00000000000E+00  0.00000000000E+00 -0.81255526062E+03  0.21580574266E+04  0.19992413073E+04 0.  0.
        1    1    3    3  502    0  0.17803478764E+03  0.88055900245E+03 -0.87946190443E+03  0.12571928189E+04  0.50400001928E-02 0.  1.
       -1    1    3    3    0  502 -0.17803478764E+03 -0.88055900245E+03  0.66906643806E+02  0.90086460771E+03  0.50400001928E-02 0. -1.
</event>
<event>
 5   0  0.9140695E-06  0.2001138E+04  0.7818609E-02  0.8606089E-01
        1   -1    0    0  501    0  0.00000000000E+00  0.00000000000E+00  0.13543999249E+04  0.13543999250E+04  0.50400001928E-02 0.  1.
       -1   -1    0    0    0  501  0.00000000000E+00  0.00000000000E+00 -0.73917481881E+03  0.73917481882E+03  0.50400001928E-02 0. -1.
    10030    2    1    2    0    0  0.00000000000E+00  0.00000000000E+00  0.61522510614E+03  0.20935747438E+04  0.20011379954E+04 0.  0.
        1    1    3    3  502    0  0.90409637988E+03  0.42771817334E+03  0.27792540404E+03  0.10380634037E+04  0.50400001928E-02 0. -1.
       -1    1    3    3    0  502 -0.90409637988E+03 -0.42771817334E+03  0.33729970210E+03  0.10555113401E+04  0.50400001928E-02 0.  1.
</event>
<event>
 5   0  0.2038882E-05  0.2001686E+04  0.7818609E-02  0.8605833E-01
       -2   -1    0    0    0  501  0.00000000000E+00  0.00000000000E+00  0.39570192238E+03  0.39570192239E+03  0.25500000920E-02 0.  1.
        2   -1    0    0  501    0  0.00000000000E+00  0.00000000000E+00 -0.25314175628E+04  0.25314175628E+04  0.25500000920E-02 0. -1.
    10030    2    1    2    0    0  0.00000000000E+00  0.00000000000E+00 -0.21357156404E+04  0.29271194852E+04  0.20016860852E+04 0.  0.
        3    1    3    3  502    0  0.97467613017E+03  0.91824302430E+02 -0.76370251886E+03  0.12416387594E+04  0.10100000352E+00 0.  1.
       -3    1    3    3    0  502 -0.97467613017E+03 -0.91824302430E+02 -0.13720131215E+04  0.16854807258E+04  0.10100000352E+00 0. -1.
</event>
<event>
 5   0  0.9342635E-06  0.2007793E+04  0.7818609E-02  0.8602986E-01
       -1   -1    0    0    0  501  0.00000000000E+00  0.00000000000E+00  0.36224314011E+03  0.36224314014E+03  0.50400001928E-02 0.  1.
        1   -1    0    0  501    0  0.00000000000E+00  0.00000000000E+00 -0.27821331917E+04  0.27821331917E+04  0.50400001928E-02 0. -1.
    10030    2    1    2    0    0  0.00000000000E+00  0.00000000000E+00 -0.24198900516E+04  0.31443763318E+04  0.20077934790E+04 0.  0.
        5    1    3    3  502    0 -0.54852122324E+03  0.72389970664E+03 -0.18796736942E+04  0.20876066689E+04  0.46999998093E+01 0. -1.
       -5    1    3    3    0  502  0.54852122324E+03 -0.72389970664E+03 -0.54021635742E+03  0.10567696629E+04  0.46999998093E+01 0.  1.
</event>
<event>
 5   0  0.2038882E-05  0.2001789E+04  0.7818609E-02  0.8605785E-01
       -2   -1    0    0    0  501  0.00000000000E+00  0.00000000000E+00  0.47997422684E+03  0.47997422685E+03  0.25500000920E-02 0.  1.
        2   -1    0    0  501    0  0.00000000000E+00  0.00000000000E+00 -0.20871749113E+04  0.20871749113E+04  0.25500000920E-02 0. -1.
    10030    2    1    2    0    0  0.00000000000E+00  0.00000000000E+00 -0.16072006844E+04  0.25671491381E+04  0.20017893639E+04 0.  0.
        3    1    3    3  502    0 -0.69586199320E+03 -0.61115841069E+03 -0.12903344968E+04  0.15883014955E+04  0.10100000352E+00 0.  1.
       -3    1    3    3    0  502  0.69586199320E+03  0.61115841069E+03 -0.31686618761E+03  0.97884764269E+03  0.10100000352E+00 0. -1.
</event>
<event>
 5   0  0.2003576E-05  0.2007943E+04  0.7818609E-02  0.8602916E-01
        2   -1    0    0  501    0  0.00000000000E+00  0.00000000000E+00  0.11432789953E+04  0.11432789953E+04  0.25500000920E-02 0.  1.
       -2   -1    0    0    0  501  0.00000000000E+00  0.00000000000E+00 -0.88163838957E+03  0.88163838958E+03  0.25500000920E-02 0. -1.
    10030    2    1    2    0    0  0.00000000000E+00  0.00000000000E+00  0.26164060569E+03  0.20249173848E+04  0.20079428799E+04 0.  0.
        4    1    3    3  502    0 -0.14403872135E+03 -0.32311732510E+02  0.11322741327E+04  0.11418570514E+04  0.12699999809E+01 0.  1.
       -4    1    3    3    0  502  0.14403872135E+03  0.32311732510E+02 -0.87063352700E+03  0.88306033347E+03  0.12699999809E+01 0. -1.
</event>
<event>
 5   0  0.2038882E-05  0.2006730E+04  0.7818609E-02  0.8603480E-01
       -2   -1    0    0    0  501  0.00000000000E+00  0.00000000000E+00  0.11860959658E+04  0.11860959658E+04  0.25500000920E-02 0.  1.
        2   -1    0    0  501    0  0.00000000000E+00  0.00000000000E+00 -0.84878595369E+03  0.84878595369E+03  0.25500000920E-02 0. -1.
    10030    2    1    2    0    0  0.00000000000E+00  0.00000000000E+00  0.33731001210E+03  0.20348819195E+04  0.20067302714E+04 0.  0.
        3    1    3    3  502    0 -0.41751218310E+03 -0.39069171967E+03 -0.66740229751E+03  0.87885282031E+03  0.10100000352E+00 0. -1.
       -3    1    3    3    0  502  0.41751218310E+03  0.39069171967E+03  0.10047123096E+04  0.11560290992E+04  0.10100000352E+00 0.  1.
</event>
<event>
 5   0  0.1999142E-05  0.1997720E+04  0.7818609E-02  0.8607688E-01
        2   -1    0    0  501    0  0.00000000000E+00  0.00000000000E+00  0.53953046426E+03  0.53953046426E+03  0.25500000920E-02 0. -1.
       -2   -1    0    0    0  501  0.00000000000E+00  0.00000000000E+00 -0.18492391274E+04  0.18492391274E+04  0.25500000920E-02 0.  1.
    10030    2    1    2    0    0  0.00000000000E+00  0.00000000000E+00 -0.13097086631E+04  0.23887695917E+04  0.19977195448E+04 0.  0.
        1    1    3    3  502    0 -0.99883926514E+03 -0.31231571844E+01 -0.64817383221E+03  0.11907220282E+04  0.50400001928E-02 0.  1.
       -1    1    3    3    0  502  0.99883926514E+03  0.31231571844E+01 -0.66153483093E+03  0.11980475634E+04  0.50400001928E-02 0. -1.
</event>
<event>
 5   0  0.9333353E-06  0.2002580E+04  0.7818609E-02  0.8605415E-01
       -1   -1    0    0    0  501  0.00000000000E+00  0.00000000000E+00  0.96223980399E+03  0.96223980401E+03  0.50400001928E-02 0. -1.
        1   -1    0    0  501    0  0.00000000000E+00  0.00000000000E+00 -0.10419249364E+04  0.10419249364E+04  0.50400001928E-02 0.  1.
    10030    2    1    2    0    0  0.00000000000E+00  0.00000000000E+00 -0.79685132419E+02  0.20041647404E+04  0.20025799825E+04 0.  0.
        2    1    3    3  502    0  0.77583054885E+03  0.50504295638E+03  0.34203536361E+03  0.98689899093E+03  0.25500000920E-02 0. -1.
       -2    1    3    3    0  502 -0.77583054885E+03 -0.50504295638E+03 -0.42172049603E+03  0.10172657495E+04  0.25500000920E-02 0.  1.
</event>
<event>
 5   0  0.9370269E-06  0.1977225E+04  0.7818609E-02  0.8617344E-01
        1   -1    0    0  501    0  0.00000000000E+00  0.00000000000E+00  0.84627714828E+03  0.84627714830E+03  0.50400001928E-02 0. -1.
       -1   -1    0    0    0  501  0.00000000000E+00  0.00000000000E+00 -0.11548867845E+04  0.11548867845E+04  0.50400001928E-02 0.  1.
    10030    2    1    2    0    0  0.00000000000E+00  0.00000000000E+00 -0.30860963619E+03  0.20011639328E+04  0.19772246150E+04 0.  0.
        4    1    3    3  502    0 -0.15146500790E+03  0.96210273383E+03 -0.32597377907E+03  0.10270559072E+04  0.12699999809E+01 0.  1.
       -4    1    3    3    0  502  0.15146500790E+03 -0.96210273383E+03  0.17364142881E+02  0.97410802554E+03  0.12699999809E+01 0. -1.
</event>
<event>
 5   0  0.2020029E-05  0.2001890E+04  0.7818609E-02  0.8605738E-01
       -2   -1    0    0    0  501  0.00000000000E+00  0.00000000000E+00  0.73769559500E+03  0.73769559501E+03  0.25500000920E-02 0.  1.
        2   -1    0    0  501    0  0.00000000000E+00  0.00000000000E+00 -0.13581352657E+04  0.13581352657E+04  0.25500000920E-02 0. -1.
    10030    2    1    2    0    0  0.00000000000E+00  0.00000000000E+00 -0.62043967068E+03  0.20958308607E+04  0.20018895104E+04 0.  0.
        5    1    3    3  502    0  0.40976278906E+03  0.36163567092E+03  0.56769042871E+03  0.78802310539E+03  0.46999998093E+01 0.  1.
       -5    1    3    3    0  502 -0.40976278906E+03 -0.36163567092E+03 -0.11881300994E+04  0.13078077553E+04  0.46999998093E+01 0. -1.
</event>
<event>
 5   0  0.9140695E-06  0.2001766E+04  0.7818609E-02  0.8605795E-01
        1   -1    0    0  501    0  0.00000000000E+00  0.00000000000E+00  0.17110808111E+04  0.17110808111E+04  0.50400001928E-02 0. -1.
       -1   -1    0    0    0  501  0.00000000000E+00  0.00000000000E+00 -0.58545852647E+03  0.58545852650E+03  0.50400001928E-02 0.  1.
    10030    2    1    2    0    0  0.00000000000E+00  0.00000000000E+00  0.11256222847E+04  0.22965393376E+04  0.20017660706E+04 0.  0.
        1    1    3    3  502    0  0.97097252493E+01 -0.89994211704E+03  0.10652214614E+04  0.13945202956E+04  0.50400001928E-02 0. -1.
       -1    1    3    3    0  502 -0.97097252493E+01  0.89994211704E+03  0.60400823211E+02  0.90201904207E+03  0.50400001928E-02 0.  1.
</event>
<event>
 5   0  0.9370269E-06  0.2000018E+04  0.7818609E-02  0.8606612E-01
        1   -1    0    0  501    0  0.00000000000E+00  0.00000000000E+00  0.66986509185E+03  0.66986509186E+03  0.50400001928E-02 0. -1.
       -1   -1    0    0    0  501  0.00000000000E+00  0.00000000000E+00 -0.14928642915E+04  0.14928642915E+04  0.50400001928E-02 0.  1.
    10030    2    1    2    0    0  0.00000000000E+00  0.00000000000E+00 -0.82299919965E+03  0.21627293834E+04  0.20000176757E+04 0.  0.
        4    1    3    3  502    0  0.75092483390E+03  0.42978945656E+03  0.13069943436E+03  0.87503773529E+03  0.12699999809E+01 0. -1.
       -4    1    3    3    0  502 -0.75092483390E+03 -0.42978945656E+03 -0.95369863401E+03  0.12876916481E+04  0.12699999809E+01 0.  1.
</event>
<event>
 5   0  0.9342635E-06  0.1997107E+04  0.7818609E-02  0.8607975E-01
        1   -1    0    0  501    0  0.00000000000E+00  0.00000000000E+00  0.20760102572E+04  0.20760102572E+04  0.50400001928E-02 0. -1.
       -1   -1    0    0    0  501  0.00000000000E+00  0.00000000000E+00 -0.48030055519E+03  0.48030055522E+03  0.50400001928E-02 0.  1.
    10030    2    1    2    0    0  0.00000000000E+00  0.00000000000E+00  0.15957097020E+04  0.25563108124E+04  0.19971067865E+04 0.  0.
        5    1    3    3  502    0  0.82781980237E+03  0.11271841884E+03  0.97823532609E+02  0.84117929163E+03  0.46999998093E+01 0.  1.
       -5    1    3    3    0  502 -0.82781980237E+03 -0.11271841884E+03  0.14978861694E+04  0.17151315208E+04  0.46999998093E+01 0. -1.
</event>
<event>
 5   0  0.2003576E-05  0.2000275E+04  0.7818609E-02  0.8606492E-01
       -2   -1    0    0    0  501  0.00000000000E+00  0.00000000000E+00  0.52353794199E+03  0.52353794200E+03  0.25500000920E-02 0.  1.
        2   -1    0    0  501    0  0.00000000000E+00  0.00000000000E+00 -0.19106062795E+04  0.19106062795E+04  0.25500000920E-02 0. -1.
    10030    2    1    2    0    0  0.00000000000E+00  0.00000000000E+00 -0.13870683375E+04  0.24341442215E+04  0.20002748606E+04 0.  0.
        4    1    3    3  502    0  0.43181311999E+03 -0.49345494513E+03 -0.16125293455E+04  0.17407506589E+04  0.12699999809E+01 0. -1.
       -4    1    3    3    0  502 -0.43181311999E+03  0.49345494513E+03  0.22546100807E+03  0.69339356251E+03  0.12699999809E+01 0.  1.
</event>
<event>
 5   0  0.9140695E-06  0.2006274E+04  0.7818609E-02  0.8603693E-01
        1   -1    0    0  501    0  0.00000000000E+00  0.00000000000E+00  0.18517906040E+04  0.18517906041E+04  0.50400001928E-02 0.  1.
       -1   -1    0    0    0  501  0.00000000000E+00  0.00000000000E+00 -0.54341127371E+03  0.54341127374E+03  0.50400001928E-02 0. -1.
    10030    2    1    2    0    0  0.00000000000E+00  0.00000000000E+00  0.13083793303E+04  0.23952018778E+04  0.20062740499E+04 0.  0.
        1    1    3    3  502    0  0.48730089293E+03 -0.43595501886E+02  0.16996973483E+04  0.17687096438E+04  0.50400001928E-02 0.  1.
       -1    1    3    3    0  502 -0.48730089293E+03  0.43595501886E+02 -0.39131801800E+03  0.62649223401E+03  0.50400001928E-02 0. -1.
</event>
<event>
 5   0  0.1979765E-05  0.2004268E+04  0.7818609E-02  0.8604628E-01
       -2   -1    0    0    0  501  0.00000000000E+00  0.00000000000E+00  0.10203166456E+04  0.10203166456E+04  0.25500000920E-02 0. -1.
        2   -1    0    0  501    0  0.00000000000E+00  0.00000000000E+00 -0.98427568041E+03  0.98427568041E+03  0.25500000920E-02 0.  1.
    10030    2    1    2    0    0  0.00000000000E+00  0.00000000000E+00  0.36040965215E+02  0.20045923260E+04  0.20042683060E+04 0.  0.
        2    1    3    3  502    0  0.76728573236E+03 -0.35196829125E+03 -0.52212588529E+03  0.99258476375E+03  0.25500000920E-02 0.  1.
       -2    1    3    3    0  502 -0.76728573236E+03  0.35196829125E+03  0.55816685050E+03  0.10120075623E+04  0.25500000920E-02 0. -1.
</event>
<event>
 5   0  0.2020029E-05  0.2001654E+04  0.7818609E-02  0.8605848E-01
       -2   -1    0    0    0  501  0.00000000000E+00  0.00000000000E+00  0.80661353584E+03  0.80661353585E+03  0.25500000920E-02 0.  1.
        2   -1    0    0  501    0  0.00000000000E+00  0.00000000000E+00 -0.12418023230E+04  0.12418023230E+04  0.25500000920E-02 0. -1.
    10030    2    1    2    0    0  0.00000000000E+00  0.00000000000E+00 -0.43518878719E+03  0.20484158589E+04  0.20016538788E+04 0.  0.
        5    1    3    3  502    0 -0.43832844863E+03  0.15072071495E+03 -0.11253247970E+04  0.12170565113E+04  0.46999998093E+01 0. -1.
       -5    1    3    3    0  502  0.43832844863E+03 -0.15072071495E+03  0.69013600984E+03  0.83135934762E+03  0.46999998093E+01 0.  1.
</event>
<event>
 5   0  0.9220260E-06  0.1984845E+04  0.7818609E-02  0.8613739E-01
        1   -1    0    0  501    0  0.00000000000E+00  0.00000000000E+00  0.30032548257E+04  0.30032548257E+04  0.50400001928E-02 0. -1.
       -1   -1    0    0    0  501  0.00000000000E+00  0.00000000000E+00 -0.32794491063E+03  0.32794491067E+03  0.50400001928E-02 0.  1.
    10030    2    1    2    0    0  0.00000000000E+00  0.00000000000E+00  0.26753099150E+04  0.33311997363E+04  0.19848447148E+04 0.  0.
        3    1    3    3  502    0 -0.67271182712E+03 -0.70726863258E+03  0.10368097854E+04  0.14239889966E+04  0.10100000352E+00 0. -1.
       -3    1    3    3    0  502  0.67271182712E+03  0.70726863258E+03  0.16385001296E+04  0.19072107398E+04  0.10100000352E+00 0.  1.
</event>
<event>
 5   0  0.9342635E-06  0.1998736E+04  0.7818609E-02  0.8607212E-01
       -1   -1    0    0    0  501  0.00000000000E+00  0.00000000000E+00  0.87597757527E+03  0.87597757528E+03  0.50400001928E-02 0. -1.
        1   -1    0    0  501    0  0.00000000000E+00  0.00000000000E+00 -0.11401387875E+04  0.11401387875E+04  0.50400001928E-02 0.  1.
    10030    2    1    2    0    0  0.00000000000E+00  0.00000000000E+00 -0.26416121224E+03  0.20161163628E+04  0.19987356109E+04 0.  0.
        5    1    3    3  502    0 -0.13558568330E+03 -0.85709275845E+03 -0.63209517606E+03  0.10735724827E+04  0.46999998093E+01 0.  1.
       -5    1    3    3    0  502  0.13558568330E+03  0.85709275845E+03  0.36793396382E+03  0.94254388006E+03  0.46999998093E+01 0. -1.
</event>
<event>
 5   0  0.1979765E-05  0.2003716E+04  0.7818609E-02  0.8604885E-01
        2   -1    0    0  501    0  0.00000000000E+00  0.00000000000E+00  0.20893734714E+04  0.20893734714E+04  0.25500000920E-02 0.  1.
       -2   -1    0    0    0  501  0.00000000000E+00  0.00000000000E+00 -0.48039248935E+03  0.48039248935E+03  0.25500000920E-02 0. -1.
    10030    2    1    2    0    0  0.00000000000E+00  0.00000000000E+00  0.16089809820E+04  0.25697659607E+04  0.20037158712E+04 0.  0.
        2    1    3    3  502    0 -0.17227498135E+03  0.58759044927E+03 -0.21247483020E+03  0.64814100222E+03  0.25500000920E-02 0. -1.
       -2    1    3    3    0  502  0.17227498135E+03 -0.58759044927E+03  0.18214558122E+04  0.19216249585E+04  0.25500000920E-02 0.  1.
</event>
<event>
 5   0  0.9370269E-06  0.1999478E+04  0.7818609E-02  0.8606865E-01
        1   -1    0    0  501    0  0.00000000000E+00  0.00000000000E+00  0.87110683456E+03  0.87110683457E+03  0.50400001928E-02 0. -1.
       -1   -1    0    0    0  501  0.00000000000E+00  0.00000000000E+00 -0.11473659489E+04  0.11473659489E+04  0.50400001928E-02 0.  1.
    10030    2    1    2    0    0  0.00000000000E+00  0.00000000000E+00 -0.27625911431E+03  0.20184727835E+04  0.19994782518E+04 0.  0.
        4    1    3    3  502    0 -0.35106416902E+03  0.65086678131E+03  0.54101929354E+03  0.91628440272E+03  0.12699999809E+01 0. -1.
       -4    1    3    3    0  502  0.35106416902E+03 -0.65086678131E+03 -0.81727840785E+03  0.11021883807E+04  0.12699999809E+01 0.  1.
</event>
<event>
 5   0  0.2038882E-05  0.2002088E+04  0.7818609E-02  0.8605645E-01
       -2   -1    0    0    0  501  0.00000000000E+00  0.00000000000E+00  0.62823571603E+03  0.62823571604E+03  0.25500000920E-02 0.  1.
        2   -1    0    0  501    0  0.00000000000E+00  0.00000000000E+00 -0.15950853535E+04  0.15950853535E+04  0.25500000920E-02 0. -1.
    10030    2    1    2    0    0  0.00000000000E+00  0.00000000000E+00 -0.96684963745E+03  0.22233210695E+04  0.20020884987E+04 0.  0.
        3    1    3    3  502    0 -0.13654130439E+03 -0.80249071148E+03  0.16358345128E+03  0.83029779329E+03  0.10100000352E+00 0.  1.
       -3    1    3    3    0  502  0.13654130439E+03  0.80249071148E+03 -0.11304330887E+04  0.13930232762E+04  0.10100000352E+00 0. -1.
</event>
<event>
 5   0  0.2020029E-05  0.1983884E+04  0.7818609E-02  0.8614193E-01
        2   -1    0    0  501    0  0.00000000000E+00  0.00000000000E+00  0.65605882552E+03  0.65605882553E+03  0.25500000920E-02 0. -1.
       -2   -1    0    0    0  501  0.00000000000E+00  0.00000000000E+00 -0.14997875362E+04  0.14997875362E+04  0.25500000920E-02 0.  1.
    10030    2    1    2    0    0  0.00000000000E+00  0.00000000000E+00 -0.84372871063E+03  0.21558463617E+04  0.19838839175E+04 0.  0.
        5    1    3    3  502    0  0.35543498225E+03 -0.91909974856E+03 -0.54504027766E+03  0.11261302627E+04  0.46999998093E+01 0. -1.
       -5    1    3    3    0  502 -0.35543498225E+03  0.91909974856E+03 -0.29868843297E+03  0.10297160989E+04  0.46999998093E+01 0.  1.
</event>
<event>
 5   0  0.1999142E-05  0.1992351E+04  0.7818609E-02  0.8610205E-01
        2   -1    0    0  501    0  0.00000000000E+00  0.00000000000E+00  0.86392202739E+03  0.86392202740E+03  0.25500000920E-02 0. -1.
       -2   -1    0    0    0  501  0.00000000000E+00  0.00000000000E+00 -0.11486750045E+04  0.11486750045E+04  0.25500000920E-02 0.  1.
    10030    2    1    2    0    0  0.00000000000E+00  0.00000000000E+00 -0.28475297712E+03  0.20125970319E+04  0.19923510120E+04 0.  0.
        1    1    3    3  502    0  0.74544914636E+03 -0.50681439809E+03 -0.57072606940E+03  0.10669037024E+04  0.50400001928E-02 0.  1.
       -1    1    3    3    0  502 -0.74544914636E+03  0.50681439809E+03  0.28597309228E+03  0.94569332949E+03  0.50400001928E-02 0. -1.
</event>
<event>
 5   0  0.9370269E-06  0.1995221E+04  0.7818609E-02  0.8608858E-01
       -1   -1    0    0    0  501  0.00000000000E+00  0.00000000000E+00  0.78324754013E+03  0.78324754015E+03  0.50400001928E-02 0. -1.
        1   -1    0    0  501    0  0.00000000000E+00  0.00000000000E+00 -0.12706416475E+04  0.12706416475E+04  0.50400001928E-02 0.  1.
    10030    2    1    2    0    0  0.00000000000E+00  0.00000000000E+00 -0.48739410732E+03  0.20538891876E+04  0.19952212356E+04 0.  0.
        4    1    3    3  502    0  0.46455180645E+03 -0.86937616159E+03 -0.85550137626E+02  0.98941585300E+03  0.12699999809E+01 0. -1.
       -4    1    3    3    0  502 -0.46455180645E+03  0.86937616159E+03 -0.40184396969E+03  0.10644733346E+04  0.12699999809E+01 0.  1.
</event>
<event>
 5   0  0.1999142E-05  0.2003910E+04  0.7818609E-02  0.8604795E-01
        2   -1    0    0  501    0  0.00000000000E+00  0.00000000000E+00  0.67034060327E+03  0.67034060327E+03  0.25500000920E-02 0.  1.
       -2   -1    0    0    0  501  0.00000000000E+00  0.00000000000E+00 -0.14976169233E+04  0.14976169233E+04  0.25500000920E-02 0. -1.
    10030    2    1    2    0    0  0.00000000000E+00  0.00000000000E+00 -0.82727632008E+03  0.21679575266E+04  0.20039096106E+04 0.  0.
        1    1    3    3  502    0  0.90188075434E+03 -0.43398016337E+03 -0.46421752143E+03  0.11032794680E+04  0.50400001928E-02 0. -1.
       -1    1    3    3    0  502 -0.90188075434E+03  0.43398016337E+03 -0.36305879864E+03  0.10646780586E+04  0.50400001928E-02 0.  1.
</event>
<event>
 5   0  0.9370269E-06  0.2004354E+04  0.7818609E-02  0.8604588E-01
        1   -1    0    0  501    0  0.00000000000E+00  0.00000000000E+00  0.21045137482E+04  0.21045137482E+04  0.50400001928E-02 0.  1.
       -1   -1    0    0    0  501  0.00000000000E+00  0.00000000000E+00 -0.47724014054E+03  0.47724014057E+03  0.50400001928E-02 0. -1.
    10030    2    1    2    0    0  0.00000000000E+00  0.00000000000E+00  0.16272736076E+04  0.25817538887E+04  0.20043536983E+04 0.  0.
        4    1    3    3  502    0 -0.66862067469E+03 -0.71929061865E+03  0.55626633330E+03  0.11286569218E+04  0.12699999809E+01 0. -1.
       -4    1    3    3    0  502  0.66862067469E+03  0.71929061865E+03  0.10710072743E+04  0.14530969669E+04  0.12699999809E+01 0.  1.
</event>
<event>
 5   0  0.2003576E-05  0.1999989E+04  0.7818609E-02  0.8606626E-01
       -2   -1    0    0    0  501  0.00000000000E+00  0.00000000000E+00  0.43113762809E+03  0.43113762810E+03  0.25500000920E-02 0.  1.
        2   -1    0    0  501    0  0.00000000000E+00  0.00000000000E+00 -0.23194186433E+04  0.23194186433E+04  0.25500000920E-02 0. -1.
    10030    2    1    2    0    0  0.00000000000E+00  0.00000000000E+00 -0.18882810153E+04  0.27505562714E+04  0.19999886524E+04 0.  0.
        4    1    3    3  502    0 -0.17431956799E+03  0.63134532185E+03 -0.19833715870E+04  0.20887193905E+04  0.12699999809E+01 0. -1.
       -4    1    3    3    0  502  0.17431956799E+03 -0.63134532185E+03  0.95090571779E+02  0.66183688092E+03  0.12699999809E+01 0.  1.
</event>
<event>
 5   0  0.9140695E-06  0.2000889E+04  0.7818609E-02  0.8606205E-01
       -1   -1    0    0    0  501  0.00000000000E+00  0.00000000000E+00  0.10608952177E+04  0.10608952177E+04  0.50400001928E-02 0. -1.
        1   -1    0    0  501    0  0.00000000000E+00  0.00000000000E+00 -0.94343852328E+03  0.94343852329E+03  0.50400001928E-02 0.  1.
    10030    2    1    2    0    0  0.00000000000E+00  0.00000000000E+00  0.11745669438E+03  0.20043337410E+04  0.20008892198E+04 0.  0.
        1    1    3    3  502    0 -0.33033716051E+03 -0.76549236801E+03 -0.49520481166E+03  0.96970563091E+03  0.50400001928E-02 0.  1.
       -1    1    3    3    0  502  0.33033716051E+03  0.76549236801E+03  0.61266150604E+03  0.10346281101E+04  0.50400001928E-02 0. -1.
</event>
<event>
 5   0  0.2020029E-05  0.2001890E+04  0.7818609E-02  0.8605738E-01
       -2   -1    0    0    0  501  0.00000000000E+00  0.00000000000E+00  0.47542331782E+03  0.47542331782E+03  0.25500000920E-02 0.  1.
        2   -1    0    0  501    0  0.00000000000E+00  0.00000000000E+00 -0.21073656133E+04  0.21073656133E+04  0.25500000920E-02 0. -1.
    10030    2    1    2    0    0  0.00000000000E+00  0.00000000000E+00 -0.16319422955E+04  0.25827889312E+04  0.20018898589E+04 0.  0.
        5    1    3    3  502    0 -0.72427247495E+03  0.30206026869E+02 -0.17064591403E+04  0.18540517548E+04  0.46999998093E+01 0. -1.
       -5    1    3    3    0  502  0.72427247495E+03 -0.30206026869E+02  0.74516844777E+02  0.72873717635E+03  0.46999998093E+01 0.  1.
</event>
<event>
 5   0  0.2020029E-05  0.1963538E+04  0.7818609E-02  0.8623860E-01
       -2   -1    0    0    0  501  0.00000000000E+00  0.00000000000E+00  0.75114912341E+03  0.75114912342E+03  0.25500000920E-02 0. -1.
        2   -1    0    0  501    0  0.00000000000E+00  0.00000000000E+00 -0.12831941228E+04  0.12831941228E+04  0.25500000920E-02 0.  1.
    10030    2    1    2    0    0  0.00000000000E+00  0.00000000000E+00 -0.53204499938E+03  0.20343432462E+04  0.19635377669E+04 0.  0.
        5    1    3    3  502    0  0.76349680186E+03 -0.43724677163E+02  0.37181440036E+03  0.85035713213E+03  0.46999998093E+01 0. -1.
       -5    1    3    3    0  502 -0.76349680186E+03  0.43724677163E+02 -0.90385939975E+03  0.11839861141E+04  0.46999998093E+01 0.  1.
</event>
<event>
 5   0  0.1979765E-05  0.2000921E+04  0.7818609E-02  0.8606190E-01
       -2   -1    0    0    0  501  0.00000000000E+00  0.00000000000E+00  0.41145581919E+03  0.41145581920E+03  0.25500000920E-02 0.  1.
        2   -1    0    0  501    0  0.00000000000E+00  0.00000000000E+00 -0.24326328972E+04  0.24326328972E+04  0.25500000920E-02 0. -1.
    10030    2    1    2    0    0  0.00000000000E+00  0.00000000000E+00 -0.20211770781E+04  0.28440887164E+04  0.20009207496E+04 0.  0.
        2    1    3    3  502    0  0.34362376933E+03  0.57480909471E+03 -0.20670534836E+04  0.21728306180E+04  0.25500000920E-02 0. -1.
       -2    1    3    3    0  502 -0.34362376933E+03 -0.57480909471E+03  0.45876405553E+02  0.67125809850E+03  0.25500000920E-02 0.  1.
</event>
<event>
 5   0  0.1979765E-05  0.2000510E+04  0.7818609E-02  0.8606382E-01
       -2   -1    0    0    0  501  0.00000000000E+00  0.00000000000E+00  0.80974987337E+03  0.80974987338E+03  0.25500000920E-02 0.  1.
        2   -1    0    0  501    0  0.00000000000E+00  0.00000000000E+00 -0.12355788130E+04  0.12355788130E+04  0.25500000920E-02 0. -1.
    10030    2    1    2    0    0  0.00000000000E+00  0.00000000000E+00 -0.42582893967E+03  0.20453286864E+04  0.20005097225E+04 0.  0.
        2    1    3    3  502    0  0.18689316697E+03 -0.68405432322E+03  0.50833354061E+03  0.87250350228E+03  0.25500000920E-02 0.  1.
       -2    1    3    3    0  502 -0.18689316697E+03  0.68405432322E+03 -0.93416248028E+03  0.11728251841E+04  0.25500000920E-02 0. -1.
</event>
<event>
 5   0  0.1999142E-05  0.2002832E+04  0.7818609E-02  0.8605298E-01
       -2   -1    0    0    0  501  0.00000000000E+00  0.00000000000E+00  0.96407778042E+03  0.96407778042E+03  0.25500000920E-02 0.  1.
        2   -1    0    0  501    0  0.00000000000E+00  0.00000000000E+00 -0.10401999530E+04  0.10401999530E+04  0.25500000920E-02 0. -1.
    10030    2    1    2    0    0  0.00000000000E+00  0.00000000000E+00 -0.76122172588E+02  0.20042777334E+04  0.20028316573E+04 0.  0.
        1    1    3    3  502    0  0.20004767294E+03  0.20079739537E+03 -0.99922058880E+03  0.10386435628E+04  0.50400001928E-02 0. -1.
       -1    1    3    3    0  502 -0.20004767294E+03 -0.20079739537E+03  0.92309841622E+03  0.96563417063E+03  0.50400001928E-02 0.  1.
</event>
<event>
 5   0  0.9220260E-06  0.2003353E+04  0.7818609E-02  0.8605055E-01
        1   -1    0    0  501    0  0.00000000000E+00  0.00000000000E+00  0.15669259254E+04  0.15669259254E+04  0.50400001928E-02 0. -1.
       -1   -1    0    0    0  501  0.00000000000E+00  0.00000000000E+00 -0.64033380168E+03  0.64033380170E+03  0.50400001928E-02 0.  1.
    10030    2    1    2    0    0  0.00000000000E+00  0.00000000000E+00  0.92659212375E+03  0.22072597271E+04  0.20033528245E+04 0.  0.
        3    1    3    3  502    0 -0.52317591957E+03  0.50219626268E+03  0.12245964964E+04  0.14232184366E+04  0.10100000352E+00 0. -1.
       -3    1    3    3    0  502  0.52317591957E+03 -0.50219626268E+03 -0.29800437261E+03  0.78404129059E+03  0.10100000352E+00 0.  1.
</event>
<event>
 5   0  0.9220260E-06  0.1996217E+04  0.7818609E-02  0.8608391E-01
        1   -1    0    0  501    0  0.00000000000E+00  0.00000000000E+00  0.15255844106E+04  0.15255844106E+04  0.50400001928E-02 0.  1.
       -1   -1    0    0    0  501  0.00000000000E+00  0.00000000000E+00 -0.65300909262E+03  0.65300909264E+03  0.50400001928E-02 0. -1.
    10030    2    1    2    0    0  0.00000000000E+00  0.00000000000E+00  0.87257531797E+03  0.21785935032E+04  0.19962169138E+04 0.  0.
        3    1    3    3  502    0  0.39029941001E+03 -0.30478301408E+03 -0.50948499985E+03  0.71049369484E+03  0.10100000352E+00 0. -1.
       -3    1    3    3    0  502 -0.39029941001E+03  0.30478301408E+03  0.13820603178E+04  0.14680998084E+04  0.10100000352E+00 0.  1.
</event>
<event>
 5   0  0.7132000E-06  0.2013040E+04  0.7818609E-02  0.8600548E-01
       -3   -1    0    0    0  501  0.00000000000E+00  0.00000000000E+00  0.11007889739E+04  0.11007889786E+04  0.10100000352E+00 0. -1.
        3   -1    0    0  501    0  0.00000000000E+00  0.00000000000E+00 -0.92032409587E+03  0.92032410141E+03  0.10100000352E+00 0.  1.
    10030    2    1    2    0    0  0.00000000000E+00  0.00000000000E+00  0.18046487807E+03  0.20211130800E+04  0.20130401163E+04 0.  0.
        3    1    3    3  502    0  0.65359052599E+02 -0.63316959646E+03 -0.69257831175E+03  0.94065948767E+03  0.10100000352E+00 0.  1.
       -3    1    3    3    0  502 -0.65359052599E+02  0.63316959646E+03  0.87304318982E+03  0.10804535923E+04  0.10100000352E+00 0. -1.
</event>
<event>
 5   0  0.2038882E-05  0.2001650E+04  0.7818609E-02  0.8605849E-01
       -2   -1    0    0    0  501  0.00000000000E+00  0.00000000000E+00  0.98783201225E+03  0.98783201225E+03  0.25500000920E-02 0. -1.
        2   -1    0    0  501    0  0.00000000000E+00  0.00000000000E+00 -0.10139893303E+04  0.10139893303E+04  0.25500000920E-02 0.  1.
    10030    2    1    2    0    0  0.00000000000E+00  0.00000000000E+00 -0.26157318086E+02  0.20018213426E+04  0.20016504396E+04 0.  0.
        3    1    3    3  502    0  0.98772545728E+03  0.12646262427E+03  0.87213182475E+02  0.99960018192E+03  0.10100000352E+00 0. -1.
       -3    1    3    3    0  502 -0.98772545728E+03 -0.12646262427E+03 -0.11337050056E+03  0.10022211607E+04  0.10100000352E+00 0.  1.
</event>
<event>
 5   0  0.9140695E-06  0.2004484E+04  0.7818609E-02  0.8604527E-01
       -1   -1    0    0    0  501  0.00000000000E+00  0.00000000000E+00  0.48072468920E+03  0.48072468922E+03  0.50400001928E-02 0.  1.
        1   -1    0    0  501    0  0.00000000000E+00  0.00000000000E+00 -0.20895313785E+04  0.20895313785E+04  0.50400001928E-02 0. -1.
    10030    2    1    2    0    0  0.00000000000E+00  0.00000000000E+00 -0.16088066893E+04  0.25702560677E+04  0.20044842953E+04 0.  0.
        1    1    3    3  502    0  0.80710225418E+03  0.19853805839E+03 -0.86275346115E+02  0.83562841306E+03  0.50400001928E-02 0.  1.
       -1    1    3    3    0  502 -0.80710225418E+03 -0.19853805839E+03 -0.15225313432E+04  0.17346276546E+04  0.50400001928E-02 0. -1.
</event>
<event>
 5   0  0.1979765E-05  0.1998800E+04  0.7818609E-02  0.8607182E-01
       -2   -1    0    0    0  501  0.00000000000E+00  0.00000000000E+00  0.64405554090E+03  0.64405554090E+03  0.25500000920E-02 0. -1.
        2   -1    0    0  501    0  0.00000000000E+00  0.00000000000E+00 -0.15507989117E+04  0.15507989117E+04  0.25500000920E-02 0.  1.
    10030    2    1    2    0    0  0.00000000000E+00  0.00000000000E+00 -0.90674337085E+03  0.21948544527E+04  0.19988002721E+04 0.  0.
        2    1    3    3  502    0  0.30731532371E+03 -0.78159895960E+03 -0.10482272321E+04  0.13431753318E+04  0.25500000920E-02 0.  1.
       -2    1    3    3    0  502 -0.30731532371E+03  0.78159895960E+03  0.14148386128E+03  0.85167912083E+03  0.25500000920E-02 0. -1.
</event>
<event>
 5   0  0.9370269E-06  0.2001338E+04  0.7818609E-02  0.8605995E-01
        1   -1    0    0  501    0  0.00000000000E+00  0.00000000000E+00  0.14837800628E+04  0.14837800628E+04  0.50400001928E-02 0.  1.
       -1   -1    0    0    0  501  0.00000000000E+00  0.00000000000E+00 -0.67485662528E+03  0.67485662530E+03  0.50400001928E-02 0. -1.
    10030    2    1    2    0    0  0.00000000000E+00  0.00000000000E+00  0.80892343754E+03  0.21586366881E+04  0.20013383581E+04 0.  0.
        4    1    3    3  502    0 -0.62070956263E+03  0.77549076876E+03  0.27381833969E+03  0.10303612908E+04  0.12699999809E+01 0. -1.
       -4    1    3    3    0  502  0.62070956263E+03 -0.77549076876E+03  0.53510509785E+03  0.11282753973E+04  0.12699999809E+01 0.  1.
</event>
<event>
 5   0  0.9140695E-06  0.1999756E+04  0.7818609E-02  0.8606735E-01
       -1   -1    0    0    0  501  0.00000000000E+00  0.00000000000E+00  0.51796584577E+03  0.51796584579E+03  0.50400001928E-02 0. -1.
        1   -1    0    0  501    0  0.00000000000E+00  0.00000000000E+00 -0.19301589250E+04  0.19301589250E+04  0.50400001928E-02 0.  1.
    10030    2    1    2    0    0  0.00000000000E+00  0.00000000000E+00 -0.14121930793E+04  0.24481247708E+04  0.19997563853E+04 0.  0.
        1    1    3    3  502    0  0.20462060018E+01  0.25557762683E+03 -0.18894932964E+04  0.19067010850E+04  0.50400001928E-02 0.  1.
       -1    1    3    3    0  502 -0.20462060018E+01 -0.25557762683E+03  0.47730021714E+03  0.54142368585E+03  0.50400001928E-02 0. -1.
</event>
<event>
 5   0  0.9333353E-06  0.1996927E+04  0.7818609E-02  0.8608059E-01
       -1   -1    0    0    0  501  0.00000000000E+00  0.00000000000E+00  0.17465155013E+04  0.17465155013E+04  0.50400001928E-02 0. -1.
        1   -1    0    0  501    0  0.00000000000E+00  0.00000000000E+00 -0.57081034507E+03  0.57081034509E+03  0.50400001928E-02 0.  1.
    10030    2    1    2    0    0  0.00000000000E+00  0.00000000000E+00  0.11757051563E+04  0.23173258464E+04  0.19969267548E+04 0.  0.
        2    1    3    3  502    0 -0.73163833885E+03 -0.55617450803E+03  0.10407305089E+04  0.13884324738E+04  0.25500000920E-02 0.  1.
       -2    1    3    3    0  502  0.73163833885E+03  0.55617450803E+03  0.13497464741E+03  0.92889337262E+03  0.25500000920E-02 0. -1.
</event>
<event>
 5   0  0.9220260E-06  0.2009780E+04  0.7818609E-02  0.8602062E-01
        1   -1    0    0  501    0  0.00000000000E+00  0.00000000000E+00  0.15788162210E+04  0.15788162211E+04  0.50400001928E-02 0.  1.
       -1   -1    0    0    0  501  0.00000000000E+00  0.00000000000E+00 -0.63959573801E+03  0.63959573803E+03  0.50400001928E-02 0. -1.
    10030    2    1    2    0    0  0.00000000000E+00  0.00000000000E+00  0.93922048304E+03  0.22184119591E+04  0.20097802130E+04 0.  0.
        3    1    3    3  502    0  0.59491439895E+03 -0.55478277228E+03  0.11208543429E+04  0.13849265448E+04  0.10100000352E+00 0.  1.
       -3    1    3    3    0  502 -0.59491439895E+03  0.55478277228E+03 -0.18163385983E+03  0.83348541423E+03  0.10100000352E+00 0. -1.
</event>
<event>
 5   0  0.2003576E-05  0.1999408E+04  0.7818609E-02  0.8606898E-01
       -2   -1    0    0    0  501  0.00000000000E+00  0.00000000000E+00  0.10441172691E+04  0.10441172691E+04  0.25500000920E-02 0. -1.
        2   -1    0    0  501    0  0.00000000000E+00  0.00000000000E+00 -0.95717956027E+03  0.95717956027E+03  0.25500000920E-02 0.  1.
    10030    2    1    2    0    0  0.00000000000E+00  0.00000000000E+00  0.86937708794E+02  0.20012968293E+04  0.19994076207E+04 0.  0.
        4    1    3    3  502    0  0.94144112970E+03 -0.33521546005E+03  0.16512194654E+02  0.99947739885E+03  0.12699999809E+01 0.  1.
       -4    1    3    3    0  502 -0.94144112970E+03  0.33521546005E+03  0.70425514140E+02  0.10018194305E+04  0.12699999809E+01 0. -1.
</event>
<event>
 5   0  0.2003576E-05  0.2003234E+04  0.7818609E-02  0.8605110E-01
        2   -1    0    0  501    0  0.00000000000E+00  0.00000000000E+00  0.69107925390E+03  0.69107925391E+03  0.25500000920E-02 0.  1.
       -2   -1    0    0    0  501  0.00000000000E+00  0.00000000000E+00 -0.14516961558E+04  0.14516961558E+04  0.25500000920E-02 0. -1.
    10030    2    1    2    0    0  0.00000000000E+00  0.00000000000E+00 -0.76061690189E+03  0.21427754097E+04  0.20032344808E+04 0.  0.
        4    1    3    3  502    0  0.31222096634E+03  0.51938030769E+03  0.47273788424E+03  0.76858347362E+03  0.12699999809E+01 0.  1.
       -4    1    3    3    0  502 -0.31222096634E+03 -0.51938030769E+03 -0.12333547861E+04  0.13741919361E+04  0.12699999809E+01 0. -1.
</event>
<event>
 5   0  0.9333353E-06  0.1999382E+04  0.7818609E-02  0.8606910E-01
        1   -1    0    0  501    0  0.00000000000E+00  0.00000000000E+00  0.13650170622E+04  0.13650170622E+04  0.50400001928E-02 0.  1.
       -1   -1    0    0    0  501  0.00000000000E+00  0.00000000000E+00 -0.73213887285E+03  0.73213887287E+03  0.50400001928E-02 0. -1.
    10030    2    1    2    0    0  0.00000000000E+00  0.00000000000E+00  0.63287818931E+03  0.20971559350E+04  0.19993819578E+04 0.  0.
        2    1    3    3  502    0 -0.32650712164E+03 -0.45307667517E+03  0.11861406714E+04  0.13110358754E+04  0.25500000920E-02 0.  1.
       -2    1    3    3    0  502  0.32650712164E+03  0.45307667517E+03 -0.55326248213E+03  0.78612005966E+03  0.25500000920E-02 0. -1.
</event>
<event>
 5   0  0.2003576E-05  0.1998491E+04  0.7818609E-02  0.8607326E-01
       -2   -1    0    0    0  501  0.00000000000E+00  0.00000000000E+00  0.10045354760E+04  0.10045354760E+04  0.25500000920E-02 0.  1.
        2   -1    0    0  501    0  0.00000000000E+00  0.00000000000E+00 -0.99398375807E+03  0.99398375808E+03  0.25500000920E-02 0. -1.
    10030    2    1    2    0    0  0.00000000000E+00  0.00000000000E+00  0.10551717955E+02  0.19985192341E+04  0.19984913786E+04 0.  0.
        4    1    3    3  502    0  0.52171230611E+03  0.32758040291E+03 -0.78149916579E+03  0.99510562743E+03  0.12699999809E+01 0.  1.
       -4    1    3    3    0  502 -0.52171230611E+03 -0.32758040291E+03  0.79205088375E+03  0.10034136067E+04  0.12699999809E+01 0. -1.
</event>
<event>
 5   0  0.1999142E-05  0.2000917E+04  0.7818609E-02  0.8606192E-01
       -2   -1    0    0    0  501  0.00000000000E+00  0.00000000000E+00  0.59575915278E+03  0.59575915279E+03  0.25500000920E-02 0.  1.
        2   -1    0    0  501    0  0.00000000000E+00  0.00000000000E+00 -0.16800694115E+04  0.16800694115E+04  0.25500000920E-02 0. -1.
    10030    2    1    2    0    0  0.00000000000E+00  0.00000000000E+00 -0.10843102587E+04  0.22758285643E+04  0.20009165192E+04 0.  0.
        1    1    3    3  502    0  0.89569953635E+03  0.44162421439E+03 -0.61046619392E+03  0.11704608409E+04  0.50400001928E-02 0. -1.
       -1    1    3    3    0  502 -0.89569953635E+03 -0.44162421439E+03 -0.47384406483E+03  0.11053677234E+04  0.50400001928E-02 0.  1.
</event>
<event>
 5   0  0.2003576E-05  0.1993393E+04  0.7818609E-02  0.8609716E-01
        2   -1    0    0  501    0  0.00000000000E+00  0.00000000000E+00  0.94820904916E+03  0.94820904916E+03  0.25500000920E-02 0.  1.
       -2   -1    0    0    0  501  0.00000000000E+00  0.00000000000E+00 -0.10476633232E+04  0.10476633233E+04  0.25500000920E-02 0. -1.
    10030    2    1    2    0    0  0.00000000000E+00  0.00000000000E+00 -0.99454274090E+02  0.19958723724E+04  0.19933929302E+04 0.  0.
        4    1    3    3  502    0 -0.77062313254E+03 -0.19533596875E+03  0.55217455133E+03  0.96794343902E+03  0.12699999809E+01 0.  1.
       -4    1    3    3    0  502  0.77062313254E+03  0.19533596875E+03 -0.65162882542E+03  0.10279289334E+04  0.12699999809E+01 0. -1.
</event>
<event>
 5   0  0.9220260E-06  0.2000231E+04  0.7818609E-02  0.8606513E-01
        1   -1    0    0  501    0  0.00000000000E+00  0.00000000000E+00  0.96795166385E+03  0.96795166386E+03  0.50400001928E-02 0.  1.
       -1   -1    0    0    0  501  0.00000000000E+00  0.00000000000E+00 -0.10333484568E+04  0.10333484568E+04  0.50400001928E-02 0. -1.
    10030    2    1    2    0    0  0.00000000000E+00  0.00000000000E+00 -0.65396792981E+02  0.20013001207E+04  0.20002313448E+04 0.  0.
        3    1    3    3  502    0  0.32335852369E+03 -0.63557714004E+03  0.66889829824E+03  0.97772387685E+03  0.10100000352E+00 0.  1.
       -3    1    3    3    0  502 -0.32335852369E+03  0.63557714004E+03 -0.73429509122E+03  0.10235762438E+04  0.10100000352E+00 0. -1.
</event>
<event>
 5   0  0.2020029E-05  0.2001083E+04  0.7818609E-02  0.8606115E-01
        2   -1    0    0  501    0  0.00000000000E+00  0.00000000000E+00  0.16608821525E+04  0.16608821525E+04  0.25500000920E-02 0. -1.
       -2   -1    0    0    0  501  0.00000000000E+00  0.00000000000E+00 -0.60274171257E+03  0.60274171258E+03  0.25500000920E-02 0.  1.
    10030    2    1    2    0    0  0.00000000000E+00  0.00000000000E+00  0.10581404399E+04  0.22636238650E+04  0.20010826599E+04 0.  0.
        5    1    3    3  502    0  0.63770883324E+03  0.68423855076E+02 -0.33960450709E+03  0.72574629945E+03  0.46999998093E+01 0.  1.
       -5    1    3    3    0  502 -0.63770883324E+03 -0.68423855076E+02  0.13977449470E+04  0.15378775656E+04  0.46999998093E+01 0. -1.
</event>
<event>
 5   0  0.9220260E-06  0.1986102E+04  0.7818609E-02  0.8613146E-01
        1   -1    0    0  501    0  0.00000000000E+00  0.00000000000E+00  0.10612814492E+04  0.10612814492E+04  0.50400001928E-02 0.  1.
       -1   -1    0    0    0  501  0.00000000000E+00  0.00000000000E+00 -0.92920705149E+03  0.92920705151E+03  0.50400001928E-02 0. -1.
    10030    2    1    2    0    0  0.00000000000E+00  0.00000000000E+00  0.13207439771E+03  0.19904885007E+04  0.19861019171E+04 0.  0.
        3    1    3    3  502    0  0.87649074484E+03 -0.46053326241E+03 -0.10441791337E+02  0.99016965859E+03  0.10100000352E+00 0.  1.
       -3    1    3    3    0  502 -0.87649074484E+03  0.46053326241E+03  0.14251618905E+03  0.10003188421E+04  0.10100000352E+00 0. -1.
</event>
<event>
 5   0  0.9220260E-06  0.1979490E+04  0.7818609E-02  0.8616270E-01
       -1   -1    0    0    0  501  0.00000000000E+00  0.00000000000E+00  0.14691530777E+04  0.14691530778E+04  0.50400001928E-02 0. -1.
        1   -1    0    0  501    0  0.00000000000E+00  0.00000000000E+00 -0.66677563490E+03  0.66677563492E+03  0.50400001928E-02 0.  1.
    10030    2    1    2    0    0  0.00000000000E+00  0.00000000000E+00  0.80237744284E+03  0.21359287127E+04  0.19794903144E+04 0.  0.
        3    1    3    3  502    0  0.90076902687E+02  0.50373309901E+03  0.13153341861E+04  0.14113698717E+04  0.10100000352E+00 0. -1.
       -3    1    3    3    0  502 -0.90076902687E+02 -0.50373309901E+03 -0.51295674322E+03  0.72455884099E+03  0.10100000352E+00 0.  1.
</event>
<event>
 5   0  0.2038882E-05  0.2001532E+04  0.7818609E-02  0.8605905E-01
        2   -1    0    0  501    0  0.00000000000E+00  0.00000000000E+00  0.11664916659E+04  0.11664916659E+04  0.25500000920E-02 0.  1.
       -2   -1    0    0    0  501  0.00000000000E+00  0.00000000000E+00 -0.85858560582E+03  0.85858560582E+03  0.25500000920E-02 0. -1.
    10030    2    1    2    0    0  0.00000000000E+00  0.00000000000E+00  0.30790606005E+03  0.20250772717E+04  0.20015323666E+04 0.  0.
        3    1    3    3  502    0  0.78793942601E+03 -0.51295414131E+03  0.50086022083E+03  0.10652846855E+04  0.10100000352E+00 0.  1.
       -3    1    3    3    0  502 -0.78793942601E+03  0.51295414131E+03 -0.19295416078E+03  0.95979258619E+03  0.10100000352E+00 0. -1.
</event>
<event>
 5   0  0.9140695E-06  0.1999377E+04  0.7818609E-02  0.8606912E-01
       -1   -1    0    0    0  501  0.00000000000E+00  0.00000000000E+00  0.76089496269E+03  0.76089496270E+03  0.50400001928E-02 0.  1.
        1   -1    0    0  501    0  0.00000000000E+00  0.00000000000E+00 -0.13134228475E+04  0.13134228475E+04  0.50400001928E-02 0. -1.
    10030    2    1    2    0    0  0.00000000000E+00  0.00000000000E+00 -0.55252788484E+03  0.20743178102E+04  0.19993767315E+04 0.  0.
        1    1    3    3  502    0 -0.44321708599E+03  0.89239786767E+03 -0.36030313398E+03  0.10595440944E+04  0.50400001928E-02 0.  1.
       -1    1    3    3    0  502  0.44321708599E+03 -0.89239786767E+03 -0.19222475085E+03  0.10147737159E+04  0.50400001928E-02 0. -1.
</event>
<event>
 5   0  0.9370269E-06  0.2002808E+04  0.7818609E-02  0.8605309E-01
        1   -1    0    0  501    0  0.00000000000E+00  0.00000000000E+00  0.11016262320E+04  0.11016262320E+04  0.50400001928E-02 0.  1.
       -1   -1    0    0    0  501  0.00000000000E+00  0.00000000000E+00 -0.91029965298E+03  0.91029965300E+03  0.50400001928E-02 0. -1.
    10030    2    1    2    0    0  0.00000000000E+00  0.00000000000E+00  0.19132657904E+03  0.20119258850E+04  0.20028080055E+04 0.  0.
        4    1    3    3  502    0  0.32622881787E+03  0.60689929119E+03  0.82564638579E+03  0.10753815874E+04  0.12699999809E+01 0.  1.
       -4    1    3    3    0  502 -0.32622881787E+03 -0.60689929119E+03 -0.63431980676E+03  0.93654429762E+03  0.12699999809E+01 0. -1.
</event>
<event>
 5   0  0.9342635E-06  0.2000589E+04  0.7818609E-02  0.8606345E-01
       -1   -1    0    0    0  501  0.00000000000E+00  0.00000000000E+00  0.66538600678E+03  0.66538600679E+03  0.50400001928E-02 0. -1.
        1   -1    0    0  501    0  0.00000000000E+00  0.00000000000E+00 -0.15037719900E+04  0.15037719900E+04  0.50400001928E-02 0.  1.
    10030    2    1    2    0    0  0.00000000000E+00  0.00000000000E+00 -0.83838598324E+03  0.21691579968E+04  0.20005887529E+04 0.  0.
        5    1    3    3  502    0 -0.55570152408E+03  0.17113266818E+03 -0.13017006758E+04  0.14256708293E+04  0.46999998093E+01 0.  1.
       -5    1    3    3    0  502  0.55570152408E+03 -0.17113266818E+03  0.46331469257E+03  0.74348716756E+03  0.46999998093E+01 0. -1.
</event>
<event>
 5   0  0.9370269E-06  0.2004096E+04  0.7818609E-02  0.8604708E-01
        1   -1    0    0  501    0  0.00000000000E+00  0.00000000000E+00  0.17905013931E+04  0.17905013931E+04  0.50400001928E-02 0. -1.
       -1   -1    0    0    0  501  0.00000000000E+00  0.00000000000E+00 -0.56079296853E+03  0.56079296855E+03  0.50400001928E-02 0.  1.
    10030    2    1    2    0    0  0.00000000000E+00  0.00000000000E+00  0.12297084245E+04  0.23512943616E+04  0.20040963963E+04 0.  0.
        4    1    3    3  502    0  0.84394003127E+03 -0.25245264453E+03  0.54475833815E+02  0.88257370428E+03  0.12699999809E+01 0.  1.
       -4    1    3    3    0  502 -0.84394003127E+03  0.25245264453E+03  0.11752325907E+04  0.14687206573E+04  0.12699999809E+01 0. -1.
</event>
<event>
 5   0  0.9140695E-06  0.1987354E+04  0.7818609E-02  0.8612556E-01
       -1   -1    0    0    0  501  0.00000000000E+00  0.00000000000E+00  0.49203541796E+03  0.49203541799E+03  0.50400001928E-02 0.  1.
        1   -1    0    0  501    0  0.00000000000E+00  0.00000000000E+00 -0.20067537234E+04  0.20067537234E+04  0.50400001928E-02 0. -1.
    10030    2    1    2    0    0  0.00000000000E+00  0.00000000000E+00 -0.15147183054E+04  0.24987891414E+04  0.19873539263E+04 0.  0.
        1    1    3    3  502    0 -0.56778186875E+03 -0.17102114114E+03 -0.17599049305E+04  0.18571186945E+04  0.50400001928E-02 0. -1.
       -1    1    3    3    0  502  0.56778186875E+03  0.17102114114E+03  0.24518662508E+03  0.64167044684E+03  0.50400001928E-02 0.  1.
</event>
<event>
 5   0  0.2003576E-05  0.1994974E+04  0.7818609E-02  0.8608974E-01
        2   -1    0    0  501    0  0.00000000000E+00  0.00000000000E+00  0.21970131728E+04  0.21970131728E+04  0.25500000920E-02 0.  1.
       -2   -1    0    0    0  501  0.00000000000E+00  0.00000000000E+00 -0.45287865157E+03  0.45287865157E+03  0.25500000920E-02 0. -1.
    10030    2    1    2    0    0  0.00000000000E+00  0.00000000000E+00  0.17441345212E+04  0.26498918244E+04  0.19949740481E+04 0.  0.
        4    1    3    3  502    0 -0.28299965430E+03 -0.20484562288E+03 -0.36895668335E+03  0.50811532218E+03  0.12699999809E+01 0. -1.
       -4    1    3    3    0  502  0.28299965430E+03  0.20484562288E+03  0.21130912046E+04  0.21417765022E+04  0.12699999809E+01 0.  1.
</event>
<event>
 5   0  0.9370269E-06  0.2002243E+04  0.7818609E-02  0.8605573E-01
        1   -1    0    0  501    0  0.00000000000E+00  0.00000000000E+00  0.37005757184E+03  0.37005757188E+03  0.50400001928E-02 0.  1.
       -1   -1    0    0    0  501  0.00000000000E+00  0.00000000000E+00 -0.27083462405E+04  0.27083462405E+04  0.50400001928E-02 0. -1.
    10030    2    1    2    0    0  0.00000000000E+00  0.00000000000E+00 -0.23382886687E+04  0.30784038124E+04  0.20022427760E+04 0.  0.
        4    1    3    3  502    0 -0.17991718514E+03 -0.44323648756E+03  0.18297420384E+03  0.51216203450E+03  0.12699999809E+01 0.  1.
       -4    1    3    3    0  502  0.17991718514E+03  0.44323648756E+03 -0.25212628725E+04  0.25662417779E+04  0.12699999809E+01 0. -1.
</event>
<event>
 5   0  0.9140695E-06  0.1999774E+04  0.7818609E-02  0.8606726E-01
        1   -1    0    0  501    0  0.00000000000E+00  0.00000000000E+00  0.23210202221E+04  0.23210202221E+04  0.50400001928E-02 0. -1.
       -1   -1    0    0    0  501  0.00000000000E+00  0.00000000000E+00 -0.43074770115E+03  0.43074770118E+03  0.50400001928E-02 0.  1.
    10030    2    1    2    0    0  0.00000000000E+00  0.00000000000E+00  0.18902725209E+04  0.27517679233E+04  0.19997741123E+04 0.  0.
        1    1    3    3  502    0  0.32354369520E+03 -0.78496716618E+03  0.21841007808E+03  0.87667379163E+03  0.50400001928E-02 0.  1.
       -1    1    3    3    0  502 -0.32354369520E+03  0.78496716618E+03  0.16718624428E+04  0.18750941316E+04  0.50400001928E-02 0. -1.
</event>
<event>
 5   0  0.9220260E-06  0.2001477E+04  0.7818609E-02  0.8605930E-01
       -1   -1    0    0    0  501  0.00000000000E+00  0.00000000000E+00  0.82164860461E+03  0.82164860462E+03  0.50400001928E-02 0.  1.
        1   -1    0    0  501    0  0.00000000000E+00  0.00000000000E+00 -0.12188634404E+04  0.12188634404E+04  0.50400001928E-02 0. -1.
    10030    2    1    2    0    0  0.00000000000E+00  0.00000000000E+00 -0.39721483581E+03  0.20405120451E+04  0.20014768997E+04 0.  0.
        3    1    3    3  502    0  0.26083157292E+03 -0.55430354421E+03  0.60814877097E+03  0.86320939892E+03  0.10100000352E+00 0.  1.
       -3    1    3    3    0  502 -0.26083157292E+03  0.55430354421E+03 -0.10053636068E+04  0.11773026461E+04  0.10100000352E+00 0. -1.
</event>
<event>
 5   0  0.9220260E-06  0.2009707E+04  0.7818609E-02  0.8602096E-01
        1   -1    0    0  501    0  0.00000000000E+00  0.00000000000E+00  0.10970759881E+04  0.10970759881E+04  0.50400001928E-02 0. -1.
       -1   -1    0    0    0  501  0.00000000000E+00  0.00000000000E+00 -0.92038373955E+03  0.92038373956E+03  0.50400001928E-02 0.  1.
    10030    2    1    2    0    0  0.00000000000E+00  0.00000000000E+00  0.17669224855E+03  0.20174597277E+04  0.20097073424E+04 0.  0.
        3    1    3    3  502    0 -0.13375687190E+03 -0.99224508719E+03  0.17405507579E+03  0.10162363866E+04  0.10100000352E+00 0. -1.
       -3    1    3    3    0  502  0.13375687190E+03  0.99224508719E+03  0.26371727597E+01  0.10012233411E+04  0.10100000352E+00 0.  1.
</event>
<event>
 5   0  0.2003576E-05  0.1992038E+04  0.7818609E-02  0.8610352E-01
       -2   -1    0    0    0  501  0.00000000000E+00  0.00000000000E+00  0.36884062345E+03  0.36884062346E+03  0.25500000920E-02 0.  1.
        2   -1    0    0  501    0  0.00000000000E+00  0.00000000000E+00 -0.26896543913E+04  0.26896543913E+04  0.25500000920E-02 0. -1.
    10030    2    1    2    0    0  0.00000000000E+00  0.00000000000E+00 -0.23208137679E+04  0.30584950148E+04  0.19920379540E+04 0.  0.
        4    1    3    3  502    0  0.74576456829E+03  0.88861192472E+02 -0.21648550509E+04  0.22914318902E+04  0.12699999809E+01 0. -1.
       -4    1    3    3    0  502 -0.74576456829E+03 -0.88861192472E+02 -0.15595871693E+03  0.76706312460E+03  0.12699999809E+01 0.  1.
</event>
<event>
 5   0  0.9333353E-06  0.1991692E+04  0.7818609E-02  0.8610515E-01
       -1   -1    0    0    0  501  0.00000000000E+00  0.00000000000E+00  0.77464401124E+03  0.77464401125E+03  0.50400001928E-02 0.  1.
        1   -1    0    0  501    0  0.00000000000E+00  0.00000000000E+00 -0.12802123178E+04  0.12802123178E+04  0.50400001928E-02 0. -1.
    10030    2    1    2    0    0  0.00000000000E+00  0.00000000000E+00 -0.50556830652E+03  0.20548563290E+04  0.19916915475E+04 0.  0.
        2    1    3    3  502    0  0.70884293484E+03 -0.69941389162E+03 -0.24410873043E+03  0.10252936996E+04  0.25500000920E-02 0. -1.
       -2    1    3    3    0  502 -0.70884293484E+03  0.69941389162E+03 -0.26145957609E+03  0.10295626295E+04  0.25500000920E-02 0.  1.
</event>
<event>
 5   0  0.9370269E-06  0.2000066E+04  0.7818609E-02  0.8606590E-01
        1   -1    0    0  501    0  0.00000000000E+00  0.00000000000E+00  0.87679109097E+03  0.87679109098E+03  0.50400001928E-02 0. -1.
       -1   -1    0    0    0  501  0.00000000000E+00  0.00000000000E+00 -0.11405979573E+04  0.11405979573E+04  0.50400001928E-02 0.  1.
    10030    2    1    2    0    0  0.00000000000E+00  0.00000000000E+00 -0.26380686636E+03  0.20173890483E+04  0.20000661263E+04 0.  0.
        4    1    3    3  502    0 -0.49392270187E+03  0.63843380596E+02  0.74280350248E+03  0.89431217641E+03  0.12699999809E+01 0. -1.
       -4    1    3    3    0  502  0.49392270187E+03 -0.63843380596E+02 -0.10066103688E+04  0.11230768719E+04  0.12699999809E+01 0.  1.
</event>
<event>
 5   0  0.2003576E-05  0.2001683E+04  0.7818609E-02  0.8605834E-01
        2   -1    0    0  501    0  0.00000000000E+00  0.00000000000E+00  0.25480225938E+04  0.25480225938E+04  0.25500000920E-02 0. -1.
       -2   -1    0    0    0  501  0.00000000000E+00  0.00000000000E+00 -0.39312182546E+03  0.39312182547E+03  0.25500000920E-02 0.  1.
    10030    2    1    2    0    0  0.00000000000E+00  0.00000000000E+00  0.21549007683E+04  0.29411444193E+04  0.20016825856E+04 0.  0.
        4    1    3    3  502    0  0.64299955672E+03  0.26274294138E+03  0.18713046740E+02  0.69486262974E+03  0.12699999809E+01 0.  1.
       -4    1    3    3    0  502 -0.64299955672E+03 -0.26274294138E+03  0.21361877216E+04  0.22462817895E+04  0.12699999809E+01 0. -1.
</event>
<event>
 5   0  0.2020029E-05  0.2002311E+04  0.7818609E-02  0.8605541E-01
       -2   -1    0    0    0  501  0.00000000000E+00  0.00000000000E+00  0.92465847779E+03  0.92465847779E+03  0.25500000920E-02 0. -1.
        2   -1    0    0  501    0  0.00000000000E+00  0.00000000000E+00 -0.10839809431E+04  0.10839809431E+04  0.25500000920E-02 0.  1.
    10030    2    1    2    0    0  0.00000000000E+00  0.00000000000E+00 -0.15932246532E+03  0.20086394209E+04  0.20023108338E+04 0.  0.
        5    1    3    3  502    0  0.80082865689E+03  0.46298948291E+03 -0.46376079209E+03  0.10347859495E+04  0.46999998093E+01 0.  1.
       -5    1    3    3    0  502 -0.80082865689E+03 -0.46298948291E+03  0.30443832677E+03  0.97385347142E+03  0.46999998093E+01 0. -1.
</event>
<event>
 5   0  0.9370269E-06  0.2003820E+04  0.7818609E-02  0.8604837E-01
       -1   -1    0    0    0  501  0.00000000000E+00  0.00000000000E+00  0.72949336934E+03  0.72949336936E+03  0.50400001928E-02 0.  1.
        1   -1    0    0  501    0  0.00000000000E+00  0.00000000000E+00 -0.13760562614E+04  0.13760562614E+04  0.50400001928E-02 0. -1.
    10030    2    1    2    0    0  0.00000000000E+00  0.00000000000E+00 -0.64656289209E+03  0.21055496308E+04  0.20038202700E+04 0.  0.
        4    1    3    3  502    0 -0.50680927952E+03 -0.36732426446E+02  0.58404742699E+03  0.77415626771E+03  0.12699999809E+01 0.  1.
       -4    1    3    3    0  502  0.50680927952E+03  0.36732426446E+02 -0.12306103191E+04  0.13313933631E+04  0.12699999809E+01 0. -1.
</event>
<event>
 5   0  0.2003576E-05  0.2012369E+04  0.7818609E-02  0.8600859E-01
       -2   -1    0    0    0  501  0.00000000000E+00  0.00000000000E+00  0.61047333613E+03  0.61047333614E+03  0.25500000920E-02 0. -1.
        2   -1    0    0  501    0  0.00000000000E+00  0.00000000000E+00 -0.16583972408E+04  0.16583972408E+04  0.25500000920E-02 0.  1.
    10030    2    1    2    0    0  0.00000000000E+00  0.00000000000E+00 -0.10479239047E+04  0.22688705769E+04  0.20123690479E+04 0.  0.
        4    1    3    3  502    0 -0.49565414292E+02 -0.80919261695E+03  0.14794917338E+03  0.82409950396E+03  0.12699999809E+01 0. -1.
       -4    1    3    3    0  502  0.49565414292E+02  0.80919261695E+03 -0.11958730780E+04  0.14447710730E+04  0.12699999809E+01 0.  1.
</event>
<event>
 5   0  0.2038882E-05  0.1988810E+04  0.7818609E-02  0.8611870E-01
       -2   -1    0    0    0  501  0.00000000000E+00  0.00000000000E+00  0.78678343713E+03  0.78678343713E+03  0.25500000920E-02 0.  1.
        2   -1    0    0  501    0  0.00000000000E+00  0.00000000000E+00 -0.12568147339E+04  0.12568147339E+04  0.25500000920E-02 0. -1.
    10030    2    1    2    0    0  0.00000000000E+00  0.00000000000E+00 -0.47003129682E+03  0.20435981711E+04  0.19888097106E+04 0.  0.
        3    1    3    3  502    0  0.77621691052E+02 -0.94513843558E+03 -0.54247284711E+03  0.10925148005E+04  0.10100000352E+00 0. -1.
       -3    1    3    3    0  502 -0.77621691052E+02  0.94513843558E+03  0.72441550297E+02  0.95108337055E+03  0.10100000352E+00 0.  1.
</event>
<event>
 5   0  0.9342635E-06  0.1999710E+04  0.7818609E-02  0.8606756E-01
        1   -1    0    0  501    0  0.00000000000E+00  0.00000000000E+00  0.13168491308E+04  0.13168491308E+04  0.50400001928E-02 0.  1.
       -1   -1    0    0    0  501  0.00000000000E+00  0.00000000000E+00 -0.75916819425E+03  0.75916819426E+03  0.50400001928E-02 0. -1.
    10030    2    1    2    0    0  0.00000000000E+00  0.00000000000E+00  0.55768093657E+03  0.20760173251E+04  0.19997099557E+04 0.  0.
        5    1    3    3  502    0 -0.65030142292E+03 -0.43255915503E+03 -0.36923080727E+03  0.86391715013E+03  0.46999998093E+01 0. -1.
       -5    1    3    3    0  502  0.65030142292E+03  0.43255915503E+03  0.92691174384E+03  0.12121001750E+04  0.46999998093E+01 0.  1.
</event>
<event>
 5   0  0.1979765E-05  0.2002243E+04  0.7818609E-02  0.8605573E-01
       -2   -1    0    0    0  501  0.00000000000E+00  0.00000000000E+00  0.74712945525E+03  0.74712945525E+03  0.25500000920E-02 0.  1.
        2   -1    0    0  501    0  0.00000000000E+00  0.00000000000E+00 -0.13414597854E+04  0.13414597854E+04  0.25500000920E-02 0. -1.
    10030    2    1    2    0    0  0.00000000000E+00  0.00000000000E+00 -0.59433033017E+03  0.20885892407E+04  0.20022428611E+04 0.  0.
        2    1    3    3  502    0 -0.78694497920E+03  0.10366409895E+03 -0.93357003446E+03  0.12253904092E+04  0.25500000920E-02 0. -1.
       -2    1    3    3    0  502  0.78694497920E+03 -0.10366409895E+03  0.33923970429E+03  0.86319883148E+03  0.25500000920E-02 0.  1.
</event>
<event>
 5   0  0.9342635E-06  0.2009268E+04  0.7818609E-02  0.8602300E-01
        1   -1    0    0  501    0  0.00000000000E+00  0.00000000000E+00  0.11542303542E+04  0.11542303542E+04  0.50400001928E-02 0. -1.
       -1   -1    0    0    0  501  0.00000000000E+00  0.00000000000E+00 -0.87442596534E+03  0.87442596536E+03  0.50400001928E-02 0.  1.
    10030    2    1    2    0    0  0.00000000000E+00  0.00000000000E+00  0.27980438881E+03  0.20286563195E+04  0.20092675200E+04 0.  0.
        5    1    3    3  502    0 -0.20466838027E+03  0.68873934899E+02  0.11305090827E+04  0.11509585748E+04  0.46999998093E+01 0. -1.
       -5    1    3    3    0  502  0.20466838027E+03 -0.68873934899E+02 -0.85070469393E+03  0.87769774470E+03  0.46999998093E+01 0.  1.
</event>
<event>
 5   0  0.1979765E-05  0.2038310E+04  0.7818609E-02  0.8588916E-01
        2   -1    0    0  501    0  0.00000000000E+00  0.00000000000E+00  0.22601177782E+04  0.22601177782E+04  0.25500000920E-02 0.  1.
       -2   -1    0    0    0  501  0.00000000000E+00  0.00000000000E+00 -0.45956769193E+03  0.45956769194E+03  0.25500000920E-02 0. -1.
    10030    2    1    2    0    0  0.00000000000E+00  0.00000000000E+00  0.18005500862E+04  0.27196854701E+04  0.20383101931E+04 0.  0.
        2    1    3    3  502    0 -0.21198128654E+03  0.98780391152E+03  0.72133921176E+03  0.12413794311E+04  0.25500000920E-02 0. -1.
       -2    1    3    3    0  502  0.21198128654E+03 -0.98780391152E+03  0.10792108745E+04  0.14783060390E+04  0.25500000920E-02 0.  1.
</event>
<event>
 5   0  0.9220260E-06  0.1999649E+04  0.7818609E-02  0.8606785E-01
       -1   -1    0    0    0  501  0.00000000000E+00  0.00000000000E+00  0.12294250367E+04  0.12294250367E+04  0.50400001928E-02 0. -1.
        1   -1    0    0  501    0  0.00000000000E+00  0.00000000000E+00 -0.81310259748E+03  0.81310259750E+03  0.50400001928E-02 0.  1.
    10030    2    1    2    0    0  0.00000000000E+00  0.00000000000E+00  0.41632243919E+03  0.20425276342E+04  0.19996486599E+04 0.  0.
        3    1    3    3  502    0 -0.23683101319E+03 -0.49431516409E+03  0.10622809712E+04  0.11953565502E+04  0.10100000352E+00 0. -1.
       -3    1    3    3    0  502  0.23683101319E+03  0.49431516409E+03 -0.64595853198E+03  0.84717108396E+03  0.10100000352E+00 0.  1.
</event>
<event>
 5   0  0.2038882E-05  0.1999766E+04  0.7818609E-02  0.8606730E-01
        2   -1    0    0  501    0  0.00000000000E+00  0.00000000000E+00  0.22848302597E+04  0.22848302597E+04  0.25500000920E-02 0. -1.
       -2   -1    0    0    0  501  0.00000000000E+00  0.00000000000E+00 -0.43756673507E+03  0.43756673507E+03  0.25500000920E-02 0.  1.
    10030    2    1    2    0    0  0.00000000000E+00  0.00000000000E+00  0.18472635247E+04  0.27223969948E+04  0.19997657032E+04 0.  0.
        3    1    3    3  502    0 -0.49069765687E+03  0.34217390291E+03 -0.16706879144E+03  0.62111123123E+03  0.10100000352E+00 0.  1.
       -3    1    3    3    0  502  0.49069765687E+03 -0.34217390291E+03  0.20143323161E+04  0.21012857636E+04  0.10100000352E+00 0. -1.
</event>
<event>
 5   0  0.9370269E-06  0.1996561E+04  0.7818609E-02  0.8608230E-01
        1   -1    0    0  501    0  0.00000000000E+00  0.00000000000E+00  0.93423675287E+03  0.93423675289E+03  0.50400001928E-02 0.  1.
       -1   -1    0    0    0  501  0.00000000000E+00  0.00000000000E+00 -0.10667141791E+04  0.10667141791E+04  0.50400001928E-02 0. -1.
    10030    2    1    2    0    0  0.00000000000E+00  0.00000000000E+00 -0.13247742624E+03  0.20009509320E+04  0.19965606337E+04 0.  0.
        4    1    3    3  502    0 -0.87209766026E+02 -0.92941535108E+03 -0.42077292725E+03  0.10239481956E+04  0.12699999809E+01 0. -1.
       -4    1    3    3    0  502  0.87209766026E+02  0.92941535108E+03  0.28829550100E+03  0.97700273639E+03  0.12699999809E+01 0.  1.
</event>
<event>
 5   0  0.9140695E-06  0.1949629E+04  0.7818609E-02  0.8630540E-01
        1   -1    0    0  501    0  0.00000000000E+00  0.00000000000E+00  0.98111426389E+03  0.98111426390E+03  0.50400001928E-02 0.  1.
       -1   -1    0    0    0  501  0.00000000000E+00  0.00000000000E+00 -0.96855476802E+03  0.96855476804E+03  0.50400001928E-02 0. -1.
    10030    2    1    2    0    0  0.00000000000E+00  0.00000000000E+00  0.12559495866E+02  0.19496690319E+04  0.19496285783E+04 0.  0.
        1    1    3    3  502    0 -0.64832587148E+03  0.47218895571E+03 -0.54778414003E+03  0.97126531371E+03  0.50400001928E-02 0. -1.
       -1    1    3    3    0  502  0.64832587148E+03 -0.47218895571E+03  0.56034363589E+03  0.97840371823E+03  0.50400001928E-02 0.  1.
</event>
<event>
 5   0  0.1979765E-05  0.1999237E+04  0.7818609E-02  0.8606977E-01
        2   -1    0    0  501    0  0.00000000000E+00  0.00000000000E+00  0.20964649227E+04  0.20964649227E+04  0.25500000920E-02 0. -1.
       -2   -1    0    0    0  501  0.00000000000E+00  0.00000000000E+00 -0.47662958783E+03  0.47662958783E+03  0.25500000920E-02 0.  1.
    10030    2    1    2    0    0  0.00000000000E+00  0.00000000000E+00  0.16198353349E+04  0.25730945106E+04  0.19992370665E+04 0.  0.
        2    1    3    3  502    0  0.27146188095E+03  0.27529836508E+03  0.19963382788E+04  0.20334323854E+04  0.25500000920E-02 0. -1.
       -2    1    3    3    0  502 -0.27146188095E+03 -0.27529836508E+03 -0.37650294386E+03  0.53966212519E+03  0.25500000920E-02 0.  1.
</event>
<event>
 5   0  0.9220260E-06  0.2000799E+04  0.7818609E-02  0.8606247E-01
        1   -1    0    0  501    0  0.00000000000E+00  0.00000000000E+00  0.13533801388E+04  0.13533801388E+04  0.50400001928E-02 0.  1.
       -1   -1    0    0    0  501  0.00000000000E+00  0.00000000000E+00 -0.73948103887E+03  0.73948103889E+03  0.50400001928E-02 0. -1.
    10030    2    1    2    0    0  0.00000000000E+00  0.00000000000E+00  0.61389909992E+03  0.20928611777E+04  0.20007987915E+04 0.  0.
        3    1    3    3  502    0  0.55051700240E+03  0.44753303702E+02 -0.56553243760E+03  0.79050539296E+03  0.10100000352E+00 0. -1.
       -3    1    3    3    0  502 -0.55051700240E+03 -0.44753303702E+02  0.11794315375E+04  0.13023557847E+04  0.10100000352E+00 0.  1.
</event>
<event>
 5   0  0.2003576E-05  0.1995888E+04  0.7818609E-02  0.8608545E-01
        2   -1    0    0  501    0  0.00000000000E+00  0.00000000000E+00  0.13945142623E+04  0.13945142623E+04  0.25500000920E-02 0. -1.
       -2   -1    0    0    0  501  0.00000000000E+00  0.00000000000E+00 -0.71415008505E+03  0.71415008505E+03  0.25500000920E-02 0.  1.
    10030    2    1    2    0    0  0.00000000000E+00  0.00000000000E+00  0.68036417724E+03  0.21086643473E+04  0.19958882524E+04 0.  0.
        4    1    3    3  502    0  0.26503961441E+03 -0.85513403841E+02 -0.67226228074E+03  0.72766525714E+03  0.12699999809E+01 0.  1.
       -4    1    3    3    0  502 -0.26503961441E+03  0.85513403841E+02  0.13526264580E+04  0.13809990902E+04  0.12699999809E+01 0. -1.
</event>
<event>
 5   0  0.2038882E-05  0.2020942E+04  0.7818609E-02  0.8596892E-01
       -2   -1    0    0    0  501  0.00000000000E+00  0.00000000000E+00  0.85943026053E+03  0.85943026053E+03  0.25500000920E-02 0. -1.
        2   -1    0    0  501    0  0.00000000000E+00  0.00000000000E+00 -0.11880561744E+04  0.11880561744E+04  0.25500000920E-02 0.  1.
    10030    2    1    2    0    0  0.00000000000E+00  0.00000000000E+00 -0.32862591388E+03  0.20474864349E+04  0.20209417879E+04 0.  0.
        3    1    3    3  502    0 -0.35256517597E+03  0.92825939897E+03  0.25453713263E+02  0.99328526456E+03  0.10100000352E+00 0. -1.
       -3    1    3    3    0  502  0.35256517597E+03 -0.92825939897E+03 -0.35407962714E+03  0.10542011704E+04  0.10100000352E+00 0.  1.
</event>
<event>
 5   0  0.2020029E-05  0.1999969E+04  0.7818609E-02  0.8606635E-01
       -2   -1    0    0    0  501  0.00000000000E+00  0.00000000000E+00  0.13734799152E+04  0.13734799152E+04  0.25500000920E-02 0.  1.
        2   -1    0    0  501    0  0.00000000000E+00  0.00000000000E+00 -0.72805520321E+03  0.72805520321E+03  0.25500000920E-02 0. -1.
    10030    2    1    2    0    0  0.00000000000E+00  0.00000000000E+00  0.64542471203E+03  0.21015351185E+04  0.19999691986E+04 0.  0.
        5    1    3    3  502    0  0.69011441337E+03  0.72365736665E+03  0.32590316861E+03  0.10517475235E+04  0.46999998093E+01 0. -1.
       -5    1    3    3    0  502 -0.69011441337E+03 -0.72365736665E+03  0.31952154342E+03  0.10497875950E+04  0.46999998093E+01 0.  1.
</event>
<event>
 5   0  0.9370269E-06  0.2000353E+04  0.7818609E-02  0.8606456E-01
       -1   -1    0    0    0  501  0.00000000000E+00  0.00000000000E+00  0.75921395452E+03  0.75921395454E+03  0.50400001928E-02 0. -1.
        1   -1    0    0  501    0  0.00000000000E+00  0.00000000000E+00 -0.13176166304E+04  0.13176166305E+04  0.50400001928E-02 0.  1.
    10030    2    1    2    0    0  0.00000000000E+00  0.00000000000E+00 -0.55840267592E+03  0.20768305850E+04  0.20003529014E+04 0.  0.
        4    1    3    3  502    0 -0.35875641693E+03  0.49126452799E+03  0.54506884706E+03  0.81679168953E+03  0.12699999809E+01 0. -1.
       -4    1    3    3    0  502  0.35875641693E+03 -0.49126452799E+03 -0.11034715230E+04  0.12600388955E+04  0.12699999809E+01 0.  1.
</event>
<event>
 5   0  0.9220260E-06  0.2003322E+04  0.7818609E-02  0.8605069E-01
       -1   -1    0    0    0  501  0.00000000000E+00  0.00000000000E+00  0.74135323275E+03  0.74135323277E+03  0.50400001928E-02 0. -1.
        1   -1    0    0  501    0  0.00000000000E+00  0.00000000000E+00 -0.13533689325E+04  0.13533689325E+04  0.50400001928E-02 0.  1.
    10030    2    1    2    0    0  0.00000000000E+00  0.00000000000E+00 -0.61201569971E+03  0.20947221652E+04  0.20033216748E+04 0.  0.
        3    1    3    3  502    0  0.73487480924E+03 -0.59861882522E+03 -0.64473037206E+03  0.11463257591E+04  0.10100000352E+00 0.  1.
       -3    1    3    3    0  502 -0.73487480924E+03  0.59861882522E+03  0.32714672349E+02  0.94839640612E+03  0.10100000352E+00 0. -1.
</event>
<event>
 5   0  0.9342635E-06  0.1999202E+04  0.7818609E-02  0.8606994E-01
       -1   -1    0    0    0  501  0.00000000000E+00  0.00000000000E+00  0.13585282021E+04  0.13585282021E+04  0.50400001928E-02 0.  1.
        1   -1    0    0  501    0  0.00000000000E+00  0.00000000000E+00 -0.73550331410E+03  0.73550331412E+03  0.50400001928E-02 0. -1.
    10030    2    1    2    0    0  0.00000000000E+00  0.00000000000E+00  0.62302488798E+03  0.20940315162E+04  0.19992018357E+04 0.  0.
        5    1    3    3  502    0 -0.78323898398E+03  0.57932167246E+03  0.77058020113E+02  0.97725991152E+03  0.46999998093E+01 0. -1.
       -5    1    3    3    0  502  0.78323898398E+03 -0.57932167246E+03  0.54596686786E+03  0.11167716047E+04  0.46999998093E+01 0.  1.
</event>
<event>
 5   0  0.2003576E-05  0.2007811E+04  0.7818609E-02  0.8602977E-01
        2   -1    0    0  501    0  0.00000000000E+00  0.00000000000E+00  0.80886265917E+03  0.80886265917E+03  0.25500000920E-02 0. -1.
       -2   -1    0    0    0  501  0.00000000000E+00  0.00000000000E+00 -0.12459795861E+04  0.12459795861E+04  0.25500000920E-02 0.  1.
    10030    2    1    2    0    0  0.00000000000E+00  0.00000000000E+00 -0.43711692697E+03  0.20548422453E+04  0.20078111080E+04 0.  0.
        4    1    3    3  502    0  0.86103285236E+03  0.29117156317E+03  0.21764872106E+03  0.93462881976E+03  0.12699999809E+01 0. -1.
       -4    1    3    3    0  502 -0.86103285236E+03 -0.29117156317E+03 -0.65476564803E+03  0.11202134256E+04  0.12699999809E+01 0.  1.
</event>
<event>
 5   0  0.1999142E-05  0.1998891E+04  0.7818609E-02  0.8607139E-01
       -2   -1    0    0    0  501  0.00000000000E+00  0.00000000000E+00  0.15671047373E+04  0.15671047373E+04  0.25500000920E-02 0.  1.
        2   -1    0    0  501    0  0.00000000000E+00  0.00000000000E+00 -0.63741220996E+03  0.63741220997E+03  0.25500000920E-02 0. -1.
    10030    2    1    2    0    0  0.00000000000E+00  0.00000000000E+00  0.92969252730E+03  0.22045169472E+04  0.19988913866E+04 0.  0.
        1    1    3    3  502    0 -0.23969405940E+03 -0.80203170138E+03  0.10670814461E+04  0.13562340892E+04  0.50400001928E-02 0.  1.
       -1    1    3    3    0  502  0.23969405940E+03  0.80203170138E+03 -0.13738891882E+03  0.84828285800E+03  0.50400001928E-02 0. -1.
</event>
<event>
 5   0  0.2020029E-05  0.2002836E+04  0.7818609E-02  0.8605296E-01
        2   -1    0    0  501    0  0.00000000000E+00  0.00000000000E+00  0.10805595296E+04  0.10805595296E+04  0.25500000920E-02 0. -1.
       -2   -1    0    0    0  501  0.00000000000E+00  0.00000000000E+00 -0.92807306921E+03  0.92807306921E+03  0.25500000920E-02 0.  1.
    10030    2    1    2    0    0  0.00000000000E+00  0.00000000000E+00  0.15248646035E+03  0.20086325988E+04  0.20028361881E+04 0.  0.
        5    1    3    3  502    0 -0.52957960510E+03 -0.30551260677E+03  0.87164865043E+03  0.10646999440E+04  0.46999998093E+01 0. -1.
       -5    1    3    3    0  502  0.52957960510E+03  0.30551260677E+03 -0.71916219008E+03  0.94393265473E+03  0.46999998093E+01 0.  1.
</event>
<event>
 5   0  0.2003576E-05  0.2002177E+04  0.7818609E-02  0.8605603E-01
       -2   -1    0    0    0  501  0.00000000000E+00  0.00000000000E+00  0.94421134648E+03  0.94421134649E+03  0.25500000920E-02 0. -1.
        2   -1    0    0  501    0  0.00000000000E+00  0.00000000000E+00 -0.10613920042E+04  0.10613920042E+04  0.25500000920E-02 0.  1.
    10030    2    1    2    0    0  0.00000000000E+00  0.00000000000E+00 -0.11718065768E+03  0.20056033507E+04  0.20021771884E+04 0.  0.
        4    1    3    3  502    0 -0.34760939942E+03 -0.50513168411E+03 -0.85126388379E+03  0.10491149249E+04  0.12699999809E+01 0.  1.
       -4    1    3    3    0  502  0.34760939942E+03  0.50513168411E+03  0.73408322612E+03  0.95648842577E+03  0.12699999809E+01 0. -1.
</event>
<event>
 5   0  0.1979765E-05  0.1996430E+04  0.7818609E-02  0.8608291E-01
        2   -1    0    0  501    0  0.00000000000E+00  0.00000000000E+00  0.11941343777E+04  0.11941343777E+04  0.25500000920E-02 0.  1.
       -2   -1    0    0    0  501  0.00000000000E+00  0.00000000000E+00 -0.83443990762E+03  0.83443990762E+03  0.25500000920E-02 0. -1.
    10030    2    1    2    0    0  0.00000000000E+00  0.00000000000E+00  0.35969447009E+03  0.20285742853E+04  0.19964301940E+04 0.  0.
        2    1    3    3  502    0 -0.27061977121E+03  0.76193088712E+03 -0.41494907443E+03  0.90882147405E+03  0.25500000920E-02 0. -1.
       -2    1    3    3    0  502  0.27061977121E+03 -0.76193088712E+03  0.77464354452E+03  0.11197528113E+04  0.25500000920E-02 0.  1.
</event>
<event>
 5   0  0.2020029E-05  0.2000524E+04  0.7818609E-02  0.8606376E-01
       -2   -1    0    0    0  501  0.00000000000E+00  0.00000000000E+00  0.14723027617E+04  0.14723027617E+04  0.25500000920E-02 0.  1.
        2   -1    0    0  501    0  0.00000000000E+00  0.00000000000E+00 -0.67956380501E+03  0.67956380501E+03  0.25500000920E-02 0. -1.
    10030    2    1    2    0    0  0.00000000000E+00  0.00000000000E+00  0.79273895670E+03  0.21518665667E+04  0.20005235983E+04 0.  0.
        5    1    3    3  502    0 -0.34207485593E+03  0.15205635350E+03  0.13940996051E+04  0.14434930345E+04  0.46999998093E+01 0.  1.
       -5    1    3    3    0  502  0.34207485593E+03 -0.15205635350E+03 -0.60136064841E+03  0.70837353222E+03  0.46999998093E+01 0. -1.
</event>
<event>
 5   0  0.2020029E-05  0.1998862E+04  0.7818609E-02  0.8607153E-01
        2   -1    0    0  501    0  0.00000000000E+00  0.00000000000E+00  0.10461773663E+04  0.10461773663E+04  0.25500000920E-02 0.  1.
       -2   -1    0    0    0  501  0.00000000000E+00  0.00000000000E+00 -0.95477340652E+03  0.95477340653E+03  0.25500000920E-02 0. -1.
    10030    2    1    2    0    0  0.00000000000E+00  0.00000000000E+00  0.91403959732E+02  0.20009507728E+04  0.19988620041E+04 0.  0.
        5    1    3    3  502    0  0.74675290477E+03  0.64173093231E+03  0.21729214932E+03  0.10083136706E+04  0.46999998093E+01 0.  1.
       -5    1    3    3    0  502 -0.74675290477E+03 -0.64173093231E+03 -0.12588818958E+03  0.99263710214E+03  0.46999998093E+01 0. -1.
</event>
<event>
 5   0  0.9333353E-06  0.1999406E+04  0.7818609E-02  0.8606898E-01
        1   -1    0    0  501    0  0.00000000000E+00  0.00000000000E+00  0.27143395034E+04  0.27143395034E+04  0.50400001928E-02 0. -1.
       -1   -1    0    0    0  501  0.00000000000E+00  0.00000000000E+00 -0.36819491909E+03  0.36819491913E+03  0.50400001928E-02 0.  1.
    10030    2    1    2    0    0  0.00000000000E+00  0.00000000000E+00  0.23461445843E+04  0.30825344225E+04  0.19994059257E+04 0.  0.
        2    1    3    3  502    0 -0.73533445762E+03  0.13024556699E+03  0.14840442376E+03  0.76138331036E+03  0.25500000920E-02 0.  1.
       -2    1    3    3    0  502  0.73533445762E+03 -0.13024556699E+03  0.21977401605E+04  0.23211511122E+04  0.25500000920E-02 0. -1.
</event>
<event>
 5   0  0.9333353E-06  0.1998331E+04  0.7818609E-02  0.8607401E-01
        1   -1    0    0  501    0  0.00000000000E+00  0.00000000000E+00  0.23639009742E+04  0.23639009742E+04  0.50400001928E-02 0. -1.
       -1   -1    0    0    0  501  0.00000000000E+00  0.00000000000E+00 -0.42232371367E+03  0.42232371370E+03  0.50400001928E-02 0.  1.
    10030    2    1    2    0    0  0.00000000000E+00  0.00000000000E+00  0.19415772606E+04  0.27862246879E+04  0.19983307416E+04 0.  0.
        2    1    3    3  502    0  0.15742819108E+03  0.68436936582E+02  0.23431870789E+04  0.23494665216E+04  0.25500000920E-02 0. -1.
       -2    1    3    3    0  502 -0.15742819108E+03 -0.68436936582E+02 -0.40160981834E+03  0.43675816630E+03  0.25500000920E-02 0.  1.
</event>
<event>
 5   0  0.9333353E-06  0.2036522E+04  0.7818609E-02  0.8589733E-01
        1   -1    0    0  501    0  0.00000000000E+00  0.00000000000E+00  0.79166649786E+03  0.79166649788E+03  0.50400001928E-02 0.  1.
       -1   -1    0    0    0  501  0.00000000000E+00  0.00000000000E+00 -0.13097119853E+04  0.13097119854E+04  0.50400001928E-02 0. -1.
    10030    2    1    2    0    0  0.00000000000E+00  0.00000000000E+00 -0.51804548748E+03  0.21013784832E+04  0.20365216431E+04 0.  0.
        2    1    3    3  502    0 -0.89612031936E+03 -0.24583910785E+02  0.23928462980E+03  0.92784326774E+03  0.25500000920E-02 0.  1.
       -2    1    3    3    0  502  0.89612031936E+03  0.24583910785E+02 -0.75733011728E+03  0.11735352155E+04  0.25500000920E-02 0. -1.
</event>
<event>
 5   0  0.9342635E-06  0.1998948E+04  0.7818609E-02  0.8607113E-01
        1   -1    0    0  501    0  0.00000000000E+00  0.00000000000E+00  0.10130670577E+04  0.10130670577E+04  0.50400001928E-02 0.  1.
       -1   -1    0    0    0  501  0.00000000000E+00  0.00000000000E+00 -0.98606293432E+03  0.98606293433E+03  0.50400001928E-02 0. -1.
    10030    2    1    2    0    0  0.00000000000E+00  0.00000000000E+00  0.27004123412E+02  0.19991299921E+04  0.19989475988E+04 0.  0.
        5    1    3    3  502    0 -0.52972982678E+03 -0.55261183509E+02 -0.83230455380E+03  0.98813989296E+03  0.46999998093E+01 0. -1.
       -5    1    3    3    0  502  0.52972982678E+03  0.55261183509E+02  0.85930867721E+03  0.10109900991E+04  0.46999998093E+01 0.  1.
</event>
<event>
 5   0  0.2038882E-05  0.2002972E+04  0.7818609E-02  0.8605232E-01
        2   -1    0    0  501    0  0.00000000000E+00  0.00000000000E+00  0.17407995408E+04  0.17407995408E+04  0.25500000920E-02 0. -1.
       -2   -1    0    0    0  501  0.00000000000E+00  0.00000000000E+00 -0.57615721833E+03  0.57615721834E+03  0.25500000920E-02 0.  1.
    10030    2    1    2    0    0  0.00000000000E+00  0.00000000000E+00  0.11646423224E+04  0.23169567591E+04  0.20029720129E+04 0.  0.
        3    1    3    3  502    0 -0.59564366602E+03 -0.35448637798E+03 -0.25385048786E+03  0.73816803604E+03  0.10100000352E+00 0.  1.
       -3    1    3    3    0  502  0.59564366602E+03  0.35448637798E+03  0.14184928103E+04  0.15787887231E+04  0.10100000352E+00 0. -1.
</event>
<event>
 5   0  0.9140695E-06  0.1998223E+04  0.7818609E-02  0.8607452E-01
       -1   -1    0    0    0  501  0.00000000000E+00  0.00000000000E+00  0.90139473137E+03  0.90139473138E+03  0.50400001928E-02 0.  1.
        1   -1    0    0  501    0  0.00000000000E+00  0.00000000000E+00 -0.11074212031E+04  0.11074212031E+04  0.50400001928E-02 0. -1.
    10030    2    1    2    0    0  0.00000000000E+00  0.00000000000E+00 -0.20602647176E+03  0.20088159345E+04  0.19982228484E+04 0.  0.
        1    1    3    3  502    0 -0.56513432214E+03  0.48155048753E+03  0.56907855740E+03  0.93547746025E+03  0.50400001928E-02 0.  1.
       -1    1    3    3    0  502  0.56513432214E+03 -0.48155048753E+03 -0.77510502916E+03  0.10733384743E+04  0.50400001928E-02 0. -1.
</event>
<event>
 5   0  0.9333353E-06  0.1998329E+04  0.7818609E-02  0.8607402E-01
        1   -1    0    0  501    0  0.00000000000E+00  0.00000000000E+00  0.19180013120E+04  0.19180013120E+04  0.50400001928E-02 0.  1.
       -1   -1    0    0    0  501  0.00000000000E+00  0.00000000000E+00 -0.52050507019E+03  0.52050507022E+03  0.50400001928E-02 0. -1.
    10030    2    1    2    0    0  0.00000000000E+00  0.00000000000E+00  0.13974962418E+04  0.24385063822E+04  0.19983287093E+04 0.  0.
        2    1    3    3  502    0 -0.93537026105E+03  0.16115271990E+03  0.31783199610E+03  0.10009519979E+04  0.25500000920E-02 0.  1.
       -2    1    3    3    0  502  0.93537026105E+03 -0.16115271990E+03  0.10796642457E+04  0.14375543843E+04  0.25500000920E-02 0. -1.
</event>
<event>
 5   0  0.9342635E-06  0.2000047E+04  0.7818609E-02  0.8606599E-01
       -1   -1    0    0    0  501  0.00000000000E+00  0.00000000000E+00  0.96809093577E+03  0.96809093579E+03  0.50400001928E-02 0.  1.
        1   -1    0    0  501    0  0.00000000000E+00  0.00000000000E+00 -0.10330093322E+04  0.10330093322E+04  0.50400001928E-02 0. -1.
    10030    2    1    2    0    0  0.00000000000E+00  0.00000000000E+00 -0.64918396449E+02  0.20011002680E+04  0.20000469706E+04 0.  0.
        5    1    3    3  502    0  0.50733504335E+03 -0.73892531476E+03  0.41119896842E+03  0.98615726364E+03  0.46999998093E+01 0.  1.
       -5    1    3    3    0  502 -0.50733504335E+03  0.73892531476E+03 -0.47611736487E+03  0.10149430044E+04  0.46999998093E+01 0. -1.
</event>
<event>
 5   0  0.1979765E-05  0.2003768E+04  0.7818609E-02  0.8604861E-01
        2   -1    0    0  501    0  0.00000000000E+00  0.00000000000E+00  0.71796119379E+03  0.71796119379E+03  0.25500000920E-02 0.  1.
       -2   -1    0    0    0  501  0.00000000000E+00  0.00000000000E+00 -0.13980856148E+04  0.13980856148E+04  0.25500000920E-02 0. -1.
    10030    2    1    2    0    0  0.00000000000E+00  0.00000000000E+00 -0.68012442105E+03  0.21160468086E+04  0.20037676682E+04 0.  0.
        2    1    3    3  502    0 -0.32969640314E+03 -0.72711525716E+02 -0.13362021008E+04  0.13781954645E+04  0.25500000920E-02 0. -1.
       -2    1    3    3    0  502  0.32969640314E+03  0.72711525716E+02  0.65607767973E+03  0.73785134415E+03  0.25500000920E-02 0.  1.
</event>
<event>
 5   0  0.2003576E-05  0.2039554E+04  0.7818609E-02  0.8588348E-01
        2   -1    0    0  501    0  0.00000000000E+00  0.00000000000E+00  0.87432262651E+03  0.87432262651E+03  0.25500000920E-02 0.  1.
       -2   -1    0    0    0  501  0.00000000000E+00  0.00000000000E+00 -0.11894289947E+04  0.11894289947E+04  0.25500000920E-02 0. -1.
    10030    2    1    2    0    0  0.00000000000E+00  0.00000000000E+00 -0.31510636817E+03  0.20637516212E+04  0.20395535616E+04 0.  0.
        4    1    3    3  502    0 -0.33023630091E+03 -0.21400431241E+02 -0.11335849433E+04  0.11809023794E+04  0.12699999809E+01 0. -1.
       -4    1    3    3    0  502  0.33023630091E+03  0.21400431241E+02  0.81847857517E+03  0.88284924184E+03  0.12699999809E+01 0.  1.
</event>
<event>
 5   0  0.9220260E-06  0.1970919E+04  0.7818609E-02  0.8620339E-01
        1   -1    0    0  501    0  0.00000000000E+00  0.00000000000E+00  0.10641833457E+04  0.10641833458E+04  0.50400001928E-02 0.  1.
       -1   -1    0    0    0  501  0.00000000000E+00  0.00000000000E+00 -0.91255960852E+03  0.91255960853E+03  0.50400001928E-02 0. -1.
    10030    2    1    2    0    0  0.00000000000E+00  0.00000000000E+00  0.15162373722E+03  0.19767429543E+04  0.19709193159E+04 0.  0.
        3    1    3    3  502    0 -0.29679362352E+03 -0.62987677369E+03  0.77522418397E+03  0.10420190740E+04  0.10100000352E+00 0.  1.
       -3    1    3    3    0  502  0.29679362352E+03  0.62987677369E+03 -0.62360044674E+03  0.93472388028E+03  0.10100000352E+00 0. -1.
</event>
<event>
 5   0  0.1979765E-05  0.2000009E+04  0.7818609E-02  0.8606616E-01
        2   -1    0    0  501    0  0.00000000000E+00  0.00000000000E+00  0.20755083038E+04  0.20755083038E+04  0.25500000920E-02 0. -1.
       -2   -1    0    0    0  501  0.00000000000E+00  0.00000000000E+00 -0.48181416875E+03  0.48181416876E+03  0.25500000920E-02 0.  1.
    10030    2    1    2    0    0  0.00000000000E+00  0.00000000000E+00  0.15936941350E+04  0.25573224725E+04  0.20000093081E+04 0.  0.
        2    1    3    3  502    0 -0.31313344292E+03  0.90832220776E+03  0.44224775673E+03  0.10576789988E+04  0.25500000920E-02 0.  1.
       -2    1    3    3    0  502  0.31313344292E+03 -0.90832220776E+03  0.11514463783E+04  0.14996434737E+04  0.25500000920E-02 0. -1.
</event>
<event>
 5   0  0.9342635E-06  0.2002937E+04  0.7818609E-02  0.8605249E-01
       -1   -1    0    0    0  501  0.00000000000E+00  0.00000000000E+00  0.38074886978E+03  0.38074886981E+03  0.50400001928E-02 0.  1.
        1   -1    0    0  501    0  0.00000000000E+00  0.00000000000E+00 -0.26341230960E+04  0.26341230960E+04  0.50400001928E-02 0. -1.
    10030    2    1    2    0    0  0.00000000000E+00  0.00000000000E+00 -0.22533742262E+04  0.30148719658E+04  0.20029372349E+04 0.  0.
        5    1    3    3  502    0  0.10143247564E+03 -0.10335930397E+03  0.36488841509E+03  0.39260328360E+03  0.46999998093E+01 0.  1.
       -5    1    3    3    0  502 -0.10143247564E+03  0.10335930397E+03 -0.26182626413E+04  0.26222686822E+04  0.46999998093E+01 0. -1.
</event>
<event>
 5   0  0.7132000E-06  0.2001937E+04  0.7818609E-02  0.8605716E-01
       -3   -1    0    0    0  501  0.00000000000E+00  0.00000000000E+00  0.10716764186E+04  0.10716764234E+04  0.10100000352E+00 0. -1.
        3   -1    0    0  501    0  0.00000000000E+00  0.00000000000E+00 -0.93492558127E+03  0.93492558672E+03  0.10100000352E+00 0.  1.
    10030    2    1    2    0    0  0.00000000000E+00  0.00000000000E+00  0.13675083736E+03  0.20066020101E+04  0.20019367711E+04 0.  0.
        3    1    3    3  502    0  0.32317785329E+03  0.46585685674E+03 -0.75845367344E+03  0.94695222730E+03  0.10100000352E+00 0.  1.
       -3    1    3    3    0  502 -0.32317785329E+03 -0.46585685674E+03  0.89520451081E+03  0.10596497828E+04  0.10100000352E+00 0. -1.
</event>
<event>
 5   0  0.9370269E-06  0.2004332E+04  0.7818609E-02  0.8604598E-01
        1   -1    0    0  501    0  0.00000000000E+00  0.00000000000E+00  0.10884288080E+04  0.10884288080E+04  0.50400001928E-02 0. -1.
       -1   -1    0    0    0  501  0.00000000000E+00  0.00000000000E+00 -0.92274004722E+03  0.92274004723E+03  0.50400001928E-02 0.  1.
    10030    2    1    2    0    0  0.00000000000E+00  0.00000000000E+00  0.16568876078E+03  0.20111688552E+04  0.20043321578E+04 0.  0.
        4    1    3    3  502    0 -0.62210514958E+03  0.15659902980E+03  0.85540381223E+03  0.10692312042E+04  0.12699999809E+01 0. -1.
       -4    1    3    3    0  502  0.62210514958E+03 -0.15659902980E+03 -0.68971505145E+03  0.94193765099E+03  0.12699999809E+01 0.  1.
</event>
<event>
 5   0  0.9333353E-06  0.1996652E+04  0.7818609E-02  0.8608188E-01
       -1   -1    0    0    0  501  0.00000000000E+00  0.00000000000E+00  0.46419335599E+03  0.46419335602E+03  0.50400001928E-02 0. -1.
        1   -1    0    0  501    0  0.00000000000E+00  0.00000000000E+00 -0.21470678393E+04  0.21470678393E+04  0.50400001928E-02 0.  1.
    10030    2    1    2    0    0  0.00000000000E+00  0.00000000000E+00 -0.16828744833E+04  0.26112611953E+04  0.19966518233E+04 0.  0.
        2    1    3    3  502    0  0.61696582126E+03 -0.77927200487E+03 -0.71915121967E+03  0.12268211601E+04  0.25500000920E-02 0. -1.
       -2    1    3    3    0  502 -0.61696582126E+03  0.77927200487E+03 -0.96372326367E+03  0.13844400352E+04  0.25500000920E-02 0.  1.
</event>
<event>
 5   0  0.9342635E-06  0.1997974E+04  0.7818609E-02  0.8607568E-01
       -1   -1    0    0    0  501  0.00000000000E+00  0.00000000000E+00  0.55063748793E+03  0.55063748795E+03  0.50400001928E-02 0. -1.
        1   -1    0    0  501    0  0.00000000000E+00  0.00000000000E+00 -0.18124002428E+04  0.18124002428E+04  0.50400001928E-02 0.  1.
    10030    2    1    2    0    0  0.00000000000E+00  0.00000000000E+00 -0.12617627549E+04  0.23630377308E+04  0.19979744912E+04 0.  0.
        5    1    3    3  502    0 -0.85565175853E+03 -0.63788831137E+02 -0.25792064224E+02  0.85842662320E+03  0.46999998093E+01 0. -1.
       -5    1    3    3    0  502  0.85565175853E+03  0.63788831137E+02 -0.12359706907E+04  0.15046111076E+04  0.46999998093E+01 0.  1.
</event>
<event>
 5   0  0.9140695E-06  0.2002038E+04  0.7818609E-02  0.8605668E-01
        1   -1    0    0  501    0  0.00000000000E+00  0.00000000000E+00  0.96974071259E+03  0.96974071261E+03  0.50400001928E-02 0. -1.
       -1   -1    0    0    0  501  0.00000000000E+00  0.00000000000E+00 -0.10333064309E+04  0.10333064309E+04  0.50400001928E-02 0.  1.
    10030    2    1    2    0    0  0.00000000000E+00  0.00000000000E+00 -0.63565718342E+02  0.20030471436E+04  0.20020382760E+04 0.  0.
        1    1    3    3  502    0  0.23147865032E+03 -0.73386422635E+03  0.60877429245E+03  0.98119580485E+03  0.50400001928E-02 0. -1.
       -1    1    3    3    0  502 -0.23147865032E+03  0.73386422635E+03 -0.67234001080E+03  0.10218513387E+04  0.50400001928E-02 0.  1.
</event>
<event>
 5   0  0.2038882E-05  0.2000140E+04  0.7818609E-02  0.8606555E-01
       -2   -1    0    0    0  501  0.00000000000E+00  0.00000000000E+00  0.69704582613E+03  0.69704582614E+03  0.25500000920E-02 0. -1.
        2   -1    0    0  501    0  0.00000000000E+00  0.00000000000E+00 -0.14348268088E+04  0.14348268088E+04  0.25500000920E-02 0.  1.
    10030    2    1    2    0    0  0.00000000000E+00  0.00000000000E+00 -0.73778098264E+03  0.21318726349E+04  0.20001400334E+04 0.  0.
        3    1    3    3  502    0 -0.88573278848E+03 -0.45865518665E+03 -0.44614065293E+03  0.10926704193E+04  0.10100000352E+00 0. -1.
       -3    1    3    3    0  502  0.88573278848E+03  0.45865518665E+03 -0.29164032971E+03  0.10392022156E+04  0.10100000352E+00 0.  1.
</event>
<event>
 5   0  0.2038882E-05  0.1999517E+04  0.7818609E-02  0.8606847E-01
        2   -1    0    0  501    0  0.00000000000E+00  0.00000000000E+00  0.12185986940E+04  0.12185986940E+04  0.25500000920E-02 0. -1.
       -2   -1    0    0    0  501  0.00000000000E+00  0.00000000000E+00 -0.82021819335E+03  0.82021819336E+03  0.25500000920E-02 0.  1.
    10030    2    1    2    0    0  0.00000000000E+00  0.00000000000E+00  0.39838050064E+03  0.20388168873E+04  0.19995167608E+04 0.  0.
        3    1    3    3  502    0  0.27680860022E+03 -0.96063548907E+03  0.19046251783E+03  0.10177030632E+04  0.10100000352E+00 0.  1.
       -3    1    3    3    0  502 -0.27680860022E+03  0.96063548907E+03  0.20791798281E+03  0.10211138241E+04  0.10100000352E+00 0. -1.
</event>
<event>
 5   0  0.9342635E-06  0.1982197E+04  0.7818609E-02  0.8614990E-01
       -1   -1    0    0    0  501  0.00000000000E+00  0.00000000000E+00  0.63740963456E+03  0.63740963458E+03  0.50400001928E-02 0.  1.
        1   -1    0    0  501    0  0.00000000000E+00  0.00000000000E+00 -0.15410434814E+04  0.15410434814E+04  0.50400001928E-02 0. -1.
    10030    2    1    2    0    0  0.00000000000E+00  0.00000000000E+00 -0.90363384684E+03  0.21784531160E+04  0.19821967232E+04 0.  0.
        5    1    3    3  502    0  0.70587807920E+03 -0.31143096255E+03 -0.11355040078E+04  0.13728235680E+04  0.46999998093E+01 0. -1.
       -5    1    3    3    0  502 -0.70587807920E+03  0.31143096255E+03  0.23187016091E+03  0.80562954803E+03  0.46999998093E+01 0.  1.
</event>
<event>
 5   0  0.9220260E-06  0.2001534E+04  0.7818609E-02  0.8605904E-01
        1   -1    0    0  501    0  0.00000000000E+00  0.00000000000E+00  0.97944082340E+03  0.97944082341E+03  0.50400001928E-02 0.  1.
       -1   -1    0    0    0  501  0.00000000000E+00  0.00000000000E+00 -0.10225573577E+04  0.10225573577E+04  0.50400001928E-02 0. -1.
    10030    2    1    2    0    0  0.00000000000E+00  0.00000000000E+00 -0.43116534275E+02  0.20019981811E+04  0.20015338322E+04 0.  0.
        3    1    3    3  502    0  0.68646504982E+02  0.99822867497E+03 -0.25385979042E+01  0.10005894687E+04  0.10100000352E+00 0. -1.
       -3    1    3    3    0  502 -0.68646504982E+02 -0.99822867497E+03 -0.40577936370E+02  0.10014087124E+04  0.10100000352E+00 0.  1.
</event>
<event>
 5   0  0.9220260E-06  0.2021533E+04  0.7818609E-02  0.8596619E-01
       -1   -1    0    0    0  501  0.00000000000E+00  0.00000000000E+00  0.66521627130E+03  0.66521627132E+03  0.50400001928E-02 0.  1.
        1   -1    0    0  501    0  0.00000000000E+00  0.00000000000E+00 -0.15358147801E+04  0.15358147801E+04  0.50400001928E-02 0. -1.
    10030    2    1    2    0    0  0.00000000000E+00  0.00000000000E+00 -0.87059850877E+03  0.22010310514E+04  0.20215330632E+04 0.  0.
        3    1    3    3  502    0  0.29370157813E+03  0.61646091158E+03 -0.12466979395E+04  0.14214571521E+04  0.10100000352E+00 0. -1.
       -3    1    3    3    0  502 -0.29370157813E+03 -0.61646091158E+03  0.37609943076E+03  0.77957389933E+03  0.10100000352E+00 0.  1.
</event>
<event>
 5   0  0.1979765E-05  0.2001327E+04  0.7818609E-02  0.8606001E-01
        2   -1    0    0  501    0  0.00000000000E+00  0.00000000000E+00  0.96975517029E+03  0.96975517030E+03  0.25500000920E-02 0. -1.
       -2   -1    0    0    0  501  0.00000000000E+00  0.00000000000E+00 -0.10325565523E+04  0.10325565523E+04  0.25500000920E-02 0.  1.
    10030    2    1    2    0    0  0.00000000000E+00  0.00000000000E+00 -0.62801382039E+02  0.20023117226E+04  0.20013266153E+04 0.  0.
        2    1    3    3  502    0 -0.64284265959E+03  0.63998390725E+03 -0.45410240384E+03  0.10144136630E+04  0.25500000920E-02 0.  1.
       -2    1    3    3    0  502  0.64284265959E+03 -0.63998390725E+03  0.39130102180E+03  0.98789805962E+03  0.25500000920E-02 0. -1.
</event>
<event>
 5   0  0.1979765E-05  0.2000778E+04  0.7818609E-02  0.8606257E-01
        2   -1    0    0  501    0  0.00000000000E+00  0.00000000000E+00  0.11329533638E+04  0.11329533638E+04  0.25500000920E-02 0. -1.
       -2   -1    0    0    0  501  0.00000000000E+00  0.00000000000E+00 -0.88333536557E+03  0.88333536557E+03  0.25500000920E-02 0.  1.
    10030    2    1    2    0    0  0.00000000000E+00  0.00000000000E+00  0.24961799826E+03  0.20162887294E+04  0.20007776226E+04 0.  0.
        2    1    3    3  502    0 -0.44041565397E+03  0.53490863854E+03  0.85198787886E+03  0.10981696342E+04  0.25500000920E-02 0. -1.
       -2    1    3    3    0  502  0.44041565397E+03 -0.53490863854E+03 -0.60236988060E+03  0.91811909516E+03  0.25500000920E-02 0.  1.
</event>
<event>
 5   0  0.9370269E-06  0.2004605E+04  0.7818609E-02  0.8604471E-01
        1   -1    0    0  501    0  0.00000000000E+00  0.00000000000E+00  0.14918064365E+04  0.14918064365E+04  0.50400001928E-02 0.  1.
       -1   -1    0    0    0  501  0.00000000000E+00  0.00000000000E+00 -0.67341892088E+03  0.67341892090E+03  0.50400001928E-02 0. -1.
    10030    2    1    2    0    0  0.00000000000E+00  0.00000000000E+00  0.81838751560E+03  0.21652253574E+04  0.20046053783E+04 0.  0.
        4    1    3    3  502    0  0.55913523270E+03 -0.56862598608E+03  0.10650010412E+04  0.13304873360E+04  0.12699999809E+01 0.  1.
       -4    1    3    3    0  502 -0.55913523270E+03  0.56862598608E+03 -0.24661352562E+03  0.83473802142E+03  0.12699999809E+01 0. -1.
</event>
<event>
 5   0  0.1999142E-05  0.1998300E+04  0.7818609E-02  0.8607416E-01
        2   -1    0    0  501    0  0.00000000000E+00  0.00000000000E+00  0.25283949150E+04  0.25283949150E+04  0.25500000920E-02 0. -1.
       -2   -1    0    0    0  501  0.00000000000E+00  0.00000000000E+00 -0.39483558265E+03  0.39483558265E+03  0.25500000920E-02 0.  1.
    10030    2    1    2    0    0  0.00000000000E+00  0.00000000000E+00  0.21335593323E+04  0.29232304976E+04  0.19982995565E+04 0.  0.
        1    1    3    3  502    0  0.83266579163E+03  0.38815232146E+03  0.49214277798E+03  0.10422087407E+04  0.50400001928E-02 0.  1.
       -1    1    3    3    0  502 -0.83266579163E+03 -0.38815232146E+03  0.16414165543E+04  0.18810217569E+04  0.50400001928E-02 0. -1.
</event>
<event>
 5   0  0.7132000E-06  0.1994402E+04  0.7818609E-02  0.8609242E-01
        3   -1    0    0  501    0  0.00000000000E+00  0.00000000000E+00  0.82965852736E+03  0.82965853351E+03  0.10100000352E+00 0.  1.
       -3   -1    0    0    0  501  0.00000000000E+00  0.00000000000E+00 -0.11985771165E+04  0.11985771207E+04  0.10100000352E+00 0. -1.
    10030    2    1    2    0    0  0.00000000000E+00  0.00000000000E+00 -0.36891858909E+03  0.20282356542E+04  0.19944019012E+04 0.  0.
        1    1    3    3  502    0 -0.80357777512E+03 -0.58272614700E+03 -0.28148607737E+03  0.10317661629E+04  0.50400001928E-02 0. -1.
       -1    1    3    3    0  502  0.80357777512E+03  0.58272614700E+03 -0.87432511716E+02  0.99646949135E+03  0.50400001928E-02 0.  1.
</event>
<event>
 5   0  0.2020029E-05  0.1962395E+04  0.7818609E-02  0.8624407E-01
       -2   -1    0    0    0  501  0.00000000000E+00  0.00000000000E+00  0.10982595092E+04  0.10982595092E+04  0.25500000920E-02 0. -1.
        2   -1    0    0  501    0  0.00000000000E+00  0.00000000000E+00 -0.87661327207E+03  0.87661327208E+03  0.25500000920E-02 0.  1.
    10030    2    1    2    0    0  0.00000000000E+00  0.00000000000E+00  0.22164623712E+03  0.19748727813E+04  0.19623953342E+04 0.  0.
        5    1    3    3  502    0  0.85900773299E+03  0.18424535626E+03  0.55050626022E+03  0.10367834244E+04  0.46999998093E+01 0. -1.
       -5    1    3    3    0  502 -0.85900773299E+03 -0.18424535626E+03 -0.32886002310E+03  0.93808935684E+03  0.46999998093E+01 0.  1.
</event>
<event>
 5   0  0.2020029E-05  0.1998201E+04  0.7818609E-02  0.8607462E-01
        2   -1    0    0  501    0  0.00000000000E+00  0.00000000000E+00  0.21561457017E+04  0.21561457017E+04  0.25500000920E-02 0.  1.
       -2   -1    0    0    0  501  0.00000000000E+00  0.00000000000E+00 -0.46295653610E+03  0.46295653611E+03  0.25500000920E-02 0. -1.
    10030    2    1    2    0    0  0.00000000000E+00  0.00000000000E+00  0.16931891656E+04  0.26191022379E+04  0.19982009363E+04 0.  0.
        5    1    3    3  502    0 -0.39893795025E+03 -0.22961216492E+03 -0.31568124188E+03  0.55816661571E+03  0.46999998093E+01 0. -1.
       -5    1    3    3    0  502  0.39893795025E+03  0.22961216492E+03  0.20088704075E+04  0.20609356221E+04  0.46999998093E+01 0.  1.
</event>
<event>
 5   0  0.1979765E-05  0.1998460E+04  0.7818609E-02  0.8607341E-01
       -2   -1    0    0    0  501  0.00000000000E+00  0.00000000000E+00  0.91087357583E+03  0.91087357584E+03  0.25500000920E-02 0.  1.
        2   -1    0    0  501    0  0.00000000000E+00  0.00000000000E+00 -0.10961571243E+04  0.10961571243E+04  0.25500000920E-02 0. -1.
    10030    2    1    2    0    0  0.00000000000E+00  0.00000000000E+00 -0.18528354850E+03  0.20070307002E+04  0.19984599666E+04 0.  0.
        2    1    3    3  502    0  0.52214570938E+02  0.85969048523E+03  0.41615357125E+03  0.95654476460E+03  0.25500000920E-02 0.  1.
       -2    1    3    3    0  502 -0.52214570938E+02 -0.85969048523E+03 -0.60143711975E+03  0.10504859356E+04  0.25500000920E-02 0. -1.
</event>
<event>
 5   0  0.9342635E-06  0.2001538E+04  0.7818609E-02  0.8605902E-01
       -1   -1    0    0    0  501  0.00000000000E+00  0.00000000000E+00  0.11852405856E+04  0.11852405856E+04  0.50400001928E-02 0. -1.
        1   -1    0    0  501    0  0.00000000000E+00  0.00000000000E+00 -0.84500834793E+03  0.84500834795E+03  0.50400001928E-02 0.  1.
    10030    2    1    2    0    0  0.00000000000E+00  0.00000000000E+00  0.34023223763E+03  0.20302489335E+04  0.20015375981E+04 0.  0.
        5    1    3    3  502    0  0.35884868497E+03  0.88003340795E+03 -0.14788524725E+03  0.96183330893E+03  0.46999998093E+01 0.  1.
       -5    1    3    3    0  502 -0.35884868497E+03 -0.88003340795E+03  0.48811748488E+03  0.10684156246E+04  0.46999998093E+01 0. -1.
</event>
<event>
 5   0  0.2038882E-05  0.2001794E+04  0.7818609E-02  0.8605783E-01
        2   -1    0    0  501    0  0.00000000000E+00  0.00000000000E+00  0.10973219899E+04  0.10973219899E+04  0.25500000920E-02 0. -1.
       -2   -1    0    0    0  501  0.00000000000E+00  0.00000000000E+00 -0.91294489742E+03  0.91294489742E+03  0.25500000920E-02 0.  1.
    10030    2    1    2    0    0  0.00000000000E+00  0.00000000000E+00  0.18437709247E+03  0.20102668873E+04  0.20017937072E+04 0.  0.
        3    1    3    3  502    0 -0.30661590403E+03  0.93019453600E+03  0.29926347632E+03  0.10241258838E+04  0.10100000352E+00 0. -1.
       -3    1    3    3    0  502  0.30661590403E+03 -0.93019453600E+03 -0.11488638385E+03  0.98614100351E+03  0.10100000352E+00 0.  1.
</event>
<event>
 5   0  0.9220260E-06  0.2003118E+04  0.7818609E-02  0.8605164E-01
        1   -1    0    0  501    0  0.00000000000E+00  0.00000000000E+00  0.14467287150E+04  0.14467287150E+04  0.50400001928E-02 0.  1.
       -1   -1    0    0    0  501  0.00000000000E+00  0.00000000000E+00 -0.69337138256E+03  0.69337138258E+03  0.50400001928E-02 0. -1.
    10030    2    1    2    0    0  0.00000000000E+00  0.00000000000E+00  0.75335733241E+03  0.21401000976E+04  0.20031178591E+04 0.  0.
        3    1    3    3  502    0 -0.51800622510E+03  0.83838838733E+03  0.18587481792E+03  0.10028833409E+04  0.10100000352E+00 0.  1.
       -3    1    3    3    0  502  0.51800622510E+03 -0.83838838733E+03  0.56748251448E+03  0.11372167567E+04  0.10100000352E+00 0. -1.
</event>
<event>
 5   0  0.2003576E-05  0.2004131E+04  0.7818609E-02  0.8604692E-01
        2   -1    0    0  501    0  0.00000000000E+00  0.00000000000E+00  0.11703437065E+04  0.11703437065E+04  0.25500000920E-02 0. -1.
       -2   -1    0    0    0  501  0.00000000000E+00  0.00000000000E+00 -0.85798356580E+03  0.85798356581E+03  0.25500000920E-02 0.  1.
    10030    2    1    2    0    0  0.00000000000E+00  0.00000000000E+00  0.31236014072E+03  0.20283272723E+04  0.20041313994E+04 0.  0.
        4    1    3    3  502    0 -0.23121106745E+03 -0.23451657950E+03  0.11140083664E+04  0.11616681269E+04  0.12699999809E+01 0. -1.
       -4    1    3    3    0  502  0.23121106745E+03  0.23451657950E+03 -0.80164822566E+03  0.86665914544E+03  0.12699999809E+01 0.  1.
</event>
<event>
 5   0  0.9333353E-06  0.1986348E+04  0.7818609E-02  0.8613030E-01
        1   -1    0    0  501    0  0.00000000000E+00  0.00000000000E+00  0.15845022829E+04  0.15845022829E+04  0.50400001928E-02 0. -1.
       -1   -1    0    0    0  501  0.00000000000E+00  0.00000000000E+00 -0.62252618523E+03  0.62252618525E+03  0.50400001928E-02 0.  1.
    10030    2    1    2    0    0  0.00000000000E+00  0.00000000000E+00  0.96197609769E+03  0.22070284682E+04  0.19863475645E+04 0.  0.
        2    1    3    3  502    0  0.89517865247E+03 -0.91356271304E+02  0.13925426467E+02  0.89993594530E+03  0.25500000920E-02 0.  1.
       -2    1    3    3    0  502 -0.89517865247E+03  0.91356271304E+02  0.94805067122E+03  0.13070925229E+04  0.25500000920E-02 0. -1.
</event>
<event>
 5   0  0.9140695E-06  0.2002452E+04  0.7818609E-02  0.8605475E-01
        1   -1    0    0  501    0  0.00000000000E+00  0.00000000000E+00  0.14925658981E+04  0.14925658982E+04  0.50400001928E-02 0.  1.
       -1   -1    0    0    0  501  0.00000000000E+00  0.00000000000E+00 -0.67163089179E+03  0.67163089181E+03  0.50400001928E-02 0. -1.
    10030    2    1    2    0    0  0.00000000000E+00  0.00000000000E+00  0.82093500635E+03  0.21641967900E+04  0.20024518624E+04 0.  0.
        1    1    3    3  502    0 -0.59745632380E+02 -0.15848444978E+03 -0.65603549207E+03  0.67754662444E+03  0.50400001928E-02 0. -1.
       -1    1    3    3    0  502  0.59745632380E+02  0.15848444978E+03  0.14769704984E+04  0.14866501655E+04  0.50400001928E-02 0.  1.
</event>
<event>
 5   0  0.2020029E-05  0.1995797E+04  0.7818609E-02  0.8608588E-01
       -2   -1    0    0    0  501  0.00000000000E+00  0.00000000000E+00  0.10930814414E+04  0.10930814414E+04  0.25500000920E-02 0. -1.
        2   -1    0    0  501    0  0.00000000000E+00  0.00000000000E+00 -0.91100355717E+03  0.91100355718E+03  0.25500000920E-02 0.  1.
    10030    2    1    2    0    0  0.00000000000E+00  0.00000000000E+00  0.18207788419E+03  0.20040849986E+04  0.19957966644E+04 0.  0.
        5    1    3    3  502    0  0.54761911500E+03 -0.39888559881E+03  0.82673605125E+03  0.10688830640E+04  0.46999998093E+01 0. -1.
       -5    1    3    3    0  502 -0.54761911500E+03  0.39888559881E+03 -0.64465816706E+03  0.93520193456E+03  0.46999998093E+01 0.  1.
</event>
<event>
 5   0  0.9342635E-06  0.2009029E+04  0.7818609E-02  0.8602411E-01
        1   -1    0    0  501    0  0.00000000000E+00  0.00000000000E+00  0.86165621953E+03  0.86165621954E+03  0.50400001928E-02 0. -1.
       -1   -1    0    0    0  501  0.00000000000E+00  0.00000000000E+00 -0.11710582941E+04  0.11710582941E+04  0.50400001928E-02 0.  1.
    10030    2    1    2    0    0  0.00000000000E+00  0.00000000000E+00 -0.30940207453E+03  0.20327145136E+04  0.20090292806E+04 0.  0.
        5    1    3    3  502    0  0.90537421478E+03  0.22981946796E+03  0.21912483719E+03  0.95945674259E+03  0.46999998093E+01 0. -1.
       -5    1    3    3    0  502 -0.90537421478E+03 -0.22981946796E+03 -0.52852691172E+03  0.10732577710E+04  0.46999998093E+01 0.  1.
</event>
<event>
 5   0  0.2038882E-05  0.2002330E+04  0.7818609E-02  0.8605532E-01
       -2   -1    0    0    0  501  0.00000000000E+00  0.00000000000E+00  0.52784647921E+03  0.52784647921E+03  0.25500000920E-02 0.  1.
        2   -1    0    0  501    0  0.00000000000E+00  0.00000000000E+00 -0.18989060252E+04  0.18989060252E+04  0.25500000920E-02 0. -1.
    10030    2    1    2    0    0  0.00000000000E+00  0.00000000000E+00 -0.13710595460E+04  0.24267525044E+04  0.20023295031E+04 0.  0.
        3    1    3    3  502    0 -0.22980990232E+02 -0.77179967387E+03 -0.14578926637E+04  0.16497435836E+04  0.10100000352E+00 0. -1.
       -3    1    3    3    0  502  0.22980990232E+02  0.77179967387E+03  0.86833117721E+02  0.77700892082E+03  0.10100000352E+00 0.  1.
</event>
<event>
 5   0  0.1999142E-05  0.2004839E+04  0.7818609E-02  0.8604362E-01
        2   -1    0    0  501    0  0.00000000000E+00  0.00000000000E+00  0.15623472615E+04  0.15623472615E+04  0.25500000920E-02 0.  1.
       -2   -1    0    0    0  501  0.00000000000E+00  0.00000000000E+00 -0.64316345099E+03  0.64316345099E+03  0.25500000920E-02 0. -1.
    10030    2    1    2    0    0  0.00000000000E+00  0.00000000000E+00  0.91918381049E+03  0.22055107125E+04  0.20048388028E+04 0.  0.
        1    1    3    3  502    0 -0.81658234148E+03 -0.39818877851E+03  0.92565223439E+03  0.12969938638E+04  0.50400001928E-02 0.  1.
       -1    1    3    3    0  502  0.81658234148E+03  0.39818877851E+03 -0.64684238983E+01  0.90851684865E+03  0.50400001928E-02 0. -1.
</event>
<event>
 5   0  0.9333353E-06  0.1985467E+04  0.7818609E-02  0.8613446E-01
        1   -1    0    0  501    0  0.00000000000E+00  0.00000000000E+00  0.20002563436E+04  0.20002563436E+04  0.50400001928E-02 0.  1.
       -1   -1    0    0    0  501  0.00000000000E+00  0.00000000000E+00 -0.49269657342E+03  0.49269657345E+03  0.50400001928E-02 0. -1.
    10030    2    1    2    0    0  0.00000000000E+00  0.00000000000E+00  0.15075597702E+04  0.24929529171E+04  0.19854666419E+04 0.  0.
        2    1    3    3  502    0 -0.63983398141E+03 -0.74066985272E+03  0.54541037290E+03  0.11204694683E+04  0.25500000920E-02 0.  1.
       -2    1    3    3    0  502  0.63983398141E+03  0.74066985272E+03  0.96214939732E+03  0.13724834488E+04  0.25500000920E-02 0. -1.
</event>
<event>
 5   0  0.9333353E-06  0.1999128E+04  0.7818609E-02  0.8607028E-01
        1   -1    0    0  501    0  0.00000000000E+00  0.00000000000E+00  0.11403772939E+04  0.11403772939E+04  0.50400001928E-02 0.  1.
       -1   -1    0    0    0  501  0.00000000000E+00  0.00000000000E+00 -0.87613839097E+03  0.87613839098E+03  0.50400001928E-02 0. -1.
    10030    2    1    2    0    0  0.00000000000E+00  0.00000000000E+00  0.26423890292E+03  0.20165156849E+04  0.19991281373E+04 0.  0.
        2    1    3    3  502    0  0.23022620118E+03 -0.12219386245E+02  0.11131912267E+04  0.11368149033E+04  0.25500000920E-02 0.  1.
       -2    1    3    3    0  502 -0.23022620118E+03  0.12219386245E+02 -0.84895232377E+03  0.87970078161E+03  0.25500000920E-02 0. -1.
</event>
<event>
 5   0  0.2038882E-05  0.1999437E+04  0.7818609E-02  0.8606884E-01
        2   -1    0    0  501    0  0.00000000000E+00  0.00000000000E+00  0.17589063891E+04  0.17589063891E+04  0.25500000920E-02 0. -1.
       -2   -1    0    0    0  501  0.00000000000E+00  0.00000000000E+00 -0.56821528691E+03  0.56821528692E+03  0.25500000920E-02 0.  1.
    10030    2    1    2    0    0  0.00000000000E+00  0.00000000000E+00  0.11906911022E+04  0.23271216760E+04  0.19994374194E+04 0.  0.
        3    1    3    3  502    0  0.70014764833E+03  0.51442505430E+03  0.19723541497E+02  0.86903906370E+03  0.10100000352E+00 0.  1.
       -3    1    3    3    0  502 -0.70014764833E+03 -0.51442505430E+03  0.11709675607E+04  0.14580826123E+04  0.10100000352E+00 0. -1.
</event>
<event>
 5   0  0.2020029E-05  0.1988352E+04  0.7818609E-02  0.8612086E-01
        2   -1    0    0  501    0  0.00000000000E+00  0.00000000000E+00  0.12447393726E+04  0.12447393726E+04  0.25500000920E-02 0.  1.
       -2   -1    0    0    0  501  0.00000000000E+00  0.00000000000E+00 -0.79405064040E+03  0.79405064041E+03  0.25500000920E-02 0. -1.
    10030    2    1    2    0    0  0.00000000000E+00  0.00000000000E+00  0.45068873218E+03  0.20387900130E+04  0.19883521780E+04 0.  0.
        5    1    3    3  502    0 -0.35063154777E+03 -0.22947177329E+03 -0.69905891619E+03  0.81504922265E+03  0.46999998093E+01 0. -1.
       -5    1    3    3    0  502  0.35063154777E+03  0.22947177329E+03  0.11497476484E+04  0.12237407904E+04  0.46999998093E+01 0.  1.
</event>
<event>
 5   0  0.9370269E-06  0.1996744E+04  0.7818609E-02  0.8608144E-01
        1   -1    0    0  501    0  0.00000000000E+00  0.00000000000E+00  0.19168343633E+04  0.19168343633E+04  0.50400001928E-02 0.  1.
       -1   -1    0    0    0  501  0.00000000000E+00  0.00000000000E+00 -0.51999627912E+03  0.51999627914E+03  0.50400001928E-02 0. -1.
    10030    2    1    2    0    0  0.00000000000E+00  0.00000000000E+00  0.13968380842E+04  0.24368306425E+04  0.19967440864E+04 0.  0.
        4    1    3    3  502    0  0.41644639333E+03 -0.39352021842E+03 -0.29937394134E+03  0.64646123664E+03  0.12699999809E+01 0. -1.
       -4    1    3    3    0  502 -0.41644639333E+03  0.39352021842E+03  0.16962120256E+04  0.17903694058E+04  0.12699999809E+01 0.  1.
</event>
<event>
 5   0  0.9370269E-06  0.1995553E+04  0.7818609E-02  0.8608703E-01
        1   -1    0    0  501    0  0.00000000000E+00  0.00000000000E+00  0.11940369403E+04  0.11940369403E+04  0.50400001928E-02 0.  1.
       -1   -1    0    0    0  501  0.00000000000E+00  0.00000000000E+00 -0.83377475872E+03  0.83377475874E+03  0.50400001928E-02 0. -1.
    10030    2    1    2    0    0  0.00000000000E+00  0.00000000000E+00  0.36026218153E+03  0.20278116990E+04  0.19955529177E+04 0.  0.
        4    1    3    3  502    0  0.25448633955E+03 -0.95939952209E+03  0.28348818828E+03  0.10322683303E+04  0.12699999809E+01 0. -1.
       -4    1    3    3    0  502 -0.25448633955E+03  0.95939952209E+03  0.76773993258E+02  0.99554336869E+03  0.12699999809E+01 0.  1.
</event>
<event>
 5   0  0.9140695E-06  0.1995976E+04  0.7818609E-02  0.8608504E-01
       -1   -1    0    0    0  501  0.00000000000E+00  0.00000000000E+00  0.39259746318E+03  0.39259746321E+03  0.50400001928E-02 0. -1.
        1   -1    0    0  501    0  0.00000000000E+00  0.00000000000E+00 -0.25368988539E+04  0.25368988539E+04  0.50400001928E-02 0.  1.
    10030    2    1    2    0    0  0.00000000000E+00  0.00000000000E+00 -0.21443013907E+04  0.29294963171E+04  0.19959760063E+04 0.  0.
        1    1    3    3  502    0 -0.87963413535E+03  0.47140622451E+03 -0.10719780238E+04  0.14646217683E+04  0.50400001928E-02 0.  1.
       -1    1    3    3    0  502  0.87963413535E+03 -0.47140622451E+03 -0.10723233669E+04  0.14648745488E+04  0.50400001928E-02 0. -1.
</event>
<event>
 5   0  0.9140695E-06  0.2002860E+04  0.7818609E-02  0.8605285E-01
       -1   -1    0    0    0  501  0.00000000000E+00  0.00000000000E+00  0.15211837011E+04  0.15211837011E+04  0.50400001928E-02 0. -1.
        1   -1    0    0  501    0  0.00000000000E+00  0.00000000000E+00 -0.65926424344E+03  0.65926424346E+03  0.50400001928E-02 0.  1.
    10030    2    1    2    0    0  0.00000000000E+00  0.00000000000E+00  0.86191945767E+03  0.21804479446E+04  0.20028599770E+04 0.  0.
        1    1    3    3  502    0  0.65387716936E+02 -0.18651452009E+03 -0.63782028974E+03  0.66774092413E+03  0.50400001928E-02 0.  1.
       -1    1    3    3    0  502 -0.65387716936E+02  0.18651452009E+03  0.14997397474E+04  0.15127070205E+04  0.50400001928E-02 0. -1.
</event>
<event>
 5   0  0.9333353E-06  0.1989347E+04  0.7818609E-02  0.8611617E-01
       -1   -1    0    0    0  501  0.00000000000E+00  0.00000000000E+00  0.10141016833E+04  0.10141016833E+04  0.50400001928E-02 0. -1.
        1   -1    0    0  501    0  0.00000000000E+00  0.00000000000E+00 -0.97561794470E+03  0.97561794471E+03  0.50400001928E-02 0.  1.
    10030    2    1    2    0    0  0.00000000000E+00  0.00000000000E+00  0.38483738578E+02  0.19897196280E+04  0.19893474307E+04 0.  0.
        2    1    3    3  502    0  0.33959834400E+03  0.64597003178E+03  0.69521703026E+03  0.10079340437E+04  0.25500000920E-02 0. -1.
       -2    1    3    3    0  502 -0.33959834400E+03 -0.64597003178E+03 -0.65673329168E+03  0.98178558434E+03  0.25500000920E-02 0.  1.
</event>
<event>
 5   0  0.9342635E-06  0.2000632E+04  0.7818609E-02  0.8606325E-01
        1   -1    0    0  501    0  0.00000000000E+00  0.00000000000E+00  0.22348461121E+04  0.22348461121E+04  0.50400001928E-02 0. -1.
       -1   -1    0    0    0  501  0.00000000000E+00  0.00000000000E+00 -0.44774078100E+03  0.44774078103E+03  0.50400001928E-02 0.  1.
    10030    2    1    2    0    0  0.00000000000E+00  0.00000000000E+00  0.17871053311E+04  0.26825868931E+04  0.20006316439E+04 0.  0.
        5    1    3    3  502    0 -0.16217941899E+03  0.50680013823E+02 -0.42823436722E+03  0.46073570625E+03  0.46999998093E+01 0.  1.
       -5    1    3    3    0  502  0.16217941899E+03 -0.50680013823E+02  0.22153396983E+04  0.22218511869E+04  0.46999998093E+01 0. -1.
</event>
<event>
 5   0  0.9333353E-06  0.1998614E+04  0.7818609E-02  0.8607269E-01
       -1   -1    0    0    0  501  0.00000000000E+00  0.00000000000E+00  0.81887900855E+03  0.81887900857E+03  0.50400001928E-02 0.  1.
        1   -1    0    0  501    0  0.00000000000E+00  0.00000000000E+00 -0.12194891652E+04  0.12194891652E+04  0.50400001928E-02 0. -1.
    10030    2    1    2    0    0  0.00000000000E+00  0.00000000000E+00 -0.40061015664E+03  0.20383681738E+04  0.19986135980E+04 0.  0.
        2    1    3    3  502    0 -0.41960977571E+03 -0.35742846059E+03  0.64981350932E+03  0.85210625230E+03  0.25500000920E-02 0.  1.
       -2    1    3    3    0  502  0.41960977571E+03  0.35742846059E+03 -0.10504236660E+04  0.11862619215E+04  0.25500000920E-02 0. -1.
</event>
<event>
 5   0  0.1999142E-05  0.1999587E+04  0.7818609E-02  0.8606814E-01
       -2   -1    0    0    0  501  0.00000000000E+00  0.00000000000E+00  0.56078867937E+03  0.56078867938E+03  0.25500000920E-02 0. -1.
        2   -1    0    0  501    0  0.00000000000E+00  0.00000000000E+00 -0.17824663883E+04  0.17824663883E+04  0.25500000920E-02 0.  1.
    10030    2    1    2    0    0  0.00000000000E+00  0.00000000000E+00 -0.12216777089E+04  0.23432550677E+04  0.19995869293E+04 0.  0.
        1    1    3    3  502    0  0.39251899266E+03  0.32770856207E+03  0.39596209982E+03  0.64672254157E+03  0.50400001928E-02 0. -1.
       -1    1    3    3    0  502 -0.39251899266E+03 -0.32770856207E+03 -0.16176398088E+04  0.16965325261E+04  0.50400001928E-02 0.  1.
</event>
<event>
 5   0  0.1999142E-05  0.1999046E+04  0.7818609E-02  0.8607067E-01
       -2   -1    0    0    0  501  0.00000000000E+00  0.00000000000E+00  0.13266576823E+04  0.13266576823E+04  0.25500000920E-02 0.  1.
        2   -1    0    0  501    0  0.00000000000E+00  0.00000000000E+00 -0.75305527006E+03  0.75305527007E+03  0.25500000920E-02 0. -1.
    10030    2    1    2    0    0  0.00000000000E+00  0.00000000000E+00  0.57360241227E+03  0.20797129524E+04  0.19990463319E+04 0.  0.
        1    1    3    3  502    0 -0.98778432359E+03  0.10568554431E+03  0.17208255804E+03  0.10082161033E+04  0.50400001928E-02 0. -1.
       -1    1    3    3    0  502  0.98778432359E+03 -0.10568554431E+03  0.40151985423E+03  0.10714968491E+04  0.50400001928E-02 0.  1.
</event>
<event>
 5   0  0.1979765E-05  0.1997859E+04  0.7818609E-02  0.8607622E-01
       -2   -1    0    0    0  501  0.00000000000E+00  0.00000000000E+00  0.56067860296E+03  0.56067860297E+03  0.25500000920E-02 0. -1.
        2   -1    0    0  501    0  0.00000000000E+00  0.00000000000E+00 -0.17797357150E+04  0.17797357150E+04  0.25500000920E-02 0.  1.
    10030    2    1    2    0    0  0.00000000000E+00  0.00000000000E+00 -0.12190571120E+04  0.23404143180E+04  0.19978585879E+04 0.  0.
        2    1    3    3  502    0 -0.54908405808E+02 -0.25531020858E+03 -0.17390394505E+04  0.17585381559E+04  0.25500000920E-02 0.  1.
       -2    1    3    3    0  502  0.54908405808E+02  0.25531020858E+03  0.51998233843E+03  0.58187616202E+03  0.25500000920E-02 0. -1.
</event>
<event>
 5   0  0.9370269E-06  0.2000328E+04  0.7818609E-02  0.8606467E-01
        1   -1    0    0  501    0  0.00000000000E+00  0.00000000000E+00  0.96568811800E+03  0.96568811801E+03  0.50400001928E-02 0. -1.
       -1   -1    0    0    0  501  0.00000000000E+00  0.00000000000E+00 -0.10358706693E+04  0.10358706693E+04  0.50400001928E-02 0.  1.
    10030    2    1    2    0    0  0.00000000000E+00  0.00000000000E+00 -0.70182551273E+02  0.20015587873E+04  0.20003279702E+04 0.  0.
        4    1    3    3  502    0 -0.87687243560E+03 -0.47640406002E+03  0.31735201788E+02  0.99843619358E+03  0.12699999809E+01 0.  1.
       -4    1    3    3    0  502  0.87687243560E+03  0.47640406002E+03 -0.10191775306E+03  0.10031225937E+04  0.12699999809E+01 0. -1.
</event>
<event>
 5   0  0.9370269E-06  0.2003909E+04  0.7818609E-02  0.8604795E-01
        1   -1    0    0  501    0  0.00000000000E+00  0.00000000000E+00  0.86700271401E+03  0.86700271403E+03  0.50400001928E-02 0. -1.
       -1   -1    0    0    0  501  0.00000000000E+00  0.00000000000E+00 -0.11579125121E+04  0.11579125121E+04  0.50400001928E-02 0.  1.
    10030    2    1    2    0    0  0.00000000000E+00  0.00000000000E+00 -0.29090979807E+03  0.20249152261E+04  0.20039094696E+04 0.  0.
        4    1    3    3  502    0  0.83609194497E+03 -0.98079299305E+01 -0.70329768606E+03  0.10926001941E+04  0.12699999809E+01 0. -1.
       -4    1    3    3    0  502 -0.83609194497E+03  0.98079299305E+01  0.41238788800E+03  0.93231503206E+03  0.12699999809E+01 0.  1.
</event>
<event>
 5   0  0.9140695E-06  0.1998633E+04  0.7818609E-02  0.8607260E-01
       -1   -1    0    0    0  501  0.00000000000E+00  0.00000000000E+00  0.11993655942E+04  0.11993655942E+04  0.50400001928E-02 0. -1.
        1   -1    0    0  501    0  0.00000000000E+00  0.00000000000E+00 -0.83263481880E+03  0.83263481881E+03  0.50400001928E-02 0.  1.
    10030    2    1    2    0    0  0.00000000000E+00  0.00000000000E+00  0.36673077543E+03  0.20320004131E+04  0.19986330871E+04 0.  0.
        1    1    3    3  502    0  0.10700009940E+03 -0.35992179991E+03  0.11249155087E+04  0.11859290135E+04  0.50400001928E-02 0. -1.
       -1    1    3    3    0  502 -0.10700009940E+03  0.35992179991E+03 -0.75818473328E+03  0.84607139954E+03  0.50400001928E-02 0.  1.
</event>
<event>
 5   0  0.9333353E-06  0.1996952E+04  0.7818609E-02  0.8608047E-01
        1   -1    0    0  501    0  0.00000000000E+00  0.00000000000E+00  0.73174390790E+03  0.73174390792E+03  0.50400001928E-02 0. -1.
       -1   -1    0    0    0  501  0.00000000000E+00  0.00000000000E+00 -0.13624366548E+04  0.13624366548E+04  0.50400001928E-02 0.  1.
    10030    2    1    2    0    0  0.00000000000E+00  0.00000000000E+00 -0.63069274692E+03  0.20941805628E+04  0.19969524001E+04 0.  0.
        2    1    3    3  502    0  0.32045978265E+01  0.22594977704E+02  0.73147037571E+03  0.73182628609E+03  0.25500000920E-02 0. -1.
       -2    1    3    3    0  502 -0.32045978265E+01 -0.22594977704E+02 -0.13621631226E+04  0.13623542767E+04  0.25500000920E-02 0.  1.
</event>
<event>
 5   0  0.9333353E-06  0.2000085E+04  0.7818609E-02  0.8606581E-01
        1   -1    0    0  501    0  0.00000000000E+00  0.00000000000E+00  0.21139651644E+04  0.21139651644E+04  0.50400001928E-02 0. -1.
       -1   -1    0    0    0  501  0.00000000000E+00  0.00000000000E+00 -0.47308481636E+03  0.47308481639E+03  0.50400001928E-02 0.  1.
    10030    2    1    2    0    0  0.00000000000E+00  0.00000000000E+00  0.16408803481E+04  0.25870499808E+04  0.20000848199E+04 0.  0.
        2    1    3    3  502    0  0.59466261272E+03 -0.42500390754E+03  0.17032587723E+04  0.18534676663E+04  0.25500000920E-02 0. -1.
       -2    1    3    3    0  502 -0.59466261272E+03  0.42500390754E+03 -0.62378424272E+02  0.73358231455E+03  0.25500000920E-02 0.  1.
</event>
<event>
 5   0  0.2038882E-05  0.1999972E+04  0.7818609E-02  0.8606634E-01
        2   -1    0    0  501    0  0.00000000000E+00  0.00000000000E+00  0.67541570507E+03  0.67541570508E+03  0.25500000920E-02 0. -1.
       -2   -1    0    0    0  501  0.00000000000E+00  0.00000000000E+00 -0.14805282371E+04  0.14805282371E+04  0.25500000920E-02 0.  1.
    10030    2    1    2    0    0  0.00000000000E+00  0.00000000000E+00 -0.80511253199E+03  0.21559439421E+04  0.19999720229E+04 0.  0.
        3    1    3    3  502    0  0.76585947354E+02 -0.91070665267E+03 -0.84006498109E+03  0.12413545816E+04  0.10100000352E+00 0.  1.
       -3    1    3    3    0  502 -0.76585947354E+02  0.91070665267E+03  0.34952449104E+02  0.91458936056E+03  0.10100000352E+00 0. -1.
</event>
<event>
 5   0  0.1999142E-05  0.1998548E+04  0.7818609E-02  0.8607300E-01
        2   -1    0    0  501    0  0.00000000000E+00  0.00000000000E+00  0.17821665591E+04  0.17821665591E+04  0.25500000920E-02 0.  1.
       -2   -1    0    0    0  501  0.00000000000E+00  0.00000000000E+00 -0.56030008163E+03  0.56030008164E+03  0.25500000920E-02 0. -1.
    10030    2    1    2    0    0  0.00000000000E+00  0.00000000000E+00  0.12218664774E+04  0.23424666407E+04  0.19985475411E+04 0.  0.
        1    1    3    3  502    0  0.44083827031E+03 -0.11573522930E+03  0.16532420102E+04  0.17149175397E+04  0.50400001928E-02 0.  1.
       -1    1    3    3    0  502 -0.44083827031E+03  0.11573522930E+03 -0.43137553274E+03  0.62754910098E+03  0.50400001928E-02 0. -1.
</event>
<event>
 5   0  0.2038882E-05  0.1999012E+04  0.7818609E-02  0.8607083E-01
       -2   -1    0    0    0  501  0.00000000000E+00  0.00000000000E+00  0.56965911199E+03  0.56965911200E+03  0.25500000920E-02 0. -1.
        2   -1    0    0  501    0  0.00000000000E+00  0.00000000000E+00 -0.17537014703E+04  0.17537014703E+04  0.25500000920E-02 0.  1.
    10030    2    1    2    0    0  0.00000000000E+00  0.00000000000E+00 -0.11840423583E+04  0.23233605823E+04  0.19990117781E+04 0.  0.
        3    1    3    3  502    0  0.41559609910E+03  0.89898571850E+03 -0.43558425031E+03  0.10819561400E+04  0.10100000352E+00 0.  1.
       -3    1    3    3    0  502 -0.41559609910E+03 -0.89898571850E+03 -0.74845810802E+03  0.12414044423E+04  0.10100000352E+00 0. -1.
</event>
<event>
 5   0  0.9140695E-06  0.1996980E+04  0.7818609E-02  0.8608034E-01
       -1   -1    0    0    0  501  0.00000000000E+00  0.00000000000E+00  0.43204458949E+03  0.43204458952E+03  0.50400001928E-02 0. -1.
        1   -1    0    0  501    0  0.00000000000E+00  0.00000000000E+00 -0.23075909964E+04  0.23075909964E+04  0.50400001928E-02 0.  1.
    10030    2    1    2    0    0  0.00000000000E+00  0.00000000000E+00 -0.18755464069E+04  0.27396355859E+04  0.19969799246E+04 0.  0.
        1    1    3    3  502    0 -0.10160597208E+03  0.91438918509E+03 -0.14700783986E+04  0.17342323528E+04  0.50400001928E-02 0.  1.
       -1    1    3    3    0  502  0.10160597208E+03 -0.91438918509E+03 -0.40546800826E+03  0.10054032331E+04  0.50400001928E-02 0. -1.
</event>
<event>
 5   0  0.1979765E-05  0.2001976E+04  0.7818609E-02  0.8605697E-01
        2   -1    0    0  501    0  0.00000000000E+00  0.00000000000E+00  0.90458134184E+03  0.90458134184E+03  0.25500000920E-02 0.  1.
       -2   -1    0    0    0  501  0.00000000000E+00  0.00000000000E+00 -0.11076690057E+04  0.11076690057E+04  0.25500000920E-02 0. -1.
    10030    2    1    2    0    0  0.00000000000E+00  0.00000000000E+00 -0.20308766390E+03  0.20122503476E+04  0.20019757396E+04 0.  0.
        2    1    3    3  502    0  0.30244614736E+03 -0.46082594234E+03  0.73829361933E+03  0.92136403747E+03  0.25500000920E-02 0.  1.
       -2    1    3    3    0  502 -0.30244614736E+03  0.46082594234E+03 -0.94138128323E+03  0.10908863101E+04  0.25500000920E-02 0. -1.
</event>
<event>
 5   0  0.1979765E-05  0.1998180E+04  0.7818609E-02  0.8607472E-01
       -2   -1    0    0    0  501  0.00000000000E+00  0.00000000000E+00  0.44499859676E+03  0.44499859677E+03  0.25500000920E-02 0.  1.
        2   -1    0    0  501    0  0.00000000000E+00  0.00000000000E+00 -0.22431100624E+04  0.22431100624E+04  0.25500000920E-02 0. -1.
    10030    2    1    2    0    0  0.00000000000E+00  0.00000000000E+00 -0.17981114657E+04  0.26881086592E+04  0.19981800021E+04 0.  0.
        2    1    3    3  502    0 -0.38608993025E+03 -0.84705125327E+03 -0.41099659780E+03  0.10175851135E+04  0.25500000920E-02 0. -1.
       -2    1    3    3    0  502  0.38608993025E+03  0.84705125327E+03 -0.13871148679E+04  0.16705235457E+04  0.25500000920E-02 0.  1.
</event>
<event>
 5   0  0.9140695E-06  0.1996280E+04  0.7818609E-02  0.8608362E-01
       -1   -1    0    0    0  501  0.00000000000E+00  0.00000000000E+00  0.26923982840E+04  0.26923982840E+04  0.50400001928E-02 0.  1.
        1   -1    0    0  501    0  0.00000000000E+00  0.00000000000E+00 -0.37003560922E+03  0.37003560926E+03  0.50400001928E-02 0. -1.
    10030    2    1    2    0    0  0.00000000000E+00  0.00000000000E+00  0.23223626747E+04  0.30624338932E+04  0.19962797793E+04 0.  0.
        1    1    3    3  502    0  0.72451268351E+03 -0.67985629662E+03  0.10143584757E+04  0.14198754628E+04  0.50400001928E-02 0. -1.
       -1    1    3    3    0  502 -0.72451268351E+03  0.67985629662E+03  0.13080041990E+04  0.16425584304E+04  0.50400001928E-02 0.  1.
</event>
<event>
 5   0  0.9370269E-06  0.1998809E+04  0.7818609E-02  0.8607178E-01
        1   -1    0    0  501    0  0.00000000000E+00  0.00000000000E+00  0.15695502579E+04  0.15695502579E+04  0.50400001928E-02 0.  1.
       -1   -1    0    0    0  501  0.00000000000E+00  0.00000000000E+00 -0.63636635225E+03  0.63636635227E+03  0.50400001928E-02 0. -1.
    10030    2    1    2    0    0  0.00000000000E+00  0.00000000000E+00  0.93318390565E+03  0.22059166102E+04  0.19988086175E+04 0.  0.
        4    1    3    3  502    0  0.11802444633E+03 -0.10261565986E+03  0.15559605230E+04  0.15638012999E+04  0.12699999809E+01 0.  1.
       -4    1    3    3    0  502 -0.11802444633E+03  0.10261565986E+03 -0.62277661738E+03  0.64211531023E+03  0.12699999809E+01 0. -1.
</event>
<event>
 5   0  0.9342635E-06  0.1999891E+04  0.7818609E-02  0.8606672E-01
        1   -1    0    0  501    0  0.00000000000E+00  0.00000000000E+00  0.84985993480E+03  0.84985993482E+03  0.50400001928E-02 0.  1.
       -1   -1    0    0    0  501  0.00000000000E+00  0.00000000000E+00 -0.11765358904E+04  0.11765358904E+04  0.50400001928E-02 0. -1.
    10030    2    1    2    0    0  0.00000000000E+00  0.00000000000E+00 -0.32667595556E+03  0.20263958252E+04  0.19998907121E+04 0.  0.
        5    1    3    3  502    0  0.79546750712E+03  0.72474733000E+02  0.44617196814E+03  0.91493860830E+03  0.46999998093E+01 0.  1.
       -5    1    3    3    0  502 -0.79546750712E+03 -0.72474733000E+02 -0.77284792370E+03  0.11114572169E+04  0.46999998093E+01 0. -1.
</event>
<event>
 5   0  0.2003576E-05  0.1998456E+04  0.7818609E-02  0.8607343E-01
        2   -1    0    0  501    0  0.00000000000E+00  0.00000000000E+00  0.76647936899E+03  0.76647936899E+03  0.25500000920E-02 0.  1.
       -2   -1    0    0    0  501  0.00000000000E+00  0.00000000000E+00 -0.13026528665E+04  0.13026528665E+04  0.25500000920E-02 0. -1.
    10030    2    1    2    0    0  0.00000000000E+00  0.00000000000E+00 -0.53617349754E+03  0.20691322355E+04  0.19984559511E+04 0.  0.
        4    1    3    3  502    0  0.85973365790E+02 -0.98432698258E+03 -0.42222726754E+03  0.10745084954E+04  0.12699999809E+01 0. -1.
       -4    1    3    3    0  502 -0.85973365790E+02  0.98432698258E+03 -0.11394623000E+03  0.99462374016E+03  0.12699999809E+01 0.  1.
</event>
<event>
 5   0  0.9342635E-06  0.2003560E+04  0.7818609E-02  0.8604958E-01
        1   -1    0    0  501    0  0.00000000000E+00  0.00000000000E+00  0.17556176100E+04  0.17556176100E+04  0.50400001928E-02 0.  1.
       -1   -1    0    0    0  501  0.00000000000E+00  0.00000000000E+00 -0.57162972061E+03  0.57162972063E+03  0.50400001928E-02 0. -1.
    10030    2    1    2    0    0  0.00000000000E+00  0.00000000000E+00  0.11839878893E+04  0.23272473306E+04  0.20035600354E+04 0.  0.
        5    1    3    3  502    0 -0.28822793544E+03  0.28131159997E+03  0.16574198524E+04  0.17056594666E+04  0.46999998093E+01 0.  1.
       -5    1    3    3    0  502  0.28822793544E+03 -0.28131159997E+03 -0.47343196301E+03  0.62158786398E+03  0.46999998093E+01 0. -1.
</event>
<event>
 5   0  0.1999142E-05  0.1998539E+04  0.7818609E-02  0.8607304E-01
       -2   -1    0    0    0  501  0.00000000000E+00  0.00000000000E+00  0.65904455018E+03  0.65904455019E+03  0.25500000920E-02 0. -1.
        2   -1    0    0  501    0  0.00000000000E+00  0.00000000000E+00 -0.15151319141E+04  0.15151319141E+04  0.25500000920E-02 0.  1.
    10030    2    1    2    0    0  0.00000000000E+00  0.00000000000E+00 -0.85608736396E+03  0.21741764643E+04  0.19985388971E+04 0.  0.
        1    1    3    3  502    0 -0.85074816241E+03  0.44056085860E+03 -0.11905211656E+03  0.96542203852E+03  0.50400001928E-02 0. -1.
       -1    1    3    3    0  502  0.85074816241E+03 -0.44056085860E+03 -0.73703524740E+03  0.12087544258E+04  0.50400001928E-02 0.  1.
</event>
<event>
 5   0  0.9342635E-06  0.1997968E+04  0.7818609E-02  0.8607571E-01
       -1   -1    0    0    0  501  0.00000000000E+00  0.00000000000E+00  0.42120564200E+03  0.42120564203E+03  0.50400001928E-02 0.  1.
        1   -1    0    0  501    0  0.00000000000E+00  0.00000000000E+00 -0.23693162793E+04  0.23693162793E+04  0.50400001928E-02 0. -1.
    10030    2    1    2    0    0  0.00000000000E+00  0.00000000000E+00 -0.19481106373E+04  0.27905219213E+04  0.19979683527E+04 0.  0.
        5    1    3    3  502    0 -0.63047932701E+03 -0.23362825466E+02 -0.20558261926E+04  0.21504635378E+04  0.46999998093E+01 0. -1.
       -5    1    3    3    0  502  0.63047932701E+03  0.23362825466E+02  0.10771555533E+03  0.64005838348E+03  0.46999998093E+01 0.  1.
</event>
<event>
 5   0  0.9220260E-06  0.2002866E+04  0.7818609E-02  0.8605282E-01
       -1   -1    0    0    0  501  0.00000000000E+00  0.00000000000E+00  0.62799604998E+03  0.62799605000E+03  0.50400001928E-02 0. -1.
        1   -1    0    0  501    0  0.00000000000E+00  0.00000000000E+00 -0.15969334188E+04  0.15969334188E+04  0.50400001928E-02 0.  1.
    10030    2    1    2    0    0  0.00000000000E+00  0.00000000000E+00 -0.96893736878E+03  0.22249294688E+04  0.20028658258E+04 0.  0.
        3    1    3    3  502    0 -0.82053138247E+03  0.39289617706E+03 -0.19453614116E+02  0.90995472902E+03  0.10100000352E+00 0. -1.
       -3    1    3    3    0  502  0.82053138247E+03 -0.39289617706E+03 -0.94948375466E+03  0.13149747397E+04  0.10100000352E+00 0.  1.
</event>
<event>
 5   0  0.9220260E-06  0.1997079E+04  0.7818609E-02  0.8607988E-01
       -1   -1    0    0    0  501  0.00000000000E+00  0.00000000000E+00  0.82207223823E+03  0.82207223825E+03  0.50400001928E-02 0.  1.
        1   -1    0    0  501    0  0.00000000000E+00  0.00000000000E+00 -0.12128869442E+04  0.12128869442E+04  0.50400001928E-02 0. -1.
    10030    2    1    2    0    0  0.00000000000E+00  0.00000000000E+00 -0.39081470592E+03  0.20349591824E+04  0.19970785512E+04 0.  0.
        3    1    3    3  502    0  0.61410962002E+03  0.55946790858E+03 -0.75994295825E+03  0.11258988747E+04  0.10100000352E+00 0. -1.
       -3    1    3    3    0  502 -0.61410962002E+03 -0.55946790858E+03  0.36912825233E+03  0.90906030768E+03  0.10100000352E+00 0.  1.
</event>
<event>
 5   0  0.9342635E-06  0.2003049E+04  0.7818609E-02  0.8605196E-01
        1   -1    0    0  501    0  0.00000000000E+00  0.00000000000E+00  0.16831839786E+04  0.16831839786E+04  0.50400001928E-02 0.  1.
       -1   -1    0    0    0  501  0.00000000000E+00  0.00000000000E+00 -0.59592516285E+03  0.59592516287E+03  0.50400001928E-02 0. -1.
    10030    2    1    2    0    0  0.00000000000E+00  0.00000000000E+00  0.10872588158E+04  0.22791091415E+04  0.20030493619E+04 0.  0.
        5    1    3    3  502    0  0.46595715232E+03  0.21517833933E+03 -0.43490339779E+03  0.67274128825E+03  0.46999998093E+01 0. -1.
       -5    1    3    3    0  502 -0.46595715232E+03 -0.21517833933E+03  0.15221622136E+04  0.16063678532E+04  0.46999998093E+01 0.  1.
</event>
<event>
 5   0  0.2003576E-05  0.1997102E+04  0.7818609E-02  0.8607977E-01
       -2   -1    0    0    0  501  0.00000000000E+00  0.00000000000E+00  0.88780445869E+03  0.88780445869E+03  0.25500000920E-02 0. -1.
        2   -1    0    0  501    0  0.00000000000E+00  0.00000000000E+00 -0.11231119001E+04  0.11231119001E+04  0.25500000920E-02 0.  1.
    10030    2    1    2    0    0  0.00000000000E+00  0.00000000000E+00 -0.23530744139E+03  0.20109163588E+04  0.19971016524E+04 0.  0.
        4    1    3    3  502    0  0.38123707066E+03 -0.36338372654E+03  0.73657352679E+03  0.90550075098E+03  0.12699999809E+01 0. -1.
       -4    1    3    3    0  502 -0.38123707066E+03  0.36338372654E+03 -0.97188096818E+03  0.11054156078E+04  0.12699999809E+01 0.  1.
</event>
<event>
 5   0  0.2038882E-05  0.2002539E+04  0.7818609E-02  0.8605435E-01
        2   -1    0    0  501    0  0.00000000000E+00  0.00000000000E+00  0.18066923329E+04  0.18066923329E+04  0.25500000920E-02 0. -1.
       -2   -1    0    0    0  501  0.00000000000E+00  0.00000000000E+00 -0.55490363288E+03  0.55490363289E+03  0.25500000920E-02 0.  1.
    10030    2    1    2    0    0  0.00000000000E+00  0.00000000000E+00  0.12517887000E+04  0.23615959658E+04  0.20025385280E+04 0.  0.
        3    1    3    3  502    0  0.36509292273E+03  0.10190334675E+03 -0.46702134612E+03  0.60148656032E+03  0.10100000352E+00 0.  1.
       -3    1    3    3    0  502 -0.36509292273E+03 -0.10190334675E+03  0.17188100461E+04  0.17601094055E+04  0.10100000352E+00 0. -1.
</event>
<event>
 5   0  0.1979765E-05  0.1999615E+04  0.7818609E-02  0.8606800E-01
       -2   -1    0    0    0  501  0.00000000000E+00  0.00000000000E+00  0.96422060646E+03  0.96422060646E+03  0.25500000920E-02 0.  1.
        2   -1    0    0  501    0  0.00000000000E+00  0.00000000000E+00 -0.10367082744E+04  0.10367082744E+04  0.25500000920E-02 0. -1.
    10030    2    1    2    0    0  0.00000000000E+00  0.00000000000E+00 -0.72487667950E+02  0.20009288809E+04  0.19996154441E+04 0.  0.
        2    1    3    3  502    0 -0.97377332761E+03 -0.17267706895E+03  0.11069817688E+03  0.99514117093E+03  0.25500000920E-02 0.  1.
       -2    1    3    3    0  502  0.97377332761E+03  0.17267706895E+03 -0.18318584483E+03  0.10057877099E+04  0.25500000920E-02 0. -1.
</event>
<event>
 5   0  0.1999142E-05  0.1998832E+04  0.7818609E-02  0.8607167E-01
       -2   -1    0    0    0  501  0.00000000000E+00  0.00000000000E+00  0.79333906602E+03  0.79333906603E+03  0.25500000920E-02 0.  1.
        2   -1    0    0  501    0  0.00000000000E+00  0.00000000000E+00 -0.12590238847E+04  0.12590238847E+04  0.25500000920E-02 0. -1.
    10030    2    1    2    0    0  0.00000000000E+00  0.00000000000E+00 -0.46568481871E+03  0.20523629508E+04  0.19988324921E+04 0.  0.
        1    1    3    3  502    0 -0.36798065093E+03 -0.42507304644E+03  0.61556442930E+03  0.83367644858E+03  0.50400001928E-02 0.  1.
       -1    1    3    3    0  502  0.36798065093E+03  0.42507304644E+03 -0.10812492480E+04  0.12186865022E+04  0.50400001928E-02 0. -1.
</event>
<event>
 5   0  0.2020029E-05  0.2001008E+04  0.7818609E-02  0.8606150E-01
       -2   -1    0    0    0  501  0.00000000000E+00  0.00000000000E+00  0.40236955605E+03  0.40236955606E+03  0.25500000920E-02 0. -1.
        2   -1    0    0  501    0  0.00000000000E+00  0.00000000000E+00 -0.24877825015E+04  0.24877825015E+04  0.25500000920E-02 0.  1.
    10030    2    1    2    0    0  0.00000000000E+00  0.00000000000E+00 -0.20854129455E+04  0.28901520576E+04  0.20010076868E+04 0.  0.
        5    1    3    3  502    0 -0.66057779676E+03  0.52564313043E+03 -0.18182584696E+04  0.20046819394E+04  0.46999998093E+01 0.  1.
       -5    1    3    3    0  502  0.66057779676E+03 -0.52564313043E+03 -0.26715447589E+03  0.88547011814E+03  0.46999998093E+01 0. -1.
</event>
<event>
 5   0  0.2038882E-05  0.2014715E+04  0.7818609E-02  0.8599772E-01
       -2   -1    0    0    0  501  0.00000000000E+00  0.00000000000E+00  0.33464125586E+03  0.33464125587E+03  0.25500000920E-02 0.  1.
        2   -1    0    0  501    0  0.00000000000E+00  0.00000000000E+00 -0.30324079715E+04  0.30324079715E+04  0.25500000920E-02 0. -1.
    10030    2    1    2    0    0  0.00000000000E+00  0.00000000000E+00 -0.26977667157E+04  0.33670492274E+04  0.20147146814E+04 0.  0.
        3    1    3    3  502    0  0.75950180985E+03 -0.64803426216E+03 -0.11248053028E+04  0.15039874944E+04  0.10100000352E+00 0.  1.
       -3    1    3    3    0  502 -0.75950180985E+03  0.64803426216E+03 -0.15729614129E+04  0.18630617330E+04  0.10100000352E+00 0. -1.
</event>
<event>
 5   0  0.9140695E-06  0.2001476E+04  0.7818609E-02  0.8605931E-01
        1   -1    0    0  501    0  0.00000000000E+00  0.00000000000E+00  0.92699666995E+03  0.92699666996E+03  0.50400001928E-02 0. -1.
       -1   -1    0    0    0  501  0.00000000000E+00  0.00000000000E+00 -0.10803450475E+04  0.10803450475E+04  0.50400001928E-02 0.  1.
    10030    2    1    2    0    0  0.00000000000E+00  0.00000000000E+00 -0.15334837751E+03  0.20073417174E+04  0.20014757170E+04 0.  0.
        1    1    3    3  502    0  0.57975476811E+03 -0.40683005422E+03 -0.78574698413E+03  0.10578395943E+04  0.50400001928E-02 0.  1.
       -1    1    3    3    0  502 -0.57975476811E+03  0.40683005422E+03  0.63239860662E+03  0.94950212314E+03  0.50400001928E-02 0. -1.
</event>
<event>
 5   0  0.9220260E-06  0.1998146E+04  0.7818609E-02  0.8607488E-01
        1   -1    0    0  501    0  0.00000000000E+00  0.00000000000E+00  0.17838197486E+04  0.17838197486E+04  0.50400001928E-02 0.  1.
       -1   -1    0    0    0  501  0.00000000000E+00  0.00000000000E+00 -0.55955612333E+03  0.55955612335E+03  0.50400001928E-02 0. -1.
    10030    2    1    2    0    0  0.00000000000E+00  0.00000000000E+00  0.12242636253E+04  0.23433758719E+04  0.19981464043E+04 0.  0.
        3    1    3    3  502    0  0.11144939055E+03  0.52811862601E+03 -0.37384827073E+03  0.65657656791E+03  0.10100000352E+00 0. -1.
       -3    1    3    3    0  502 -0.11144939055E+03 -0.52811862601E+03  0.15981118960E+04  0.16867993040E+04  0.10100000352E+00 0.  1.
</event>
<event>
 5   0  0.9342635E-06  0.1992020E+04  0.7818609E-02  0.8610361E-01
        1   -1    0    0  501    0  0.00000000000E+00  0.00000000000E+00  0.11747816493E+04  0.11747816493E+04  0.50400001928E-02 0.  1.
       -1   -1    0    0    0  501  0.00000000000E+00  0.00000000000E+00 -0.84444262273E+03  0.84444262274E+03  0.50400001928E-02 0. -1.
    10030    2    1    2    0    0  0.00000000000E+00  0.00000000000E+00  0.33033902659E+03  0.20192242721E+04  0.19920197761E+04 0.  0.
        5    1    3    3  502    0  0.68682106448E+03 -0.28485157405E+02  0.89576152973E+03  0.11291347957E+04  0.46999998093E+01 0.  1.
       -5    1    3    3    0  502 -0.68682106448E+03  0.28485157405E+02 -0.56542250314E+03  0.89008947633E+03  0.46999998093E+01 0. -1.
</event>
<event>
 5   0  0.9220260E-06  0.2004890E+04  0.7818609E-02  0.8604338E-01
       -1   -1    0    0    0  501  0.00000000000E+00  0.00000000000E+00  0.47334890680E+03  0.47334890682E+03  0.50400001928E-02 0. -1.
        1   -1    0    0  501    0  0.00000000000E+00  0.00000000000E+00 -0.21229505891E+04  0.21229505891E+04  0.50400001928E-02 0.  1.
    10030    2    1    2    0    0  0.00000000000E+00  0.00000000000E+00 -0.16496016823E+04  0.25962994959E+04  0.20048903617E+04 0.  0.
        3    1    3    3  502    0  0.36035018856E+02  0.49685549365E+03 -0.19513115719E+04  0.20138969102E+04  0.10100000352E+00 0.  1.
       -3    1    3    3    0  502 -0.36035018856E+02 -0.49685549365E+03  0.30170988960E+03  0.58240258571E+03  0.10100000352E+00 0. -1.
</event>
<event>
 5   0  0.1979765E-05  0.1993956E+04  0.7818609E-02  0.8609452E-01
        2   -1    0    0  501    0  0.00000000000E+00  0.00000000000E+00  0.75004093681E+03  0.75004093681E+03  0.25500000920E-02 0. -1.
       -2   -1    0    0    0  501  0.00000000000E+00  0.00000000000E+00 -0.13252145522E+04  0.13252145522E+04  0.25500000920E-02 0.  1.
    10030    2    1    2    0    0  0.00000000000E+00  0.00000000000E+00 -0.57517361542E+03  0.20752554890E+04  0.19939560318E+04 0.  0.
        2    1    3    3  502    0  0.39398386028E+03  0.11844425585E+03  0.65757762808E+03  0.77566788051E+03  0.25500000920E-02 0. -1.
       -2    1    3    3    0  502 -0.39398386028E+03 -0.11844425585E+03 -0.12327512435E+04  0.12995876085E+04  0.25500000920E-02 0.  1.
</event>
<event>
 5   0  0.2038882E-05  0.1999835E+04  0.7818609E-02  0.8606698E-01
        2   -1    0    0  501    0  0.00000000000E+00  0.00000000000E+00  0.21159567140E+04  0.21159567140E+04  0.25500000920E-02 0.  1.
       -2   -1    0    0    0  501  0.00000000000E+00  0.00000000000E+00 -0.47252127815E+03  0.47252127816E+03  0.25500000920E-02 0. -1.
    10030    2    1    2    0    0  0.00000000000E+00  0.00000000000E+00  0.16434354358E+04  0.25884779921E+04  0.19998345642E+04 0.  0.
        3    1    3    3  502    0  0.14007736143E+03  0.58183655506E+03  0.18585520264E+04  0.19525294080E+04  0.10100000352E+00 0.  1.
       -3    1    3    3    0  502 -0.14007736143E+03 -0.58183655506E+03 -0.21511659054E+03  0.63594858418E+03  0.10100000352E+00 0. -1.
</event>
<event>
 5   0  0.9220260E-06  0.1999490E+04  0.7818609E-02  0.8606859E-01
        1   -1    0    0  501    0  0.00000000000E+00  0.00000000000E+00  0.10497425044E+04  0.10497425044E+04  0.50400001928E-02 0. -1.
       -1   -1    0    0    0  501  0.00000000000E+00  0.00000000000E+00 -0.95212912464E+03  0.95212912465E+03  0.50400001928E-02 0.  1.
    10030    2    1    2    0    0  0.00000000000E+00  0.00000000000E+00  0.97613379753E+02  0.20018716290E+04  0.19994903469E+04 0.  0.
        3    1    3    3  502    0 -0.63020846292E+03  0.51203454243E+03 -0.53511025652E+03  0.97246340610E+03  0.10100000352E+00 0.  1.
       -3    1    3    3    0  502  0.63020846292E+03 -0.51203454243E+03  0.63272363628E+03  0.10294082229E+04  0.10100000352E+00 0. -1.
</event>
<event>
 5   0  0.9333353E-06  0.2001428E+04  0.7818609E-02  0.8605953E-01
       -1   -1    0    0    0  501  0.00000000000E+00  0.00000000000E+00  0.71490644488E+03  0.71490644489E+03  0.50400001928E-02 0. -1.
        1   -1    0    0  501    0  0.00000000000E+00  0.00000000000E+00 -0.14007830558E+04  0.14007830558E+04  0.50400001928E-02 0.  1.
    10030    2    1    2    0    0  0.00000000000E+00  0.00000000000E+00 -0.68587661094E+03  0.21156895007E+04  0.20014283245E+04 0.  0.
        2    1    3    3  502    0  0.51687755970E+03 -0.75175951961E+03  0.91786649278E+02  0.91691306896E+03  0.25500000920E-02 0. -1.
       -2    1    3    3    0  502 -0.51687755970E+03  0.75175951961E+03 -0.77766326022E+03  0.11987764318E+04  0.25500000920E-02 0.  1.
</event>
<event>
 5   0  0.1979765E-05  0.2009542E+04  0.7818609E-02  0.8602172E-01
       -2   -1    0    0    0  501  0.00000000000E+00  0.00000000000E+00  0.78066982283E+03  0.78066982284E+03  0.25500000920E-02 0.  1.
        2   -1    0    0  501    0  0.00000000000E+00  0.00000000000E+00 -0.12932034452E+04  0.12932034452E+04  0.25500000920E-02 0. -1.
    10030    2    1    2    0    0  0.00000000000E+00  0.00000000000E+00 -0.51253362235E+03  0.20738732680E+04  0.20095421413E+04 0.  0.
        2    1    3    3  502    0  0.92920560274E+03  0.12179077446E+03 -0.63023280357E+03  0.11293579732E+04  0.25500000920E-02 0. -1.
       -2    1    3    3    0  502 -0.92920560274E+03 -0.12179077446E+03  0.11769918122E+03  0.94451529483E+03  0.25500000920E-02 0.  1.
</event>
<event>
 5   0  0.9370269E-06  0.2001027E+04  0.7818609E-02  0.8606140E-01
        1   -1    0    0  501    0  0.00000000000E+00  0.00000000000E+00  0.22728784057E+04  0.22728784057E+04  0.50400001928E-02 0. -1.
       -1   -1    0    0    0  501  0.00000000000E+00  0.00000000000E+00 -0.44042291946E+03  0.44042291949E+03  0.50400001928E-02 0.  1.
    10030    2    1    2    0    0  0.00000000000E+00  0.00000000000E+00  0.18324554862E+04  0.27133013252E+04  0.20010274791E+04 0.  0.
        4    1    3    3  502    0 -0.30975070924E+03 -0.17148506580E+03 -0.35263918484E+03  0.49970855231E+03  0.12699999809E+01 0.  1.
       -4    1    3    3    0  502  0.30975070924E+03  0.17148506580E+03  0.21850946711E+04  0.22135927729E+04  0.12699999809E+01 0. -1.
</event>
<event>
 5   0  0.7132000E-06  0.2021161E+04  0.7818609E-02  0.8596791E-01
        3   -1    0    0  501    0  0.00000000000E+00  0.00000000000E+00  0.10986229134E+04  0.10986229180E+04  0.10100000352E+00 0.  1.
       -3   -1    0    0    0  501  0.00000000000E+00  0.00000000000E+00 -0.92959373525E+03  0.92959374074E+03  0.10100000352E+00 0. -1.
    10030    2    1    2    0    0  0.00000000000E+00  0.00000000000E+00  0.16902917814E+03  0.20282166588E+04  0.20211610406E+04 0.  0.
        3    1    3    3  502    0  0.90583151305E+03  0.41847157051E+03  0.24514772233E+03  0.10274953048E+04  0.10100000352E+00 0.  1.
       -3    1    3    3    0  502 -0.90583151305E+03 -0.41847157051E+03 -0.76118544193E+02  0.10007213540E+04  0.10100000352E+00 0. -1.
</event>
<event>
 5   0  0.1999142E-05  0.1997924E+04  0.7818609E-02  0.8607592E-01
        2   -1    0    0  501    0  0.00000000000E+00  0.00000000000E+00  0.21457576161E+04  0.21457576161E+04  0.25500000920E-02 0. -1.
       -2   -1    0    0    0  501  0.00000000000E+00  0.00000000000E+00 -0.46506878147E+03  0.46506878148E+03  0.25500000920E-02 0.  1.
    10030    2    1    2    0    0  0.00000000000E+00  0.00000000000E+00  0.16806888346E+04  0.26108263976E+04  0.19979238022E+04 0.  0.
        1    1    3    3  502    0 -0.40157511354E+03 -0.86817938623E+03  0.12166552223E+04  0.15476588605E+04  0.50400001928E-02 0.  1.
       -1    1    3    3    0  502  0.40157511354E+03  0.86817938623E+03  0.46403361228E+03  0.10631675371E+04  0.50400001928E-02 0. -1.
</event>
<event>
 5   0  0.9370269E-06  0.1995412E+04  0.7818609E-02  0.8608769E-01
        1   -1    0    0  501    0  0.00000000000E+00  0.00000000000E+00  0.72741955768E+03  0.72741955770E+03  0.50400001928E-02 0.  1.
       -1   -1    0    0    0  501  0.00000000000E+00  0.00000000000E+00 -0.13684229527E+04  0.13684229527E+04  0.50400001928E-02 0. -1.
    10030    2    1    2    0    0  0.00000000000E+00  0.00000000000E+00 -0.64100339503E+03  0.20958425104E+04  0.19954123574E+04 0.  0.
        4    1    3    3  502    0 -0.70387697198E+03  0.65725864240E+03 -0.59436275149E+03  0.11316803471E+04  0.12699999809E+01 0. -1.
       -4    1    3    3    0  502  0.70387697198E+03 -0.65725864240E+03 -0.46640643531E+02  0.96416216334E+03  0.12699999809E+01 0.  1.
</event>
<event>
 5   0  0.9140695E-06  0.2000152E+04  0.7818609E-02  0.8606550E-01
        1   -1    0    0  501    0  0.00000000000E+00  0.00000000000E+00  0.22848352510E+04  0.22848352510E+04  0.50400001928E-02 0.  1.
       -1   -1    0    0    0  501  0.00000000000E+00  0.00000000000E+00 -0.43773477858E+03  0.43773477861E+03  0.50400001928E-02 0. -1.
    10030    2    1    2    0    0  0.00000000000E+00  0.00000000000E+00  0.18471004724E+04  0.27225700296E+04  0.20001518470E+04 0.  0.
        1    1    3    3  502    0  0.14346944718E+03 -0.92160371292E+03  0.43236359806E+03  0.10280443409E+04  0.50400001928E-02 0.  1.
       -1    1    3    3    0  502 -0.14346944718E+03  0.92160371292E+03  0.14147368743E+04  0.16945256887E+04  0.50400001928E-02 0. -1.
</event>
<event>
 5   0  0.9333353E-06  0.1998422E+04  0.7818609E-02  0.8607359E-01
       -1   -1    0    0    0  501  0.00000000000E+00  0.00000000000E+00  0.65476065529E+03  0.65476065531E+03  0.50400001928E-02 0. -1.
        1   -1    0    0  501    0  0.00000000000E+00  0.00000000000E+00 -0.15248662451E+04  0.15248662451E+04  0.50400001928E-02 0.  1.
    10030    2    1    2    0    0  0.00000000000E+00  0.00000000000E+00 -0.87010558979E+03  0.21796269004E+04  0.19984217992E+04 0.  0.
        2    1    3    3  502    0 -0.64869748319E+03 -0.66336248886E+03 -0.83957998983E+03  0.12513004338E+04  0.25500000920E-02 0.  1.
       -2    1    3    3    0  502  0.64869748319E+03  0.66336248886E+03 -0.30525599958E+02  0.92832646659E+03  0.25500000920E-02 0. -1.
</event>
<event>
 5   0  0.1999142E-05  0.2000042E+04  0.7818609E-02  0.8606601E-01
        2   -1    0    0  501    0  0.00000000000E+00  0.00000000000E+00  0.10491954210E+04  0.10491954210E+04  0.25500000920E-02 0. -1.
       -2   -1    0    0    0  501  0.00000000000E+00  0.00000000000E+00 -0.95315110935E+03  0.95315110936E+03  0.25500000920E-02 0.  1.
    10030    2    1    2    0    0  0.00000000000E+00  0.00000000000E+00  0.96044311638E+02  0.20023465303E+04  0.20000417790E+04 0.  0.
        1    1    3    3  502    0  0.50841985199E+03  0.76308471407E+03 -0.35150255490E+03  0.98200971119E+03  0.50400001928E-02 0.  1.
       -1    1    3    3    0  502 -0.50841985199E+03 -0.76308471407E+03  0.44754686654E+03  0.10203368192E+04  0.50400001928E-02 0. -1.
</event>
<event>
 5   0  0.2020029E-05  0.1997439E+04  0.7818609E-02  0.8607819E-01
        2   -1    0    0  501    0  0.00000000000E+00  0.00000000000E+00  0.15505986839E+04  0.15505986839E+04  0.25500000920E-02 0.  1.
       -2   -1    0    0    0  501  0.00000000000E+00  0.00000000000E+00 -0.64326175674E+03  0.64326175674E+03  0.25500000920E-02 0. -1.
    10030    2    1    2    0    0  0.00000000000E+00  0.00000000000E+00  0.90733692717E+03  0.21938604407E+04  0.19974391940E+04 0.  0.
        5    1    3    3  502    0 -0.39525648749E+02 -0.17124215260E+02 -0.64222882702E+03  0.64368895587E+03  0.46999998093E+01 0. -1.
       -5    1    3    3    0  502  0.39525648749E+02  0.17124215260E+02  0.15495657542E+04  0.15501714848E+04  0.46999998093E+01 0.  1.
</event>
<event>
 5   0  0.9342635E-06  0.1999601E+04  0.7818609E-02  0.8606807E-01
        1   -1    0    0  501    0  0.00000000000E+00  0.00000000000E+00  0.14463890938E+04  0.14463890938E+04  0.50400001928E-02 0. -1.
       -1   -1    0    0    0  501  0.00000000000E+00  0.00000000000E+00 -0.69110082583E+03  0.69110082585E+03  0.50400001928E-02 0.  1.
    10030    2    1    2    0    0  0.00000000000E+00  0.00000000000E+00  0.75528826798E+03  0.21374899197E+04  0.19996006574E+04 0.  0.
        5    1    3    3  502    0 -0.87920050422E+03  0.10848785894E+03  0.87308699675E+03  0.12438111336E+04  0.46999998093E+01 0. -1.
       -5    1    3    3    0  502  0.87920050422E+03 -0.10848785894E+03 -0.11779872878E+03  0.89367878607E+03  0.46999998093E+01 0.  1.
</event>
<event>
 5   0  0.2003576E-05  0.1995218E+04  0.7818609E-02  0.8608860E-01
       -2   -1    0    0    0  501  0.00000000000E+00  0.00000000000E+00  0.89536112549E+03  0.89536112550E+03  0.25500000920E-02 0.  1.
        2   -1    0    0  501    0  0.00000000000E+00  0.00000000000E+00 -0.11115331195E+04  0.11115331195E+04  0.25500000920E-02 0. -1.
    10030    2    1    2    0    0  0.00000000000E+00  0.00000000000E+00 -0.21617199404E+03  0.20068942450E+04  0.19952178276E+04 0.  0.
        4    1    3    3  502    0 -0.44621098210E+02 -0.20755345609E+02 -0.11103106425E+04  0.11114014408E+04  0.12699999809E+01 0. -1.
       -4    1    3    3    0  502  0.44621098210E+02  0.20755345609E+02  0.89413864850E+03  0.89549280423E+03  0.12699999809E+01 0.  1.
</event>
<event>
 5   0  0.9140695E-06  0.2001592E+04  0.7818609E-02  0.8605877E-01
        1   -1    0    0  501    0  0.00000000000E+00  0.00000000000E+00  0.16077211581E+04  0.16077211581E+04  0.50400001928E-02 0.  1.
       -1   -1    0    0    0  501  0.00000000000E+00  0.00000000000E+00 -0.62298901402E+03  0.62298901404E+03  0.50400001928E-02 0. -1.
    10030    2    1    2    0    0  0.00000000000E+00  0.00000000000E+00  0.98473214403E+03  0.22307101721E+04  0.20015919855E+04 0.  0.
        1    1    3    3  502    0 -0.49307332415E+03  0.31094690388E+03  0.13989865178E+04  0.15155766418E+04  0.50400001928E-02 0.  1.
       -1    1    3    3    0  502  0.49307332415E+03 -0.31094690388E+03 -0.41425437376E+03  0.71513353035E+03  0.50400001928E-02 0. -1.
</event>
<event>
 5   0  0.9342635E-06  0.1999810E+04  0.7818609E-02  0.8606710E-01
       -1   -1    0    0    0  501  0.00000000000E+00  0.00000000000E+00  0.52030333935E+03  0.52030333937E+03  0.50400001928E-02 0.  1.
        1   -1    0    0  501    0  0.00000000000E+00  0.00000000000E+00 -0.19215904832E+04  0.19215904832E+04  0.50400001928E-02 0. -1.
    10030    2    1    2    0    0  0.00000000000E+00  0.00000000000E+00 -0.14012871439E+04  0.24418938226E+04  0.19998099363E+04 0.  0.
        5    1    3    3  502    0  0.50691626661E+03 -0.28346221394E+03 -0.16944965006E+04  0.17912720085E+04  0.46999998093E+01 0. -1.
       -5    1    3    3    0  502 -0.50691626661E+03  0.28346221394E+03  0.29320935670E+03  0.65062181407E+03  0.46999998093E+01 0.  1.
</event>
<event>
 5   0  0.9333353E-06  0.2014370E+04  0.7818609E-02  0.8599932E-01
        1   -1    0    0  501    0  0.00000000000E+00  0.00000000000E+00  0.13206155579E+04  0.13206155579E+04  0.50400001928E-02 0.  1.
       -1   -1    0    0    0  501  0.00000000000E+00  0.00000000000E+00 -0.76814309989E+03  0.76814309990E+03  0.50400001928E-02 0. -1.
    10030    2    1    2    0    0  0.00000000000E+00  0.00000000000E+00  0.55247245799E+03  0.20887586578E+04  0.20143701034E+04 0.  0.
        2    1    3    3  502    0  0.77578725213E+03  0.63327578919E+03  0.38761631217E+03  0.10738391366E+04  0.25500000920E-02 0. -1.
       -2    1    3    3    0  502 -0.77578725213E+03 -0.63327578919E+03  0.16485614583E+03  0.10149195212E+04  0.25500000920E-02 0.  1.
</event>
<event>
 5   0  0.9333353E-06  0.2000599E+04  0.7818609E-02  0.8606341E-01
       -1   -1    0    0    0  501  0.00000000000E+00  0.00000000000E+00  0.26378025324E+04  0.26378025324E+04  0.50400001928E-02 0. -1.
        1   -1    0    0  501    0  0.00000000000E+00  0.00000000000E+00 -0.37933055756E+03  0.37933055759E+03  0.50400001928E-02 0.  1.
    10030    2    1    2    0    0  0.00000000000E+00  0.00000000000E+00  0.22584719748E+04  0.30171330900E+04  0.20005990157E+04 0.  0.
        2    1    3    3  502    0  0.51546094205E+02  0.64108858527E+03 -0.26168519691E+02  0.64368964992E+03  0.25500000920E-02 0.  1.
       -2    1    3    3    0  502 -0.51546094205E+02 -0.64108858527E+03  0.22846404945E+04  0.23734434401E+04  0.25500000920E-02 0. -1.
</event>
<event>
 5   0  0.9342635E-06  0.1997354E+04  0.7818609E-02  0.8607859E-01
        1   -1    0    0  501    0  0.00000000000E+00  0.00000000000E+00  0.53346820743E+03  0.53346820745E+03  0.50400001928E-02 0.  1.
       -1   -1    0    0    0  501  0.00000000000E+00  0.00000000000E+00 -0.18695695639E+04  0.18695695639E+04  0.50400001928E-02 0. -1.
    10030    2    1    2    0    0  0.00000000000E+00  0.00000000000E+00 -0.13361013565E+04  0.24030377714E+04  0.19973541739E+04 0.  0.
        5    1    3    3  502    0 -0.18633137966E+03  0.85019491984E+03 -0.78915772599E+02  0.87395684901E+03  0.46999998093E+01 0.  1.
       -5    1    3    3    0  502  0.18633137966E+03 -0.85019491984E+03 -0.12571855839E+04  0.15290809224E+04  0.46999998093E+01 0. -1.
</event>
<event>
 5   0  0.9342635E-06  0.1997787E+04  0.7818609E-02  0.8607656E-01
       -1   -1    0    0    0  501  0.00000000000E+00  0.00000000000E+00  0.18467083179E+04  0.18467083179E+04  0.50400001928E-02 0. -1.
        1   -1    0    0  501    0  0.00000000000E+00  0.00000000000E+00 -0.54030624484E+03  0.54030624486E+03  0.50400001928E-02 0.  1.
    10030    2    1    2    0    0  0.00000000000E+00  0.00000000000E+00  0.13064020731E+04  0.23870145628E+04  0.19977868120E+04 0.  0.
        5    1    3    3  502    0 -0.85845516883E+03 -0.50779956487E+03  0.71820977026E+03  0.12290862619E+04  0.46999998093E+01 0.  1.
       -5    1    3    3    0  502  0.85845516883E+03  0.50779956487E+03  0.58819230279E+03  0.11579283009E+04  0.46999998093E+01 0. -1.
</event>
<event>
 5   0  0.9333353E-06  0.1987662E+04  0.7818609E-02  0.8612411E-01
        1   -1    0    0  501    0  0.00000000000E+00  0.00000000000E+00  0.18143553772E+04  0.18143553772E+04  0.50400001928E-02 0.  1.
       -1   -1    0    0    0  501  0.00000000000E+00  0.00000000000E+00 -0.54438057310E+03  0.54438057312E+03  0.50400001928E-02 0. -1.
    10030    2    1    2    0    0  0.00000000000E+00  0.00000000000E+00  0.12699748041E+04  0.23587359504E+04  0.19876617621E+04 0.  0.
        2    1    3    3  502    0 -0.81272510234E+03  0.56036039079E+03  0.49878178360E+03  0.11060330588E+04  0.25500000920E-02 0. -1.
       -2    1    3    3    0  502  0.81272510234E+03 -0.56036039079E+03  0.77119302053E+03  0.12527028915E+04  0.25500000920E-02 0.  1.
</event>
<event>
 5   0  0.9333353E-06  0.2006919E+04  0.7818609E-02  0.8603393E-01
        1   -1    0    0  501    0  0.00000000000E+00  0.00000000000E+00  0.12113736806E+04  0.12113736807E+04  0.50400001928E-02 0. -1.
       -1   -1    0    0    0  501  0.00000000000E+00  0.00000000000E+00 -0.83123078596E+03  0.83123078598E+03  0.50400001928E-02 0.  1.
    10030    2    1    2    0    0  0.00000000000E+00  0.00000000000E+00  0.38014289468E+03  0.20426044666E+04  0.20069191281E+04 0.  0.
        2    1    3    3  502    0 -0.44510144477E+03  0.74734679202E+03  0.69925564390E+03  0.11160649530E+04  0.25500000920E-02 0. -1.
       -2    1    3    3    0  502  0.44510144477E+03 -0.74734679202E+03 -0.31911274921E+03  0.92653951368E+03  0.25500000920E-02 0.  1.
</event>
<event>
 5   0  0.9333353E-06  0.2005617E+04  0.7818609E-02  0.8603999E-01
        1   -1    0    0  501    0  0.00000000000E+00  0.00000000000E+00  0.11247550397E+04  0.11247550397E+04  0.50400001928E-02 0. -1.
       -1   -1    0    0    0  501  0.00000000000E+00  0.00000000000E+00 -0.89408384761E+03  0.89408384763E+03  0.50400001928E-02 0.  1.
    10030    2    1    2    0    0  0.00000000000E+00  0.00000000000E+00  0.23067119212E+03  0.20188388874E+04  0.20056174247E+04 0.  0.
        2    1    3    3  502    0  0.25878888368E+03 -0.73401242292E+02  0.10877609259E+04  0.11205281168E+04  0.25500000920E-02 0. -1.
       -2    1    3    3    0  502 -0.25878888368E+03  0.73401242292E+02 -0.85708973379E+03  0.89831077053E+03  0.25500000920E-02 0.  1.
</event>
<event>
 5   0  0.1999142E-05  0.2001330E+04  0.7818609E-02  0.8605999E-01
       -2   -1    0    0    0  501  0.00000000000E+00  0.00000000000E+00  0.42356591402E+03  0.42356591403E+03  0.25500000920E-02 0. -1.
        2   -1    0    0  501    0  0.00000000000E+00  0.00000000000E+00 -0.23640488002E+04  0.23640488002E+04  0.25500000920E-02 0.  1.
    10030    2    1    2    0    0  0.00000000000E+00  0.00000000000E+00 -0.19404828861E+04  0.27876147142E+04  0.20013300486E+04 0.  0.
        1    1    3    3  502    0  0.35488501552E+03 -0.29294203901E+03  0.26744297438E+03  0.53224445233E+03  0.50400001928E-02 0. -1.
       -1    1    3    3    0  502 -0.35488501552E+03  0.29294203901E+03 -0.22079258605E+04  0.22553702619E+04  0.50400001928E-02 0.  1.
</event>
<event>
 5   0  0.9342635E-06  0.2000884E+04  0.7818609E-02  0.8606207E-01
       -1   -1    0    0    0  501  0.00000000000E+00  0.00000000000E+00  0.50781444156E+03  0.50781444159E+03  0.50400001928E-02 0. -1.
        1   -1    0    0  501    0  0.00000000000E+00  0.00000000000E+00 -0.19709652270E+04  0.19709652270E+04  0.50400001928E-02 0.  1.
    10030    2    1    2    0    0  0.00000000000E+00  0.00000000000E+00 -0.14631507855E+04  0.24787796686E+04  0.20008844106E+04 0.  0.
        5    1    3    3  502    0  0.79654474726E+03 -0.20386735668E+03 -0.14376252271E+04  0.16561503003E+04  0.46999998093E+01 0.  1.
       -5    1    3    3    0  502 -0.79654474726E+03  0.20386735668E+03 -0.25525558338E+02  0.82262936832E+03  0.46999998093E+01 0. -1.
</event>
<event>
 5   0  0.9333353E-06  0.2003204E+04  0.7818609E-02  0.8605124E-01
       -1   -1    0    0    0  501  0.00000000000E+00  0.00000000000E+00  0.55179753330E+03  0.55179753333E+03  0.50400001928E-02 0. -1.
        1   -1    0    0  501    0  0.00000000000E+00  0.00000000000E+00 -0.18180694021E+04  0.18180694021E+04  0.50400001928E-02 0.  1.
    10030    2    1    2    0    0  0.00000000000E+00  0.00000000000E+00 -0.12662718688E+04  0.23698669354E+04  0.20032036457E+04 0.  0.
        2    1    3    3  502    0 -0.37412649328E+03 -0.10225790303E+03  0.45935309070E+03  0.60119262608E+03  0.25500000920E-02 0. -1.
       -2    1    3    3    0  502  0.37412649328E+03  0.10225790303E+03 -0.17256249595E+04  0.17686743094E+04  0.25500000920E-02 0.  1.
</event>
<event>
 5   0  0.9140695E-06  0.1994810E+04  0.7818609E-02  0.8609051E-01
        1   -1    0    0  501    0  0.00000000000E+00  0.00000000000E+00  0.10637876414E+04  0.10637876414E+04  0.50400001928E-02 0.  1.
       -1   -1    0    0    0  501  0.00000000000E+00  0.00000000000E+00 -0.93516486604E+03  0.93516486605E+03  0.50400001928E-02 0. -1.
    10030    2    1    2    0    0  0.00000000000E+00  0.00000000000E+00  0.12862277532E+03  0.19989525074E+04  0.19948100934E+04 0.  0.
        1    1    3    3  502    0  0.84209664064E+03  0.50734231181E+02  0.59750288140E+03  0.10337845074E+04  0.50400001928E-02 0.  1.
       -1    1    3    3    0  502 -0.84209664064E+03 -0.50734231181E+02 -0.46888010608E+03  0.96516800004E+03  0.50400001928E-02 0. -1.
</event>
<event>
 5   0  0.2020029E-05  0.2000776E+04  0.7818609E-02  0.8606258E-01
        2   -1    0    0  501    0  0.00000000000E+00  0.00000000000E+00  0.12948494179E+04  0.12948494179E+04  0.25500000920E-02 0.  1.
       -2   -1    0    0    0  501  0.00000000000E+00  0.00000000000E+00 -0.77289013553E+03  0.77289013553E+03  0.25500000920E-02 0. -1.
    10030    2    1    2    0    0  0.00000000000E+00  0.00000000000E+00  0.52195928238E+03  0.20677395534E+04  0.20007761915E+04 0.  0.
        5    1    3    3  502    0 -0.23740855988E+02 -0.75530097230E+03  0.93844266003E+03  0.12048816968E+04  0.46999998093E+01 0.  1.
       -5    1    3    3    0  502  0.23740855988E+02  0.75530097230E+03 -0.41648337765E+03  0.86285785670E+03  0.46999998093E+01 0. -1.
</event>
<event>
 5   0  0.2020029E-05  0.2003816E+04  0.7818609E-02  0.8604839E-01
        2   -1    0    0  501    0  0.00000000000E+00  0.00000000000E+00  0.50892676268E+03  0.50892676269E+03  0.25500000920E-02 0.  1.
       -2   -1    0    0    0  501  0.00000000000E+00  0.00000000000E+00 -0.19724248200E+04  0.19724248200E+04  0.25500000920E-02 0. -1.
    10030    2    1    2    0    0  0.00000000000E+00  0.00000000000E+00 -0.14634980573E+04  0.24813515827E+04  0.20038161375E+04 0.  0.
        5    1    3    3  502    0 -0.94174398939E+03 -0.23641667497E+03 -0.42585036760E+03  0.10602571440E+04  0.46999998093E+01 0.  1.
       -5    1    3    3    0  502  0.94174398939E+03  0.23641667497E+03 -0.10376476897E+04  0.14210944387E+04  0.46999998093E+01 0. -1.
</event>
<event>
 5   0  0.2003576E-05  0.2001275E+04  0.7818609E-02  0.8606025E-01
       -2   -1    0    0    0  501  0.00000000000E+00  0.00000000000E+00  0.36212482174E+03  0.36212482175E+03  0.25500000920E-02 0.  1.
        2   -1    0    0  501    0  0.00000000000E+00  0.00000000000E+00 -0.27650006640E+04  0.27650006640E+04  0.25500000920E-02 0. -1.
    10030    2    1    2    0    0  0.00000000000E+00  0.00000000000E+00 -0.24028758423E+04  0.31271254858E+04  0.20012749662E+04 0.  0.
        4    1    3    3  502    0  0.89515915670E+03  0.36494386161E+03 -0.79764270092E+03  0.12532874487E+04  0.12699999809E+01 0.  1.
       -4    1    3    3    0  502 -0.89515915670E+03 -0.36494386161E+03 -0.16052331414E+04  0.18738380370E+04  0.12699999809E+01 0. -1.
</event>
<event>
 5   0  0.9342635E-06  0.2004561E+04  0.7818609E-02  0.8604491E-01
        1   -1    0    0  501    0  0.00000000000E+00  0.00000000000E+00  0.13584071007E+04  0.13584071007E+04  0.50400001928E-02 0. -1.
       -1   -1    0    0    0  501  0.00000000000E+00  0.00000000000E+00 -0.73951766891E+03  0.73951766893E+03  0.50400001928E-02 0.  1.
    10030    2    1    2    0    0  0.00000000000E+00  0.00000000000E+00  0.61888943181E+03  0.20979247696E+04  0.20045608522E+04 0.  0.
        5    1    3    3  502    0 -0.53090894698E+03  0.71776632173E+03 -0.16728306992E+03  0.90832731880E+03  0.46999998093E+01 0.  1.
       -5    1    3    3    0  502  0.53090894698E+03 -0.71776632173E+03  0.78617250173E+03  0.11895974508E+04  0.46999998093E+01 0. -1.
</event>
<event>
 5   0  0.1979765E-05  0.1999931E+04  0.7818609E-02  0.8606653E-01
        2   -1    0    0  501    0  0.00000000000E+00  0.00000000000E+00  0.18250252294E+04  0.18250252294E+04  0.25500000920E-02 0.  1.
       -2   -1    0    0    0  501  0.00000000000E+00  0.00000000000E+00 -0.54789977223E+03  0.54789977224E+03  0.25500000920E-02 0. -1.
    10030    2    1    2    0    0  0.00000000000E+00  0.00000000000E+00  0.12771254572E+04  0.23729250017E+04  0.19999309063E+04 0.  0.
        2    1    3    3  502    0  0.38611473352E+03 -0.46150315476E+03  0.15861781043E+04  0.16964759733E+04  0.25500000920E-02 0.  1.
       -2    1    3    3    0  502 -0.38611473352E+03  0.46150315476E+03 -0.30905264713E+03  0.67644902838E+03  0.25500000920E-02 0. -1.
</event>
<event>
 5   0  0.9333353E-06  0.2008456E+04  0.7818609E-02  0.8602677E-01
       -1   -1    0    0    0  501  0.00000000000E+00  0.00000000000E+00  0.49915374250E+03  0.49915374252E+03  0.50400001928E-02 0. -1.
        1   -1    0    0  501    0  0.00000000000E+00  0.00000000000E+00 -0.20203673120E+04  0.20203673120E+04  0.50400001928E-02 0.  1.
    10030    2    1    2    0    0  0.00000000000E+00  0.00000000000E+00 -0.15212135695E+04  0.25195210545E+04  0.20084560289E+04 0.  0.
        2    1    3    3  502    0  0.43412378205E+03  0.30593100534E+03  0.30856764523E+03  0.61422408766E+03  0.25500000920E-02 0. -1.
       -2    1    3    3    0  502 -0.43412378205E+03 -0.30593100534E+03 -0.18297812147E+04  0.19052969669E+04  0.25500000920E-02 0.  1.
</event>
<event>
 5   0  0.1979765E-05  0.2005455E+04  0.7818609E-02  0.8604075E-01
        2   -1    0    0  501    0  0.00000000000E+00  0.00000000000E+00  0.11748420682E+04  0.11748420682E+04  0.25500000920E-02 0.  1.
       -2   -1    0    0    0  501  0.00000000000E+00  0.00000000000E+00 -0.85582759071E+03  0.85582759072E+03  0.25500000920E-02 0. -1.
    10030    2    1    2    0    0  0.00000000000E+00  0.00000000000E+00  0.31901447749E+03  0.20306696589E+04  0.20054548179E+04 0.  0.
        2    1    3    3  502    0  0.61806473230E+03 -0.77013287944E+03  0.33592058572E+03  0.10430490426E+04  0.25500000920E-02 0. -1.
       -2    1    3    3    0  502 -0.61806473230E+03  0.77013287944E+03 -0.16906108229E+02  0.98762061634E+03  0.25500000920E-02 0.  1.
</event>
<event>
 5   0  0.9342635E-06  0.1992929E+04  0.7818609E-02  0.8609934E-01
       -1   -1    0    0    0  501  0.00000000000E+00  0.00000000000E+00  0.73738023401E+03  0.73738023403E+03  0.50400001928E-02 0. -1.
        1   -1    0    0  501    0  0.00000000000E+00  0.00000000000E+00 -0.13465795581E+04  0.13465795581E+04  0.50400001928E-02 0.  1.
    10030    2    1    2    0    0  0.00000000000E+00  0.00000000000E+00 -0.60919932410E+03  0.20839597921E+04  0.19929286487E+04 0.  0.
        5    1    3    3  502    0 -0.28418580557E+03  0.93184118825E+03 -0.52351731401E+03  0.11059756056E+04  0.46999998093E+01 0.  1.
       -5    1    3    3    0  502  0.28418580557E+03 -0.93184118825E+03 -0.85682010087E+02  0.97798418650E+03  0.46999998093E+01 0. -1.
</event>
<event>
 5   0  0.2003576E-05  0.2001068E+04  0.7818609E-02  0.8606122E-01
       -2   -1    0    0    0  501  0.00000000000E+00  0.00000000000E+00  0.70608516367E+03  0.70608516368E+03  0.25500000920E-02 0.  1.
        2   -1    0    0  501    0  0.00000000000E+00  0.00000000000E+00 -0.14177721935E+04  0.14177721935E+04  0.25500000920E-02 0. -1.
    10030    2    1    2    0    0  0.00000000000E+00  0.00000000000E+00 -0.71168702982E+03  0.21238573572E+04  0.20010676263E+04 0.  0.
        4    1    3    3  502    0 -0.75977852105E+03 -0.30605504845E+03 -0.96567266946E+03  0.12662773832E+04  0.12699999809E+01 0. -1.
       -4    1    3    3    0  502  0.75977852105E+03  0.30605504845E+03  0.25398563964E+03  0.85757997398E+03  0.12699999809E+01 0.  1.
</event>
<event>
 5   0  0.9140695E-06  0.1997265E+04  0.7818609E-02  0.8607901E-01
       -1   -1    0    0    0  501  0.00000000000E+00  0.00000000000E+00  0.71476563896E+03  0.71476563898E+03  0.50400001928E-02 0.  1.
        1   -1    0    0  501    0  0.00000000000E+00  0.00000000000E+00 -0.13952355061E+04  0.13952355061E+04  0.50400001928E-02 0. -1.
    10030    2    1    2    0    0  0.00000000000E+00  0.00000000000E+00 -0.68046986717E+03  0.21100011451E+04  0.19972645274E+04 0.  0.
        1    1    3    3  502    0 -0.43889468573E+03 -0.65667305601E+03 -0.98580729713E+03  0.12631959764E+04  0.50400001928E-02 0. -1.
       -1    1    3    3    0  502  0.43889468573E+03  0.65667305601E+03  0.30533742996E+03  0.84680516874E+03  0.50400001928E-02 0.  1.
</event>
<event>
 5   0  0.9342635E-06  0.2002204E+04  0.7818609E-02  0.8605591E-01
       -1   -1    0    0    0  501  0.00000000000E+00  0.00000000000E+00  0.19012806598E+04  0.19012806598E+04  0.50400001928E-02 0. -1.
        1   -1    0    0  501    0  0.00000000000E+00  0.00000000000E+00 -0.52712127089E+03  0.52712127091E+03  0.50400001928E-02 0.  1.
    10030    2    1    2    0    0  0.00000000000E+00  0.00000000000E+00  0.13741593889E+04  0.24284019307E+04  0.20022042630E+04 0.  0.
        5    1    3    3  502    0 -0.65590384041E+03  0.96040204534E+02  0.15969298418E+04  0.17290577140E+04  0.46999998093E+01 0. -1.
       -5    1    3    3    0  502  0.65590384041E+03 -0.96040204534E+02 -0.22277045290E+03  0.69934421670E+03  0.46999998093E+01 0.  1.
</event>
<event>
 5   0  0.9140695E-06  0.1982249E+04  0.7818609E-02  0.8614965E-01
       -1   -1    0    0    0  501  0.00000000000E+00  0.00000000000E+00  0.78405630982E+03  0.78405630984E+03  0.50400001928E-02 0. -1.
        1   -1    0    0  501    0  0.00000000000E+00  0.00000000000E+00 -0.12528788028E+04  0.12528788028E+04  0.50400001928E-02 0.  1.
    10030    2    1    2    0    0  0.00000000000E+00  0.00000000000E+00 -0.46882249297E+03  0.20369351126E+04  0.19822487541E+04 0.  0.
        1    1    3    3  502    0  0.25666090340E+03  0.80295350969E+03 -0.77005808199E+03  0.11417524284E+04  0.50400001928E-02 0.  1.
       -1    1    3    3    0  502 -0.25666090340E+03 -0.80295350969E+03  0.30123558902E+03  0.89518268425E+03  0.50400001928E-02 0. -1.
</event>
<event>
 5   0  0.1979765E-05  0.1996755E+04  0.7818609E-02  0.8608139E-01
       -2   -1    0    0    0  501  0.00000000000E+00  0.00000000000E+00  0.81432305714E+03  0.81432305714E+03  0.25500000920E-02 0. -1.
        2   -1    0    0  501    0  0.00000000000E+00  0.00000000000E+00 -0.12240324053E+04  0.12240324053E+04  0.25500000920E-02 0.  1.
    10030    2    1    2    0    0  0.00000000000E+00  0.00000000000E+00 -0.40970934821E+03  0.20383554625E+04  0.19967551781E+04 0.  0.
        2    1    3    3  502    0 -0.96265159156E+03 -0.20310687069E+03 -0.31591386380E+02  0.98435181889E+03  0.25500000920E-02 0. -1.
       -2    1    3    3    0  502  0.96265159156E+03  0.20310687069E+03 -0.37811796183E+03  0.10540036436E+04  0.25500000920E-02 0.  1.
</event>
<event>
 5   0  0.2038882E-05  0.1986972E+04  0.7818609E-02  0.8612736E-01
        2   -1    0    0  501    0  0.00000000000E+00  0.00000000000E+00  0.17837760978E+04  0.17837760978E+04  0.25500000920E-02 0.  1.
       -2   -1    0    0    0  501  0.00000000000E+00  0.00000000000E+00 -0.55332875211E+03  0.55332875212E+03  0.25500000920E-02 0. -1.
    10030    2    1    2    0    0  0.00000000000E+00  0.00000000000E+00  0.12304473457E+04  0.23371048500E+04  0.19869721712E+04 0.  0.
        3    1    3    3  502    0  0.65701748200E+03 -0.67713298818E+03  0.98123903124E+03  0.13612535039E+04  0.10100000352E+00 0.  1.
       -3    1    3    3    0  502 -0.65701748200E+03  0.67713298818E+03  0.24920831449E+03  0.97585134603E+03  0.10100000352E+00 0. -1.
</event>
<event>
 5   0  0.9342635E-06  0.1997900E+04  0.7818609E-02  0.8607603E-01
        1   -1    0    0  501    0  0.00000000000E+00  0.00000000000E+00  0.67479777192E+03  0.67479777194E+03  0.50400001928E-02 0.  1.
       -1   -1    0    0    0  501  0.00000000000E+00  0.00000000000E+00 -0.14788155429E+04  0.14788155429E+04  0.50400001928E-02 0. -1.
    10030    2    1    2    0    0  0.00000000000E+00  0.00000000000E+00 -0.80401777098E+03  0.21536133148E+04  0.19979003313E+04 0.  0.
        5    1    3    3  502    0  0.13423645173E+03 -0.22834175215E+03 -0.14402598892E+04  0.14644213940E+04  0.46999998093E+01 0. -1.
       -5    1    3    3    0  502 -0.13423645173E+03  0.22834175215E+03  0.63624211823E+03  0.68919192084E+03  0.46999998093E+01 0.  1.
</event>
<event>
 5   0  0.2020029E-05  0.2010081E+04  0.7818609E-02  0.8601922E-01
       -2   -1    0    0    0  501  0.00000000000E+00  0.00000000000E+00  0.64622808861E+03  0.64622808862E+03  0.25500000920E-02 0.  1.
        2   -1    0    0  501    0  0.00000000000E+00  0.00000000000E+00 -0.15630808215E+04  0.15630808215E+04  0.25500000920E-02 0. -1.
    10030    2    1    2    0    0  0.00000000000E+00  0.00000000000E+00 -0.91685273289E+03  0.22093089101E+04  0.20100813234E+04 0.  0.
        5    1    3    3  502    0  0.23279328167E+03  0.81297097348E+03 -0.10553679489E+04  0.13523823842E+04  0.46999998093E+01 0. -1.
       -5    1    3    3    0  502 -0.23279328167E+03 -0.81297097348E+03  0.13851521597E+03  0.85692652589E+03  0.46999998093E+01 0.  1.
</event>
<event>
 5   0  0.2020029E-05  0.2001328E+04  0.7818609E-02  0.8606000E-01
        2   -1    0    0  501    0  0.00000000000E+00  0.00000000000E+00  0.18462706378E+04  0.18462706378E+04  0.25500000920E-02 0.  1.
       -2   -1    0    0    0  501  0.00000000000E+00  0.00000000000E+00 -0.54235201953E+03  0.54235201953E+03  0.25500000920E-02 0. -1.
    10030    2    1    2    0    0  0.00000000000E+00  0.00000000000E+00  0.13039186183E+04  0.23886226574E+04  0.20013281680E+04 0.  0.
        5    1    3    3  502    0  0.90139385630E+03  0.33096366823E+03  0.98796967175E+03  0.13777350965E+04  0.46999998093E+01 0.  1.
       -5    1    3    3    0  502 -0.90139385630E+03 -0.33096366823E+03  0.31594894656E+03  0.10108875609E+04  0.46999998093E+01 0. -1.
</event>
<event>
 5   0  0.2020029E-05  0.1998828E+04  0.7818609E-02  0.8607169E-01
       -2   -1    0    0    0  501  0.00000000000E+00  0.00000000000E+00  0.38476781843E+03  0.38476781844E+03  0.25500000920E-02 0.  1.
        2   -1    0    0  501    0  0.00000000000E+00  0.00000000000E+00 -0.25959241979E+04  0.25959241979E+04  0.25500000920E-02 0. -1.
    10030    2    1    2    0    0  0.00000000000E+00  0.00000000000E+00 -0.22111563794E+04  0.29806920163E+04  0.19988277469E+04 0.  0.
        5    1    3    3  502    0 -0.55704812657E+03 -0.42541873418E+03 -0.21679322778E+04  0.22784284421E+04  0.46999998093E+01 0. -1.
       -5    1    3    3    0  502  0.55704812657E+03  0.42541873418E+03 -0.43224101661E+02  0.70226357422E+03  0.46999998093E+01 0.  1.
</event>
<event>
 5   0  0.9140695E-06  0.1997955E+04  0.7818609E-02  0.8607577E-01
        1   -1    0    0  501    0  0.00000000000E+00  0.00000000000E+00  0.10528480033E+04  0.10528480033E+04  0.50400001928E-02 0.  1.
       -1   -1    0    0    0  501  0.00000000000E+00  0.00000000000E+00 -0.94786380118E+03  0.94786380119E+03  0.50400001928E-02 0. -1.
    10030    2    1    2    0    0  0.00000000000E+00  0.00000000000E+00  0.10498420213E+03  0.20007118045E+04  0.19979554655E+04 0.  0.
        1    1    3    3  502    0 -0.79669118567E+02 -0.99578103548E+03  0.47055854235E+02  0.10000706438E+04  0.50400001928E-02 0. -1.
       -1    1    3    3    0  502  0.79669118567E+02  0.99578103548E+03  0.57928347895E+02  0.10006411608E+04  0.50400001928E-02 0.  1.
</event>
<event>
 5   0  0.2003576E-05  0.1999229E+04  0.7818609E-02  0.8606981E-01
        2   -1    0    0  501    0  0.00000000000E+00  0.00000000000E+00  0.24880786295E+04  0.24880786295E+04  0.25500000920E-02 0.  1.
       -2   -1    0    0    0  501  0.00000000000E+00  0.00000000000E+00 -0.40160662195E+03  0.40160662196E+03  0.25500000920E-02 0. -1.
    10030    2    1    2    0    0  0.00000000000E+00  0.00000000000E+00  0.20864720075E+04  0.28896852515E+04  0.19992287048E+04 0.  0.
        4    1    3    3  502    0  0.10063783306E+03 -0.55725315299E+03  0.22338879091E+04  0.23045424391E+04  0.12699999809E+01 0.  1.
       -4    1    3    3    0  502 -0.10063783306E+03  0.55725315299E+03 -0.14741590159E+03  0.58514281240E+03  0.12699999809E+01 0. -1.
</event>
<event>
 5   0  0.9140695E-06  0.2002553E+04  0.7818609E-02  0.8605428E-01
        1   -1    0    0  501    0  0.00000000000E+00  0.00000000000E+00  0.13545871777E+04  0.13545871778E+04  0.50400001928E-02 0. -1.
       -1   -1    0    0    0  501  0.00000000000E+00  0.00000000000E+00 -0.74011793353E+03  0.74011793355E+03  0.50400001928E-02 0.  1.
    10030    2    1    2    0    0  0.00000000000E+00  0.00000000000E+00  0.61446924421E+03  0.20947051113E+04  0.20025526338E+04 0.  0.
        1    1    3    3  502    0  0.64114405646E+03 -0.56417977648E+02  0.11095413502E+04  0.12827044466E+04  0.50400001928E-02 0. -1.
       -1    1    3    3    0  502 -0.64114405646E+03  0.56417977648E+02 -0.49507210602E+03  0.81200066473E+03  0.50400001928E-02 0.  1.
</event>
<event>
 5   0  0.9140695E-06  0.2002507E+04  0.7818609E-02  0.8605450E-01
        1   -1    0    0  501    0  0.00000000000E+00  0.00000000000E+00  0.18916576978E+04  0.18916576978E+04  0.50400001928E-02 0.  1.
       -1   -1    0    0    0  501  0.00000000000E+00  0.00000000000E+00 -0.52996290869E+03  0.52996290871E+03  0.50400001928E-02 0. -1.
    10030    2    1    2    0    0  0.00000000000E+00  0.00000000000E+00  0.13616947891E+04  0.24216206066E+04  0.20025068448E+04 0.  0.
        1    1    3    3  502    0 -0.60842044237E+02  0.16950835443E+03  0.18719095688E+04  0.18805531820E+04  0.50400001928E-02 0.  1.
       -1    1    3    3    0  502  0.60842044237E+02 -0.16950835443E+03 -0.51021477962E+03  0.54106742458E+03  0.50400001928E-02 0. -1.
</event>
<event>
 5   0  0.9333353E-06  0.2002321E+04  0.7818609E-02  0.8605536E-01
        1   -1    0    0  501    0  0.00000000000E+00  0.00000000000E+00  0.19635372692E+04  0.19635372692E+04  0.50400001928E-02 0.  1.
       -1   -1    0    0    0  501  0.00000000000E+00  0.00000000000E+00 -0.51046756739E+03  0.51046756742E+03  0.50400001928E-02 0. -1.
    10030    2    1    2    0    0  0.00000000000E+00  0.00000000000E+00  0.14530697018E+04  0.24740048366E+04  0.20023207469E+04 0.  0.
        2    1    3    3  502    0  0.34161954050E+03 -0.76498216197E+03  0.49311910487E+02  0.83924566315E+03  0.25500000920E-02 0.  1.
       -2    1    3    3    0  502 -0.34161954050E+03  0.76498216197E+03  0.14037577913E+04  0.16347591735E+04  0.25500000920E-02 0. -1.
</event>
<event>
 5   0  0.2003576E-05  0.2000547E+04  0.7818609E-02  0.8606365E-01
        2   -1    0    0  501    0  0.00000000000E+00  0.00000000000E+00  0.16389224834E+04  0.16389224834E+04  0.25500000920E-02 0.  1.
       -2   -1    0    0    0  501  0.00000000000E+00  0.00000000000E+00 -0.61049076185E+03  0.61049076185E+03  0.25500000920E-02 0. -1.
    10030    2    1    2    0    0  0.00000000000E+00  0.00000000000E+00  0.10284317215E+04  0.22494132453E+04  0.20005469607E+04 0.  0.
        4    1    3    3  502    0 -0.42848549894E+03 -0.19488201467E+03 -0.47816851034E+03  0.67098849441E+03  0.12699999809E+01 0. -1.
       -4    1    3    3    0  502  0.42848549894E+03  0.19488201467E+03  0.15066002319E+04  0.15784247508E+04  0.12699999809E+01 0.  1.
</event>
<event>
 5   0  0.9370269E-06  0.1997969E+04  0.7818609E-02  0.8607571E-01
        1   -1    0    0  501    0  0.00000000000E+00  0.00000000000E+00  0.15622388081E+04  0.15622388081E+04  0.50400001928E-02 0.  1.
       -1   -1    0    0    0  501  0.00000000000E+00  0.00000000000E+00 -0.63880736754E+03  0.63880736756E+03  0.50400001928E-02 0. -1.
    10030    2    1    2    0    0  0.00000000000E+00  0.00000000000E+00  0.92343144055E+03  0.22010461757E+04  0.19979686289E+04 0.  0.
        4    1    3    3  502    0  0.25032509323E+02  0.46693057992E+03 -0.51080224952E+03  0.69251089811E+03  0.12699999809E+01 0. -1.
       -4    1    3    3    0  502 -0.25032509323E+02 -0.46693057992E+03  0.14342336901E+04  0.15085352776E+04  0.12699999809E+01 0.  1.
</event>
<event>
 5   0  0.9220260E-06  0.2003470E+04  0.7818609E-02  0.8605000E-01
       -1   -1    0    0    0  501  0.00000000000E+00  0.00000000000E+00  0.12939458077E+04  0.12939458077E+04  0.50400001928E-02 0.  1.
        1   -1    0    0  501    0  0.00000000000E+00  0.00000000000E+00 -0.77551395540E+03  0.77551395542E+03  0.50400001928E-02 0. -1.
    10030    2    1    2    0    0  0.00000000000E+00  0.00000000000E+00  0.51843185228E+03  0.20694597631E+04  0.20034700212E+04 0.  0.
        3    1    3    3  502    0 -0.17887796008E+03  0.85744475418E+03  0.76129611981E+03  0.11605087778E+04  0.10100000352E+00 0.  1.
       -3    1    3    3    0  502  0.17887796008E+03 -0.85744475418E+03 -0.24286426753E+03  0.90895098533E+03  0.10100000352E+00 0. -1.
</event>
<event>
 5   0  0.1999142E-05  0.1998907E+04  0.7818609E-02  0.8607132E-01
        2   -1    0    0  501    0  0.00000000000E+00  0.00000000000E+00  0.17514805802E+04  0.17514805802E+04  0.25500000920E-02 0. -1.
       -2   -1    0    0    0  501  0.00000000000E+00  0.00000000000E+00 -0.57032191342E+03  0.57032191342E+03  0.25500000920E-02 0.  1.
    10030    2    1    2    0    0  0.00000000000E+00  0.00000000000E+00  0.11811586668E+04  0.23218024936E+04  0.19989074574E+04 0.  0.
        1    1    3    3  502    0 -0.17685413709E+02  0.66705728547E+03 -0.27367630230E+03  0.72123291274E+03  0.50400001928E-02 0.  1.
       -1    1    3    3    0  502  0.17685413709E+02 -0.66705728547E+03  0.14548349691E+04  0.16005695809E+04  0.50400001928E-02 0. -1.
</event>
<event>
 5   0  0.2020029E-05  0.2013813E+04  0.7818609E-02  0.8600190E-01
       -2   -1    0    0    0  501  0.00000000000E+00  0.00000000000E+00  0.60534428330E+03  0.60534428330E+03  0.25500000920E-02 0.  1.
        2   -1    0    0  501    0  0.00000000000E+00  0.00000000000E+00 -0.16748502236E+04  0.16748502236E+04  0.25500000920E-02 0. -1.
    10030    2    1    2    0    0  0.00000000000E+00  0.00000000000E+00 -0.10695059403E+04  0.22801945069E+04  0.20138133064E+04 0.  0.
        5    1    3    3  502    0  0.92845107677E+03 -0.15636597290E+03 -0.13065982100E+03  0.95056078094E+03  0.46999998093E+01 0.  1.
       -5    1    3    3    0  502 -0.92845107677E+03  0.15636597290E+03 -0.93884611926E+03  0.13296337259E+04  0.46999998093E+01 0. -1.
</event>
<event>
 5   0  0.9370269E-06  0.2000806E+04  0.7818609E-02  0.8606244E-01
        1   -1    0    0  501    0  0.00000000000E+00  0.00000000000E+00  0.10564270598E+04  0.10564270598E+04  0.50400001928E-02 0.  1.
       -1   -1    0    0    0  501  0.00000000000E+00  0.00000000000E+00 -0.94735031891E+03  0.94735031892E+03  0.50400001928E-02 0. -1.
    10030    2    1    2    0    0  0.00000000000E+00  0.00000000000E+00  0.10907674091E+03  0.20037773788E+04  0.20008063495E+04 0.  0.
        4    1    3    3  502    0  0.81748056232E+03 -0.32371740785E+03  0.53246547095E+03  0.10279049181E+04  0.12699999809E+01 0.  1.
       -4    1    3    3    0  502 -0.81748056232E+03  0.32371740785E+03 -0.42338873004E+03  0.97587246069E+03  0.12699999809E+01 0. -1.
</event>
<event>
 5   0  0.2003576E-05  0.2000394E+04  0.7818609E-02  0.8606436E-01
        2   -1    0    0  501    0  0.00000000000E+00  0.00000000000E+00  0.26039747176E+04  0.26039747176E+04  0.25500000920E-02 0. -1.
       -2   -1    0    0    0  501  0.00000000000E+00  0.00000000000E+00 -0.38417962350E+03  0.38417962350E+03  0.25500000920E-02 0.  1.
    10030    2    1    2    0    0  0.00000000000E+00  0.00000000000E+00  0.22197950941E+04  0.29881543411E+04  0.20003939878E+04 0.  0.
        4    1    3    3  502    0 -0.83881213434E+03 -0.25210799187E+03  0.18313006302E+04  0.20299822283E+04  0.12699999809E+01 0.  1.
       -4    1    3    3    0  502  0.83881213434E+03  0.25210799187E+03  0.38849446387E+03  0.95817211274E+03  0.12699999809E+01 0. -1.
</event>
<event>
 5   0  0.1979765E-05  0.1997053E+04  0.7818609E-02  0.8608000E-01
        2   -1    0    0  501    0  0.00000000000E+00  0.00000000000E+00  0.14056049590E+04  0.14056049590E+04  0.25500000920E-02 0. -1.
       -2   -1    0    0    0  501  0.00000000000E+00  0.00000000000E+00 -0.70934222023E+03  0.70934222023E+03  0.25500000920E-02 0.  1.
    10030    2    1    2    0    0  0.00000000000E+00  0.00000000000E+00  0.69626273874E+03  0.21149471792E+04  0.19970527708E+04 0.  0.
        2    1    3    3  502    0  0.67242464573E+01  0.64249454394E+03  0.11575900019E+04  0.13239558403E+04  0.25500000920E-02 0. -1.
       -2    1    3    3    0  502 -0.67242464573E+01 -0.64249454394E+03 -0.46132726318E+03  0.79099133891E+03  0.25500000920E-02 0.  1.
</event>
<event>
 5   0  0.9140695E-06  0.2000764E+04  0.7818609E-02  0.8606264E-01
        1   -1    0    0  501    0  0.00000000000E+00  0.00000000000E+00  0.13384196725E+04  0.13384196725E+04  0.50400001928E-02 0. -1.
       -1   -1    0    0    0  501  0.00000000000E+00  0.00000000000E+00 -0.74772040929E+03  0.74772040930E+03  0.50400001928E-02 0.  1.
    10030    2    1    2    0    0  0.00000000000E+00  0.00000000000E+00  0.59069926317E+03  0.20861400818E+04  0.20007635596E+04 0.  0.
        1    1    3    3  502    0 -0.96121839424E+03 -0.26070116283E+03  0.39348166976E+03  0.10708565367E+04  0.50400001928E-02 0.  1.
       -1    1    3    3    0  502  0.96121839424E+03  0.26070116283E+03  0.19721759341E+03  0.10152835451E+04  0.50400001928E-02 0. -1.
</event>
<event>
 5   0  0.1979765E-05  0.1967187E+04  0.7818609E-02  0.8622117E-01
        2   -1    0    0  501    0  0.00000000000E+00  0.00000000000E+00  0.14389373529E+04  0.14389373529E+04  0.25500000920E-02 0. -1.
       -2   -1    0    0    0  501  0.00000000000E+00  0.00000000000E+00 -0.67234084458E+03  0.67234084459E+03  0.25500000920E-02 0.  1.
    10030    2    1    2    0    0  0.00000000000E+00  0.00000000000E+00  0.76659650830E+03  0.21112781975E+04  0.19671871849E+04 0.  0.
        2    1    3    3  502    0  0.66335443433E+03 -0.12127594260E+03 -0.38518678004E+03  0.77660531503E+03  0.25500000920E-02 0.  1.
       -2    1    3    3    0  502 -0.66335443433E+03  0.12127594260E+03  0.11517832883E+04  0.13346728824E+04  0.25500000920E-02 0. -1.
</event>
<event>
 5   0  0.9333353E-06  0.1999826E+04  0.7818609E-02  0.8606702E-01
       -1   -1    0    0    0  501  0.00000000000E+00  0.00000000000E+00  0.10568124828E+04  0.10568124828E+04  0.50400001928E-02 0.  1.
        1   -1    0    0  501    0  0.00000000000E+00  0.00000000000E+00 -0.94607742960E+03  0.94607742962E+03  0.50400001928E-02 0. -1.
    10030    2    1    2    0    0  0.00000000000E+00  0.00000000000E+00  0.11073505322E+03  0.20028899125E+04  0.19998264298E+04 0.  0.
        2    1    3    3  502    0  0.58574524381E+03 -0.56032698248E+03 -0.53098864690E+03  0.96902670814E+03  0.25500000920E-02 0. -1.
       -2    1    3    3    0  502 -0.58574524381E+03  0.56032698248E+03  0.64172370012E+03  0.10338632043E+04  0.25500000920E-02 0.  1.
</event>
<event>
 5   0  0.9370269E-06  0.1997526E+04  0.7818609E-02  0.8607778E-01
       -1   -1    0    0    0  501  0.00000000000E+00  0.00000000000E+00  0.64771174551E+03  0.64771174553E+03  0.50400001928E-02 0. -1.
        1   -1    0    0  501    0  0.00000000000E+00  0.00000000000E+00 -0.15400786580E+04  0.15400786580E+04  0.50400001928E-02 0.  1.
    10030    2    1    2    0    0  0.00000000000E+00  0.00000000000E+00 -0.89236691252E+03  0.21877904036E+04  0.19975255051E+04 0.  0.
        4    1    3    3  502    0  0.59481859473E+03 -0.33023026921E+03  0.35467164346E+03  0.76723841074E+03  0.12699999809E+01 0. -1.
       -4    1    3    3    0  502 -0.59481859473E+03  0.33023026921E+03 -0.12470385560E+04  0.14205519928E+04  0.12699999809E+01 0.  1.
</event>
<event>
 5   0  0.1999142E-05  0.2001361E+04  0.7818609E-02  0.8605985E-01
       -2   -1    0    0    0  501  0.00000000000E+00  0.00000000000E+00  0.95405849234E+03  0.95405849234E+03  0.25500000920E-02 0. -1.
        2   -1    0    0  501    0  0.00000000000E+00  0.00000000000E+00 -0.10495806054E+04  0.10495806054E+04  0.25500000920E-02 0.  1.
    10030    2    1    2    0    0  0.00000000000E+00  0.00000000000E+00 -0.95522113075E+02  0.20036390978E+04  0.20013608270E+04 0.  0.
        1    1    3    3  502    0 -0.52659698527E+02 -0.89792406661E+03 -0.48680402305E+03  0.10227506197E+04  0.50400001928E-02 0.  1.
       -1    1    3    3    0  502  0.52659698527E+02  0.89792406661E+03  0.39128190997E+03  0.98088847804E+03  0.50400001928E-02 0. -1.
</event>
<event>
 5   0  0.1979765E-05  0.1998982E+04  0.7818609E-02  0.8607097E-01
       -2   -1    0    0    0  501  0.00000000000E+00  0.00000000000E+00  0.85207946302E+03  0.85207946303E+03  0.25500000920E-02 0.  1.
        2   -1    0    0  501    0  0.00000000000E+00  0.00000000000E+00 -0.11724051383E+04  0.11724051383E+04  0.25500000920E-02 0. -1.
    10030    2    1    2    0    0  0.00000000000E+00  0.00000000000E+00 -0.32032567531E+03  0.20244846014E+04  0.19989820817E+04 0.  0.
        2    1    3    3  502    0 -0.17153335357E+03 -0.54138512402E+03 -0.99312810542E+03  0.11440388882E+04  0.25500000920E-02 0. -1.
       -2    1    3    3    0  502  0.17153335357E+03  0.54138512402E+03  0.67280243011E+03  0.88044571318E+03  0.25500000920E-02 0.  1.
</event>
<event>
 5   0  0.9140695E-06  0.1996396E+04  0.7818609E-02  0.8608308E-01
        1   -1    0    0  501    0  0.00000000000E+00  0.00000000000E+00  0.17219827184E+04  0.17219827184E+04  0.50400001928E-02 0. -1.
       -1   -1    0    0    0  501  0.00000000000E+00  0.00000000000E+00 -0.57863461984E+03  0.57863461986E+03  0.50400001928E-02 0.  1.
    10030    2    1    2    0    0  0.00000000000E+00  0.00000000000E+00  0.11433480986E+04  0.23006173383E+04  0.19963955677E+04 0.  0.
        1    1    3    3  502    0  0.89051339029E+03 -0.43132327943E+03  0.72344346685E+03  0.12257341961E+04  0.50400001928E-02 0. -1.
       -1    1    3    3    0  502 -0.89051339029E+03  0.43132327943E+03  0.41990463175E+03  0.10748831422E+04  0.50400001928E-02 0.  1.
</event>
<event>
 5   0  0.9333353E-06  0.1991902E+04  0.7818609E-02  0.8610416E-01
        1   -1    0    0  501    0  0.00000000000E+00  0.00000000000E+00  0.12817713922E+04  0.12817713922E+04  0.50400001928E-02 0.  1.
       -1   -1    0    0    0  501  0.00000000000E+00  0.00000000000E+00 -0.77386535490E+03  0.77386535492E+03  0.50400001928E-02 0. -1.
    10030    2    1    2    0    0  0.00000000000E+00  0.00000000000E+00  0.50790603725E+03  0.20556367471E+04  0.19919020792E+04 0.  0.
        2    1    3    3  502    0 -0.90400589856E+02 -0.67722985243E+03 -0.49387520302E+03  0.84304522763E+03  0.25500000920E-02 0. -1.
       -2    1    3    3    0  502  0.90400589856E+02  0.67722985243E+03  0.10017812403E+04  0.12125915194E+04  0.25500000920E-02 0.  1.
</event>
<event>
 5   0  0.1999142E-05  0.2004324E+04  0.7818609E-02  0.8604602E-01
       -2   -1    0    0    0  501  0.00000000000E+00  0.00000000000E+00  0.65113863648E+03  0.65113863649E+03  0.25500000920E-02 0.  1.
        2   -1    0    0  501    0  0.00000000000E+00  0.00000000000E+00 -0.15424197805E+04  0.15424197805E+04  0.25500000920E-02 0. -1.
    10030    2    1    2    0    0  0.00000000000E+00  0.00000000000E+00 -0.89128114405E+03  0.21935584170E+04  0.20043244376E+04 0.  0.
        1    1    3    3  502    0 -0.11514596083E+03  0.22360789532E+03 -0.15073169496E+04  0.15281568865E+04  0.50400001928E-02 0. -1.
       -1    1    3    3    0  502  0.11514596083E+03 -0.22360789532E+03  0.61603580553E+03  0.66540153055E+03  0.50400001928E-02 0.  1.
</event>
<event>
 5   0  0.9333353E-06  0.1990894E+04  0.7818609E-02  0.8610890E-01
        1   -1    0    0  501    0  0.00000000000E+00  0.00000000000E+00  0.12061770752E+04  0.12061770752E+04  0.50400001928E-02 0.  1.
       -1   -1    0    0    0  501  0.00000000000E+00  0.00000000000E+00 -0.82153368024E+03  0.82153368026E+03  0.50400001928E-02 0. -1.
    10030    2    1    2    0    0  0.00000000000E+00  0.00000000000E+00  0.38464339494E+03  0.20277107554E+04  0.19908943635E+04 0.  0.
        2    1    3    3  502    0 -0.94420977606E+03  0.26873896226E+03  0.36017950361E+03  0.10456968996E+04  0.25500000920E-02 0.  1.
       -2    1    3    3    0  502  0.94420977606E+03 -0.26873896226E+03  0.24463891322E+02  0.98201385582E+03  0.25500000920E-02 0. -1.
</event>
<event>
 5   0  0.9220260E-06  0.2001262E+04  0.7818609E-02  0.8606031E-01
       -1   -1    0    0    0  501  0.00000000000E+00  0.00000000000E+00  0.80341906069E+03  0.80341906071E+03  0.50400001928E-02 0. -1.
        1   -1    0    0  501    0  0.00000000000E+00  0.00000000000E+00 -0.12462511371E+04  0.12462511371E+04  0.50400001928E-02 0.  1.
    10030    2    1    2    0    0  0.00000000000E+00  0.00000000000E+00 -0.44283207636E+03  0.20496701978E+04  0.20012615201E+04 0.  0.
        3    1    3    3  502    0 -0.71061772026E+03  0.24831373053E+03 -0.89662363649E+03  0.11707139740E+04  0.10100000352E+00 0.  1.
       -3    1    3    3    0  502  0.71061772026E+03 -0.24831373053E+03  0.45379156013E+03  0.87895622381E+03  0.10100000352E+00 0. -1.
</event>
<event>
 5   0  0.2003576E-05  0.2023573E+04  0.7818609E-02  0.8595678E-01
        2   -1    0    0  501    0  0.00000000000E+00  0.00000000000E+00  0.68034424069E+03  0.68034424070E+03  0.25500000920E-02 0.  1.
       -2   -1    0    0    0  501  0.00000000000E+00  0.00000000000E+00 -0.15046974539E+04  0.15046974539E+04  0.25500000920E-02 0. -1.
    10030    2    1    2    0    0  0.00000000000E+00  0.00000000000E+00 -0.82435321317E+03  0.21850416946E+04  0.20235733214E+04 0.  0.
        4    1    3    3  502    0  0.50531837037E+03  0.37836884046E+03  0.44161251122E+03  0.77041083703E+03  0.12699999809E+01 0.  1.
       -4    1    3    3    0  502 -0.50531837037E+03 -0.37836884046E+03 -0.12659657244E+04  0.14146308575E+04  0.12699999809E+01 0. -1.
</event>
<event>
 5   0  0.2003576E-05  0.1999884E+04  0.7818609E-02  0.8606675E-01
       -2   -1    0    0    0  501  0.00000000000E+00  0.00000000000E+00  0.12642666309E+04  0.12642666310E+04  0.25500000920E-02 0. -1.
        2   -1    0    0  501    0  0.00000000000E+00  0.00000000000E+00 -0.79088098368E+03  0.79088098369E+03  0.25500000920E-02 0.  1.
    10030    2    1    2    0    0  0.00000000000E+00  0.00000000000E+00  0.47338564727E+03  0.20551476146E+04  0.19998844334E+04 0.  0.
        4    1    3    3  502    0  0.96073785069E+03 -0.27469295213E+03  0.19811360520E+03  0.10186874148E+04  0.12699999809E+01 0. -1.
       -4    1    3    3    0  502 -0.96073785069E+03  0.27469295213E+03  0.27527204206E+03  0.10364601998E+04  0.12699999809E+01 0.  1.
</event>
<event>
 5   0  0.2003576E-05  0.2003122E+04  0.7818609E-02  0.8605163E-01
        2   -1    0    0  501    0  0.00000000000E+00  0.00000000000E+00  0.68779792304E+03  0.68779792304E+03  0.25500000920E-02 0.  1.
       -2   -1    0    0    0  501  0.00000000000E+00  0.00000000000E+00 -0.14584575142E+04  0.14584575142E+04  0.25500000920E-02 0. -1.
    10030    2    1    2    0    0  0.00000000000E+00  0.00000000000E+00 -0.77065959120E+03  0.21462554373E+04  0.20031216130E+04 0.  0.
        4    1    3    3  502    0  0.67439264002E+03 -0.73009815430E+03 -0.25291209114E+03  0.10255802682E+04  0.12699999809E+01 0.  1.
       -4    1    3    3    0  502 -0.67439264002E+03  0.73009815430E+03 -0.51774750006E+03  0.11206751691E+04  0.12699999809E+01 0. -1.
</event>
<event>
 5   0  0.2038882E-05  0.2001267E+04  0.7818609E-02  0.8606028E-01
       -2   -1    0    0    0  501  0.00000000000E+00  0.00000000000E+00  0.70515071804E+03  0.70515071805E+03  0.25500000920E-02 0. -1.
        2   -1    0    0  501    0  0.00000000000E+00  0.00000000000E+00 -0.14199341489E+04  0.14199341489E+04  0.25500000920E-02 0.  1.
    10030    2    1    2    0    0  0.00000000000E+00  0.00000000000E+00 -0.71478343089E+03  0.21250848670E+04  0.20012671833E+04 0.  0.
        3    1    3    3  502    0 -0.53022385064E+03  0.74225090780E+02  0.54026245934E+03  0.76061174791E+03  0.10100000352E+00 0. -1.
       -3    1    3    3    0  502  0.53022385064E+03 -0.74225090780E+02 -0.12550458902E+04  0.13644731191E+04  0.10100000352E+00 0.  1.
</event>
<event>
 5   0  0.9140695E-06  0.2000247E+04  0.7818609E-02  0.8606505E-01
       -1   -1    0    0    0  501  0.00000000000E+00  0.00000000000E+00  0.60959138320E+03  0.60959138323E+03  0.50400001928E-02 0.  1.
        1   -1    0    0  501    0  0.00000000000E+00  0.00000000000E+00 -0.16408478629E+04  0.16408478629E+04  0.50400001928E-02 0. -1.
    10030    2    1    2    0    0  0.00000000000E+00  0.00000000000E+00 -0.10312564797E+04  0.22504392461E+04  0.20002467032E+04 0.  0.
        1    1    3    3  502    0 -0.35894214413E+03  0.73669559658E+03 -0.11606507882E+04  0.14207991121E+04  0.50400001928E-02 0. -1.
       -1    1    3    3    0  502  0.35894214413E+03 -0.73669559658E+03  0.12939430851E+03  0.82964013400E+03  0.50400001928E-02 0.  1.
</event>
<event>
 5   0  0.1979765E-05  0.1994982E+04  0.7818609E-02  0.8608970E-01
       -2   -1    0    0    0  501  0.00000000000E+00  0.00000000000E+00  0.58300134015E+03  0.58300134016E+03  0.25500000920E-02 0. -1.
        2   -1    0    0  501    0  0.00000000000E+00  0.00000000000E+00 -0.17066659831E+04  0.17066659831E+04  0.25500000920E-02 0.  1.
    10030    2    1    2    0    0  0.00000000000E+00  0.00000000000E+00 -0.11236646429E+04  0.22896673232E+04  0.19949822609E+04 0.  0.
        2    1    3    3  502    0  0.64645548941E+03 -0.74496850428E+03 -0.39119017677E+03  0.10610902537E+04  0.25500000920E-02 0. -1.
       -2    1    3    3    0  502 -0.64645548941E+03  0.74496850428E+03 -0.73247446616E+03  0.12285770695E+04  0.25500000920E-02 0.  1.
</event>
<event>
 5   0  0.1999142E-05  0.2002679E+04  0.7818609E-02  0.8605369E-01
        2   -1    0    0  501    0  0.00000000000E+00  0.00000000000E+00  0.18485729784E+04  0.18485729784E+04  0.25500000920E-02 0. -1.
       -2   -1    0    0    0  501  0.00000000000E+00  0.00000000000E+00 -0.54240825862E+03  0.54240825862E+03  0.25500000920E-02 0.  1.
    10030    2    1    2    0    0  0.00000000000E+00  0.00000000000E+00  0.13061647198E+04  0.23909812370E+04  0.20026794553E+04 0.  0.
        1    1    3    3  502    0  0.95476241487E+03  0.13134095812E+03  0.32861724730E+03  0.10182391720E+04  0.50400001928E-02 0.  1.
       -1    1    3    3    0  502 -0.95476241487E+03 -0.13134095812E+03  0.97754747245E+03  0.13727420650E+04  0.50400001928E-02 0. -1.
</event>
<event>
 5   0  0.9333353E-06  0.2013695E+04  0.7818609E-02  0.8600244E-01
        1   -1    0    0  501    0  0.00000000000E+00  0.00000000000E+00  0.10912587260E+04  0.10912587260E+04  0.50400001928E-02 0. -1.
       -1   -1    0    0    0  501  0.00000000000E+00  0.00000000000E+00 -0.92896605453E+03  0.92896605454E+03  0.50400001928E-02 0.  1.
    10030    2    1    2    0    0  0.00000000000E+00  0.00000000000E+00  0.16229267146E+03  0.20202247805E+04  0.20136954220E+04 0.  0.
        2    1    3    3  502    0 -0.19240466580E+03  0.96246849371E+03  0.30632266534E+03  0.10282016982E+04  0.25500000920E-02 0.  1.
       -2    1    3    3    0  502  0.19240466580E+03 -0.96246849371E+03 -0.14402999388E+03  0.99202308237E+03  0.25500000920E-02 0. -1.
</event>
<event>
 5   0  0.9333353E-06  0.2000239E+04  0.7818609E-02  0.8606509E-01
       -1   -1    0    0    0  501  0.00000000000E+00  0.00000000000E+00  0.78170177641E+03  0.78170177642E+03  0.50400001928E-02 0.  1.
        1   -1    0    0  501    0  0.00000000000E+00  0.00000000000E+00 -0.12795658390E+04  0.12795658390E+04  0.50400001928E-02 0. -1.
    10030    2    1    2    0    0  0.00000000000E+00  0.00000000000E+00 -0.49786406259E+03  0.20612676154E+04  0.20002388751E+04 0.  0.
        2    1    3    3  502    0  0.76933497358E+03  0.57222116900E+03 -0.54208565711E+03  0.11014400698E+04  0.25500000920E-02 0.  1.
       -2    1    3    3    0  502 -0.76933497358E+03 -0.57222116900E+03  0.44221594523E+02  0.95982754558E+03  0.25500000920E-02 0. -1.
</event>
<event>
 5   0  0.1999142E-05  0.2000584E+04  0.7818609E-02  0.8606348E-01
       -2   -1    0    0    0  501  0.00000000000E+00  0.00000000000E+00  0.90317794752E+03  0.90317794752E+03  0.25500000920E-02 0.  1.
        2   -1    0    0  501    0  0.00000000000E+00  0.00000000000E+00 -0.11078484172E+04  0.11078484172E+04  0.25500000920E-02 0. -1.
    10030    2    1    2    0    0  0.00000000000E+00  0.00000000000E+00 -0.20467046970E+03  0.20110263647E+04  0.20005841743E+04 0.  0.
        1    1    3    3  502    0 -0.90460135720E+03 -0.21025805568E+03 -0.47585539620E+03  0.10435278739E+04  0.50400001928E-02 0. -1.
       -1    1    3    3    0  502  0.90460135720E+03  0.21025805568E+03  0.27118492650E+03  0.96749849086E+03  0.50400001928E-02 0.  1.
</event>
<event>
 5   0  0.2003576E-05  0.2003695E+04  0.7818609E-02  0.8604895E-01
       -2   -1    0    0    0  501  0.00000000000E+00  0.00000000000E+00  0.58529268136E+03  0.58529268137E+03  0.25500000920E-02 0.  1.
        2   -1    0    0  501    0  0.00000000000E+00  0.00000000000E+00 -0.17148663274E+04  0.17148663274E+04  0.25500000920E-02 0. -1.
    10030    2    1    2    0    0  0.00000000000E+00  0.00000000000E+00 -0.11295736461E+04  0.23001590088E+04  0.20036952972E+04 0.  0.
        4    1    3    3  502    0 -0.48457136189E+03 -0.22728523604E+03  0.40741210106E+03  0.67264717072E+03  0.12699999809E+01 0.  1.
       -4    1    3    3    0  502  0.48457136189E+03  0.22728523604E+03 -0.15369857471E+04  0.16275118381E+04  0.12699999809E+01 0. -1.
</event>
<event>
 5   0  0.2003576E-05  0.1997927E+04  0.7818609E-02  0.8607591E-01
        2   -1    0    0  501    0  0.00000000000E+00  0.00000000000E+00  0.83619394507E+03  0.83619394507E+03  0.25500000920E-02 0. -1.
       -2   -1    0    0    0  501  0.00000000000E+00  0.00000000000E+00 -0.11934166860E+04  0.11934166860E+04  0.25500000920E-02 0.  1.
    10030    2    1    2    0    0  0.00000000000E+00  0.00000000000E+00 -0.35722274098E+03  0.20296106311E+04  0.19979267322E+04 0.  0.
        4    1    3    3  502    0  0.61064348171E+01 -0.92077961975E+03  0.21489943871E+03  0.94554522808E+03  0.12699999809E+01 0. -1.
       -4    1    3    3    0  502 -0.61064348171E+01  0.92077961975E+03 -0.57212217968E+03  0.10840654030E+04  0.12699999809E+01 0.  1.
</event>
<event>
 5   0  0.9220260E-06  0.1999890E+04  0.7818609E-02  0.8606672E-01
        1   -1    0    0  501    0  0.00000000000E+00  0.00000000000E+00  0.13743990645E+04  0.13743990645E+04  0.50400001928E-02 0. -1.
       -1   -1    0    0    0  501  0.00000000000E+00  0.00000000000E+00 -0.72751055589E+03  0.72751055591E+03  0.50400001928E-02 0.  1.
    10030    2    1    2    0    0  0.00000000000E+00  0.00000000000E+00  0.64688850862E+03  0.21019096204E+04  0.19998898244E+04 0.  0.
        3    1    3    3  502    0 -0.94118948755E+03 -0.27650240122E+03  0.52723935282E+03  0.11136752555E+04  0.10100000352E+00 0. -1.
       -3    1    3    3    0  502  0.94118948755E+03  0.27650240122E+03  0.11964915581E+03  0.98823436493E+03  0.10100000352E+00 0.  1.
</event>
<event>
 5   0  0.9342635E-06  0.2000303E+04  0.7818609E-02  0.8606479E-01
        1   -1    0    0  501    0  0.00000000000E+00  0.00000000000E+00  0.50545940039E+03  0.50545940041E+03  0.50400001928E-02 0. -1.
       -1   -1    0    0    0  501  0.00000000000E+00  0.00000000000E+00 -0.19789977956E+04  0.19789977957E+04  0.50400001928E-02 0.  1.
    10030    2    1    2    0    0  0.00000000000E+00  0.00000000000E+00 -0.14735383953E+04  0.24844571961E+04  0.20003030162E+04 0.  0.
        5    1    3    3  502    0 -0.60105229181E+03  0.50815933407E+03 -0.15032109778E+04  0.16968073256E+04  0.46999998093E+01 0.  1.
       -5    1    3    3    0  502  0.60105229181E+03 -0.50815933407E+03  0.29672582578E+02  0.78764987047E+03  0.46999998093E+01 0. -1.
</event>
<event>
 5   0  0.1979765E-05  0.1997576E+04  0.7818609E-02  0.8607755E-01
       -2   -1    0    0    0  501  0.00000000000E+00  0.00000000000E+00  0.91635533027E+03  0.91635533027E+03  0.25500000920E-02 0. -1.
        2   -1    0    0  501    0  0.00000000000E+00  0.00000000000E+00 -0.10886366175E+04  0.10886366175E+04  0.25500000920E-02 0.  1.
    10030    2    1    2    0    0  0.00000000000E+00  0.00000000000E+00 -0.17228128724E+03  0.20049919478E+04  0.19975764988E+04 0.  0.
        2    1    3    3  502    0  0.30766925303E+03 -0.89722229803E+03 -0.40020754839E+03  0.10294825414E+04  0.25500000920E-02 0.  1.
       -2    1    3    3    0  502 -0.30766925303E+03  0.89722229803E+03  0.22792626115E+03  0.97550940634E+03  0.25500000920E-02 0. -1.
</event>
<event>
 5   0  0.9333353E-06  0.1999101E+04  0.7818609E-02  0.8607041E-01
       -1   -1    0    0    0  501  0.00000000000E+00  0.00000000000E+00  0.85624222419E+03  0.85624222421E+03  0.50400001928E-02 0.  1.
        1   -1    0    0  501    0  0.00000000000E+00  0.00000000000E+00 -0.11668437439E+04  0.11668437439E+04  0.50400001928E-02 0. -1.
    10030    2    1    2    0    0  0.00000000000E+00  0.00000000000E+00 -0.31060151967E+03  0.20230859681E+04  0.19991006804E+04 0.  0.
        2    1    3    3  502    0 -0.63437722630E+03  0.73636417406E+03 -0.39141146314E+03  0.10477927255E+04  0.25500000920E-02 0.  1.
       -2    1    3    3    0  502  0.63437722630E+03 -0.73636417406E+03  0.80809943473E+02  0.97529324260E+03  0.25500000920E-02 0. -1.
</event>
<event>
 5   0  0.9333353E-06  0.2006551E+04  0.7818609E-02  0.8603564E-01
       -1   -1    0    0    0  501  0.00000000000E+00  0.00000000000E+00  0.72859181370E+03  0.72859181371E+03  0.50400001928E-02 0. -1.
        1   -1    0    0  501    0  0.00000000000E+00  0.00000000000E+00 -0.13815173159E+04  0.13815173159E+04  0.50400001928E-02 0.  1.
    10030    2    1    2    0    0  0.00000000000E+00  0.00000000000E+00 -0.65292550223E+03  0.21101091296E+04  0.20065514764E+04 0.  0.
        2    1    3    3  502    0 -0.82311360041E+02 -0.34838860839E+03 -0.13120699020E+04  0.13600283858E+04  0.25500000920E-02 0.  1.
       -2    1    3    3    0  502  0.82311360041E+02  0.34838860839E+03  0.65914439980E+03  0.75008074382E+03  0.25500000920E-02 0. -1.
</event>
<event>
 5   0  0.9140695E-06  0.2033763E+04  0.7818609E-02  0.8590996E-01
        1   -1    0    0  501    0  0.00000000000E+00  0.00000000000E+00  0.26248644283E+04  0.26248644283E+04  0.50400001928E-02 0. -1.
       -1   -1    0    0    0  501  0.00000000000E+00  0.00000000000E+00 -0.39394339560E+03  0.39394339563E+03  0.50400001928E-02 0.  1.
    10030    2    1    2    0    0  0.00000000000E+00  0.00000000000E+00  0.22309210327E+04  0.30188078240E+04  0.20337630206E+04 0.  0.
        1    1    3    3  502    0 -0.73954296895E+03  0.22344276836E+03  0.20969236059E+04  0.22347123042E+04  0.50400001928E-02 0. -1.
       -1    1    3    3    0  502  0.73954296895E+03 -0.22344276836E+03  0.13399742682E+03  0.78409551974E+03  0.50400001928E-02 0.  1.
</event>
<event>
 5   0  0.1979765E-05  0.1976030E+04  0.7818609E-02  0.8617910E-01
       -2   -1    0    0    0  501  0.00000000000E+00  0.00000000000E+00  0.87031630545E+03  0.87031630545E+03  0.25500000920E-02 0. -1.
        2   -1    0    0  501    0  0.00000000000E+00  0.00000000000E+00 -0.11216308686E+04  0.11216308686E+04  0.25500000920E-02 0.  1.
    10030    2    1    2    0    0  0.00000000000E+00  0.00000000000E+00 -0.25131456315E+03  0.19919471741E+04  0.19760299933E+04 0.  0.
        2    1    3    3  502    0 -0.31854283829E+03  0.80826968241E+03  0.34866904080E+03  0.93613007609E+03  0.25500000920E-02 0. -1.
       -2    1    3    3    0  502  0.31854283829E+03 -0.80826968241E+03 -0.59998360395E+03  0.10558170980E+04  0.25500000920E-02 0.  1.
</event>
<event>
 5   0  0.2003576E-05  0.1999066E+04  0.7818609E-02  0.8607058E-01
       -2   -1    0    0    0  501  0.00000000000E+00  0.00000000000E+00  0.59003529913E+03  0.59003529914E+03  0.25500000920E-02 0.  1.
        2   -1    0    0  501    0  0.00000000000E+00  0.00000000000E+00 -0.16932307876E+04  0.16932307876E+04  0.25500000920E-02 0. -1.
    10030    2    1    2    0    0  0.00000000000E+00  0.00000000000E+00 -0.11031954885E+04  0.22832660868E+04  0.19990657161E+04 0.  0.
        4    1    3    3  502    0 -0.19321931749E+03 -0.39173685047E+03  0.47525567221E+03  0.64549285940E+03  0.12699999809E+01 0.  1.
       -4    1    3    3    0  502  0.19321931749E+03  0.39173685047E+03 -0.15784511607E+04  0.16377732274E+04  0.12699999809E+01 0. -1.
</event>
<event>
 5   0  0.9140695E-06  0.1978248E+04  0.7818609E-02  0.8616858E-01
       -1   -1    0    0    0  501  0.00000000000E+00  0.00000000000E+00  0.11081720134E+04  0.11081720134E+04  0.50400001928E-02 0.  1.
        1   -1    0    0  501    0  0.00000000000E+00  0.00000000000E+00 -0.88286523455E+03  0.88286523456E+03  0.50400001928E-02 0. -1.
    10030    2    1    2    0    0  0.00000000000E+00  0.00000000000E+00  0.22530677889E+03  0.19910372480E+04  0.19782482600E+04 0.  0.
        1    1    3    3  502    0  0.35537535437E+03 -0.24661525479E+03  0.10079296126E+04  0.10968285328E+04  0.50400001928E-02 0.  1.
       -1    1    3    3    0  502 -0.35537535437E+03  0.24661525479E+03 -0.78262283374E+03  0.89420871518E+03  0.50400001928E-02 0. -1.
</event>
<event>
 5   0  0.1999142E-05  0.2009330E+04  0.7818609E-02  0.8602271E-01
       -2   -1    0    0    0  501  0.00000000000E+00  0.00000000000E+00  0.46855569727E+03  0.46855569727E+03  0.25500000920E-02 0. -1.
        2   -1    0    0  501    0  0.00000000000E+00  0.00000000000E+00 -0.21541757807E+04  0.21541757807E+04  0.25500000920E-02 0.  1.
    10030    2    1    2    0    0  0.00000000000E+00  0.00000000000E+00 -0.16856200835E+04  0.26227314780E+04  0.20093295747E+04 0.  0.
        1    1    3    3  502    0  0.91762653074E+03  0.35845995450E+03 -0.10999838641E+04  0.14766504292E+04  0.50400001928E-02 0.  1.
       -1    1    3    3    0  502 -0.91762653074E+03 -0.35845995450E+03 -0.58563621941E+03  0.11460810488E+04  0.50400001928E-02 0. -1.
</event>
<event>
 5   0  0.9333353E-06  0.2028027E+04  0.7818609E-02  0.8593628E-01
       -1   -1    0    0    0  501  0.00000000000E+00  0.00000000000E+00  0.96337635141E+03  0.96337635143E+03  0.50400001928E-02 0. -1.
        1   -1    0    0  501    0  0.00000000000E+00  0.00000000000E+00 -0.10673122928E+04  0.10673122928E+04  0.50400001928E-02 0.  1.
    10030    2    1    2    0    0  0.00000000000E+00  0.00000000000E+00 -0.10393594140E+03  0.20306886443E+04  0.20280270437E+04 0.  0.
        2    1    3    3  502    0 -0.18446750560E+03  0.97480508997E+03 -0.26188613427E+03  0.10260884813E+04  0.25500000920E-02 0. -1.
       -2    1    3    3    0  502  0.18446750560E+03 -0.97480508997E+03  0.15795019287E+03  0.10046001630E+04  0.25500000920E-02 0.  1.
</event>
<event>
 5   0  0.9140695E-06  0.1998074E+04  0.7818609E-02  0.8607522E-01
        1   -1    0    0  501    0  0.00000000000E+00  0.00000000000E+00  0.19298398928E+04  0.19298398928E+04  0.50400001928E-02 0.  1.
       -1   -1    0    0    0  501  0.00000000000E+00  0.00000000000E+00 -0.51718002954E+03  0.51718002957E+03  0.50400001928E-02 0. -1.
    10030    2    1    2    0    0  0.00000000000E+00  0.00000000000E+00  0.14126598632E+04  0.24470199223E+04  0.19980737252E+04 0.  0.
        1    1    3    3  502    0  0.93209901769E+03  0.78927482751E+02  0.11359089163E+04  0.14715050773E+04  0.50400001928E-02 0.  1.
       -1    1    3    3    0  502 -0.93209901769E+03 -0.78927482751E+02  0.27675094696E+03  0.97551484509E+03  0.50400001928E-02 0. -1.
</event>
<event>
 5   0  0.9140695E-06  0.2004774E+04  0.7818609E-02  0.8604392E-01
        1   -1    0    0  501    0  0.00000000000E+00  0.00000000000E+00  0.12782134628E+04  0.12782134628E+04  0.50400001928E-02 0.  1.
       -1   -1    0    0    0  501  0.00000000000E+00  0.00000000000E+00 -0.78608094872E+03  0.78608094874E+03  0.50400001928E-02 0. -1.
    10030    2    1    2    0    0  0.00000000000E+00  0.00000000000E+00  0.49213251411E+03  0.20642944116E+04  0.20047735549E+04 0.  0.
        1    1    3    3  502    0  0.82942784029E+03 -0.41128424824E+03 -0.14962667844E+03  0.93781310399E+03  0.50400001928E-02 0. -1.
       -1    1    3    3    0  502 -0.82942784029E+03  0.41128424824E+03  0.64175919256E+03  0.11264813076E+04  0.50400001928E-02 0.  1.
</event>
<event>
 5   0  0.9140695E-06  0.1997350E+04  0.7818609E-02  0.8607861E-01
        1   -1    0    0  501    0  0.00000000000E+00  0.00000000000E+00  0.13802083981E+04  0.13802083982E+04  0.50400001928E-02 0. -1.
       -1   -1    0    0    0  501  0.00000000000E+00  0.00000000000E+00 -0.72260954734E+03  0.72260954735E+03  0.50400001928E-02 0.  1.
    10030    2    1    2    0    0  0.00000000000E+00  0.00000000000E+00  0.65759885081E+03  0.21028179455E+04  0.19973500102E+04 0.  0.
        1    1    3    3  502    0  0.68017080388E+03 -0.29945911990E+03  0.10311417117E+04  0.12710473306E+04  0.50400001928E-02 0. -1.
       -1    1    3    3    0  502 -0.68017080388E+03  0.29945911990E+03 -0.37354286087E+03  0.83177061494E+03  0.50400001928E-02 0.  1.
</event>
<event>
 5   0  0.9140695E-06  0.2000344E+04  0.7818609E-02  0.8606460E-01
        1   -1    0    0  501    0  0.00000000000E+00  0.00000000000E+00  0.15875220532E+04  0.15875220532E+04  0.50400001928E-02 0. -1.
       -1   -1    0    0    0  501  0.00000000000E+00  0.00000000000E+00 -0.63012911614E+03  0.63012911616E+03  0.50400001928E-02 0.  1.
    10030    2    1    2    0    0  0.00000000000E+00  0.00000000000E+00  0.95739293710E+03  0.22176511694E+04  0.20003438387E+04 0.  0.
        1    1    3    3  502    0  0.18061491474E+01 -0.51604688542E+03 -0.47113668732E+03  0.69876850837E+03  0.50400001928E-02 0.  1.
       -1    1    3    3    0  502 -0.18061491474E+01  0.51604688542E+03  0.14285296244E+04  0.15188826610E+04  0.50400001928E-02 0. -1.
</event>
<event>
 5   0  0.9333353E-06  0.2027655E+04  0.7818609E-02  0.8593799E-01
        1   -1    0    0  501    0  0.00000000000E+00  0.00000000000E+00  0.56773666582E+03  0.56773666584E+03  0.50400001928E-02 0. -1.
       -1   -1    0    0    0  501  0.00000000000E+00  0.00000000000E+00 -0.18104275145E+04  0.18104275146E+04  0.50400001928E-02 0.  1.
    10030    2    1    2    0    0  0.00000000000E+00  0.00000000000E+00 -0.12426908487E+04  0.23781641804E+04  0.20276548827E+04 0.  0.
        2    1    3    3  502    0 -0.90285340733E+02  0.55079007925E+03 -0.16140106946E+04  0.17077914616E+04  0.25500000920E-02 0.  1.
       -2    1    3    3    0  502  0.90285340733E+02 -0.55079007925E+03  0.37131984586E+03  0.67037271878E+03  0.25500000920E-02 0. -1.
</event>
<event>
 5   0  0.9140695E-06  0.1999414E+04  0.7818609E-02  0.8606895E-01
       -1   -1    0    0    0  501  0.00000000000E+00  0.00000000000E+00  0.94384368865E+03  0.94384368867E+03  0.50400001928E-02 0.  1.
        1   -1    0    0  501    0  0.00000000000E+00  0.00000000000E+00 -0.10588762454E+04  0.10588762454E+04  0.50400001928E-02 0. -1.
    10030    2    1    2    0    0  0.00000000000E+00  0.00000000000E+00 -0.11503255676E+03  0.20027199341E+04  0.19994135753E+04 0.  0.
        1    1    3    3  502    0 -0.17669396930E+02  0.93741789642E+03  0.28997113783E+03  0.98140092772E+03  0.50400001928E-02 0.  1.
       -1    1    3    3    0  502  0.17669396930E+02 -0.93741789642E+03 -0.40500369459E+03  0.10213190064E+04  0.50400001928E-02 0. -1.
</event>
<event>
 5   0  0.1979765E-05  0.2005620E+04  0.7818609E-02  0.8603997E-01
        2   -1    0    0  501    0  0.00000000000E+00  0.00000000000E+00  0.16732018331E+04  0.16732018331E+04  0.25500000920E-02 0.  1.
       -2   -1    0    0    0  501  0.00000000000E+00  0.00000000000E+00 -0.60102034608E+03  0.60102034609E+03  0.25500000920E-02 0. -1.
    10030    2    1    2    0    0  0.00000000000E+00  0.00000000000E+00  0.10721814871E+04  0.22742221792E+04  0.20056204475E+04 0.  0.
        2    1    3    3  502    0 -0.95105369068E+02  0.68203079433E+03  0.13627032847E+04  0.15268173689E+04  0.25500000920E-02 0.  1.
       -2    1    3    3    0  502  0.95105369068E+02 -0.68203079433E+03 -0.29052179766E+03  0.74740481037E+03  0.25500000920E-02 0. -1.
</event>
<event>
 5   0  0.9333353E-06  0.1999875E+04  0.7818609E-02  0.8606679E-01
        1   -1    0    0  501    0  0.00000000000E+00  0.00000000000E+00  0.91410032263E+03  0.91410032265E+03  0.50400001928E-02 0.  1.
       -1   -1    0    0    0  501  0.00000000000E+00  0.00000000000E+00 -0.10938348050E+04  0.10938348050E+04  0.50400001928E-02 0. -1.
    10030    2    1    2    0    0  0.00000000000E+00  0.00000000000E+00 -0.17973448237E+03  0.20079351277E+04  0.19998747443E+04 0.  0.
        2    1    3    3  502    0 -0.22394707082E+02 -0.92710559806E+03 -0.46533762576E+03  0.10375767050E+04  0.25500000920E-02 0.  1.
       -2    1    3    3    0  502  0.22394707082E+02  0.92710559806E+03  0.28560314339E+03  0.97035842263E+03  0.25500000920E-02 0. -1.
</event>
<event>
 5   0  0.9342635E-06  0.1998459E+04  0.7818609E-02  0.8607342E-01
       -1   -1    0    0    0  501  0.00000000000E+00  0.00000000000E+00  0.91929018542E+03  0.91929018544E+03  0.50400001928E-02 0.  1.
        1   -1    0    0  501    0  0.00000000000E+00  0.00000000000E+00 -0.10861199282E+04  0.10861199282E+04  0.50400001928E-02 0. -1.
    10030    2    1    2    0    0  0.00000000000E+00  0.00000000000E+00 -0.16682974275E+03  0.20054101136E+04  0.19984587964E+04 0.  0.
        5    1    3    3  502    0 -0.75627013171E+03  0.65278482564E+03 -0.10257998057E+03  0.10042993991E+04  0.46999998093E+01 0.  1.
       -5    1    3    3    0  502  0.75627013171E+03 -0.65278482564E+03 -0.64249762174E+02  0.10011107145E+04  0.46999998093E+01 0. -1.
</event>
<event>
 5   0  0.1999142E-05  0.2000723E+04  0.7818609E-02  0.8606283E-01
        2   -1    0    0  501    0  0.00000000000E+00  0.00000000000E+00  0.18424497605E+04  0.18424497605E+04  0.25500000920E-02 0. -1.
       -2   -1    0    0    0  501  0.00000000000E+00  0.00000000000E+00 -0.54314800762E+03  0.54314800763E+03  0.25500000920E-02 0.  1.
    10030    2    1    2    0    0  0.00000000000E+00  0.00000000000E+00  0.12993017528E+04  0.23855977681E+04  0.20007227859E+04 0.  0.
        1    1    3    3  502    0  0.87705321262E+03  0.26118474103E+03  0.11314665605E+04  0.14552169544E+04  0.50400001928E-02 0. -1.
       -1    1    3    3    0  502 -0.87705321262E+03 -0.26118474103E+03  0.16783519231E+03  0.93038081371E+03  0.50400001928E-02 0.  1.
</event>
<event>
 5   0  0.1999142E-05  0.1993762E+04  0.7818609E-02  0.8609543E-01
        2   -1    0    0  501    0  0.00000000000E+00  0.00000000000E+00  0.15142284607E+04  0.15142284607E+04  0.25500000920E-02 0. -1.
       -2   -1    0    0    0  501  0.00000000000E+00  0.00000000000E+00 -0.65628917125E+03  0.65628917126E+03  0.25500000920E-02 0.  1.
    10030    2    1    2    0    0  0.00000000000E+00  0.00000000000E+00  0.85793928948E+03  0.21705176320E+04  0.19937620135E+04 0.  0.
        1    1    3    3  502    0  0.30823039777E+03  0.19137823835E+03  0.14398015285E+04  0.14848097689E+04  0.50400001928E-02 0. -1.
       -1    1    3    3    0  502 -0.30823039777E+03 -0.19137823835E+03 -0.58186223907E+03  0.68570786309E+03  0.50400001928E-02 0.  1.
</event>
<event>
 5   0  0.1979765E-05  0.1975949E+04  0.7818609E-02  0.8617949E-01
       -2   -1    0    0    0  501  0.00000000000E+00  0.00000000000E+00  0.55582168294E+03  0.55582168294E+03  0.25500000920E-02 0.  1.
        2   -1    0    0  501    0  0.00000000000E+00  0.00000000000E+00 -0.17561269680E+04  0.17561269680E+04  0.25500000920E-02 0. -1.
    10030    2    1    2    0    0  0.00000000000E+00  0.00000000000E+00 -0.12003052851E+04  0.23119486510E+04  0.19759488322E+04 0.  0.
        2    1    3    3  502    0  0.14690466589E+03  0.50303729641E+03  0.37980157294E+03  0.64720687362E+03  0.25500000920E-02 0.  1.
       -2    1    3    3    0  502 -0.14690466589E+03 -0.50303729641E+03 -0.15801068580E+04  0.16647417774E+04  0.25500000920E-02 0. -1.
</event>
<event>
 5   0  0.2020029E-05  0.1971395E+04  0.7818609E-02  0.8620112E-01
       -2   -1    0    0    0  501  0.00000000000E+00  0.00000000000E+00  0.62201677099E+03  0.62201677099E+03  0.25500000920E-02 0.  1.
        2   -1    0    0  501    0  0.00000000000E+00  0.00000000000E+00 -0.15620158382E+04  0.15620158382E+04  0.25500000920E-02 0. -1.
    10030    2    1    2    0    0  0.00000000000E+00  0.00000000000E+00 -0.93999906719E+03  0.21840326092E+04  0.19713954935E+04 0.  0.
        5    1    3    3  502    0  0.79490529886E+03  0.47884568680E+03 -0.83812021465E+03  0.12504540016E+04  0.46999998093E+01 0.  1.
       -5    1    3    3    0  502 -0.79490529886E+03 -0.47884568680E+03 -0.10187885255E+03  0.93357860757E+03  0.46999998093E+01 0. -1.
</event>
<event>
 5   0  0.9370269E-06  0.1999720E+04  0.7818609E-02  0.8606751E-01
       -1   -1    0    0    0  501  0.00000000000E+00  0.00000000000E+00  0.74139739123E+03  0.74139739125E+03  0.50400001928E-02 0.  1.
        1   -1    0    0  501    0  0.00000000000E+00  0.00000000000E+00 -0.13484270173E+04  0.13484270173E+04  0.50400001928E-02 0. -1.
    10030    2    1    2    0    0  0.00000000000E+00  0.00000000000E+00 -0.60702962608E+03  0.20898244086E+04  0.19997202534E+04 0.  0.
        4    1    3    3  502    0 -0.56223150877E+03 -0.49833647548E+03  0.38596648079E+03  0.84463912379E+03  0.12699999809E+01 0.  1.
       -4    1    3    3    0  502  0.56223150877E+03  0.49833647548E+03 -0.99299610687E+03  0.12451852848E+04  0.12699999809E+01 0. -1.
</event>
<event>
 5   0  0.1999142E-05  0.1998115E+04  0.7818609E-02  0.8607502E-01
       -2   -1    0    0    0  501  0.00000000000E+00  0.00000000000E+00  0.71765105235E+03  0.71765105235E+03  0.25500000920E-02 0. -1.
        2   -1    0    0  501    0  0.00000000000E+00  0.00000000000E+00 -0.13908100263E+04  0.13908100263E+04  0.25500000920E-02 0.  1.
    10030    2    1    2    0    0  0.00000000000E+00  0.00000000000E+00 -0.67315897396E+03  0.21084610787E+04  0.19981153911E+04 0.  0.
        1    1    3    3  502    0  0.66581777801E+03  0.57634621340E+03 -0.83447122924E+03  0.12131902174E+04  0.50400001928E-02 0.  1.
       -1    1    3    3    0  502 -0.66581777801E+03 -0.57634621340E+03  0.16131225529E+03  0.89527086122E+03  0.50400001928E-02 0. -1.
</event>
<event>
 5   0  0.9140695E-06  0.1995954E+04  0.7818609E-02  0.8608514E-01
        1   -1    0    0  501    0  0.00000000000E+00  0.00000000000E+00  0.11936258387E+04  0.11936258387E+04  0.50400001928E-02 0.  1.
       -1   -1    0    0    0  501  0.00000000000E+00  0.00000000000E+00 -0.83439754073E+03  0.83439754074E+03  0.50400001928E-02 0. -1.
    10030    2    1    2    0    0  0.00000000000E+00  0.00000000000E+00  0.35922829793E+03  0.20280233794E+04  0.19959543726E+04 0.  0.
        1    1    3    3  502    0 -0.26782964563E+03  0.72092263091E+02 -0.79444835638E+03  0.84147382874E+03  0.50400001928E-02 0. -1.
       -1    1    3    3    0  502  0.26782964563E+03 -0.72092263091E+02  0.11536766543E+04  0.11865495507E+04  0.50400001928E-02 0.  1.
</event>
<event>
 5   0  0.9333353E-06  0.2000185E+04  0.7818609E-02  0.8606534E-01
        1   -1    0    0  501    0  0.00000000000E+00  0.00000000000E+00  0.24653879631E+04  0.24653879631E+04  0.50400001928E-02 0.  1.
       -1   -1    0    0    0  501  0.00000000000E+00  0.00000000000E+00 -0.40569057127E+03  0.40569057130E+03  0.50400001928E-02 0. -1.
    10030    2    1    2    0    0  0.00000000000E+00  0.00000000000E+00  0.20596973918E+04  0.28710785344E+04  0.20001846427E+04 0.  0.
        2    1    3    3  502    0  0.73390295869E+02 -0.71767513853E+03  0.20240592328E+04  0.21487809376E+04  0.25500000920E-02 0.  1.
       -2    1    3    3    0  502 -0.73390295869E+02  0.71767513853E+03  0.35638159074E+02  0.72229759682E+03  0.25500000920E-02 0. -1.
</event>
<event>
 5   0  0.9140695E-06  0.2000809E+04  0.7818609E-02  0.8606242E-01
        1   -1    0    0  501    0  0.00000000000E+00  0.00000000000E+00  0.14021621105E+04  0.14021621105E+04  0.50400001928E-02 0. -1.
       -1   -1    0    0    0  501  0.00000000000E+00  0.00000000000E+00 -0.71376154120E+03  0.71376154122E+03  0.50400001928E-02 0.  1.
    10030    2    1    2    0    0  0.00000000000E+00  0.00000000000E+00  0.68840056931E+03  0.21159236517E+04  0.20008092253E+04 0.  0.
        1    1    3    3  502    0  0.25401419783E+03  0.11277167492E+03  0.13605166550E+04  0.13886130606E+04  0.50400001928E-02 0. -1.
       -1    1    3    3    0  502 -0.25401419783E+03 -0.11277167492E+03 -0.67211608570E+03  0.72731059118E+03  0.50400001928E-02 0.  1.
</event>
<event>
 5   0  0.9342635E-06  0.2005482E+04  0.7818609E-02  0.8604062E-01
       -1   -1    0    0    0  501  0.00000000000E+00  0.00000000000E+00  0.77550765672E+03  0.77550765674E+03  0.50400001928E-02 0.  1.
        1   -1    0    0  501    0  0.00000000000E+00  0.00000000000E+00 -0.12965563292E+04  0.12965563292E+04  0.50400001928E-02 0. -1.
    10030    2    1    2    0    0  0.00000000000E+00  0.00000000000E+00 -0.52104867252E+03  0.20720639860E+04  0.20054818481E+04 0.  0.
        5    1    3    3  502    0  0.50682114771E+03  0.79586979257E+02 -0.11506761209E+04  0.12598727667E+04  0.46999998093E+01 0. -1.
       -5    1    3    3    0  502 -0.50682114771E+03 -0.79586979257E+02  0.62962744835E+03  0.81219121933E+03  0.46999998093E+01 0.  1.
</event>
<event>
 5   0  0.9333353E-06  0.2001942E+04  0.7818609E-02  0.8605713E-01
       -1   -1    0    0    0  501  0.00000000000E+00  0.00000000000E+00  0.10335350735E+04  0.10335350735E+04  0.50400001928E-02 0. -1.
        1   -1    0    0  501    0  0.00000000000E+00  0.00000000000E+00 -0.96943262609E+03  0.96943262611E+03  0.50400001928E-02 0.  1.
    10030    2    1    2    0    0  0.00000000000E+00  0.00000000000E+00  0.64102447372E+02  0.20029676996E+04  0.20019416779E+04 0.  0.
        2    1    3    3  502    0 -0.47993532282E+02 -0.11089416814E+03  0.10262111885E+04  0.10333006818E+04  0.25500000920E-02 0. -1.
       -2    1    3    3    0  502  0.47993532282E+02  0.11089416814E+03 -0.96210874110E+03  0.96966701778E+03  0.25500000920E-02 0.  1.
</event>
<event>
 5   0  0.1999142E-05  0.1996792E+04  0.7818609E-02  0.8608122E-01
        2   -1    0    0  501    0  0.00000000000E+00  0.00000000000E+00  0.14445787730E+04  0.14445787730E+04  0.25500000920E-02 0. -1.
       -2   -1    0    0    0  501  0.00000000000E+00  0.00000000000E+00 -0.69002424231E+03  0.69002424231E+03  0.25500000920E-02 0.  1.
    10030    2    1    2    0    0  0.00000000000E+00  0.00000000000E+00  0.75455453073E+03  0.21346030154E+04  0.19967918002E+04 0.  0.
        1    1    3    3  502    0  0.50820391983E+03 -0.23886822347E+03 -0.50520533289E+03  0.75535533407E+03  0.50400001928E-02 0.  1.
       -1    1    3    3    0  502 -0.50820391983E+03  0.23886822347E+03  0.12597598636E+04  0.13792476813E+04  0.50400001928E-02 0. -1.
</event>
<event>
 5   0  0.2038882E-05  0.1998852E+04  0.7818609E-02  0.8607158E-01
        2   -1    0    0  501    0  0.00000000000E+00  0.00000000000E+00  0.10502935174E+04  0.10502935174E+04  0.25500000920E-02 0.  1.
       -2   -1    0    0    0  501  0.00000000000E+00  0.00000000000E+00 -0.95102216867E+03  0.95102216868E+03  0.25500000920E-02 0. -1.
    10030    2    1    2    0    0  0.00000000000E+00  0.00000000000E+00  0.99271348693E+02  0.20013156860E+04  0.19988520892E+04 0.  0.
        3    1    3    3  502    0  0.99000624526E+03 -0.84871785149E+02  0.15717766058E+03  0.10059922528E+04  0.10100000352E+00 0. -1.
       -3    1    3    3    0  502 -0.99000624526E+03  0.84871785149E+02 -0.57906311890E+02  0.99532343322E+03  0.10100000352E+00 0.  1.
</event>
<event>
 5   0  0.9140695E-06  0.1996734E+04  0.7818609E-02  0.8608149E-01
        1   -1    0    0  501    0  0.00000000000E+00  0.00000000000E+00  0.13717302463E+04  0.13717302463E+04  0.50400001928E-02 0.  1.
       -1   -1    0    0    0  501  0.00000000000E+00  0.00000000000E+00 -0.72662732967E+03  0.72662732969E+03  0.50400001928E-02 0. -1.
    10030    2    1    2    0    0  0.00000000000E+00  0.00000000000E+00  0.64510291661E+03  0.20983575760E+04  0.19967340193E+04 0.  0.
        1    1    3    3  502    0  0.62106450130E+03 -0.73665805799E+03  0.47806296154E+02  0.96471324815E+03  0.50400001928E-02 0. -1.
       -1    1    3    3    0  502 -0.62106450130E+03  0.73665805799E+03  0.59729662045E+03  0.11336443278E+04  0.50400001928E-02 0.  1.
</event>
<event>
 5   0  0.9333353E-06  0.2003262E+04  0.7818609E-02  0.8605097E-01
       -1   -1    0    0    0  501  0.00000000000E+00  0.00000000000E+00  0.88801507600E+03  0.88801507602E+03  0.50400001928E-02 0. -1.
        1   -1    0    0  501    0  0.00000000000E+00  0.00000000000E+00 -0.11297837012E+04  0.11297837012E+04  0.50400001928E-02 0.  1.
    10030    2    1    2    0    0  0.00000000000E+00  0.00000000000E+00 -0.24176862523E+03  0.20177987773E+04  0.20032622987E+04 0.  0.
        2    1    3    3  502    0  0.11346427864E+03 -0.88063877199E+03 -0.58778451071E+03  0.10648424392E+04  0.25500000920E-02 0.  1.
       -2    1    3    3    0  502 -0.11346427864E+03  0.88063877199E+03  0.34601588548E+03  0.95295633807E+03  0.25500000920E-02 0. -1.
</event>
<event>
 5   0  0.7132000E-06  0.2001546E+04  0.7818609E-02  0.8605898E-01
       -3   -1    0    0    0  501  0.00000000000E+00  0.00000000000E+00  0.19356655850E+04  0.19356655877E+04  0.10100000352E+00 0. -1.
        3   -1    0    0  501    0  0.00000000000E+00  0.00000000000E+00 -0.51741732731E+03  0.51741733717E+03  0.10100000352E+00 0.  1.
    10030    2    1    2    0    0  0.00000000000E+00  0.00000000000E+00  0.14182482577E+04  0.24530829249E+04  0.20015463311E+04 0.  0.
        5    1    3    3  502    0  0.80955223220E+03 -0.39099312991E+02 -0.10354036865E+02  0.81057564053E+03  0.46999998093E+01 0.  1.
       -5    1    3    3    0  502 -0.80955223220E+03  0.39099312991E+02  0.14286022946E+04  0.16425072843E+04  0.46999998093E+01 0. -1.
</event>
<event>
 5   0  0.9140695E-06  0.2000039E+04  0.7818609E-02  0.8606602E-01
       -1   -1    0    0    0  501  0.00000000000E+00  0.00000000000E+00  0.77709356234E+03  0.77709356236E+03  0.50400001928E-02 0.  1.
        1   -1    0    0  501    0  0.00000000000E+00  0.00000000000E+00 -0.12868967291E+04  0.12868967291E+04  0.50400001928E-02 0. -1.
    10030    2    1    2    0    0  0.00000000000E+00  0.00000000000E+00 -0.50980316676E+03  0.20639902915E+04  0.20000391632E+04 0.  0.
        1    1    3    3  502    0 -0.29360975281E+03  0.22358963972E+03 -0.12140500637E+04  0.12689036887E+04  0.50400001928E-02 0. -1.
       -1    1    3    3    0  502  0.29360975281E+03 -0.22358963972E+03  0.70424689698E+03  0.79508660275E+03  0.50400001928E-02 0.  1.
</event>
<event>
 5   0  0.9333353E-06  0.1994633E+04  0.7818609E-02  0.8609134E-01
        1   -1    0    0  501    0  0.00000000000E+00  0.00000000000E+00  0.20560490922E+04  0.20560490922E+04  0.50400001928E-02 0. -1.
       -1   -1    0    0    0  501  0.00000000000E+00  0.00000000000E+00 -0.48376304287E+03  0.48376304290E+03  0.50400001928E-02 0.  1.
    10030    2    1    2    0    0  0.00000000000E+00  0.00000000000E+00  0.15722860493E+04  0.25398121351E+04  0.19946333650E+04 0.  0.
        2    1    3    3  502    0  0.78329523781E+02 -0.91178929420E+03  0.28137799462E+03  0.95742822560E+03  0.25500000920E-02 0.  1.
       -2    1    3    3    0  502 -0.78329523781E+02  0.91178929420E+03  0.12909080547E+04  0.15823839095E+04  0.25500000920E-02 0. -1.
</event>
<event>
 5   0  0.9220260E-06  0.2000340E+04  0.7818609E-02  0.8606462E-01
        1   -1    0    0  501    0  0.00000000000E+00  0.00000000000E+00  0.11296758175E+04  0.11296758176E+04  0.50400001928E-02 0.  1.
       -1   -1    0    0    0  501  0.00000000000E+00  0.00000000000E+00 -0.88551055799E+03  0.88551055800E+03  0.50400001928E-02 0. -1.
    10030    2    1    2    0    0  0.00000000000E+00  0.00000000000E+00  0.24416525956E+03  0.20151863756E+04  0.20003398347E+04 0.  0.
        3    1    3    3  502    0  0.75793875695E+03  0.25848249396E+03  0.72574238481E+03  0.10807341848E+04  0.10100000352E+00 0.  1.
       -3    1    3    3    0  502 -0.75793875695E+03 -0.25848249396E+03 -0.48157712525E+03  0.93445219072E+03  0.10100000352E+00 0. -1.
</event>
<event>
 5   0  0.1999142E-05  0.2005851E+04  0.7818609E-02  0.8603890E-01
       -2   -1    0    0    0  501  0.00000000000E+00  0.00000000000E+00  0.48626944903E+03  0.48626944904E+03  0.25500000920E-02 0. -1.
        2   -1    0    0  501    0  0.00000000000E+00  0.00000000000E+00 -0.20685235961E+04  0.20685235961E+04  0.25500000920E-02 0.  1.
    10030    2    1    2    0    0  0.00000000000E+00  0.00000000000E+00 -0.15822541470E+04  0.25547930451E+04  0.20058512700E+04 0.  0.
        1    1    3    3  502    0  0.12019195741E+03 -0.57530290081E+03  0.24395259672E+03  0.63634299225E+03  0.50400001928E-02 0. -1.
       -1    1    3    3    0  502 -0.12019195741E+03  0.57530290081E+03 -0.18262067437E+04  0.19184500528E+04  0.50400001928E-02 0.  1.
</event>
<event>
 5   0  0.9342635E-06  0.1999856E+04  0.7818609E-02  0.8606688E-01
        1   -1    0    0  501    0  0.00000000000E+00  0.00000000000E+00  0.11615512478E+04  0.11615512479E+04  0.50400001928E-02 0.  1.
       -1   -1    0    0    0  501  0.00000000000E+00  0.00000000000E+00 -0.86079327871E+03  0.86079327873E+03  0.50400001928E-02 0. -1.
    10030    2    1    2    0    0  0.00000000000E+00  0.00000000000E+00  0.30075796914E+03  0.20223445266E+04  0.19998555018E+04 0.  0.
        5    1    3    3  502    0  0.95332685086E+03 -0.26744680266E+03  0.29149587008E+03  0.10321588100E+04  0.46999998093E+01 0.  1.
       -5    1    3    3    0  502 -0.95332685086E+03  0.26744680266E+03  0.92620990610E+01  0.99018571657E+03  0.46999998093E+01 0. -1.
</event>
<event>
 5   0  0.1979765E-05  0.2003795E+04  0.7818609E-02  0.8604848E-01
        2   -1    0    0  501    0  0.00000000000E+00  0.00000000000E+00  0.17364187619E+04  0.17364187619E+04  0.25500000920E-02 0. -1.
       -2   -1    0    0    0  501  0.00000000000E+00  0.00000000000E+00 -0.57808568471E+03  0.57808568472E+03  0.25500000920E-02 0.  1.
    10030    2    1    2    0    0  0.00000000000E+00  0.00000000000E+00  0.11583330772E+04  0.23145044466E+04  0.20037952280E+04 0.  0.
        2    1    3    3  502    0  0.60797248897E+03 -0.38818825044E+03 -0.22397689598E+03  0.75530544487E+03  0.25500000920E-02 0.  1.
       -2    1    3    3    0  502 -0.60797248897E+03  0.38818825044E+03  0.13823099731E+04  0.15591990017E+04  0.25500000920E-02 0. -1.
</event>
<event>
 5   0  0.9333353E-06  0.1999285E+04  0.7818609E-02  0.8606955E-01
        1   -1    0    0  501    0  0.00000000000E+00  0.00000000000E+00  0.11742763553E+04  0.11742763553E+04  0.50400001928E-02 0. -1.
       -1   -1    0    0    0  501  0.00000000000E+00  0.00000000000E+00 -0.85097984347E+03  0.85097984348E+03  0.50400001928E-02 0.  1.
    10030    2    1    2    0    0  0.00000000000E+00  0.00000000000E+00  0.32329651184E+03  0.20252561988E+04  0.19992853814E+04 0.  0.
        2    1    3    3  502    0 -0.20070356706E+03 -0.31798035896E+03  0.10999045976E+04  0.11624042130E+04  0.25500000920E-02 0. -1.
       -2    1    3    3    0  502  0.20070356706E+03  0.31798035896E+03 -0.77660808577E+03  0.86285198581E+03  0.25500000920E-02 0.  1.
</event>
<event>
 5   0  0.2038882E-05  0.2000769E+04  0.7818609E-02  0.8606261E-01
       -2   -1    0    0    0  501  0.00000000000E+00  0.00000000000E+00  0.66712528092E+03  0.66712528093E+03  0.25500000920E-02 0.  1.
        2   -1    0    0  501    0  0.00000000000E+00  0.00000000000E+00 -0.15001210114E+04  0.15001210114E+04  0.25500000920E-02 0. -1.
    10030    2    1    2    0    0  0.00000000000E+00  0.00000000000E+00 -0.83299573047E+03  0.21672462923E+04  0.20007685035E+04 0.  0.
        3    1    3    3  502    0  0.19305132465E+03  0.98069997341E+03 -0.46151797201E+03  0.11009269279E+04  0.10100000352E+00 0. -1.
       -3    1    3    3    0  502 -0.19305132465E+03 -0.98069997341E+03 -0.37147775846E+03  0.10663193645E+04  0.10100000352E+00 0.  1.
</event>
<event>
 5   0  0.9140695E-06  0.1999505E+04  0.7818609E-02  0.8606852E-01
        1   -1    0    0  501    0  0.00000000000E+00  0.00000000000E+00  0.74872623614E+03  0.74872623615E+03  0.50400001928E-02 0. -1.
       -1   -1    0    0    0  501  0.00000000000E+00  0.00000000000E+00 -0.13349403088E+04  0.13349403088E+04  0.50400001928E-02 0.  1.
    10030    2    1    2    0    0  0.00000000000E+00  0.00000000000E+00 -0.58621407269E+03  0.20836665450E+04  0.19995047716E+04 0.  0.
        1    1    3    3  502    0 -0.43819373230E+02 -0.53154950105E+03 -0.11742997328E+04  0.12897460495E+04  0.50400001928E-02 0.  1.
       -1    1    3    3    0  502  0.43819373230E+02  0.53154950105E+03  0.58808566015E+03  0.79392049553E+03  0.50400001928E-02 0. -1.
</event>
<event>
 5   0  0.2038882E-05  0.1997983E+04  0.7818609E-02  0.8607564E-01
        2   -1    0    0  501    0  0.00000000000E+00  0.00000000000E+00  0.20104022860E+04  0.20104022860E+04  0.25500000920E-02 0. -1.
       -2   -1    0    0    0  501  0.00000000000E+00  0.00000000000E+00 -0.49641012897E+03  0.49641012898E+03  0.25500000920E-02 0.  1.
    10030    2    1    2    0    0  0.00000000000E+00  0.00000000000E+00  0.15139921570E+04  0.25068124149E+04  0.19979830410E+04 0.  0.
        3    1    3    3  502    0 -0.34942918305E+03 -0.25491072662E+03  0.18868302642E+04  0.19357708255E+04  0.10100000352E+00 0. -1.
       -3    1    3    3    0  502  0.34942918305E+03  0.25491072662E+03 -0.37283810724E+03  0.57104158948E+03  0.10100000352E+00 0.  1.
</event>
<event>
 5   0  0.9220260E-06  0.1998911E+04  0.7818609E-02  0.8607130E-01
       -1   -1    0    0    0  501  0.00000000000E+00  0.00000000000E+00  0.74721083949E+03  0.74721083950E+03  0.50400001928E-02 0. -1.
        1   -1    0    0  501    0  0.00000000000E+00  0.00000000000E+00 -0.13368527279E+04  0.13368527279E+04  0.50400001928E-02 0.  1.
    10030    2    1    2    0    0  0.00000000000E+00  0.00000000000E+00 -0.58964188841E+03  0.20840635674E+04  0.19989105524E+04 0.  0.
        3    1    3    3  502    0 -0.48631339599E+03 -0.86594922489E+03 -0.17805880775E+03  0.10089963966E+04  0.10100000352E+00 0.  1.
       -3    1    3    3    0  502  0.48631339599E+03  0.86594922489E+03 -0.41158308066E+03  0.10750671708E+04  0.10100000352E+00 0. -1.
</event>
<event>
 5   0  0.9342635E-06  0.2005087E+04  0.7818609E-02  0.8604246E-01
        1   -1    0    0  501    0  0.00000000000E+00  0.00000000000E+00  0.23526732400E+04  0.23526732400E+04  0.50400001928E-02 0. -1.
       -1   -1    0    0    0  501  0.00000000000E+00  0.00000000000E+00 -0.42721344484E+03  0.42721344487E+03  0.50400001928E-02 0.  1.
    10030    2    1    2    0    0  0.00000000000E+00  0.00000000000E+00  0.19254597952E+04  0.27798866849E+04  0.20050871697E+04 0.  0.
        5    1    3    3  502    0  0.85278314006E+03  0.26541760618E+03  0.33136052466E+03  0.95263186853E+03  0.46999998093E+01 0.  1.
       -5    1    3    3    0  502 -0.85278314006E+03 -0.26541760618E+03  0.15940992705E+04  0.18272548164E+04  0.46999998093E+01 0. -1.
</event>
<event>
 5   0  0.9220260E-06  0.2001817E+04  0.7818609E-02  0.8605772E-01
       -1   -1    0    0    0  501  0.00000000000E+00  0.00000000000E+00  0.76727802110E+03  0.76727802112E+03  0.50400001928E-02 0. -1.
        1   -1    0    0  501    0  0.00000000000E+00  0.00000000000E+00 -0.13056774405E+04  0.13056774405E+04  0.50400001928E-02 0.  1.
    10030    2    1    2    0    0  0.00000000000E+00  0.00000000000E+00 -0.53839941940E+03  0.20729554616E+04  0.20018167776E+04 0.  0.
        3    1    3    3  502    0  0.69027753970E+03  0.53282853124E+03 -0.77801447414E+03  0.11686299062E+04  0.10100000352E+00 0.  1.
       -3    1    3    3    0  502 -0.69027753970E+03 -0.53282853124E+03  0.23961505474E+03  0.90432555541E+03  0.10100000352E+00 0. -1.
</event>
<event>
 5   0  0.2020029E-05  0.1998216E+04  0.7818609E-02  0.8607455E-01
        2   -1    0    0  501    0  0.00000000000E+00  0.00000000000E+00  0.94079283960E+03  0.94079283960E+03  0.25500000920E-02 0. -1.
       -2   -1    0    0    0  501  0.00000000000E+00  0.00000000000E+00 -0.10610374526E+04  0.10610374526E+04  0.25500000920E-02 0.  1.
    10030    2    1    2    0    0  0.00000000000E+00  0.00000000000E+00 -0.12024461302E+03  0.20018302922E+04  0.19982156420E+04 0.  0.
        5    1    3    3  502    0 -0.67070170743E+03  0.40265970665E+03  0.56246687130E+03  0.96351787270E+03  0.46999998093E+01 0. -1.
       -5    1    3    3    0  502  0.67070170743E+03 -0.40265970665E+03 -0.68271148433E+03  0.10383124195E+04  0.46999998093E+01 0.  1.
</event>
<event>
 5   0  0.1999142E-05  0.2000303E+04  0.7818609E-02  0.8606479E-01
       -2   -1    0    0    0  501  0.00000000000E+00  0.00000000000E+00  0.67049440796E+03  0.67049440797E+03  0.25500000920E-02 0.  1.
        2   -1    0    0  501    0  0.00000000000E+00  0.00000000000E+00 -0.14918893379E+04  0.14918893379E+04  0.25500000920E-02 0. -1.
    10030    2    1    2    0    0  0.00000000000E+00  0.00000000000E+00 -0.82139492992E+03  0.21623837459E+04  0.20003034353E+04 0.  0.
        1    1    3    3  502    0 -0.51315050323E+03  0.53743574613E+03  0.31298011408E+03  0.80629843856E+03  0.50400001928E-02 0.  1.
       -1    1    3    3    0  502  0.51315050323E+03 -0.53743574613E+03 -0.11343750440E+04  0.13560853073E+04  0.50400001928E-02 0. -1.
</event>
<event>
 5   0  0.1999142E-05  0.2000832E+04  0.7818609E-02  0.8606232E-01
        2   -1    0    0  501    0  0.00000000000E+00  0.00000000000E+00  0.22038596436E+04  0.22038596436E+04  0.25500000920E-02 0. -1.
       -2   -1    0    0    0  501  0.00000000000E+00  0.00000000000E+00 -0.45412680930E+03  0.45412680931E+03  0.25500000920E-02 0.  1.
    10030    2    1    2    0    0  0.00000000000E+00  0.00000000000E+00  0.17497328343E+04  0.26579864529E+04  0.20008315752E+04 0.  0.
        1    1    3    3  502    0  0.31006884513E+03  0.95099429904E+03  0.89783356409E+03  0.13441123295E+04  0.50400001928E-02 0.  1.
       -1    1    3    3    0  502 -0.31006884513E+03 -0.95099429904E+03  0.85189927022E+03  0.13138741234E+04  0.50400001928E-02 0. -1.
</event>
<event>
 5   0  0.9333353E-06  0.1998743E+04  0.7818609E-02  0.8607208E-01
       -1   -1    0    0    0  501  0.00000000000E+00  0.00000000000E+00  0.82408400312E+03  0.82408400313E+03  0.50400001928E-02 0. -1.
        1   -1    0    0  501    0  0.00000000000E+00  0.00000000000E+00 -0.12119442422E+04  0.12119442422E+04  0.50400001928E-02 0.  1.
    10030    2    1    2    0    0  0.00000000000E+00  0.00000000000E+00 -0.38786023905E+03  0.20360282453E+04  0.19987434679E+04 0.  0.
        2    1    3    3  502    0 -0.90125861782E+03 -0.13565557354E+03  0.22368617713E+03  0.93845886254E+03  0.25500000920E-02 0. -1.
       -2    1    3    3    0  502  0.90125861782E+03  0.13565557354E+03 -0.61154641618E+03  0.10975693828E+04  0.25500000920E-02 0.  1.
</event>
<event>
 5   0  0.7132000E-06  0.2002121E+04  0.7818609E-02  0.8605630E-01
        4   -1    0    0  501    0  0.00000000000E+00  0.00000000000E+00  0.89041434264E+03  0.89041524834E+03  0.12699999809E+01 0. -1.
       -4   -1    0    0    0  501  0.00000000000E+00  0.00000000000E+00 -0.11254540056E+04  0.11254547221E+04  0.12699999809E+01 0.  1.
    10030    2    1    2    0    0  0.00000000000E+00  0.00000000000E+00 -0.23503966292E+03  0.20158699705E+04  0.20021208991E+04 0.  0.
        5    1    3    3  502    0 -0.30387136800E+03 -0.39942152314E+03 -0.98962298851E+03  0.11096175516E+04  0.46999998093E+01 0.  1.
       -5    1    3    3    0  502  0.30387136800E+03  0.39942152314E+03  0.75458332558E+03  0.90625241886E+03  0.46999998093E+01 0. -1.
</event>
<event>
 5   0  0.1979765E-05  0.2002316E+04  0.7818609E-02  0.8605539E-01
       -2   -1    0    0    0  501  0.00000000000E+00  0.00000000000E+00  0.12400851955E+04  0.12400851955E+04  0.25500000920E-02 0. -1.
        2   -1    0    0  501    0  0.00000000000E+00  0.00000000000E+00 -0.80826472916E+03  0.80826472917E+03  0.25500000920E-02 0.  1.
    10030    2    1    2    0    0  0.00000000000E+00  0.00000000000E+00  0.43182046636E+03  0.20483499247E+04  0.20023157840E+04 0.  0.
        2    1    3    3  502    0 -0.57682005759E+03  0.81130319286E+03  0.32505365488E+03  0.10471839037E+04  0.25500000920E-02 0.  1.
       -2    1    3    3    0  502  0.57682005759E+03 -0.81130319286E+03  0.10676681149E+03  0.10011660210E+04  0.25500000920E-02 0. -1.
</event>
<event>
 5   0  0.9342635E-06  0.2005861E+04  0.7818609E-02  0.8603885E-01
        1   -1    0    0  501    0  0.00000000000E+00  0.00000000000E+00  0.17249713048E+04  0.17249713048E+04  0.50400001928E-02 0. -1.
       -1   -1    0    0    0  501  0.00000000000E+00  0.00000000000E+00 -0.58312244732E+03  0.58312244734E+03  0.50400001928E-02 0.  1.
    10030    2    1    2    0    0  0.00000000000E+00  0.00000000000E+00  0.11418488575E+04  0.23080937522E+04  0.20058609013E+04 0.  0.
        5    1    3    3  502    0  0.95791453295E+03 -0.22410778755E+03  0.34654918258E+03  0.10430450512E+04  0.46999998093E+01 0.  1.
       -5    1    3    3    0  502 -0.95791453295E+03  0.22410778755E+03  0.79529967491E+03  0.12650487010E+04  0.46999998093E+01 0. -1.
</event>
<event>
 5   0  0.9370269E-06  0.2005174E+04  0.7818609E-02  0.8604205E-01
        1   -1    0    0  501    0  0.00000000000E+00  0.00000000000E+00  0.10346089959E+04  0.10346089959E+04  0.50400001928E-02 0.  1.
       -1   -1    0    0    0  501  0.00000000000E+00  0.00000000000E+00 -0.97155646397E+03  0.97155646398E+03  0.50400001928E-02 0. -1.
    10030    2    1    2    0    0  0.00000000000E+00  0.00000000000E+00  0.63052531953E+02  0.20061654599E+04  0.20051743642E+04 0.  0.
        4    1    3    3  502    0  0.29557460900E+03  0.92946994528E+03  0.26380629572E+03  0.10103831467E+04  0.12699999809E+01 0.  1.
       -4    1    3    3    0  502 -0.29557460900E+03 -0.92946994528E+03 -0.20075376377E+03  0.99578231317E+03  0.12699999809E+01 0. -1.
</event>
<event>
 5   0  0.9220260E-06  0.2008050E+04  0.7818609E-02  0.8602866E-01
        1   -1    0    0  501    0  0.00000000000E+00  0.00000000000E+00  0.76514236596E+03  0.76514236598E+03  0.50400001928E-02 0. -1.
       -1   -1    0    0    0  501  0.00000000000E+00  0.00000000000E+00 -0.13174884251E+04  0.13174884251E+04  0.50400001928E-02 0.  1.
    10030    2    1    2    0    0  0.00000000000E+00  0.00000000000E+00 -0.55234605914E+03  0.20826307911E+04  0.20080500101E+04 0.  0.
        3    1    3    3  502    0 -0.51104433358E+03 -0.14257831887E+03  0.60787708275E+03  0.80685156369E+03  0.10100000352E+00 0. -1.
       -3    1    3    3    0  502  0.51104433358E+03  0.14257831887E+03 -0.11602231419E+04  0.12757792274E+04  0.10100000352E+00 0.  1.
</event>
<event>
 5   0  0.9342635E-06  0.2005496E+04  0.7818609E-02  0.8604055E-01
        1   -1    0    0  501    0  0.00000000000E+00  0.00000000000E+00  0.12729382728E+04  0.12729382729E+04  0.50400001928E-02 0.  1.
       -1   -1    0    0    0  501  0.00000000000E+00  0.00000000000E+00 -0.78990753535E+03  0.78990753537E+03  0.50400001928E-02 0. -1.
    10030    2    1    2    0    0  0.00000000000E+00  0.00000000000E+00  0.48303073749E+03  0.20628458082E+04  0.20054959823E+04 0.  0.
        5    1    3    3  502    0 -0.91166360406E+03 -0.37769730858E+03  0.58391535852E+02  0.98854309230E+03  0.46999998093E+01 0. -1.
       -5    1    3    3    0  502  0.91166360406E+03  0.37769730858E+03  0.42463920164E+03  0.10743027159E+04  0.46999998093E+01 0.  1.
</event>
<event>
 5   0  0.1979765E-05  0.1997583E+04  0.7818609E-02  0.8607752E-01
        2   -1    0    0  501    0  0.00000000000E+00  0.00000000000E+00  0.11375730196E+04  0.11375730197E+04  0.25500000920E-02 0. -1.
       -2   -1    0    0    0  501  0.00000000000E+00  0.00000000000E+00 -0.87694062769E+03  0.87694062769E+03  0.25500000920E-02 0.  1.
    10030    2    1    2    0    0  0.00000000000E+00  0.00000000000E+00  0.26063239196E+03  0.20145136473E+04  0.19975825369E+04 0.  0.
        2    1    3    3  502    0 -0.54647376882E+03 -0.60084363374E+03 -0.45593477559E+03  0.93140923971E+03  0.25500000920E-02 0.  1.
       -2    1    3    3    0  502  0.54647376882E+03  0.60084363374E+03  0.71656716755E+03  0.10831044076E+04  0.25500000920E-02 0. -1.
</event>
<event>
 5   0  0.1979765E-05  0.2000331E+04  0.7818609E-02  0.8606466E-01
        2   -1    0    0  501    0  0.00000000000E+00  0.00000000000E+00  0.11448177021E+04  0.11448177021E+04  0.25500000920E-02 0. -1.
       -2   -1    0    0    0  501  0.00000000000E+00  0.00000000000E+00 -0.87379062834E+03  0.87379062835E+03  0.25500000920E-02 0.  1.
    10030    2    1    2    0    0  0.00000000000E+00  0.00000000000E+00  0.27102707372E+03  0.20186083304E+04  0.20003309519E+04 0.  0.
        2    1    3    3  502    0 -0.62680397111E+03 -0.45701138756E+03 -0.50159365577E+03  0.92376340157E+03  0.25500000920E-02 0.  1.
       -2    1    3    3    0  502  0.62680397111E+03  0.45701138756E+03  0.77262072950E+03  0.10948449288E+04  0.25500000920E-02 0. -1.
</event>
<event>
 5   0  0.9370269E-06  0.1999956E+04  0.7818609E-02  0.8606641E-01
       -1   -1    0    0    0  501  0.00000000000E+00  0.00000000000E+00  0.11044584946E+04  0.11044584946E+04  0.50400001928E-02 0.  1.
        1   -1    0    0  501    0  0.00000000000E+00  0.00000000000E+00 -0.90538079811E+03  0.90538079812E+03  0.50400001928E-02 0. -1.
    10030    2    1    2    0    0  0.00000000000E+00  0.00000000000E+00  0.19907769649E+03  0.20098392927E+04  0.19999555129E+04 0.  0.
        4    1    3    3  502    0 -0.57610795129E+02 -0.12006770397E+03 -0.89642846100E+03  0.90626754099E+03  0.12699999809E+01 0. -1.
       -4    1    3    3    0  502  0.57610795129E+02  0.12006770397E+03  0.10955061575E+04  0.11035717517E+04  0.12699999809E+01 0.  1.
</event>
<event>
 5   0  0.9140695E-06  0.2000080E+04  0.7818609E-02  0.8606583E-01
        1   -1    0    0  501    0  0.00000000000E+00  0.00000000000E+00  0.58869864004E+03  0.58869864006E+03  0.50400001928E-02 0.  1.
       -1   -1    0    0    0  501  0.00000000000E+00  0.00000000000E+00 -0.16987984906E+04  0.16987984906E+04  0.50400001928E-02 0. -1.
    10030    2    1    2    0    0  0.00000000000E+00  0.00000000000E+00 -0.11100998506E+04  0.22874971307E+04  0.20000803595E+04 0.  0.
        1    1    3    3  502    0  0.26033599340E+03  0.91327420266E+03 -0.19658396395E+03  0.96978856129E+03  0.50400001928E-02 0.  1.
       -1    1    3    3    0  502 -0.26033599340E+03 -0.91327420266E+03 -0.91351588662E+03  0.13177085694E+04  0.50400001928E-02 0. -1.
</event>
<event>
 5   0  0.9140695E-06  0.1999870E+04  0.7818609E-02  0.8606681E-01
        1   -1    0    0  501    0  0.00000000000E+00  0.00000000000E+00  0.16636111014E+04  0.16636111014E+04  0.50400001928E-02 0.  1.
       -1   -1    0    0    0  501  0.00000000000E+00  0.00000000000E+00 -0.60102409822E+03  0.60102409824E+03  0.50400001928E-02 0. -1.
    10030    2    1    2    0    0  0.00000000000E+00  0.00000000000E+00  0.10625870032E+04  0.22646351997E+04  0.19998703579E+04 0.  0.
        1    1    3    3  502    0  0.20061624457E+02 -0.45264913085E+03 -0.47810884802E+03  0.65869702824E+03  0.50400001928E-02 0. -1.
       -1    1    3    3    0  502 -0.20061624457E+02  0.45264913085E+03  0.15406958512E+04  0.16059381714E+04  0.50400001928E-02 0.  1.
</event>
<event>
 5   0  0.7132000E-06  0.2008402E+04  0.7818609E-02  0.8602703E-01
        3   -1    0    0  501    0  0.00000000000E+00  0.00000000000E+00  0.53550564594E+03  0.53550565546E+03  0.10100000352E+00 0. -1.
       -3   -1    0    0    0  501  0.00000000000E+00  0.00000000000E+00 -0.18831165157E+04  0.18831165184E+04  0.10100000352E+00 0.  1.
    10030    2    1    2    0    0  0.00000000000E+00  0.00000000000E+00 -0.13476108698E+04  0.24186221739E+04  0.20084018930E+04 0.  0.
        5    1    3    3  502    0  0.88576776166E+03  0.41580069366E+03 -0.40205318584E+03  0.10578958355E+04  0.46999998093E+01 0. -1.
       -5    1    3    3    0  502 -0.88576776166E+03 -0.41580069366E+03 -0.94555768393E+03  0.13607263384E+04  0.46999998093E+01 0.  1.
</event>
<event>
 5   0  0.9342635E-06  0.1999966E+04  0.7818609E-02  0.8606637E-01
        1   -1    0    0  501    0  0.00000000000E+00  0.00000000000E+00  0.11414634788E+04  0.11414634788E+04  0.50400001928E-02 0.  1.
       -1   -1    0    0    0  501  0.00000000000E+00  0.00000000000E+00 -0.87603837415E+03  0.87603837417E+03  0.50400001928E-02 0. -1.
    10030    2    1    2    0    0  0.00000000000E+00  0.00000000000E+00  0.26542510463E+03  0.20175018530E+04  0.19999658098E+04 0.  0.
        5    1    3    3  502    0 -0.69801624065E+03  0.71432862169E+03  0.82764079485E+02  0.10021796420E+04  0.46999998093E+01 0.  1.
       -5    1    3    3    0  502  0.69801624065E+03 -0.71432862169E+03  0.18266102514E+03  0.10153222110E+04  0.46999998093E+01 0. -1.
</event>
<event>
 5   0  0.1999142E-05  0.2001589E+04  0.7818609E-02  0.8605878E-01
       -2   -1    0    0    0  501  0.00000000000E+00  0.00000000000E+00  0.57316866015E+03  0.57316866016E+03  0.25500000920E-02 0.  1.
        2   -1    0    0  501    0  0.00000000000E+00  0.00000000000E+00 -0.17474599415E+04  0.17474599415E+04  0.25500000920E-02 0. -1.
    10030    2    1    2    0    0  0.00000000000E+00  0.00000000000E+00 -0.11742912814E+04  0.23206286017E+04  0.20015886424E+04 0.  0.
        1    1    3    3  502    0 -0.18288044190E+01  0.42034191556E+02 -0.17464341132E+04  0.17469408489E+04  0.50400001928E-02 0. -1.
       -1    1    3    3    0  502  0.18288044190E+01 -0.42034191556E+02  0.57214283177E+03  0.57368775284E+03  0.50400001928E-02 0.  1.
</event>
<event>
 5   0  0.2038882E-05  0.2003115E+04  0.7818609E-02  0.8605166E-01
        2   -1    0    0  501    0  0.00000000000E+00  0.00000000000E+00  0.14272205519E+04  0.14272205519E+04  0.25500000920E-02 0.  1.
       -2   -1    0    0    0  501  0.00000000000E+00  0.00000000000E+00 -0.70284699364E+03  0.70284699365E+03  0.25500000920E-02 0. -1.
    10030    2    1    2    0    0  0.00000000000E+00  0.00000000000E+00  0.72437355824E+03  0.21300675455E+04  0.20031152480E+04 0.  0.
        3    1    3    3  502    0  0.32854992491E+02  0.10006388041E+04  0.39150587557E+03  0.10750043384E+04  0.10100000352E+00 0.  1.
       -3    1    3    3    0  502 -0.32854992491E+02 -0.10006388041E+04  0.33286768267E+03  0.10550632072E+04  0.10100000352E+00 0. -1.
</event>
<event>
 5   0  0.1999142E-05  0.1991145E+04  0.7818609E-02  0.8610772E-01
       -2   -1    0    0    0  501  0.00000000000E+00  0.00000000000E+00  0.49722277519E+03  0.49722277520E+03  0.25500000920E-02 0.  1.
        2   -1    0    0  501    0  0.00000000000E+00  0.00000000000E+00 -0.19934023051E+04  0.19934023051E+04  0.25500000920E-02 0. -1.
    10030    2    1    2    0    0  0.00000000000E+00  0.00000000000E+00 -0.14961795299E+04  0.24906250803E+04  0.19911454253E+04 0.  0.
        1    1    3    3  502    0  0.71063185734E+03 -0.35390528815E+03  0.33772294264E+01  0.79388789848E+03  0.50400001928E-02 0.  1.
       -1    1    3    3    0  502 -0.71063185734E+03  0.35390528815E+03 -0.14995567593E+04  0.16967371818E+04  0.50400001928E-02 0. -1.
</event>
<event>
 5   0  0.2038882E-05  0.2001183E+04  0.7818609E-02  0.8606068E-01
        2   -1    0    0  501    0  0.00000000000E+00  0.00000000000E+00  0.12297850626E+04  0.12297850626E+04  0.25500000920E-02 0. -1.
       -2   -1    0    0    0  501  0.00000000000E+00  0.00000000000E+00 -0.81411275697E+03  0.81411275697E+03  0.25500000920E-02 0.  1.
    10030    2    1    2    0    0  0.00000000000E+00  0.00000000000E+00  0.41567230566E+03  0.20438978196E+04  0.20011833577E+04 0.  0.
        3    1    3    3  502    0  0.68319925535E+03  0.70540431149E+03  0.40383649936E+03  0.10618099612E+04  0.10100000352E+00 0. -1.
       -3    1    3    3    0  502 -0.68319925535E+03 -0.70540431149E+03  0.11835806302E+02  0.98208785844E+03  0.10100000352E+00 0.  1.
</event>
<event>
 5   0  0.2020029E-05  0.1998371E+04  0.7818609E-02  0.8607383E-01
        2   -1    0    0  501    0  0.00000000000E+00  0.00000000000E+00  0.18031508582E+04  0.18031508582E+04  0.25500000920E-02 0. -1.
       -2   -1    0    0    0  501  0.00000000000E+00  0.00000000000E+00 -0.55368175440E+03  0.55368175441E+03  0.25500000920E-02 0.  1.
    10030    2    1    2    0    0  0.00000000000E+00  0.00000000000E+00  0.12494691038E+04  0.23568326127E+04  0.19983710673E+04 0.  0.
        5    1    3    3  502    0  0.96838378793E+03 -0.22635736269E+03  0.51072580420E+03  0.11179748447E+04  0.46999998093E+01 0.  1.
       -5    1    3    3    0  502 -0.96838378793E+03  0.22635736269E+03  0.73874329964E+03  0.12388577679E+04  0.46999998093E+01 0. -1.
</event>
<event>
 5   0  0.7132000E-06  0.2003302E+04  0.7818609E-02  0.8605078E-01
        4   -1    0    0  501    0  0.00000000000E+00  0.00000000000E+00  0.12942457192E+04  0.12942463423E+04  0.12699999809E+01 0. -1.
       -4   -1    0    0    0  501  0.00000000000E+00  0.00000000000E+00 -0.77520314942E+03  0.77520418972E+03  0.12699999809E+01 0.  1.
    10030    2    1    2    0    0  0.00000000000E+00  0.00000000000E+00  0.51904256981E+03  0.20694505321E+04  0.20033023525E+04 0.  0.
        3    1    3    3  502    0 -0.86173572144E+02  0.40966249521E+03 -0.68050144832E+03  0.79895649186E+03  0.10100000352E+00 0.  1.
       -3    1    3    3    0  502  0.86173572144E+02 -0.40966249521E+03  0.11995440181E+04  0.12704940402E+04  0.10100000352E+00 0. -1.
</event>
<event>
 5   0  0.9140695E-06  0.1997549E+04  0.7818609E-02  0.8607768E-01
       -1   -1    0    0    0  501  0.00000000000E+00  0.00000000000E+00  0.41350686740E+03  0.41350686743E+03  0.50400001928E-02 0. -1.
        1   -1    0    0  501    0  0.00000000000E+00  0.00000000000E+00 -0.24124147660E+04  0.24124147660E+04  0.50400001928E-02 0.  1.
    10030    2    1    2    0    0  0.00000000000E+00  0.00000000000E+00 -0.19989078986E+04  0.28259216334E+04  0.19975485704E+04 0.  0.
        1    1    3    3  502    0  0.48834752201E+02  0.95819119831E+02  0.40529166796E+03  0.41931786617E+03  0.50400001928E-02 0. -1.
       -1    1    3    3    0  502 -0.48834752201E+02 -0.95819119831E+02 -0.24041995666E+04  0.24066037673E+04  0.50400001928E-02 0.  1.
</event>
<event>
 5   0  0.1999142E-05  0.2001751E+04  0.7818609E-02  0.8605803E-01
       -2   -1    0    0    0  501  0.00000000000E+00  0.00000000000E+00  0.70949778145E+03  0.70949778145E+03  0.25500000920E-02 0. -1.
        2   -1    0    0  501    0  0.00000000000E+00  0.00000000000E+00 -0.14119162963E+04  0.14119162963E+04  0.25500000920E-02 0.  1.
    10030    2    1    2    0    0  0.00000000000E+00  0.00000000000E+00 -0.70241851487E+03  0.21214140778E+04  0.20017507136E+04 0.  0.
        1    1    3    3  502    0 -0.65554113659E+02 -0.43031484502E+03  0.60393552870E+03  0.74445035463E+03  0.50400001928E-02 0. -1.
       -1    1    3    3    0  502  0.65554113659E+02  0.43031484502E+03 -0.13063540436E+04  0.13769637231E+04  0.50400001928E-02 0.  1.
</event>
<event>
 5   0  0.9220260E-06  0.1998205E+04  0.7818609E-02  0.8607461E-01
        1   -1    0    0  501    0  0.00000000000E+00  0.00000000000E+00  0.12068954382E+04  0.12068954382E+04  0.50400001928E-02 0. -1.
       -1   -1    0    0    0  501  0.00000000000E+00  0.00000000000E+00 -0.82708527365E+03  0.82708527366E+03  0.50400001928E-02 0.  1.
    10030    2    1    2    0    0  0.00000000000E+00  0.00000000000E+00  0.37981016456E+03  0.20339807119E+04  0.19982046380E+04 0.  0.
        3    1    3    3  502    0  0.59342570662E+03 -0.38242435204E+03 -0.52971999293E+03  0.88261301566E+03  0.10100000352E+00 0.  1.
       -3    1    3    3    0  502 -0.59342570662E+03  0.38242435204E+03  0.90953015749E+03  0.11513676962E+04  0.10100000352E+00 0. -1.
</event>
<event>
 5   0  0.9333353E-06  0.1999271E+04  0.7818609E-02  0.8606962E-01
       -1   -1    0    0    0  501  0.00000000000E+00  0.00000000000E+00  0.75433209921E+03  0.75433209923E+03  0.50400001928E-02 0. -1.
        1   -1    0    0  501    0  0.00000000000E+00  0.00000000000E+00 -0.13247093325E+04  0.13247093325E+04  0.50400001928E-02 0.  1.
    10030    2    1    2    0    0  0.00000000000E+00  0.00000000000E+00 -0.57037723332E+03  0.20790414318E+04  0.19992706387E+04 0.  0.
        2    1    3    3  502    0  0.31887798747E+03 -0.85372701451E+03 -0.71235565016E+03  0.11567123923E+04  0.25500000920E-02 0.  1.
       -2    1    3    3    0  502 -0.31887798747E+03  0.85372701451E+03  0.14197841684E+03  0.92232903947E+03  0.25500000920E-02 0. -1.
</event>
<event>
 5   0  0.9370269E-06  0.2002958E+04  0.7818609E-02  0.8605239E-01
        1   -1    0    0  501    0  0.00000000000E+00  0.00000000000E+00  0.22359899403E+04  0.22359899403E+04  0.50400001928E-02 0. -1.
       -1   -1    0    0    0  501  0.00000000000E+00  0.00000000000E+00 -0.44855321792E+03  0.44855321794E+03  0.50400001928E-02 0.  1.
    10030    2    1    2    0    0  0.00000000000E+00  0.00000000000E+00  0.17874367223E+04  0.26845431582E+04  0.20029582951E+04 0.  0.
        4    1    3    3  502    0  0.46083580587E+03  0.71239446733E+03  0.18060980197E+03  0.86746586707E+03  0.12699999809E+01 0.  1.
       -4    1    3    3    0  502 -0.46083580587E+03 -0.71239446733E+03  0.16068269204E+04  0.18170772911E+04  0.12699999809E+01 0. -1.
</event>
<event>
 5   0  0.2003576E-05  0.1997525E+04  0.7818609E-02  0.8607778E-01
       -2   -1    0    0    0  501  0.00000000000E+00  0.00000000000E+00  0.88755987467E+03  0.88755987467E+03  0.25500000920E-02 0. -1.
        2   -1    0    0  501    0  0.00000000000E+00  0.00000000000E+00 -0.11238982281E+04  0.11238982281E+04  0.25500000920E-02 0.  1.
    10030    2    1    2    0    0  0.00000000000E+00  0.00000000000E+00 -0.23633835341E+03  0.20114581027E+04  0.19975254396E+04 0.  0.
        4    1    3    3  502    0  0.12985897174E+01 -0.64799070839E+03 -0.88349115658E+03  0.10956513502E+04  0.12699999809E+01 0.  1.
       -4    1    3    3    0  502 -0.12985897174E+01  0.64799070839E+03  0.64715280317E+03  0.91580675257E+03  0.12699999809E+01 0. -1.
</event>
<event>
 5   0  0.9342635E-06  0.2000272E+04  0.7818609E-02  0.8606493E-01
        1   -1    0    0  501    0  0.00000000000E+00  0.00000000000E+00  0.66773651409E+03  0.66773651411E+03  0.50400001928E-02 0.  1.
       -1   -1    0    0    0  501  0.00000000000E+00  0.00000000000E+00 -0.14980042704E+04  0.14980042704E+04  0.50400001928E-02 0. -1.
    10030    2    1    2    0    0  0.00000000000E+00  0.00000000000E+00 -0.83026775631E+03  0.21657407845E+04  0.20002721311E+04 0.  0.
        5    1    3    3  502    0  0.90444747028E+03  0.38348601439E+03 -0.21210291955E+03  0.10050355656E+04  0.46999998093E+01 0.  1.
       -5    1    3    3    0  502 -0.90444747028E+03 -0.38348601439E+03 -0.61816483676E+03  0.11607052189E+04  0.46999998093E+01 0. -1.
</event>
<event>
 5   0  0.9342635E-06  0.1997433E+04  0.7818609E-02  0.8607822E-01
       -1   -1    0    0    0  501  0.00000000000E+00  0.00000000000E+00  0.85764838996E+03  0.85764838997E+03  0.50400001928E-02 0.  1.
        1   -1    0    0  501    0  0.00000000000E+00  0.00000000000E+00 -0.11629881271E+04  0.11629881271E+04  0.50400001928E-02 0. -1.
    10030    2    1    2    0    0  0.00000000000E+00  0.00000000000E+00 -0.30533973718E+03  0.20206365171E+04  0.19974332478E+04 0.  0.
        5    1    3    3  502    0  0.10282836681E+03  0.71281665570E+03  0.54727195786E+03  0.90454958046E+03  0.46999998093E+01 0.  1.
       -5    1    3    3    0  502 -0.10282836681E+03 -0.71281665570E+03 -0.85261169504E+03  0.11160869367E+04  0.46999998093E+01 0. -1.
</event>
<event>
 5   0  0.9342635E-06  0.1975211E+04  0.7818609E-02  0.8618299E-01
       -1   -1    0    0    0  501  0.00000000000E+00  0.00000000000E+00  0.10832239324E+04  0.10832239325E+04  0.50400001928E-02 0.  1.
        1   -1    0    0  501    0  0.00000000000E+00  0.00000000000E+00 -0.90042782876E+03  0.90042782878E+03  0.50400001928E-02 0. -1.
    10030    2    1    2    0    0  0.00000000000E+00  0.00000000000E+00  0.18279610368E+03  0.19836517612E+04  0.19752113543E+04 0.  0.
        5    1    3    3  502    0 -0.52053285209E+03 -0.34556889430E+03  0.85950000312E+03  0.10626074798E+04  0.46999998093E+01 0.  1.
       -5    1    3    3    0  502  0.52053285209E+03  0.34556889430E+03 -0.67670389944E+03  0.92104428141E+03  0.46999998093E+01 0. -1.
</event>
<event>
 5   0  0.2020029E-05  0.1954447E+04  0.7818609E-02  0.8628219E-01
       -2   -1    0    0    0  501  0.00000000000E+00  0.00000000000E+00  0.90251075377E+03  0.90251075377E+03  0.25500000920E-02 0. -1.
        2   -1    0    0  501    0  0.00000000000E+00  0.00000000000E+00 -0.10581217279E+04  0.10581217279E+04  0.25500000920E-02 0.  1.
    10030    2    1    2    0    0  0.00000000000E+00  0.00000000000E+00 -0.15561097409E+03  0.19606324816E+04  0.19544474802E+04 0.  0.
        5    1    3    3  502    0 -0.16579400244E+02  0.81327628542E+03  0.46543472047E+03  0.93720049187E+03  0.46999998093E+01 0. -1.
       -5    1    3    3    0  502  0.16579400244E+02 -0.81327628542E+03 -0.62104569456E+03  0.10234319898E+04  0.46999998093E+01 0.  1.
</event>
<event>
 5   0  0.1999142E-05  0.1999185E+04  0.7818609E-02  0.8607002E-01
       -2   -1    0    0    0  501  0.00000000000E+00  0.00000000000E+00  0.97131291038E+03  0.97131291038E+03  0.25500000920E-02 0.  1.
        2   -1    0    0  501    0  0.00000000000E+00  0.00000000000E+00 -0.10286957572E+04  0.10286957572E+04  0.25500000920E-02 0. -1.
    10030    2    1    2    0    0  0.00000000000E+00  0.00000000000E+00 -0.57382846815E+02  0.20000086676E+04  0.19991853039E+04 0.  0.
        1    1    3    3  502    0  0.78137042732E+03  0.52254318303E+03  0.31144028866E+03  0.99024551312E+03  0.50400001928E-02 0.  1.
       -1    1    3    3    0  502 -0.78137042732E+03 -0.52254318303E+03 -0.36882313548E+03  0.10097631545E+04  0.50400001928E-02 0. -1.
</event>
<event>
 5   0  0.9333353E-06  0.2032535E+04  0.7818609E-02  0.8591559E-01
        1   -1    0    0  501    0  0.00000000000E+00  0.00000000000E+00  0.27297558506E+04  0.27297558506E+04  0.50400001928E-02 0.  1.
       -1   -1    0    0    0  501  0.00000000000E+00  0.00000000000E+00 -0.37834877461E+03  0.37834877464E+03  0.50400001928E-02 0. -1.
    10030    2    1    2    0    0  0.00000000000E+00  0.00000000000E+00  0.23514070760E+04  0.31081046253E+04  0.20325351472E+04 0.  0.
        2    1    3    3  502    0 -0.52920305368E+02  0.64873717943E+03  0.23691855378E+04  0.24569698002E+04  0.25500000920E-02 0.  1.
       -2    1    3    3    0  502  0.52920305368E+02 -0.64873717943E+03 -0.17778461774E+02  0.65113482505E+03  0.25500000920E-02 0. -1.
</event>
<event>
 5   0  0.7132000E-06  0.1999069E+04  0.7818609E-02  0.8607056E-01
        4   -1    0    0  501    0  0.00000000000E+00  0.00000000000E+00  0.82176291983E+03  0.82176390120E+03  0.12699999809E+01 0.  1.
       -4   -1    0    0    0  501  0.00000000000E+00  0.00000000000E+00 -0.12157617058E+04  0.12157623691E+04  0.12699999809E+01 0. -1.
    10030    2    1    2    0    0  0.00000000000E+00  0.00000000000E+00 -0.39399878596E+03  0.20375262703E+04  0.19990693482E+04 0.  0.
        1    1    3    3  502    0  0.78483380035E+03 -0.42681999388E+03  0.25987616573E+03  0.93041658567E+03  0.50400001928E-02 0.  1.
       -1    1    3    3    0  502 -0.78483380035E+03  0.42681999388E+03 -0.65387495169E+03  0.11071096846E+04  0.50400001928E-02 0. -1.
</event>
<event>
 5   0  0.1999142E-05  0.1993370E+04  0.7818609E-02  0.8609727E-01
       -2   -1    0    0    0  501  0.00000000000E+00  0.00000000000E+00  0.15055385176E+04  0.15055385176E+04  0.25500000920E-02 0. -1.
        2   -1    0    0  501    0  0.00000000000E+00  0.00000000000E+00 -0.65981781911E+03  0.65981781911E+03  0.25500000920E-02 0.  1.
    10030    2    1    2    0    0  0.00000000000E+00  0.00000000000E+00  0.84572069845E+03  0.21653563367E+04  0.19933701525E+04 0.  0.
        1    1    3    3  502    0 -0.75204369715E+03  0.13956027799E+03  0.11170040397E+04  0.13537890598E+04  0.50400001928E-02 0. -1.
       -1    1    3    3    0  502  0.75204369715E+03 -0.13956027799E+03 -0.27128334128E+03  0.81156727688E+03  0.50400001928E-02 0.  1.
</event>
<event>
 5   0  0.7132000E-06  0.1999627E+04  0.7818609E-02  0.8606795E-01
       -3   -1    0    0    0  501  0.00000000000E+00  0.00000000000E+00  0.10487563781E+04  0.10487563829E+04  0.10100000352E+00 0. -1.
        3   -1    0    0  501    0  0.00000000000E+00  0.00000000000E+00 -0.95315460475E+03  0.95315461010E+03  0.10100000352E+00 0.  1.
    10030    2    1    2    0    0  0.00000000000E+00  0.00000000000E+00  0.95601773313E+02  0.20019109930E+04  0.19996269464E+04 0.  0.
        3    1    3    3  502    0 -0.33198084736E+03  0.19063809413E+03  0.97247528320E+03  0.10451135597E+04  0.10100000352E+00 0. -1.
       -3    1    3    3    0  502  0.33198084736E+03 -0.19063809413E+03 -0.87687350989E+03  0.95679743337E+03  0.10100000352E+00 0.  1.
</event>
<event>
 5   0  0.1999142E-05  0.2010114E+04  0.7818609E-02  0.8601907E-01
       -2   -1    0    0    0  501  0.00000000000E+00  0.00000000000E+00  0.71432807153E+03  0.71432807153E+03  0.25500000920E-02 0.  1.
        2   -1    0    0  501    0  0.00000000000E+00  0.00000000000E+00 -0.14141112184E+04  0.14141112184E+04  0.25500000920E-02 0. -1.
    10030    2    1    2    0    0  0.00000000000E+00  0.00000000000E+00 -0.69978314688E+03  0.21284392899E+04  0.20101137675E+04 0.  0.
        1    1    3    3  502    0  0.45654067789E+03  0.14817879474E+02  0.59806793249E+03  0.75255180022E+03  0.50400001928E-02 0.  1.
       -1    1    3    3    0  502 -0.45654067789E+03 -0.14817879474E+02 -0.12978510794E+04  0.13758874897E+04  0.50400001928E-02 0. -1.
</event>
<event>
 5   0  0.2038882E-05  0.2002627E+04  0.7818609E-02  0.8605393E-01
       -2   -1    0    0    0  501  0.00000000000E+00  0.00000000000E+00  0.15065710316E+04  0.15065710316E+04  0.25500000920E-02 0. -1.
        2   -1    0    0  501    0  0.00000000000E+00  0.00000000000E+00 -0.66550374536E+03  0.66550374536E+03  0.25500000920E-02 0.  1.
    10030    2    1    2    0    0  0.00000000000E+00  0.00000000000E+00  0.84106728629E+03  0.21720747770E+04  0.20026269390E+04 0.  0.
        3    1    3    3  502    0  0.12334732295E+03 -0.22881575199E+03 -0.62826922031E+03  0.67992163800E+03  0.10100000352E+00 0.  1.
       -3    1    3    3    0  502 -0.12334732295E+03  0.22881575199E+03  0.14693365066E+04  0.14921531390E+04  0.10100000352E+00 0. -1.
</event>
<event>
 5   0  0.9370269E-06  0.1998931E+04  0.7818609E-02  0.8607121E-01
       -1   -1    0    0    0  501  0.00000000000E+00  0.00000000000E+00  0.84822367757E+03  0.84822367759E+03  0.50400001928E-02 0.  1.
        1   -1    0    0  501    0  0.00000000000E+00  0.00000000000E+00 -0.11776742720E+04  0.11776742720E+04  0.50400001928E-02 0. -1.
    10030    2    1    2    0    0  0.00000000000E+00  0.00000000000E+00 -0.32945059442E+03  0.20258979496E+04  0.19989309163E+04 0.  0.
        4    1    3    3  502    0 -0.29857428617E+03  0.65493759059E+02 -0.11291369761E+04  0.11697811592E+04  0.12699999809E+01 0. -1.
       -4    1    3    3    0  502  0.29857428617E+03 -0.65493759059E+02  0.79968638166E+03  0.85611679036E+03  0.12699999809E+01 0.  1.
</event>
<event>
 5   0  0.9370269E-06  0.2000954E+04  0.7818609E-02  0.8606175E-01
       -1   -1    0    0    0  501  0.00000000000E+00  0.00000000000E+00  0.68524708395E+03  0.68524708397E+03  0.50400001928E-02 0. -1.
        1   -1    0    0  501    0  0.00000000000E+00  0.00000000000E+00 -0.14607204559E+04  0.14607204559E+04  0.50400001928E-02 0.  1.
    10030    2    1    2    0    0  0.00000000000E+00  0.00000000000E+00 -0.77547337198E+03  0.21459675399E+04  0.20009542053E+04 0.  0.
        4    1    3    3  502    0  0.74520871552E+03 -0.57353926743E+03 -0.75406008969E+03  0.12053595118E+04  0.12699999809E+01 0.  1.
       -4    1    3    3    0  502 -0.74520871552E+03  0.57353926743E+03 -0.21413282287E+02  0.94060802810E+03  0.12699999809E+01 0. -1.
</event>
<event>
 5   0  0.9140695E-06  0.1999689E+04  0.7818609E-02  0.8606766E-01
        1   -1    0    0  501    0  0.00000000000E+00  0.00000000000E+00  0.17090600736E+04  0.17090600736E+04  0.50400001928E-02 0.  1.
       -1   -1    0    0    0  501  0.00000000000E+00  0.00000000000E+00 -0.58493489057E+03  0.58493489059E+03  0.50400001928E-02 0. -1.
    10030    2    1    2    0    0  0.00000000000E+00  0.00000000000E+00  0.11241251831E+04  0.22939949642E+04  0.19996888430E+04 0.  0.
        1    1    3    3  502    0  0.29427701082E+03 -0.46956521562E+02 -0.53280552830E+03  0.61047981541E+03  0.50400001928E-02 0. -1.
       -1    1    3    3    0  502 -0.29427701082E+03  0.46956521562E+02  0.16569307114E+04  0.16835151488E+04  0.50400001928E-02 0.  1.
</event>
<event>
 5   0  0.2020029E-05  0.2005446E+04  0.7818609E-02  0.8604079E-01
       -2   -1    0    0    0  501  0.00000000000E+00  0.00000000000E+00  0.62598617111E+03  0.62598617111E+03  0.25500000920E-02 0.  1.
        2   -1    0    0  501    0  0.00000000000E+00  0.00000000000E+00 -0.16061912231E+04  0.16061912231E+04  0.25500000920E-02 0. -1.
    10030    2    1    2    0    0  0.00000000000E+00  0.00000000000E+00 -0.98020505200E+03  0.22321773942E+04  0.20054460789E+04 0.  0.
        5    1    3    3  502    0 -0.89170386512E+02  0.72242840485E+03  0.27748560354E+03  0.77902150685E+03  0.46999998093E+01 0.  1.
       -5    1    3    3    0  502  0.89170386512E+02 -0.72242840485E+03 -0.12576906555E+04  0.14531558874E+04  0.46999998093E+01 0. -1.
</event>
<event>
 5   0  0.9140695E-06  0.1981831E+04  0.7818609E-02  0.8615163E-01
       -1   -1    0    0    0  501  0.00000000000E+00  0.00000000000E+00  0.14219991666E+04  0.14219991666E+04  0.50400001928E-02 0. -1.
        1   -1    0    0  501    0  0.00000000000E+00  0.00000000000E+00 -0.69051633217E+03  0.69051633218E+03  0.50400001928E-02 0.  1.
    10030    2    1    2    0    0  0.00000000000E+00  0.00000000000E+00  0.73148283443E+03  0.21125154988E+04  0.19818311219E+04 0.  0.
        1    1    3    3  502    0  0.30104641282E+03  0.31395794197E+03 -0.58331456247E+03  0.72763618025E+03  0.50400001928E-02 0.  1.
       -1    1    3    3    0  502 -0.30104641282E+03 -0.31395794197E+03  0.13147973969E+04  0.13848793185E+04  0.50400001928E-02 0. -1.
</event>
<event>
 5   0  0.7132000E-06  0.2007922E+04  0.7818609E-02  0.8602926E-01
       -3   -1    0    0    0  501  0.00000000000E+00  0.00000000000E+00  0.13129996641E+04  0.13129996680E+04  0.10100000352E+00 0. -1.
        3   -1    0    0  501    0  0.00000000000E+00  0.00000000000E+00 -0.76766034235E+03  0.76766034900E+03  0.10100000352E+00 0.  1.
    10030    2    1    2    0    0  0.00000000000E+00  0.00000000000E+00  0.54533932175E+03  0.20806600170E+04  0.20079220927E+04 0.  0.
        5    1    3    3  502    0  0.76322496007E+03 -0.26451476970E+03  0.89045064445E+03  0.12022499088E+04  0.46999998093E+01 0. -1.
       -5    1    3    3    0  502 -0.76322496007E+03  0.26451476970E+03 -0.34511132270E+03  0.87841010816E+03  0.46999998093E+01 0.  1.
</event>
<event>
 5   0  0.2020029E-05  0.2000666E+04  0.7818609E-02  0.8606310E-01
        2   -1    0    0  501    0  0.00000000000E+00  0.00000000000E+00  0.16198515904E+04  0.16198515904E+04  0.25500000920E-02 0.  1.
       -2   -1    0    0    0  501  0.00000000000E+00  0.00000000000E+00 -0.61775151812E+03  0.61775151812E+03  0.25500000920E-02 0. -1.
    10030    2    1    2    0    0  0.00000000000E+00  0.00000000000E+00  0.10021000722E+04  0.22376031085E+04  0.20006656683E+04 0.  0.
        5    1    3    3  502    0 -0.22428141986E+03  0.61880045985E+03  0.13435380607E+04  0.14961058702E+04  0.46999998093E+01 0.  1.
       -5    1    3    3    0  502  0.22428141986E+03 -0.61880045985E+03 -0.34143798844E+03  0.74149723826E+03  0.46999998093E+01 0. -1.
</event>
<event>
 5   0  0.1999142E-05  0.1995655E+04  0.7818609E-02  0.8608655E-01
        2   -1    0    0  501    0  0.00000000000E+00  0.00000000000E+00  0.10509751296E+04  0.10509751296E+04  0.25500000920E-02 0. -1.
       -2   -1    0    0    0  501  0.00000000000E+00  0.00000000000E+00 -0.94736799873E+03  0.94736799873E+03  0.25500000920E-02 0.  1.
    10030    2    1    2    0    0  0.00000000000E+00  0.00000000000E+00  0.10360713082E+03  0.19983431283E+04  0.19956554865E+04 0.  0.
        1    1    3    3  502    0  0.63876551530E+02 -0.43300392445E+03 -0.84611338801E+03  0.95261769762E+03  0.50400001928E-02 0.  1.
       -1    1    3    3    0  502 -0.63876551530E+02  0.43300392445E+03  0.94972051883E+03  0.10457254307E+04  0.50400001928E-02 0. -1.
</event>
<event>
 5   0  0.2003576E-05  0.2016493E+04  0.7818609E-02  0.8598948E-01
        2   -1    0    0  501    0  0.00000000000E+00  0.00000000000E+00  0.26494030117E+04  0.26494030117E+04  0.25500000920E-02 0. -1.
       -2   -1    0    0    0  501  0.00000000000E+00  0.00000000000E+00 -0.38369429520E+03  0.38369429521E+03  0.25500000920E-02 0.  1.
    10030    2    1    2    0    0  0.00000000000E+00  0.00000000000E+00  0.22657087165E+04  0.30330973069E+04  0.20164928180E+04 0.  0.
        4    1    3    3  502    0 -0.99137569056E+03  0.17745341841E+03  0.10616059385E+04  0.14633264356E+04  0.12699999809E+01 0.  1.
       -4    1    3    3    0  502  0.99137569056E+03 -0.17745341841E+03  0.12041027780E+04  0.15697708713E+04  0.12699999809E+01 0. -1.
</event>
<event>
 5   0  0.2020029E-05  0.2000488E+04  0.7818609E-02  0.8606393E-01
        2   -1    0    0  501    0  0.00000000000E+00  0.00000000000E+00  0.26262537244E+04  0.26262537244E+04  0.25500000920E-02 0.  1.
       -2   -1    0    0    0  501  0.00000000000E+00  0.00000000000E+00 -0.38095627204E+03  0.38095627205E+03  0.25500000920E-02 0. -1.
    10030    2    1    2    0    0  0.00000000000E+00  0.00000000000E+00  0.22452974523E+04  0.30072099964E+04  0.20004877688E+04 0.  0.
        5    1    3    3  502    0  0.59204620595E+03  0.62275200008E+03  0.35301566833E+03  0.92896766126E+03  0.46999998093E+01 0. -1.
       -5    1    3    3    0  502 -0.59204620595E+03 -0.62275200008E+03  0.18922817840E+04  0.20782423352E+04  0.46999998093E+01 0.  1.
</event>
<event>
 5   0  0.9370269E-06  0.1985896E+04  0.7818609E-02  0.8613243E-01
        1   -1    0    0  501    0  0.00000000000E+00  0.00000000000E+00  0.13138542244E+04  0.13138542244E+04  0.50400001928E-02 0. -1.
       -1   -1    0    0    0  501  0.00000000000E+00  0.00000000000E+00 -0.75042224312E+03  0.75042224314E+03  0.50400001928E-02 0.  1.
    10030    2    1    2    0    0  0.00000000000E+00  0.00000000000E+00  0.56343198130E+03  0.20642764676E+04  0.19858957014E+04 0.  0.
        4    1    3    3  502    0  0.75582311395E+03  0.22568605827E+03 -0.34519744999E+03  0.86102593971E+03  0.12699999809E+01 0.  1.
       -4    1    3    3    0  502 -0.75582311395E+03 -0.22568605827E+03  0.90862943129E+03  0.12032505279E+04  0.12699999809E+01 0. -1.
</event>
<event>
 5   0  0.1999142E-05  0.2000630E+04  0.7818609E-02  0.8606326E-01
       -2   -1    0    0    0  501  0.00000000000E+00  0.00000000000E+00  0.78398888537E+03  0.78398888537E+03  0.25500000920E-02 0. -1.
        2   -1    0    0  501    0  0.00000000000E+00  0.00000000000E+00 -0.12763315094E+04  0.12763315094E+04  0.25500000920E-02 0.  1.
    10030    2    1    2    0    0  0.00000000000E+00  0.00000000000E+00 -0.49234262401E+03  0.20603203948E+04  0.20006296183E+04 0.  0.
        1    1    3    3  502    0  0.32069886365E+03 -0.69243765320E+03 -0.91223883228E+03  0.11893264278E+04  0.50400001928E-02 0.  1.
       -1    1    3    3    0  502 -0.32069886365E+03  0.69243765320E+03  0.41989620827E+03  0.87099396695E+03  0.50400001928E-02 0. -1.
</event>
<event>
 5   0  0.9370269E-06  0.2001331E+04  0.7818609E-02  0.8605998E-01
       -1   -1    0    0    0  501  0.00000000000E+00  0.00000000000E+00  0.85529984020E+03  0.85529984021E+03  0.50400001928E-02 0.  1.
        1   -1    0    0  501    0  0.00000000000E+00  0.00000000000E+00 -0.11707377513E+04  0.11707377513E+04  0.50400001928E-02 0. -1.
    10030    2    1    2    0    0  0.00000000000E+00  0.00000000000E+00 -0.31543791114E+03  0.20260375916E+04  0.20013313685E+04 0.  0.
        4    1    3    3  502    0 -0.54103821348E+03  0.77253718915E+03 -0.49620285815E+03  0.10657180426E+04  0.12699999809E+01 0. -1.
       -4    1    3    3    0  502  0.54103821348E+03 -0.77253718915E+03  0.18076494701E+03  0.96031954892E+03  0.12699999809E+01 0.  1.
</event>
<event>
 5   0  0.9333353E-06  0.1999791E+04  0.7818609E-02  0.8606718E-01
        1   -1    0    0  501    0  0.00000000000E+00  0.00000000000E+00  0.10259417304E+04  0.10259417304E+04  0.50400001928E-02 0.  1.
       -1   -1    0    0    0  501  0.00000000000E+00  0.00000000000E+00 -0.97451050786E+03  0.97451050787E+03  0.50400001928E-02 0. -1.
    10030    2    1    2    0    0  0.00000000000E+00  0.00000000000E+00  0.51431222554E+02  0.20004522383E+04  0.19997909858E+04 0.  0.
        2    1    3    3  502    0 -0.18419560493E+03  0.19593907727E+03  0.98908693728E+03  0.10249942011E+04  0.25500000920E-02 0.  1.
       -2    1    3    3    0  502  0.18419560493E+03 -0.19593907727E+03 -0.93765571473E+03  0.97545803715E+03  0.25500000920E-02 0. -1.
</event>
<event>
 5   0  0.9333353E-06  0.1999403E+04  0.7818609E-02  0.8606900E-01
        1   -1    0    0  501    0  0.00000000000E+00  0.00000000000E+00  0.19938029696E+04  0.19938029696E+04  0.50400001928E-02 0. -1.
       -1   -1    0    0    0  501  0.00000000000E+00  0.00000000000E+00 -0.50125464161E+03  0.50125464163E+03  0.50400001928E-02 0.  1.
    10030    2    1    2    0    0  0.00000000000E+00  0.00000000000E+00  0.14925483280E+04  0.24950576112E+04  0.19994029039E+04 0.  0.
        2    1    3    3  502    0  0.13379376070E+03  0.61729174823E+03  0.17132593313E+04  0.18259812181E+04  0.25500000920E-02 0. -1.
       -2    1    3    3    0  502 -0.13379376070E+03 -0.61729174823E+03 -0.22071100327E+03  0.66907639310E+03  0.25500000920E-02 0.  1.
</event>
<event>
 5   0  0.9140695E-06  0.1995545E+04  0.7818609E-02  0.8608706E-01
       -1   -1    0    0    0  501  0.00000000000E+00  0.00000000000E+00  0.41993701262E+03  0.41993701265E+03  0.50400001928E-02 0.  1.
        1   -1    0    0  501    0  0.00000000000E+00  0.00000000000E+00 -0.23707121782E+04  0.23707121782E+04  0.50400001928E-02 0. -1.
    10030    2    1    2    0    0  0.00000000000E+00  0.00000000000E+00 -0.19507751655E+04  0.27906491908E+04  0.19955448278E+04 0.  0.
        1    1    3    3  502    0  0.85636184374E+03  0.43523518991E+03 -0.59815988990E+03  0.11316273821E+04  0.50400001928E-02 0. -1.
       -1    1    3    3    0  502 -0.85636184374E+03 -0.43523518991E+03 -0.13526152756E+04  0.16590218087E+04  0.50400001928E-02 0.  1.
</event>
<event>
 5   0  0.9370269E-06  0.1998230E+04  0.7818609E-02  0.8607449E-01
        1   -1    0    0  501    0  0.00000000000E+00  0.00000000000E+00  0.11627193817E+04  0.11627193817E+04  0.50400001928E-02 0. -1.
       -1   -1    0    0    0  501  0.00000000000E+00  0.00000000000E+00 -0.85853078875E+03  0.85853078877E+03  0.50400001928E-02 0.  1.
    10030    2    1    2    0    0  0.00000000000E+00  0.00000000000E+00  0.30418859295E+03  0.20212501705E+04  0.19982296043E+04 0.  0.
        4    1    3    3  502    0  0.28136799344E+03 -0.31585116402E+03  0.10676733712E+04  0.11484154066E+04  0.12699999809E+01 0. -1.
       -4    1    3    3    0  502 -0.28136799344E+03  0.31585116402E+03 -0.76348477827E+03  0.87283476391E+03  0.12699999809E+01 0.  1.
</event>
<event>
 5   0  0.2003576E-05  0.1999196E+04  0.7818609E-02  0.8606997E-01
       -2   -1    0    0    0  501  0.00000000000E+00  0.00000000000E+00  0.49858069024E+03  0.49858069025E+03  0.25500000920E-02 0.  1.
        2   -1    0    0  501    0  0.00000000000E+00  0.00000000000E+00 -0.20040802133E+04  0.20040802133E+04  0.25500000920E-02 0. -1.
    10030    2    1    2    0    0  0.00000000000E+00  0.00000000000E+00 -0.15054995231E+04  0.25026609035E+04  0.19991955343E+04 0.  0.
        4    1    3    3  502    0  0.11291178279E+03  0.87198774600E+03 -0.15752622282E+03  0.89326805812E+03  0.12699999809E+01 0.  1.
       -4    1    3    3    0  502 -0.11291178279E+03 -0.87198774600E+03 -0.13479733002E+04  0.16093928454E+04  0.12699999809E+01 0. -1.
</event>
<event>
 5   0  0.2003576E-05  0.1962064E+04  0.7818609E-02  0.8624565E-01
        2   -1    0    0  501    0  0.00000000000E+00  0.00000000000E+00  0.22633018317E+04  0.22633018317E+04  0.25500000920E-02 0.  1.
       -2   -1    0    0    0  501  0.00000000000E+00  0.00000000000E+00 -0.42523000535E+03  0.42523000536E+03  0.25500000920E-02 0. -1.
    10030    2    1    2    0    0  0.00000000000E+00  0.00000000000E+00  0.18380718263E+04  0.26885318370E+04  0.19620640662E+04 0.  0.
        4    1    3    3  502    0  0.47773023828E+03 -0.17532295612E+03  0.20683032415E+04  0.21299869087E+04  0.12699999809E+01 0.  1.
       -4    1    3    3    0  502 -0.47773023828E+03  0.17532295612E+03 -0.23023141519E+03  0.55854492832E+03  0.12699999809E+01 0. -1.
</event>
<event>
 5   0  0.9342635E-06  0.2001738E+04  0.7818609E-02  0.8605809E-01
       -1   -1    0    0    0  501  0.00000000000E+00  0.00000000000E+00  0.79408879973E+03  0.79408879975E+03  0.50400001928E-02 0. -1.
        1   -1    0    0  501    0  0.00000000000E+00  0.00000000000E+00 -0.12614945782E+04  0.12614945782E+04  0.50400001928E-02 0.  1.
    10030    2    1    2    0    0  0.00000000000E+00  0.00000000000E+00 -0.46740577850E+03  0.20555833780E+04  0.20017379604E+04 0.  0.
        5    1    3    3  502    0 -0.55212285950E+02  0.98043425859E+03 -0.43234061605E+03  0.10729586340E+04  0.46999998093E+01 0.  1.
       -5    1    3    3    0  502  0.55212285950E+02 -0.98043425859E+03 -0.35065162452E+02  0.98262474401E+03  0.46999998093E+01 0. -1.
</event>
<event>
 5   0  0.1979765E-05  0.2000350E+04  0.7818609E-02  0.8606457E-01
        2   -1    0    0  501    0  0.00000000000E+00  0.00000000000E+00  0.13735893405E+04  0.13735893405E+04  0.25500000920E-02 0. -1.
       -2   -1    0    0    0  501  0.00000000000E+00  0.00000000000E+00 -0.72827410348E+03  0.72827410349E+03  0.25500000920E-02 0.  1.
    10030    2    1    2    0    0  0.00000000000E+00  0.00000000000E+00  0.64531523706E+03  0.21018634440E+04  0.20003495150E+04 0.  0.
        2    1    3    3  502    0  0.85650239751E+03 -0.42060788137E+03  0.63760557710E+03  0.11476272125E+04  0.25500000920E-02 0. -1.
       -2    1    3    3    0  502 -0.85650239751E+03  0.42060788137E+03  0.77096599612E+01  0.95423623158E+03  0.25500000920E-02 0.  1.
</event>
<event>
 5   0  0.9342635E-06  0.2001342E+04  0.7818609E-02  0.8605994E-01
       -1   -1    0    0    0  501  0.00000000000E+00  0.00000000000E+00  0.65887896610E+03  0.65887896612E+03  0.50400001928E-02 0.  1.
        1   -1    0    0  501    0  0.00000000000E+00  0.00000000000E+00 -0.15197665127E+04  0.15197665127E+04  0.50400001928E-02 0. -1.
    10030    2    1    2    0    0  0.00000000000E+00  0.00000000000E+00 -0.86088754661E+03  0.21786454788E+04  0.20013417386E+04 0.  0.
        5    1    3    3  502    0  0.66429239636E+03 -0.15302853302E+03  0.36699605353E+03  0.77421593440E+03  0.46999998093E+01 0.  1.
       -5    1    3    3    0  502 -0.66429239636E+03  0.15302853302E+03 -0.12278836001E+04  0.14044295444E+04  0.46999998093E+01 0. -1.
</event>
<event>
 5   0  0.1999142E-05  0.1996951E+04  0.7818609E-02  0.8608048E-01
       -2   -1    0    0    0  501  0.00000000000E+00  0.00000000000E+00  0.84890142467E+03  0.84890142468E+03  0.25500000920E-02 0.  1.
        2   -1    0    0  501    0  0.00000000000E+00  0.00000000000E+00 -0.11744039920E+04  0.11744039920E+04  0.25500000920E-02 0. -1.
    10030    2    1    2    0    0  0.00000000000E+00  0.00000000000E+00 -0.32550256732E+03  0.20233054167E+04  0.19969508977E+04 0.  0.
        1    1    3    3  502    0 -0.22077561502E+03  0.34717064653E+03  0.75902665451E+03  0.86336017529E+03  0.50400001928E-02 0.  1.
       -1    1    3    3    0  502  0.22077561502E+03 -0.34717064653E+03 -0.10845292218E+04  0.11599452414E+04  0.50400001928E-02 0. -1.
</event>
<event>
 5   0  0.2003576E-05  0.1981978E+04  0.7818609E-02  0.8615093E-01
       -2   -1    0    0    0  501  0.00000000000E+00  0.00000000000E+00  0.70982665024E+03  0.70982665024E+03  0.25500000920E-02 0. -1.
        2   -1    0    0  501    0  0.00000000000E+00  0.00000000000E+00 -0.13835203562E+04  0.13835203562E+04  0.25500000920E-02 0.  1.
    10030    2    1    2    0    0  0.00000000000E+00  0.00000000000E+00 -0.67369370601E+03  0.20933470065E+04  0.19819784257E+04 0.  0.
        4    1    3    3  502    0 -0.53453898716E+02 -0.77839338615E+03  0.30847128412E+03  0.83899328300E+03  0.12699999809E+01 0. -1.
       -4    1    3    3    0  502  0.53453898716E+02  0.77839338615E+03 -0.98216499013E+03  0.12543537235E+04  0.12699999809E+01 0.  1.
</event>
<event>
 5   0  0.9220260E-06  0.1994999E+04  0.7818609E-02  0.8608963E-01
        1   -1    0    0  501    0  0.00000000000E+00  0.00000000000E+00  0.89201688992E+03  0.89201688993E+03  0.50400001928E-02 0.  1.
       -1   -1    0    0    0  501  0.00000000000E+00  0.00000000000E+00 -0.11154550817E+04  0.11154550817E+04  0.50400001928E-02 0. -1.
    10030    2    1    2    0    0  0.00000000000E+00  0.00000000000E+00 -0.22343819182E+03  0.20074719717E+04  0.19949985192E+04 0.  0.
        3    1    3    3  502    0 -0.75105769886E+03 -0.23829297314E+03 -0.72720802101E+03  0.10722419149E+04  0.10100000352E+00 0. -1.
       -3    1    3    3    0  502  0.75105769886E+03  0.23829297314E+03  0.50376982920E+03  0.93523005677E+03  0.10100000352E+00 0.  1.
</event>
<event>
 5   0  0.2003576E-05  0.2008239E+04  0.7818609E-02  0.8602778E-01
       -2   -1    0    0    0  501  0.00000000000E+00  0.00000000000E+00  0.91485550341E+03  0.91485550342E+03  0.25500000920E-02 0.  1.
        2   -1    0    0  501    0  0.00000000000E+00  0.00000000000E+00 -0.11020934678E+04  0.11020934678E+04  0.25500000920E-02 0. -1.
    10030    2    1    2    0    0  0.00000000000E+00  0.00000000000E+00 -0.18723796443E+03  0.20169489713E+04  0.20082393028E+04 0.  0.
        4    1    3    3  502    0 -0.35349533934E+03 -0.25586327989E+03 -0.10018804384E+04  0.10927904642E+04  0.12699999809E+01 0. -1.
       -4    1    3    3    0  502  0.35349533934E+03  0.25586327989E+03  0.81464247395E+03  0.92415850707E+03  0.12699999809E+01 0.  1.
</event>
<event>
 5   0  0.2020029E-05  0.1997464E+04  0.7818609E-02  0.8607807E-01
       -2   -1    0    0    0  501  0.00000000000E+00  0.00000000000E+00  0.59800016251E+03  0.59800016252E+03  0.25500000920E-02 0. -1.
        2   -1    0    0  501    0  0.00000000000E+00  0.00000000000E+00 -0.16680028207E+04  0.16680028207E+04  0.25500000920E-02 0.  1.
    10030    2    1    2    0    0  0.00000000000E+00  0.00000000000E+00 -0.10700026582E+04  0.22660029833E+04  0.19974643505E+04 0.  0.
        5    1    3    3  502    0 -0.87053503395E+03 -0.34138559207E+03 -0.13702715144E+03  0.94507877874E+03  0.46999998093E+01 0.  1.
       -5    1    3    3    0  502  0.87053503395E+03  0.34138559207E+03 -0.93297550679E+03  0.13209242045E+04  0.46999998093E+01 0. -1.
</event>
<event>
 5   0  0.1999142E-05  0.2002473E+04  0.7818609E-02  0.8605465E-01
       -2   -1    0    0    0  501  0.00000000000E+00  0.00000000000E+00  0.80553906870E+03  0.80553906871E+03  0.25500000920E-02 0.  1.
        2   -1    0    0  501    0  0.00000000000E+00  0.00000000000E+00 -0.12444769909E+04  0.12444769909E+04  0.25500000920E-02 0. -1.
    10030    2    1    2    0    0  0.00000000000E+00  0.00000000000E+00 -0.43893792223E+03  0.20500160596E+04  0.20024733070E+04 0.  0.
        1    1    3    3  502    0  0.10828612134E+03  0.61859759789E+03  0.57884370005E+03  0.85407780753E+03  0.50400001928E-02 0.  1.
       -1    1    3    3    0  502 -0.10828612134E+03 -0.61859759789E+03 -0.10177816223E+04  0.11959382521E+04  0.50400001928E-02 0. -1.
</event>
<event>
 5   0  0.9370269E-06  0.2001826E+04  0.7818609E-02  0.8605767E-01
       -1   -1    0    0    0  501  0.00000000000E+00  0.00000000000E+00  0.61062002956E+03  0.61062002958E+03  0.50400001928E-02 0.  1.
        1   -1    0    0  501    0  0.00000000000E+00  0.00000000000E+00 -0.16406721247E+04  0.16406721247E+04  0.50400001928E-02 0. -1.
    10030    2    1    2    0    0  0.00000000000E+00  0.00000000000E+00 -0.10300520952E+04  0.22512921543E+04  0.20018264274E+04 0.  0.
        4    1    3    3  502    0 -0.30791096528E+03 -0.77372800773E+03 -0.11395304198E+04  0.14113806655E+04  0.12699999809E+01 0. -1.
       -4    1    3    3    0  502  0.30791096528E+03  0.77372800773E+03  0.10947832466E+03  0.83991148876E+03  0.12699999809E+01 0.  1.
</event>
<event>
 5   0  0.1999142E-05  0.2001598E+04  0.7818609E-02  0.8605874E-01
        2   -1    0    0  501    0  0.00000000000E+00  0.00000000000E+00  0.89594016912E+03  0.89594016912E+03  0.25500000920E-02 0. -1.
       -2   -1    0    0    0  501  0.00000000000E+00  0.00000000000E+00 -0.11179303250E+04  0.11179303250E+04  0.25500000920E-02 0.  1.
    10030    2    1    2    0    0  0.00000000000E+00  0.00000000000E+00 -0.22199015591E+03  0.20138704941E+04  0.20015980460E+04 0.  0.
        1    1    3    3  502    0  0.12581449561E+03 -0.60447044844E+03  0.68147937518E+03  0.91958031143E+03  0.50400001928E-02 0. -1.
       -1    1    3    3    0  502 -0.12581449561E+03  0.60447044844E+03 -0.90346953109E+03  0.10942901827E+04  0.50400001928E-02 0.  1.
</event>
<event>
 5   0  0.9333353E-06  0.1998510E+04  0.7818609E-02  0.8607318E-01
       -1   -1    0    0    0  501  0.00000000000E+00  0.00000000000E+00  0.70756477044E+03  0.70756477046E+03  0.50400001928E-02 0. -1.
        1   -1    0    0  501    0  0.00000000000E+00  0.00000000000E+00 -0.14111933810E+04  0.14111933810E+04  0.50400001928E-02 0.  1.
    10030    2    1    2    0    0  0.00000000000E+00  0.00000000000E+00 -0.70362861054E+03  0.21187581515E+04  0.19985101658E+04 0.  0.
        2    1    3    3  502    0  0.48276060802E+03 -0.38973750119E+02 -0.12784370024E+04  0.13671056751E+04  0.25500000920E-02 0.  1.
       -2    1    3    3    0  502 -0.48276060802E+03  0.38973750119E+02  0.57480839184E+03  0.75165247635E+03  0.25500000920E-02 0. -1.
</event>
<event>
 5   0  0.2038882E-05  0.1996404E+04  0.7818609E-02  0.8608304E-01
       -2   -1    0    0    0  501  0.00000000000E+00  0.00000000000E+00  0.12562227415E+04  0.12562227415E+04  0.25500000920E-02 0.  1.
        2   -1    0    0  501    0  0.00000000000E+00  0.00000000000E+00 -0.79317738832E+03  0.79317738832E+03  0.25500000920E-02 0. -1.
    10030    2    1    2    0    0  0.00000000000E+00  0.00000000000E+00  0.46304535320E+03  0.20494001298E+04  0.19964042409E+04 0.  0.
        3    1    3    3  502    0  0.20269552990E+03  0.59267120363E+03 -0.56632380092E+03  0.84443311822E+03  0.10100000352E+00 0. -1.
       -3    1    3    3    0  502 -0.20269552990E+03 -0.59267120363E+03  0.10293691541E+04  0.12049670116E+04  0.10100000352E+00 0.  1.
</event>
<event>
 5   0  0.9370269E-06  0.2000683E+04  0.7818609E-02  0.8606302E-01
       -1   -1    0    0    0  501  0.00000000000E+00  0.00000000000E+00  0.71853756388E+03  0.71853756390E+03  0.50400001928E-02 0.  1.
        1   -1    0    0  501    0  0.00000000000E+00  0.00000000000E+00 -0.13926660154E+04  0.13926660154E+04  0.50400001928E-02 0. -1.
    10030    2    1    2    0    0  0.00000000000E+00  0.00000000000E+00 -0.67412845150E+03  0.21112035793E+04  0.20006827295E+04 0.  0.
        4    1    3    3  502    0  0.31327274260E+03 -0.92651498859E+03 -0.11543486174E+03  0.98483331358E+03  0.12699999809E+01 0.  1.
       -4    1    3    3    0  502 -0.31327274260E+03  0.92651498859E+03 -0.55869358975E+03  0.11263702657E+04  0.12699999809E+01 0. -1.
</event>
<event>
 5   0  0.9370269E-06  0.2001924E+04  0.7818609E-02  0.8605722E-01
       -1   -1    0    0    0  501  0.00000000000E+00  0.00000000000E+00  0.75513143930E+03  0.75513143931E+03  0.50400001928E-02 0. -1.
        1   -1    0    0  501    0  0.00000000000E+00  0.00000000000E+00 -0.13268216710E+04  0.13268216710E+04  0.50400001928E-02 0.  1.
    10030    2    1    2    0    0  0.00000000000E+00  0.00000000000E+00 -0.57169023169E+03  0.20819531103E+04  0.20019238328E+04 0.  0.
        4    1    3    3  502    0  0.25757495904E+03  0.10579534230E+03 -0.12857299640E+04  0.13155381664E+04  0.12699999809E+01 0.  1.
       -4    1    3    3    0  502 -0.25757495904E+03 -0.10579534230E+03  0.71403973234E+03  0.76641494390E+03  0.12699999809E+01 0. -1.
</event>
<event>
 5   0  0.1999142E-05  0.1999827E+04  0.7818609E-02  0.8606702E-01
        2   -1    0    0  501    0  0.00000000000E+00  0.00000000000E+00  0.23593863068E+04  0.23593863068E+04  0.25500000920E-02 0.  1.
       -2   -1    0    0    0  501  0.00000000000E+00  0.00000000000E+00 -0.42376549706E+03  0.42376549707E+03  0.25500000920E-02 0. -1.
    10030    2    1    2    0    0  0.00000000000E+00  0.00000000000E+00  0.19356208097E+04  0.27831518039E+04  0.19998265035E+04 0.  0.
        1    1    3    3  502    0  0.51222563644E+03  0.84276776648E+03  0.73831165456E+03  0.12319645734E+04  0.50400001928E-02 0.  1.
       -1    1    3    3    0  502 -0.51222563644E+03 -0.84276776648E+03  0.11973091552E+04  0.15511872305E+04  0.50400001928E-02 0. -1.
</event>
<event>
 5   0  0.2003576E-05  0.2000322E+04  0.7818609E-02  0.8606470E-01
       -2   -1    0    0    0  501  0.00000000000E+00  0.00000000000E+00  0.73482691344E+03  0.73482691345E+03  0.25500000920E-02 0.  1.
        2   -1    0    0  501    0  0.00000000000E+00  0.00000000000E+00 -0.13613028941E+04  0.13613028941E+04  0.25500000920E-02 0. -1.
    10030    2    1    2    0    0  0.00000000000E+00  0.00000000000E+00 -0.62647598063E+03  0.20961298075E+04  0.20003219780E+04 0.  0.
        4    1    3    3  502    0  0.50354010004E+03  0.53942105536E+03 -0.10206980754E+04  0.12595054114E+04  0.12699999809E+01 0. -1.
       -4    1    3    3    0  502 -0.50354010004E+03 -0.53942105536E+03  0.39422209476E+03  0.83662439614E+03  0.12699999809E+01 0.  1.
</event>
<event>
 5   0  0.9342635E-06  0.1999302E+04  0.7818609E-02  0.8606947E-01
        1   -1    0    0  501    0  0.00000000000E+00  0.00000000000E+00  0.82524597073E+03  0.82524597074E+03  0.50400001928E-02 0. -1.
       -1   -1    0    0    0  501  0.00000000000E+00  0.00000000000E+00 -0.12109142135E+04  0.12109142135E+04  0.50400001928E-02 0.  1.
    10030    2    1    2    0    0  0.00000000000E+00  0.00000000000E+00 -0.38566824279E+03  0.20361601843E+04  0.19993019538E+04 0.  0.
        5    1    3    3  502    0  0.75288063155E+03 -0.36020615964E+01  0.47688910026E+03  0.89122809884E+03  0.46999998093E+01 0.  1.
       -5    1    3    3    0  502 -0.75288063155E+03  0.36020615964E+01 -0.86255734305E+03  0.11449320854E+04  0.46999998093E+01 0. -1.
</event>
<event>
 5   0  0.1999142E-05  0.2000082E+04  0.7818609E-02  0.8606582E-01
        2   -1    0    0  501    0  0.00000000000E+00  0.00000000000E+00  0.12112553690E+04  0.12112553690E+04  0.25500000920E-02 0.  1.
       -2   -1    0    0    0  501  0.00000000000E+00  0.00000000000E+00 -0.82565777844E+03  0.82565777844E+03  0.25500000920E-02 0. -1.
    10030    2    1    2    0    0  0.00000000000E+00  0.00000000000E+00  0.38559759058E+03  0.20369131475E+04  0.20000824154E+04 0.  0.
        1    1    3    3  502    0 -0.26259962931E+03  0.51725326861E+03  0.10223991767E+04  0.11755039710E+04  0.50400001928E-02 0.  1.
       -1    1    3    3    0  502  0.26259962931E+03 -0.51725326861E+03 -0.63680158613E+03  0.86140917648E+03  0.50400001928E-02 0. -1.
</event>
<event>
 5   0  0.2038882E-05  0.2001704E+04  0.7818609E-02  0.8605824E-01
        2   -1    0    0  501    0  0.00000000000E+00  0.00000000000E+00  0.20212633940E+04  0.20212633940E+04  0.25500000920E-02 0.  1.
       -2   -1    0    0    0  501  0.00000000000E+00  0.00000000000E+00 -0.49558351588E+03  0.49558351589E+03  0.25500000920E-02 0. -1.
    10030    2    1    2    0    0  0.00000000000E+00  0.00000000000E+00  0.15256798781E+04  0.25168469099E+04  0.20017040933E+04 0.  0.
        3    1    3    3  502    0  0.97989391412E+03 -0.18488768640E+03  0.65519657257E+03  0.11931714455E+04  0.10100000352E+00 0. -1.
       -3    1    3    3    0  502 -0.97989391412E+03  0.18488768640E+03  0.87048330555E+03  0.13236754644E+04  0.10100000352E+00 0.  1.
</event>
<event>
 5   0  0.9140695E-06  0.2003140E+04  0.7818609E-02  0.8605154E-01
       -1   -1    0    0    0  501  0.00000000000E+00  0.00000000000E+00  0.56387459393E+03  0.56387459395E+03  0.50400001928E-02 0. -1.
        1   -1    0    0  501    0  0.00000000000E+00  0.00000000000E+00 -0.17790170951E+04  0.17790170951E+04  0.50400001928E-02 0.  1.
    10030    2    1    2    0    0  0.00000000000E+00  0.00000000000E+00 -0.12151425011E+04  0.23428916890E+04  0.20031400771E+04 0.  0.
        1    1    3    3  502    0  0.26733153535E+03  0.28816265482E+03  0.46989159247E+03  0.61261894692E+03  0.50400001928E-02 0. -1.
       -1    1    3    3    0  502 -0.26733153535E+03 -0.28816265482E+03 -0.16850340936E+04  0.17302727421E+04  0.50400001928E-02 0.  1.
</event>
<event>
 5   0  0.9140695E-06  0.1993465E+04  0.7818609E-02  0.8609682E-01
       -1   -1    0    0    0  501  0.00000000000E+00  0.00000000000E+00  0.96984468073E+03  0.96984468074E+03  0.50400001928E-02 0.  1.
        1   -1    0    0  501    0  0.00000000000E+00  0.00000000000E+00 -0.10243658714E+04  0.10243658715E+04  0.50400001928E-02 0. -1.
    10030    2    1    2    0    0  0.00000000000E+00  0.00000000000E+00 -0.54521190722E+02  0.19942105522E+04  0.19934651154E+04 0.  0.
        1    1    3    3  502    0  0.44182887652E+03  0.84419702064E+03 -0.31993524771E+03  0.10051069239E+04  0.50400001928E-02 0. -1.
       -1    1    3    3    0  502 -0.44182887652E+03 -0.84419702064E+03  0.26541405699E+03  0.98910362827E+03  0.50400001928E-02 0.  1.
</event>
<event>
 5   0  0.9220260E-06  0.1997587E+04  0.7818609E-02  0.8607750E-01
       -1   -1    0    0    0  501  0.00000000000E+00  0.00000000000E+00  0.60831365871E+03  0.60831365873E+03  0.50400001928E-02 0. -1.
        1   -1    0    0  501    0  0.00000000000E+00  0.00000000000E+00 -0.16399243612E+04  0.16399243612E+04  0.50400001928E-02 0.  1.
    10030    2    1    2    0    0  0.00000000000E+00  0.00000000000E+00 -0.10316107025E+04  0.22482380200E+04  0.19975869325E+04 0.  0.
        3    1    3    3  502    0  0.51318960024E+03 -0.85003763908E+03 -0.63734031246E+03  0.11798856884E+04  0.10100000352E+00 0.  1.
       -3    1    3    3    0  502 -0.51318960024E+03  0.85003763908E+03 -0.39427039004E+03  0.10683523315E+04  0.10100000352E+00 0. -1.
</event>
<event>
 5   0  0.9342635E-06  0.2003754E+04  0.7818609E-02  0.8604868E-01
       -1   -1    0    0    0  501  0.00000000000E+00  0.00000000000E+00  0.22367570636E+04  0.22367570636E+04  0.50400001928E-02 0. -1.
        1   -1    0    0  501    0  0.00000000000E+00  0.00000000000E+00 -0.44875574324E+03  0.44875574327E+03  0.50400001928E-02 0.  1.
    10030    2    1    2    0    0  0.00000000000E+00  0.00000000000E+00  0.17880013203E+04  0.26855128068E+04  0.20037540553E+04 0.  0.
        5    1    3    3  502    0  0.23678592134E+03 -0.75521869454E+03  0.17172539793E+04  0.18908744454E+04  0.46999998093E+01 0. -1.
       -5    1    3    3    0  502 -0.23678592134E+03  0.75521869454E+03  0.70747341057E+02  0.79463836139E+03  0.46999998093E+01 0.  1.
</event>
<event>
 5   0  0.9220260E-06  0.1999867E+04  0.7818609E-02  0.8606683E-01
        1   -1    0    0  501    0  0.00000000000E+00  0.00000000000E+00  0.18242001922E+04  0.18242001922E+04  0.50400001928E-02 0. -1.
       -1   -1    0    0    0  501  0.00000000000E+00  0.00000000000E+00 -0.54811259465E+03  0.54811259468E+03  0.50400001928E-02 0.  1.
    10030    2    1    2    0    0  0.00000000000E+00  0.00000000000E+00  0.12760875975E+04  0.23723127869E+04  0.19998670961E+04 0.  0.
        3    1    3    3  502    0 -0.31590296350E+02 -0.11864158553E+03 -0.53913751941E+03  0.55294036539E+03  0.10100000352E+00 0.  1.
       -3    1    3    3    0  502  0.31590296350E+02  0.11864158553E+03  0.18152251169E+04  0.18193724215E+04  0.10100000352E+00 0. -1.
</event>
<event>
 5   0  0.2003576E-05  0.2001601E+04  0.7818609E-02  0.8605873E-01
       -2   -1    0    0    0  501  0.00000000000E+00  0.00000000000E+00  0.79321917578E+03  0.79321917578E+03  0.25500000920E-02 0. -1.
        2   -1    0    0  501    0  0.00000000000E+00  0.00000000000E+00 -0.12627043442E+04  0.12627043442E+04  0.25500000920E-02 0.  1.
    10030    2    1    2    0    0  0.00000000000E+00  0.00000000000E+00 -0.46948516838E+03  0.20559235199E+04  0.20016006586E+04 0.  0.
        4    1    3    3  502    0  0.42466141204E+03  0.44909270970E+03  0.57375281386E+03  0.84333592423E+03  0.12699999809E+01 0. -1.
       -4    1    3    3    0  502 -0.42466141204E+03 -0.44909270970E+03 -0.10432379822E+04  0.12125875957E+04  0.12699999809E+01 0.  1.
</event>
<event>
 5   0  0.1999142E-05  0.1997065E+04  0.7818609E-02  0.8607994E-01
       -2   -1    0    0    0  501  0.00000000000E+00  0.00000000000E+00  0.77880617032E+03  0.77880617032E+03  0.25500000920E-02 0. -1.
        2   -1    0    0  501    0  0.00000000000E+00  0.00000000000E+00 -0.12802509250E+04  0.12802509250E+04  0.25500000920E-02 0.  1.
    10030    2    1    2    0    0  0.00000000000E+00  0.00000000000E+00 -0.50144475465E+03  0.20590570953E+04  0.19970651666E+04 0.  0.
        1    1    3    3  502    0  0.89886320346E+03  0.12480961834E+03 -0.68022860777E+03  0.11341267382E+04  0.50400001928E-02 0.  1.
       -1    1    3    3    0  502 -0.89886320346E+03 -0.12480961834E+03  0.17878385312E+03  0.92493035713E+03  0.50400001928E-02 0. -1.
</event>
<event>
 5   0  0.9333353E-06  0.1998601E+04  0.7818609E-02  0.8607275E-01
        1   -1    0    0  501    0  0.00000000000E+00  0.00000000000E+00  0.12440812410E+04  0.12440812411E+04  0.50400001928E-02 0. -1.
       -1   -1    0    0    0  501  0.00000000000E+00  0.00000000000E+00 -0.80268224243E+03  0.80268224244E+03  0.50400001928E-02 0.  1.
    10030    2    1    2    0    0  0.00000000000E+00  0.00000000000E+00  0.44139899862E+03  0.20467634835E+04  0.19986014314E+04 0.  0.
        2    1    3    3  502    0  0.43112750164E+03 -0.20708867972E+03 -0.67785244998E+03  0.82960266868E+03  0.25500000920E-02 0.  1.
       -2    1    3    3    0  502 -0.43112750164E+03  0.20708867972E+03  0.11192514486E+04  0.12171608148E+04  0.25500000920E-02 0. -1.
</event>
<event>
 5   0  0.2020029E-05  0.1983727E+04  0.7818609E-02  0.8614267E-01
       -2   -1    0    0    0  501  0.00000000000E+00  0.00000000000E+00  0.68346371528E+03  0.68346371529E+03  0.25500000920E-02 0.  1.
        2   -1    0    0  501    0  0.00000000000E+00  0.00000000000E+00 -0.14394225191E+04  0.14394225191E+04  0.25500000920E-02 0. -1.
    10030    2    1    2    0    0  0.00000000000E+00  0.00000000000E+00 -0.75595880385E+03  0.21228862344E+04  0.19837268590E+04 0.  0.
        5    1    3    3  502    0  0.73600508762E+03  0.66467136622E+03 -0.36008967600E+03  0.10550725941E+04  0.46999998093E+01 0. -1.
       -5    1    3    3    0  502 -0.73600508762E+03 -0.66467136622E+03 -0.39586912785E+03  0.10678136403E+04  0.46999998093E+01 0.  1.
</event>
<event>
 5   0  0.9333353E-06  0.2000612E+04  0.7818609E-02  0.8606335E-01
        1   -1    0    0  501    0  0.00000000000E+00  0.00000000000E+00  0.88433918766E+03  0.88433918768E+03  0.50400001928E-02 0.  1.
       -1   -1    0    0    0  501  0.00000000000E+00  0.00000000000E+00 -0.11314799074E+04  0.11314799074E+04  0.50400001928E-02 0. -1.
    10030    2    1    2    0    0  0.00000000000E+00  0.00000000000E+00 -0.24714071976E+03  0.20158190951E+04  0.20006119286E+04 0.  0.
        2    1    3    3  502    0  0.26776273796E+03 -0.83580657229E+01  0.84752167147E+03  0.88885303888E+03  0.25500000920E-02 0.  1.
       -2    1    3    3    0  502 -0.26776273796E+03  0.83580657229E+01 -0.10946623912E+04  0.11269660562E+04  0.25500000920E-02 0. -1.
</event>
<event>
 5   0  0.1979765E-05  0.1999599E+04  0.7818609E-02  0.8606808E-01
        2   -1    0    0  501    0  0.00000000000E+00  0.00000000000E+00  0.16318914424E+04  0.16318914424E+04  0.25500000920E-02 0. -1.
       -2   -1    0    0    0  501  0.00000000000E+00  0.00000000000E+00 -0.61254031554E+03  0.61254031554E+03  0.25500000920E-02 0.  1.
    10030    2    1    2    0    0  0.00000000000E+00  0.00000000000E+00  0.10193511268E+04  0.22444317579E+04  0.19995992589E+04 0.  0.
        2    1    3    3  502    0 -0.16087182851E+03 -0.51679669533E+03 -0.43386976983E+03  0.69368692268E+03  0.25500000920E-02 0.  1.
       -2    1    3    3    0  502  0.16087182851E+03  0.51679669533E+03  0.14532208966E+04  0.15507448352E+04  0.25500000920E-02 0. -1.
</event>
<event>
 5   0  0.2038882E-05  0.1998251E+04  0.7818609E-02  0.8607439E-01
       -2   -1    0    0    0  501  0.00000000000E+00  0.00000000000E+00  0.80248775016E+03  0.80248775017E+03  0.25500000920E-02 0.  1.
        2   -1    0    0  501    0  0.00000000000E+00  0.00000000000E+00 -0.12439468568E+04  0.12439468568E+04  0.25500000920E-02 0. -1.
    10030    2    1    2    0    0  0.00000000000E+00  0.00000000000E+00 -0.44145910664E+03  0.20464346070E+04  0.19982513500E+04 0.  0.
        3    1    3    3  502    0 -0.96534789653E+03 -0.22418400968E+03 -0.90796031727E+02  0.99518790242E+03  0.10100000352E+00 0.  1.
       -3    1    3    3    0  502  0.96534789653E+03  0.22418400968E+03 -0.35066307491E+03  0.10512467046E+04  0.10100000352E+00 0. -1.
</event>
<event>
 5   0  0.7132000E-06  0.1998226E+04  0.7818609E-02  0.8607451E-01
        3   -1    0    0  501    0  0.00000000000E+00  0.00000000000E+00  0.77102406862E+03  0.77102407524E+03  0.10100000352E+00 0. -1.
       -3   -1    0    0    0  501  0.00000000000E+00  0.00000000000E+00 -0.12946762714E+04  0.12946762753E+04  0.10100000352E+00 0.  1.
    10030    2    1    2    0    0  0.00000000000E+00  0.00000000000E+00 -0.52365220275E+03  0.20657003505E+04  0.19982257902E+04 0.  0.
        3    1    3    3  502    0  0.74277026646E+02 -0.50333043797E+03 -0.11507264506E+04  0.12581851934E+04  0.10100000352E+00 0.  1.
       -3    1    3    3    0  502 -0.74277026646E+02  0.50333043797E+03  0.62707424789E+03  0.80751515716E+03  0.10100000352E+00 0. -1.
</event>
<event>
 5   0  0.1999142E-05  0.2002342E+04  0.7818609E-02  0.8605526E-01
        2   -1    0    0  501    0  0.00000000000E+00  0.00000000000E+00  0.12448503017E+04  0.12448503017E+04  0.25500000920E-02 0.  1.
       -2   -1    0    0    0  501  0.00000000000E+00  0.00000000000E+00 -0.80519193138E+03  0.80519193138E+03  0.25500000920E-02 0. -1.
    10030    2    1    2    0    0  0.00000000000E+00  0.00000000000E+00  0.43965837036E+03  0.20500422331E+04  0.20023420474E+04 0.  0.
        1    1    3    3  502    0 -0.87559653520E+03  0.39505303625E+03  0.50869808203E+03  0.10869728297E+04  0.50400001928E-02 0.  1.
       -1    1    3    3    0  502  0.87559653520E+03 -0.39505303625E+03 -0.69039711669E+02  0.96306940338E+03  0.50400001928E-02 0. -1.
</event>
<event>
 5   0  0.2003576E-05  0.2003037E+04  0.7818609E-02  0.8605202E-01
        2   -1    0    0  501    0  0.00000000000E+00  0.00000000000E+00  0.30747035936E+04  0.30747035936E+04  0.25500000920E-02 0. -1.
       -2   -1    0    0    0  501  0.00000000000E+00  0.00000000000E+00 -0.32622298117E+03  0.32622298118E+03  0.25500000920E-02 0.  1.
    10030    2    1    2    0    0  0.00000000000E+00  0.00000000000E+00  0.27484806125E+04  0.34009265748E+04  0.20030366672E+04 0.  0.
        4    1    3    3  502    0 -0.22331281948E+03  0.26952552654E+03  0.29674727309E+04  0.29880442845E+04  0.12699999809E+01 0. -1.
       -4    1    3    3    0  502  0.22331281948E+03 -0.26952552654E+03 -0.21899211843E+03  0.41288229029E+03  0.12699999809E+01 0.  1.
</event>
<event>
 5   0  0.9342635E-06  0.2000760E+04  0.7818609E-02  0.8606265E-01
       -1   -1    0    0    0  501  0.00000000000E+00  0.00000000000E+00  0.35021426341E+04  0.35021426341E+04  0.50400001928E-02 0. -1.
        1   -1    0    0  501    0  0.00000000000E+00  0.00000000000E+00 -0.28575651984E+03  0.28575651988E+03  0.50400001928E-02 0.  1.
    10030    2    1    2    0    0  0.00000000000E+00  0.00000000000E+00  0.32163861143E+04  0.37878991540E+04  0.20007599468E+04 0.  0.
        5    1    3    3  502    0  0.85328947693E+03 -0.15700882621E+03  0.25509823452E+04  0.26944921077E+04  0.46999998093E+01 0. -1.
       -5    1    3    3    0  502 -0.85328947693E+03  0.15700882621E+03  0.66540376902E+03  0.10934070462E+04  0.46999998093E+01 0.  1.
</event>
<event>
 5   0  0.9370269E-06  0.1997681E+04  0.7818609E-02  0.8607705E-01
        1   -1    0    0  501    0  0.00000000000E+00  0.00000000000E+00  0.69946482590E+03  0.69946482592E+03  0.50400001928E-02 0.  1.
       -1   -1    0    0    0  501  0.00000000000E+00  0.00000000000E+00 -0.14263514447E+04  0.14263514447E+04  0.50400001928E-02 0. -1.
    10030    2    1    2    0    0  0.00000000000E+00  0.00000000000E+00 -0.72688661883E+03  0.21258162707E+04  0.19976813209E+04 0.  0.
        4    1    3    3  502    0 -0.44295627072E+03 -0.56898879377E+03  0.37206466789E+03  0.81141372628E+03  0.12699999809E+01 0.  1.
       -4    1    3    3    0  502  0.44295627072E+03  0.56898879377E+03 -0.10989512867E+04  0.13144025444E+04  0.12699999809E+01 0. -1.
</event>
<event>
 5   0  0.9342635E-06  0.1998051E+04  0.7818609E-02  0.8607532E-01
        1   -1    0    0  501    0  0.00000000000E+00  0.00000000000E+00  0.10241995047E+04  0.10241995047E+04  0.50400001928E-02 0.  1.
       -1   -1    0    0    0  501  0.00000000000E+00  0.00000000000E+00 -0.97447069274E+03  0.97447069275E+03  0.50400001928E-02 0. -1.
    10030    2    1    2    0    0  0.00000000000E+00  0.00000000000E+00  0.49728811930E+02  0.19986701974E+04  0.19980514516E+04 0.  0.
        5    1    3    3  502    0 -0.42059058532E+03  0.88140335717E+03  0.23531489949E+03  0.10045713068E+04  0.46999998093E+01 0.  1.
       -5    1    3    3    0  502  0.42059058532E+03 -0.88140335717E+03 -0.18558608756E+03  0.99409889065E+03  0.46999998093E+01 0. -1.
</event>
<event>
 5   0  0.2038882E-05  0.2016966E+04  0.7818609E-02  0.8598729E-01
        2   -1    0    0  501    0  0.00000000000E+00  0.00000000000E+00  0.63335230583E+03  0.63335230584E+03  0.25500000920E-02 0. -1.
       -2   -1    0    0    0  501  0.00000000000E+00  0.00000000000E+00 -0.16058019188E+04  0.16058019188E+04  0.25500000920E-02 0.  1.
    10030    2    1    2    0    0  0.00000000000E+00  0.00000000000E+00 -0.97244961295E+03  0.22391542246E+04  0.20169663834E+04 0.  0.
        3    1    3    3  502    0 -0.48790979500E+03  0.28121855244E+03 -0.14149834686E+04  0.15229307498E+04  0.10100000352E+00 0. -1.
       -3    1    3    3    0  502  0.48790979500E+03 -0.28121855244E+03  0.44253385560E+03  0.71622347479E+03  0.10100000352E+00 0.  1.
</event>
<event>
 5   0  0.1979765E-05  0.1997278E+04  0.7818609E-02  0.8607894E-01
        2   -1    0    0  501    0  0.00000000000E+00  0.00000000000E+00  0.15526248315E+04  0.15526248315E+04  0.25500000920E-02 0. -1.
       -2   -1    0    0    0  501  0.00000000000E+00  0.00000000000E+00 -0.64231841069E+03  0.64231841070E+03  0.25500000920E-02 0.  1.
    10030    2    1    2    0    0  0.00000000000E+00  0.00000000000E+00  0.91030642082E+03  0.21949432422E+04  0.19972776614E+04 0.  0.
        2    1    3    3  502    0 -0.15081329178E+03 -0.83642380149E+03  0.10313833718E+04  0.13364509285E+04  0.25500000920E-02 0. -1.
       -2    1    3    3    0  502  0.15081329178E+03  0.83642380149E+03 -0.12107695096E+03  0.85849231373E+03  0.25500000920E-02 0.  1.
</event>
<event>
 5   0  0.2020029E-05  0.1993972E+04  0.7818609E-02  0.8609444E-01
       -2   -1    0    0    0  501  0.00000000000E+00  0.00000000000E+00  0.77733647373E+03  0.77733647373E+03  0.25500000920E-02 0.  1.
        2   -1    0    0  501    0  0.00000000000E+00  0.00000000000E+00 -0.12787015155E+04  0.12787015155E+04  0.25500000920E-02 0. -1.
    10030    2    1    2    0    0  0.00000000000E+00  0.00000000000E+00 -0.50136504174E+03  0.20560379892E+04  0.19939722435E+04 0.  0.
        5    1    3    3  502    0  0.29281725466E+03 -0.30840060251E+03  0.67910926573E+03  0.80128918691E+03  0.46999998093E+01 0.  1.
       -5    1    3    3    0  502 -0.29281725466E+03  0.30840060251E+03 -0.11804743075E+04  0.12547488023E+04  0.46999998093E+01 0. -1.
</event>
<event>
 5   0  0.9370269E-06  0.2001531E+04  0.7818609E-02  0.8605905E-01
       -1   -1    0    0    0  501  0.00000000000E+00  0.00000000000E+00  0.76641669208E+03  0.76641669210E+03  0.50400001928E-02 0. -1.
        1   -1    0    0  501    0  0.00000000000E+00  0.00000000000E+00 -0.13067711572E+04  0.13067711572E+04  0.50400001928E-02 0.  1.
    10030    2    1    2    0    0  0.00000000000E+00  0.00000000000E+00 -0.54035446511E+03  0.20731878493E+04  0.20015306419E+04 0.  0.
        4    1    3    3  502    0  0.61809707615E+03 -0.78186611554E+03 -0.17654746928E+03  0.10121903181E+04  0.12699999809E+01 0. -1.
       -4    1    3    3    0  502 -0.61809707615E+03  0.78186611554E+03 -0.36380699583E+03  0.10609975312E+04  0.12699999809E+01 0.  1.
</event>
<event>
 5   0  0.9140695E-06  0.1996184E+04  0.7818609E-02  0.8608407E-01
       -1   -1    0    0    0  501  0.00000000000E+00  0.00000000000E+00  0.55166981619E+03  0.55166981621E+03  0.50400001928E-02 0.  1.
        1   -1    0    0  501    0  0.00000000000E+00  0.00000000000E+00 -0.18057680679E+04  0.18057680679E+04  0.50400001928E-02 0. -1.
    10030    2    1    2    0    0  0.00000000000E+00  0.00000000000E+00 -0.12540982517E+04  0.23574378841E+04  0.19961840979E+04 0.  0.
        1    1    3    3  502    0  0.64119273257E+03 -0.51570671356E+03 -0.12941742403E+04  0.15336128908E+04  0.50400001928E-02 0. -1.
       -1    1    3    3    0  502 -0.64119273257E+03  0.51570671356E+03  0.40075988536E+02  0.82382499331E+03  0.50400001928E-02 0.  1.
</event>
<event>
 5   0  0.1979765E-05  0.1997404E+04  0.7818609E-02  0.8607835E-01
       -2   -1    0    0    0  501  0.00000000000E+00  0.00000000000E+00  0.14788295273E+04  0.14788295273E+04  0.25500000920E-02 0. -1.
        2   -1    0    0  501    0  0.00000000000E+00  0.00000000000E+00 -0.67445601213E+03  0.67445601213E+03  0.25500000920E-02 0.  1.
    10030    2    1    2    0    0  0.00000000000E+00  0.00000000000E+00  0.80437351521E+03  0.21532855395E+04  0.19974037805E+04 0.  0.
        2    1    3    3  502    0 -0.22848664090E+03  0.86956156933E+03 -0.66559569265E+02  0.90153959657E+03  0.25500000920E-02 0.  1.
       -2    1    3    3    0  502  0.22848664090E+03 -0.86956156933E+03  0.87093308448E+03  0.12517459429E+04  0.25500000920E-02 0. -1.
</event>
<event>
 5   0  0.7132000E-06  0.1999344E+04  0.7818609E-02  0.8606927E-01
        3   -1    0    0  501    0  0.00000000000E+00  0.00000000000E+00  0.10771312586E+04  0.10771312634E+04  0.10100000352E+00 0. -1.
       -3   -1    0    0    0  501  0.00000000000E+00  0.00000000000E+00 -0.92778319428E+03  0.92778319977E+03  0.10100000352E+00 0.  1.
    10030    2    1    2    0    0  0.00000000000E+00  0.00000000000E+00  0.14934806435E+03  0.20049144631E+04  0.19993441825E+04 0.  0.
        4    1    3    3  502    0 -0.15274017167E+03 -0.20148792672E+03  0.10445375435E+04  0.10747033252E+04  0.12699999809E+01 0. -1.
       -4    1    3    3    0  502  0.15274017167E+03  0.20148792672E+03 -0.89518947912E+03  0.93021113790E+03  0.12699999809E+01 0.  1.
</event>
<event>
 5   0  0.9370269E-06  0.2004393E+04  0.7818609E-02  0.8604570E-01
        1   -1    0    0  501    0  0.00000000000E+00  0.00000000000E+00  0.10287120210E+04  0.10287120210E+04  0.50400001928E-02 0. -1.
       -1   -1    0    0    0  501  0.00000000000E+00  0.00000000000E+00 -0.97636448913E+03  0.97636448915E+03  0.50400001928E-02 0.  1.
    10030    2    1    2    0    0  0.00000000000E+00  0.00000000000E+00  0.52347531871E+02  0.20050765102E+04  0.20043930621E+04 0.  0.
        4    1    3    3  502    0 -0.25706594870E+03  0.27127671104E+03 -0.90404777545E+03  0.97825249764E+03  0.12699999809E+01 0.  1.
       -4    1    3    3    0  502  0.25706594870E+03 -0.27127671104E+03  0.95639530732E+03  0.10268240125E+04  0.12699999809E+01 0. -1.
</event>
<event>
 5   0  0.2003576E-05  0.1998666E+04  0.7818609E-02  0.8607245E-01
       -2   -1    0    0    0  501  0.00000000000E+00  0.00000000000E+00  0.98511826136E+03  0.98511826136E+03  0.25500000920E-02 0. -1.
        2   -1    0    0  501    0  0.00000000000E+00  0.00000000000E+00 -0.10137527202E+04  0.10137527202E+04  0.25500000920E-02 0.  1.
    10030    2    1    2    0    0  0.00000000000E+00  0.00000000000E+00 -0.28634458799E+02  0.19988709815E+04  0.19986658722E+04 0.  0.
        4    1    3    3  502    0  0.30509434938E+03  0.13328444793E+03  0.92802009275E+03  0.98593621068E+03  0.12699999809E+01 0. -1.
       -4    1    3    3    0  502 -0.30509434938E+03 -0.13328444793E+03 -0.95665455155E+03  0.10129347708E+04  0.12699999809E+01 0.  1.
</event>
<event>
 5   0  0.9342635E-06  0.2000389E+04  0.7818609E-02  0.8606439E-01
       -1   -1    0    0    0  501  0.00000000000E+00  0.00000000000E+00  0.54859351904E+03  0.54859351907E+03  0.50400001928E-02 0. -1.
        1   -1    0    0  501    0  0.00000000000E+00  0.00000000000E+00 -0.18235528554E+04  0.18235528554E+04  0.50400001928E-02 0.  1.
    10030    2    1    2    0    0  0.00000000000E+00  0.00000000000E+00 -0.12749593364E+04  0.23721463745E+04  0.20003892403E+04 0.  0.
        5    1    3    3  502    0  0.12693362443E+03 -0.46647777824E+03 -0.16757884867E+04  0.17441338265E+04  0.46999998093E+01 0.  1.
       -5    1    3    3    0  502 -0.12693362443E+03  0.46647777824E+03  0.40082915037E+03  0.62801254795E+03  0.46999998093E+01 0. -1.
</event>
<event>
 5   0  0.2020029E-05  0.2000661E+04  0.7818609E-02  0.8606312E-01
        2   -1    0    0  501    0  0.00000000000E+00  0.00000000000E+00  0.22056819300E+04  0.22056819300E+04  0.25500000920E-02 0.  1.
       -2   -1    0    0    0  501  0.00000000000E+00  0.00000000000E+00 -0.45367403879E+03  0.45367403879E+03  0.25500000920E-02 0. -1.
    10030    2    1    2    0    0  0.00000000000E+00  0.00000000000E+00  0.17520078912E+04  0.26593559688E+04  0.20006605204E+04 0.  0.
        5    1    3    3  502    0  0.68014934237E+03 -0.11337648075E+02  0.18508961932E+04  0.19719458609E+04  0.46999998093E+01 0.  1.
       -5    1    3    3    0  502 -0.68014934237E+03  0.11337648075E+02 -0.98888301997E+02  0.68741010791E+03  0.46999998093E+01 0. -1.
</event>
<event>
 5   0  0.1999142E-05  0.1997601E+04  0.7818609E-02  0.8607743E-01
        2   -1    0    0  501    0  0.00000000000E+00  0.00000000000E+00  0.16894669896E+04  0.16894669896E+04  0.25500000920E-02 0. -1.
       -2   -1    0    0    0  501  0.00000000000E+00  0.00000000000E+00 -0.59048375988E+03  0.59048375989E+03  0.25500000920E-02 0.  1.
    10030    2    1    2    0    0  0.00000000000E+00  0.00000000000E+00  0.10989832297E+04  0.22799507494E+04  0.19976013819E+04 0.  0.
        1    1    3    3  502    0  0.97217956169E+02 -0.88381464980E+03  0.10688009101E+04  0.13902931532E+04  0.50400001928E-02 0. -1.
       -1    1    3    3    0  502 -0.97217956169E+02  0.88381464980E+03  0.30182319554E+02  0.88965759629E+03  0.50400001928E-02 0.  1.
</event>
<event>
 5   0  0.9220260E-06  0.1973508E+04  0.7818609E-02  0.8619108E-01
       -1   -1    0    0    0  501  0.00000000000E+00  0.00000000000E+00  0.59284293069E+03  0.59284293071E+03  0.50400001928E-02 0. -1.
        1   -1    0    0  501    0  0.00000000000E+00  0.00000000000E+00 -0.16423967919E+04  0.16423967919E+04  0.50400001928E-02 0.  1.
    10030    2    1    2    0    0  0.00000000000E+00  0.00000000000E+00 -0.10495538612E+04  0.22352397226E+04  0.19735078692E+04 0.  0.
        3    1    3    3  502    0 -0.27324051989E+02  0.98490166422E+03 -0.58582755349E+03  0.11462861007E+04  0.10100000352E+00 0. -1.
       -3    1    3    3    0  502  0.27324051989E+02 -0.98490166422E+03 -0.46372630767E+03  0.10889536219E+04  0.10100000352E+00 0.  1.
</event>
<event>
 5   0  0.9370269E-06  0.1999802E+04  0.7818609E-02  0.8606713E-01
        1   -1    0    0  501    0  0.00000000000E+00  0.00000000000E+00  0.15139246482E+04  0.15139246482E+04  0.50400001928E-02 0. -1.
       -1   -1    0    0    0  501  0.00000000000E+00  0.00000000000E+00 -0.66040403116E+03  0.66040403118E+03  0.50400001928E-02 0.  1.
    10030    2    1    2    0    0  0.00000000000E+00  0.00000000000E+00  0.85352061701E+03  0.21743286794E+04  0.19998019307E+04 0.  0.
        4    1    3    3  502    0  0.19541013451E+03  0.55199850531E+03 -0.45447541019E+03  0.74124016479E+03  0.12699999809E+01 0.  1.
       -4    1    3    3    0  502 -0.19541013451E+03 -0.55199850531E+03  0.13079960272E+04  0.14330885146E+04  0.12699999809E+01 0. -1.
</event>
<event>
 5   0  0.9370269E-06  0.1998015E+04  0.7818609E-02  0.8607549E-01
       -1   -1    0    0    0  501  0.00000000000E+00  0.00000000000E+00  0.10122900115E+04  0.10122900115E+04  0.50400001928E-02 0. -1.
        1   -1    0    0  501    0  0.00000000000E+00  0.00000000000E+00 -0.98589918478E+03  0.98589918479E+03  0.50400001928E-02 0.  1.
    10030    2    1    2    0    0  0.00000000000E+00  0.00000000000E+00  0.26390826700E+02  0.19981891963E+04  0.19980149120E+04 0.  0.
        4    1    3    3  502    0  0.19503774710E+03 -0.95842618266E+03 -0.19027703093E+03  0.99640726202E+03  0.12699999809E+01 0.  1.
       -4    1    3    3    0  502 -0.19503774710E+03  0.95842618266E+03  0.21666785763E+03  0.10017819343E+04  0.12699999809E+01 0. -1.
</event>
<event>
 5   0  0.9370269E-06  0.1999501E+04  0.7818609E-02  0.8606854E-01
        1   -1    0    0  501    0  0.00000000000E+00  0.00000000000E+00  0.65342637958E+03  0.65342637960E+03  0.50400001928E-02 0.  1.
       -1   -1    0    0    0  501  0.00000000000E+00  0.00000000000E+00 -0.15296305250E+04  0.15296305250E+04  0.50400001928E-02 0. -1.
    10030    2    1    2    0    0  0.00000000000E+00  0.00000000000E+00 -0.87620414541E+03  0.21830569046E+04  0.19995008738E+04 0.  0.
        4    1    3    3  502    0 -0.13993767561E+02  0.35972199776E+03 -0.14564097492E+04  0.15002422176E+04  0.12699999809E+01 0. -1.
       -4    1    3    3    0  502  0.13993767561E+02 -0.35972199776E+03  0.58020560376E+03  0.68281468696E+03  0.12699999809E+01 0.  1.
</event>
<event>
 5   0  0.9140695E-06  0.2000697E+04  0.7818609E-02  0.8606295E-01
       -1   -1    0    0    0  501  0.00000000000E+00  0.00000000000E+00  0.91709114576E+03  0.91709114577E+03  0.50400001928E-02 0. -1.
        1   -1    0    0  501    0  0.00000000000E+00  0.00000000000E+00 -0.10911643011E+04  0.10911643011E+04  0.50400001928E-02 0.  1.
    10030    2    1    2    0    0  0.00000000000E+00  0.00000000000E+00 -0.17407315536E+03  0.20082554469E+04  0.20006969977E+04 0.  0.
        1    1    3    3  502    0 -0.69382161914E+03 -0.62154977546E+03 -0.45308474587E+03  0.10358563363E+04  0.50400001928E-02 0.  1.
       -1    1    3    3    0  502  0.69382161914E+03  0.62154977546E+03  0.27901159051E+03  0.97239911057E+03  0.50400001928E-02 0. -1.
</event>
<event>
 5   0  0.2020029E-05  0.2001566E+04  0.7818609E-02  0.8605889E-01
       -2   -1    0    0    0  501  0.00000000000E+00  0.00000000000E+00  0.11747292267E+04  0.11747292267E+04  0.25500000920E-02 0.  1.
        2   -1    0    0  501    0  0.00000000000E+00  0.00000000000E+00 -0.85259333833E+03  0.85259333833E+03  0.25500000920E-02 0. -1.
    10030    2    1    2    0    0  0.00000000000E+00  0.00000000000E+00  0.32213588839E+03  0.20273225651E+04  0.20015657002E+04 0.  0.
        5    1    3    3  502    0  0.17683517483E+03 -0.13743875472E+03 -0.82687293504E+03  0.85668023852E+03  0.46999998093E+01 0. -1.
       -5    1    3    3    0  502 -0.17683517483E+03  0.13743875472E+03  0.11490088234E+04  0.11706423265E+04  0.46999998093E+01 0.  1.
</event>
<event>
 5   0  0.1979765E-05  0.2000515E+04  0.7818609E-02  0.8606380E-01
       -2   -1    0    0    0  501  0.00000000000E+00  0.00000000000E+00  0.13136729204E+04  0.13136729204E+04  0.25500000920E-02 0. -1.
        2   -1    0    0  501    0  0.00000000000E+00  0.00000000000E+00 -0.76161693845E+03  0.76161693845E+03  0.25500000920E-02 0.  1.
    10030    2    1    2    0    0  0.00000000000E+00  0.00000000000E+00  0.55205598191E+03  0.20752898588E+04  0.20005154813E+04 0.  0.
        2    1    3    3  502    0 -0.18468465442E+03  0.88729477668E+03  0.71506684263E+03  0.11544353736E+04  0.25500000920E-02 0. -1.
       -2    1    3    3    0  502  0.18468465442E+03 -0.88729477668E+03 -0.16301086071E+03  0.92085448526E+03  0.25500000920E-02 0.  1.
</event>
<event>
 5   0  0.9333353E-06  0.2001659E+04  0.7818609E-02  0.8605846E-01
        1   -1    0    0  501    0  0.00000000000E+00  0.00000000000E+00  0.14859534557E+04  0.14859534557E+04  0.50400001928E-02 0. -1.
       -1   -1    0    0    0  501  0.00000000000E+00  0.00000000000E+00 -0.67408533419E+03  0.67408533421E+03  0.50400001928E-02 0.  1.
    10030    2    1    2    0    0  0.00000000000E+00  0.00000000000E+00  0.81186812153E+03  0.21600387899E+04  0.20016587440E+04 0.  0.
        2    1    3    3  502    0  0.22510113836E+03 -0.38129738498E+03  0.13745052981E+04  0.14440647606E+04  0.25500000920E-02 0. -1.
       -2    1    3    3    0  502 -0.22510113836E+03  0.38129738498E+03 -0.56263717654E+03  0.71597402937E+03  0.25500000920E-02 0.  1.
</event>
<event>
 5   0  0.9140695E-06  0.2000596E+04  0.7818609E-02  0.8606342E-01
        1   -1    0    0  501    0  0.00000000000E+00  0.00000000000E+00  0.13445941527E+04  0.13445941527E+04  0.50400001928E-02 0. -1.
       -1   -1    0    0    0  501  0.00000000000E+00  0.00000000000E+00 -0.74416201949E+03  0.74416201951E+03  0.50400001928E-02 0.  1.
    10030    2    1    2    0    0  0.00000000000E+00  0.00000000000E+00  0.60043213323E+03  0.20887561722E+04  0.20005958114E+04 0.  0.
        1    1    3    3  502    0  0.90202430979E+03 -0.36698668535E+03  0.61517545571E+02  0.97576200537E+03  0.50400001928E-02 0. -1.
       -1    1    3    3    0  502 -0.90202430979E+03  0.36698668535E+03  0.53891458766E+03  0.11129941669E+04  0.50400001928E-02 0.  1.
</event>
<event>
 5   0  0.9220260E-06  0.2012300E+04  0.7818609E-02  0.8600891E-01
        1   -1    0    0  501    0  0.00000000000E+00  0.00000000000E+00  0.29977835337E+04  0.29977835337E+04  0.50400001928E-02 0.  1.
       -1   -1    0    0    0  501  0.00000000000E+00  0.00000000000E+00 -0.33769550381E+03  0.33769550385E+03  0.50400001928E-02 0. -1.
    10030    2    1    2    0    0  0.00000000000E+00  0.00000000000E+00  0.26600880298E+04  0.33354790375E+04  0.20123001971E+04 0.  0.
        3    1    3    3  502    0  0.16287885683E+03  0.61638296646E+03  0.39838353667E+02  0.63878367854E+03  0.10100000352E+00 0. -1.
       -3    1    3    3    0  502 -0.16287885683E+03 -0.61638296646E+03  0.26202496762E+04  0.26966953590E+04  0.10100000352E+00 0.  1.
</event>
<event>
 5   0  0.9140695E-06  0.1994593E+04  0.7818609E-02  0.8609153E-01
       -1   -1    0    0    0  501  0.00000000000E+00  0.00000000000E+00  0.10073566525E+04  0.10073566525E+04  0.50400001928E-02 0. -1.
        1   -1    0    0  501    0  0.00000000000E+00  0.00000000000E+00 -0.98733670879E+03  0.98733670880E+03  0.50400001928E-02 0.  1.
    10030    2    1    2    0    0  0.00000000000E+00  0.00000000000E+00  0.20019943692E+02  0.19946933613E+04  0.19945928927E+04 0.  0.
        1    1    3    3  502    0  0.18386991387E+03  0.72994935555E+03  0.66423402348E+03  0.10039128672E+04  0.50400001928E-02 0. -1.
       -1    1    3    3    0  502 -0.18386991387E+03 -0.72994935555E+03 -0.64421407979E+03  0.99078049412E+03  0.50400001928E-02 0.  1.
</event>
<event>
 5   0  0.9370269E-06  0.2003127E+04  0.7818609E-02  0.8605160E-01
       -1   -1    0    0    0  501  0.00000000000E+00  0.00000000000E+00  0.77478335644E+03  0.77478335645E+03  0.50400001928E-02 0.  1.
        1   -1    0    0  501    0  0.00000000000E+00  0.00000000000E+00 -0.12947228796E+04  0.12947228796E+04  0.50400001928E-02 0. -1.
    10030    2    1    2    0    0  0.00000000000E+00  0.00000000000E+00 -0.51993952314E+03  0.20695062360E+04  0.20031272933E+04 0.  0.
        4    1    3    3  502    0  0.12119328473E+03 -0.97121515411E+03 -0.40366789418E+02  0.97958040937E+03  0.12699999809E+01 0.  1.
       -4    1    3    3    0  502 -0.12119328473E+03  0.97121515411E+03 -0.47957273373E+03  0.10899258267E+04  0.12699999809E+01 0. -1.
</event>
<event>
 5   0  0.9370269E-06  0.2000792E+04  0.7818609E-02  0.8606251E-01
       -1   -1    0    0    0  501  0.00000000000E+00  0.00000000000E+00  0.12808202565E+04  0.12808202565E+04  0.50400001928E-02 0.  1.
        1   -1    0    0  501    0  0.00000000000E+00  0.00000000000E+00 -0.78136798190E+03  0.78136798192E+03  0.50400001928E-02 0. -1.
    10030    2    1    2    0    0  0.00000000000E+00  0.00000000000E+00  0.49945227455E+03  0.20621882384E+04  0.20007917823E+04 0.  0.
        4    1    3    3  502    0  0.81985099276E+03 -0.12769226722E+02 -0.34098524398E+03  0.88802660601E+03  0.12699999809E+01 0. -1.
       -4    1    3    3    0  502 -0.81985099276E+03  0.12769226722E+02  0.84043751853E+03  0.11741616324E+04  0.12699999809E+01 0.  1.
</event>
<event>
 5   0  0.9220260E-06  0.2005022E+04  0.7818609E-02  0.8604276E-01
       -1   -1    0    0    0  501  0.00000000000E+00  0.00000000000E+00  0.78920517226E+03  0.78920517228E+03  0.50400001928E-02 0.  1.
        1   -1    0    0  501    0  0.00000000000E+00  0.00000000000E+00 -0.12734693154E+04  0.12734693154E+04  0.50400001928E-02 0. -1.
    10030    2    1    2    0    0  0.00000000000E+00  0.00000000000E+00 -0.48426414311E+03  0.20626744877E+04  0.20050222646E+04 0.  0.
        3    1    3    3  502    0 -0.90448651641E+03 -0.18332030840E+03 -0.64496032120E+03  0.11259111954E+04  0.10100000352E+00 0. -1.
       -3    1    3    3    0  502  0.90448651641E+03  0.18332030840E+03  0.16069617809E+03  0.93676329224E+03  0.10100000352E+00 0.  1.
</event>
<event>
 5   0  0.1979765E-05  0.1998620E+04  0.7818609E-02  0.8607266E-01
        2   -1    0    0  501    0  0.00000000000E+00  0.00000000000E+00  0.11822887620E+04  0.11822887620E+04  0.25500000920E-02 0. -1.
       -2   -1    0    0    0  501  0.00000000000E+00  0.00000000000E+00 -0.84465009596E+03  0.84465009596E+03  0.25500000920E-02 0.  1.
    10030    2    1    2    0    0  0.00000000000E+00  0.00000000000E+00  0.33763866603E+03  0.20269388579E+04  0.19986198401E+04 0.  0.
        2    1    3    3  502    0 -0.61559358434E+02 -0.21978527513E+03 -0.81786116297E+03  0.84911247999E+03  0.25500000920E-02 0.  1.
       -2    1    3    3    0  502  0.61559358434E+02  0.21978527513E+03  0.11554998290E+04  0.11778263780E+04  0.25500000920E-02 0. -1.
</event>
<event>
 5   0  0.9342635E-06  0.1997094E+04  0.7818609E-02  0.8607981E-01
       -1   -1    0    0    0  501  0.00000000000E+00  0.00000000000E+00  0.15404610202E+04  0.15404610202E+04  0.50400001928E-02 0.  1.
        1   -1    0    0  501    0  0.00000000000E+00  0.00000000000E+00 -0.64727105155E+03  0.64727105157E+03  0.50400001928E-02 0. -1.
    10030    2    1    2    0    0  0.00000000000E+00  0.00000000000E+00  0.89318996865E+03  0.21877320718E+04  0.19970937128E+04 0.  0.
        5    1    3    3  502    0  0.72540810960E+03  0.68108252283E+03  0.53813886883E+03  0.11312408499E+04  0.46999998093E+01 0.  1.
       -5    1    3    3    0  502 -0.72540810960E+03 -0.68108252283E+03  0.35505109982E+03  0.10564912219E+04  0.46999998093E+01 0. -1.
</event>
<event>
 5   0  0.1999142E-05  0.1999875E+04  0.7818609E-02  0.8606679E-01
       -2   -1    0    0    0  501  0.00000000000E+00  0.00000000000E+00  0.67009881176E+03  0.67009881177E+03  0.25500000920E-02 0.  1.
        2   -1    0    0  501    0  0.00000000000E+00  0.00000000000E+00 -0.14921308517E+04  0.14921308517E+04  0.25500000920E-02 0. -1.
    10030    2    1    2    0    0  0.00000000000E+00  0.00000000000E+00 -0.82203203989E+03  0.21622296634E+04  0.19998751068E+04 0.  0.
        1    1    3    3  502    0  0.49052463709E+03  0.22356679295E+03 -0.13215735051E+04  0.14272887094E+04  0.50400001928E-02 0. -1.
       -1    1    3    3    0  502 -0.49052463709E+03 -0.22356679295E+03  0.49954146518E+03  0.73494095407E+03  0.50400001928E-02 0.  1.
</event>
<event>
 5   0  0.9220260E-06  0.1999161E+04  0.7818609E-02  0.8607013E-01
       -1   -1    0    0    0  501  0.00000000000E+00  0.00000000000E+00  0.73520908593E+03  0.73520908595E+03  0.50400001928E-02 0. -1.
        1   -1    0    0  501    0  0.00000000000E+00  0.00000000000E+00 -0.13590162240E+04  0.13590162240E+04  0.50400001928E-02 0.  1.
    10030    2    1    2    0    0  0.00000000000E+00  0.00000000000E+00 -0.62380713810E+03  0.20942253100E+04  0.19991608998E+04 0.  0.
        3    1    3    3  502    0  0.83070078952E+03  0.49118592387E+03 -0.39069716895E+02  0.96584360354E+03  0.10100000352E+00 0. -1.
       -3    1    3    3    0  502 -0.83070078952E+03 -0.49118592387E+03 -0.58473742121E+03  0.11283817065E+04  0.10100000352E+00 0.  1.
</event>
<event>
 5   0  0.1999142E-05  0.1999271E+04  0.7818609E-02  0.8606962E-01
        2   -1    0    0  501    0  0.00000000000E+00  0.00000000000E+00  0.12744866906E+04  0.12744866906E+04  0.25500000920E-02 0. -1.
       -2   -1    0    0    0  501  0.00000000000E+00  0.00000000000E+00 -0.78405738774E+03  0.78405738775E+03  0.25500000920E-02 0.  1.
    10030    2    1    2    0    0  0.00000000000E+00  0.00000000000E+00  0.49042930282E+03  0.20585440783E+04  0.19992705723E+04 0.  0.
        1    1    3    3  502    0  0.65908702180E+03 -0.32853724851E+03  0.94122767828E+03  0.11950907783E+04  0.50400001928E-02 0. -1.
       -1    1    3    3    0  502 -0.65908702180E+03  0.32853724851E+03 -0.45079837547E+03  0.86345330002E+03  0.50400001928E-02 0.  1.
</event>
<event>
 5   0  0.9140695E-06  0.1985964E+04  0.7818609E-02  0.8613211E-01
       -1   -1    0    0    0  501  0.00000000000E+00  0.00000000000E+00  0.73163261833E+03  0.73163261835E+03  0.50400001928E-02 0.  1.
        1   -1    0    0  501    0  0.00000000000E+00  0.00000000000E+00 -0.13476891762E+04  0.13476891762E+04  0.50400001928E-02 0. -1.
    10030    2    1    2    0    0  0.00000000000E+00  0.00000000000E+00 -0.61605655783E+03  0.20793217945E+04  0.19859641091E+04 0.  0.
        1    1    3    3  502    0 -0.21959152718E+03 -0.41310895125E+03 -0.12250632592E+04  0.13113578587E+04  0.50400001928E-02 0. -1.
       -1    1    3    3    0  502  0.21959152718E+03  0.41310895125E+03  0.60900670138E+03  0.76796393585E+03  0.50400001928E-02 0.  1.
</event>
<event>
 5   0  0.2020029E-05  0.1998134E+04  0.7818609E-02  0.8607493E-01
       -2   -1    0    0    0  501  0.00000000000E+00  0.00000000000E+00  0.19376656347E+04  0.19376656347E+04  0.25500000920E-02 0. -1.
        2   -1    0    0  501    0  0.00000000000E+00  0.00000000000E+00 -0.51512256648E+03  0.51512256648E+03  0.25500000920E-02 0.  1.
    10030    2    1    2    0    0  0.00000000000E+00  0.00000000000E+00  0.14225430683E+04  0.24527882012E+04  0.19981344246E+04 0.  0.
        5    1    3    3  502    0 -0.96899622048E+03 -0.16800979363E+03  0.49537731049E+03  0.11011819722E+04  0.46999998093E+01 0.  1.
       -5    1    3    3    0  502  0.96899622048E+03  0.16800979363E+03  0.92716575776E+03  0.13516062291E+04  0.46999998093E+01 0. -1.
</event>
<event>
 5   0  0.9333353E-06  0.1998435E+04  0.7818609E-02  0.8607353E-01
        1   -1    0    0  501    0  0.00000000000E+00  0.00000000000E+00  0.17919175763E+04  0.17919175763E+04  0.50400001928E-02 0. -1.
       -1   -1    0    0    0  501  0.00000000000E+00  0.00000000000E+00 -0.55718811699E+03  0.55718811701E+03  0.50400001928E-02 0.  1.
    10030    2    1    2    0    0  0.00000000000E+00  0.00000000000E+00  0.12347294593E+04  0.23491056933E+04  0.19984345675E+04 0.  0.
        2    1    3    3  502    0  0.47771975509E+03  0.84625887375E+03  0.89068413313E+03  0.13182141218E+04  0.25500000920E-02 0.  1.
       -2    1    3    3    0  502 -0.47771975509E+03 -0.84625887375E+03  0.34404532617E+03  0.10308915715E+04  0.25500000920E-02 0. -1.
</event>
<event>
 5   0  0.2038882E-05  0.1994940E+04  0.7818609E-02  0.8608990E-01
        2   -1    0    0  501    0  0.00000000000E+00  0.00000000000E+00  0.18888303504E+04  0.18888303504E+04  0.25500000920E-02 0.  1.
       -2   -1    0    0    0  501  0.00000000000E+00  0.00000000000E+00 -0.52675246474E+03  0.52675246475E+03  0.25500000920E-02 0. -1.
    10030    2    1    2    0    0  0.00000000000E+00  0.00000000000E+00  0.13620778857E+04  0.24155828152E+04  0.19949396408E+04 0.  0.
        3    1    3    3  502    0  0.48662808487E+03  0.86191315156E+03  0.83054330715E+03  0.12920926318E+04  0.10100000352E+00 0.  1.
       -3    1    3    3    0  502 -0.48662808487E+03 -0.86191315156E+03  0.53153457853E+03  0.11234901834E+04  0.10100000352E+00 0. -1.
</event>
<event>
 5   0  0.1979765E-05  0.2007859E+04  0.7818609E-02  0.8602955E-01
        2   -1    0    0  501    0  0.00000000000E+00  0.00000000000E+00  0.58833675856E+03  0.58833675857E+03  0.25500000920E-02 0. -1.
       -2   -1    0    0    0  501  0.00000000000E+00  0.00000000000E+00 -0.17130904378E+04  0.17130904378E+04  0.25500000920E-02 0.  1.
    10030    2    1    2    0    0  0.00000000000E+00  0.00000000000E+00 -0.11247536792E+04  0.23014271963E+04  0.20078586357E+04 0.  0.
        2    1    3    3  502    0 -0.13415744792E+03 -0.49299109354E+03  0.42817366693E+03  0.66661167722E+03  0.25500000920E-02 0. -1.
       -2    1    3    3    0  502  0.13415744792E+03  0.49299109354E+03 -0.15529273461E+04  0.16348155191E+04  0.25500000920E-02 0.  1.
</event>
<event>
 5   0  0.9333353E-06  0.2005181E+04  0.7818609E-02  0.8604202E-01
        1   -1    0    0  501    0  0.00000000000E+00  0.00000000000E+00  0.12390095761E+04  0.12390095762E+04  0.50400001928E-02 0.  1.
       -1   -1    0    0    0  501  0.00000000000E+00  0.00000000000E+00 -0.81128328605E+03  0.81128328607E+03  0.50400001928E-02 0. -1.
    10030    2    1    2    0    0  0.00000000000E+00  0.00000000000E+00  0.42772629009E+03  0.20502928622E+04  0.20051810496E+04 0.  0.
        2    1    3    3  502    0 -0.58224706636E+03 -0.68229870243E+03 -0.24414799417E+03  0.92959744443E+03  0.25500000920E-02 0. -1.
       -2    1    3    3    0  502  0.58224706636E+03  0.68229870243E+03  0.67187428425E+03  0.11206954178E+04  0.25500000920E-02 0.  1.
</event>
<event>
 5   0  0.2020029E-05  0.2000334E+04  0.7818609E-02  0.8606464E-01
        2   -1    0    0  501    0  0.00000000000E+00  0.00000000000E+00  0.77321377038E+03  0.77321377039E+03  0.25500000920E-02 0.  1.
       -2   -1    0    0    0  501  0.00000000000E+00  0.00000000000E+00 -0.12937358847E+04  0.12937358847E+04  0.25500000920E-02 0. -1.
    10030    2    1    2    0    0  0.00000000000E+00  0.00000000000E+00 -0.52052211433E+03  0.20669496551E+04  0.20003343734E+04 0.  0.
        5    1    3    3  502    0  0.75485010396E+03 -0.59818157019E+03  0.18333050597E+02  0.96331617920E+03  0.46999998093E+01 0.  1.
       -5    1    3    3    0  502 -0.75485010396E+03  0.59818157019E+03 -0.53885516493E+03  0.11036334759E+04  0.46999998093E+01 0. -1.
</event>
<event>
 5   0  0.2020029E-05  0.2016129E+04  0.7818609E-02  0.8599117E-01
       -2   -1    0    0    0  501  0.00000000000E+00  0.00000000000E+00  0.47257915738E+03  0.47257915739E+03  0.25500000920E-02 0. -1.
        2   -1    0    0  501    0  0.00000000000E+00  0.00000000000E+00 -0.21503147113E+04  0.21503147113E+04  0.25500000920E-02 0.  1.
    10030    2    1    2    0    0  0.00000000000E+00  0.00000000000E+00 -0.16777355539E+04  0.26228938687E+04  0.20161288792E+04 0.  0.
        5    1    3    3  502    0  0.42699082134E+03 -0.14142432042E+03 -0.20125068628E+04  0.20621658427E+04  0.46999998093E+01 0.  1.
       -5    1    3    3    0  502 -0.42699082134E+03  0.14142432042E+03  0.33477130887E+03  0.56072802602E+03  0.46999998093E+01 0. -1.
</event>
<event>
 5   0  0.2038882E-05  0.1991860E+04  0.7818609E-02  0.8610436E-01
        2   -1    0    0  501    0  0.00000000000E+00  0.00000000000E+00  0.11922087158E+04  0.11922087158E+04  0.25500000920E-02 0. -1.
       -2   -1    0    0    0  501  0.00000000000E+00  0.00000000000E+00 -0.83196527752E+03  0.83196527753E+03  0.25500000920E-02 0.  1.
    10030    2    1    2    0    0  0.00000000000E+00  0.00000000000E+00  0.36024343830E+03  0.20241739933E+04  0.19918596890E+04 0.  0.
        3    1    3    3  502    0 -0.59897413581E+03  0.32911421573E+03 -0.55605469548E+03  0.88106924639E+03  0.10100000352E+00 0.  1.
       -3    1    3    3    0  502  0.59897413581E+03 -0.32911421573E+03  0.91629813377E+03  0.11431047470E+04  0.10100000352E+00 0. -1.
</event>
<event>
 5   0  0.1999142E-05  0.2001066E+04  0.7818609E-02  0.8606122E-01
        2   -1    0    0  501    0  0.00000000000E+00  0.00000000000E+00  0.15470161062E+04  0.15470161062E+04  0.25500000920E-02 0.  1.
       -2   -1    0    0    0  501  0.00000000000E+00  0.00000000000E+00 -0.64709523260E+03  0.64709523260E+03  0.25500000920E-02 0. -1.
    10030    2    1    2    0    0  0.00000000000E+00  0.00000000000E+00  0.89992087357E+03  0.21941113388E+04  0.20010664627E+04 0.  0.
        1    1    3    3  502    0  0.40717296748E+03 -0.29844565184E+03 -0.49720717954E+03  0.70857223482E+03  0.50400001928E-02 0. -1.
       -1    1    3    3    0  502 -0.40717296748E+03  0.29844565184E+03  0.13971280531E+04  0.14855391040E+04  0.50400001928E-02 0.  1.
</event>
<event>
 5   0  0.9342635E-06  0.1999062E+04  0.7818609E-02  0.8607059E-01
        1   -1    0    0  501    0  0.00000000000E+00  0.00000000000E+00  0.11945007474E+04  0.11945007474E+04  0.50400001928E-02 0. -1.
       -1   -1    0    0    0  501  0.00000000000E+00  0.00000000000E+00 -0.83638460156E+03  0.83638460157E+03  0.50400001928E-02 0.  1.
    10030    2    1    2    0    0  0.00000000000E+00  0.00000000000E+00  0.35811614581E+03  0.20308853490E+04  0.19990618116E+04 0.  0.
        5    1    3    3  502    0 -0.97514719174E+03 -0.41970952680E+02  0.39781437294E+03  0.10540170643E+04  0.46999998093E+01 0. -1.
       -5    1    3    3    0  502  0.97514719174E+03  0.41970952680E+02 -0.39698227126E+02  0.97686828470E+03  0.46999998093E+01 0.  1.
</event>
<event>
 5   0  0.9140695E-06  0.1999517E+04  0.7818609E-02  0.8606847E-01
        1   -1    0    0  501    0  0.00000000000E+00  0.00000000000E+00  0.11824708807E+04  0.11824708807E+04  0.50400001928E-02 0.  1.
       -1   -1    0    0    0  501  0.00000000000E+00  0.00000000000E+00 -0.84527808767E+03  0.84527808768E+03  0.50400001928E-02 0. -1.
    10030    2    1    2    0    0  0.00000000000E+00  0.00000000000E+00  0.33719279302E+03  0.20277489684E+04  0.19995166664E+04 0.  0.
        1    1    3    3  502    0  0.35069308004E+02  0.56727363931E+03 -0.66550537675E+03  0.87517235144E+03  0.50400001928E-02 0. -1.
       -1    1    3    3    0  502 -0.35069308004E+02 -0.56727363931E+03  0.10026981698E+04  0.11525766169E+04  0.50400001928E-02 0.  1.
</event>
<event>
 5   0  0.1979765E-05  0.2009073E+04  0.7818609E-02  0.8602390E-01
        2   -1    0    0  501    0  0.00000000000E+00  0.00000000000E+00  0.11103320006E+04  0.11103320006E+04  0.25500000920E-02 0.  1.
       -2   -1    0    0    0  501  0.00000000000E+00  0.00000000000E+00 -0.90882181641E+03  0.90882181642E+03  0.25500000920E-02 0. -1.
    10030    2    1    2    0    0  0.00000000000E+00  0.00000000000E+00  0.20151018418E+03  0.20191538170E+04  0.20090733641E+04 0.  0.
        2    1    3    3  502    0 -0.46943527075E+03  0.84285663324E+03  0.38201128620E+03  0.10376460863E+04  0.25500000920E-02 0.  1.
       -2    1    3    3    0  502  0.46943527075E+03 -0.84285663324E+03 -0.18050110202E+03  0.98150773072E+03  0.25500000920E-02 0. -1.
</event>
<event>
 5   0  0.9333353E-06  0.1936547E+04  0.7818609E-02  0.8636875E-01
        1   -1    0    0  501    0  0.00000000000E+00  0.00000000000E+00  0.14022489397E+04  0.14022489397E+04  0.50400001928E-02 0. -1.
       -1   -1    0    0    0  501  0.00000000000E+00  0.00000000000E+00 -0.66860739623E+03  0.66860739625E+03  0.50400001928E-02 0.  1.
    10030    2    1    2    0    0  0.00000000000E+00  0.00000000000E+00  0.73364154349E+03  0.20708563360E+04  0.19365474562E+04 0.  0.
        2    1    3    3  502    0 -0.53424297241E+02  0.72223672500E+03 -0.32046244919E+03  0.79194458381E+03  0.25500000920E-02 0.  1.
       -2    1    3    3    0  502  0.53424297241E+02 -0.72223672500E+03  0.10541039927E+04  0.12789117522E+04  0.25500000920E-02 0. -1.
</event>
<event>
 5   0  0.1999142E-05  0.2003538E+04  0.7818609E-02  0.8604969E-01
       -2   -1    0    0    0  501  0.00000000000E+00  0.00000000000E+00  0.47719078613E+03  0.47719078613E+03  0.25500000920E-02 0.  1.
        2   -1    0    0  501    0  0.00000000000E+00  0.00000000000E+00 -0.21030176258E+04  0.21030176258E+04  0.25500000920E-02 0. -1.
    10030    2    1    2    0    0  0.00000000000E+00  0.00000000000E+00 -0.16258268396E+04  0.25802084119E+04  0.20035375056E+04 0.  0.
        1    1    3    3  502    0 -0.37892960978E+03  0.37358560072E+03 -0.19059637969E+04  0.19788511428E+04  0.50400001928E-02 0. -1.
       -1    1    3    3    0  502  0.37892960978E+03 -0.37358560072E+03  0.28013695727E+03  0.60135726909E+03  0.50400001928E-02 0.  1.
</event>
<event>
 5   0  0.2020029E-05  0.2004478E+04  0.7818609E-02  0.8604530E-01
        2   -1    0    0  501    0  0.00000000000E+00  0.00000000000E+00  0.89579234015E+03  0.89579234015E+03  0.25500000920E-02 0.  1.
       -2   -1    0    0    0  501  0.00000000000E+00  0.00000000000E+00 -0.11213351441E+04  0.11213351441E+04  0.25500000920E-02 0. -1.
    10030    2    1    2    0    0  0.00000000000E+00  0.00000000000E+00 -0.22554280391E+03  0.20171274842E+04  0.20044784187E+04 0.  0.
        5    1    3    3  502    0  0.30282338187E+03 -0.97701566648E+02  0.84360143200E+03  0.90162800689E+03  0.46999998093E+01 0.  1.
       -5    1    3    3    0  502 -0.30282338187E+03  0.97701566648E+02 -0.10691442359E+04  0.11154994773E+04  0.46999998093E+01 0. -1.
</event>
<event>
 5   0  0.9220260E-06  0.2001312E+04  0.7818609E-02  0.8606008E-01
        1   -1    0    0  501    0  0.00000000000E+00  0.00000000000E+00  0.15606834956E+04  0.15606834956E+04  0.50400001928E-02 0. -1.
       -1   -1    0    0    0  501  0.00000000000E+00  0.00000000000E+00 -0.64158558466E+03  0.64158558468E+03  0.50400001928E-02 0.  1.
    10030    2    1    2    0    0  0.00000000000E+00  0.00000000000E+00  0.91909791091E+03  0.22022690803E+04  0.20013116029E+04 0.  0.
        3    1    3    3  502    0 -0.62861470035E+03 -0.61125094026E+03  0.99018063462E+03  0.13225890718E+04  0.10100000352E+00 0. -1.
       -3    1    3    3    0  502  0.62861470035E+03  0.61125094026E+03 -0.71082723713E+02  0.87968000846E+03  0.10100000352E+00 0.  1.
</event>
<event>
 5   0  0.9342635E-06  0.2003946E+04  0.7818609E-02  0.8604778E-01
        1   -1    0    0  501    0  0.00000000000E+00  0.00000000000E+00  0.20266513773E+04  0.20266513773E+04  0.50400001928E-02 0. -1.
       -1   -1    0    0    0  501  0.00000000000E+00  0.00000000000E+00 -0.49537375065E+03  0.49537375068E+03  0.50400001928E-02 0.  1.
    10030    2    1    2    0    0  0.00000000000E+00  0.00000000000E+00  0.15312776267E+04  0.25220251280E+04  0.20039460013E+04 0.  0.
        5    1    3    3  502    0  0.35665048269E+03  0.18502205122E+03 -0.38953432267E+03  0.55963542130E+03  0.46999998093E+01 0.  1.
       -5    1    3    3    0  502 -0.35665048269E+03 -0.18502205122E+03  0.19208119493E+04  0.19623897067E+04  0.46999998093E+01 0. -1.
</event>
<event>
 5   0  0.1999142E-05  0.2000817E+04  0.7818609E-02  0.8606239E-01
        2   -1    0    0  501    0  0.00000000000E+00  0.00000000000E+00  0.12341961957E+04  0.12341961957E+04  0.25500000920E-02 0.  1.
       -2   -1    0    0    0  501  0.00000000000E+00  0.00000000000E+00 -0.81090575841E+03  0.81090575842E+03  0.25500000920E-02 0. -1.
    10030    2    1    2    0    0  0.00000000000E+00  0.00000000000E+00  0.42329043728E+03  0.20451019541E+04  0.20008166354E+04 0.  0.
        1    1    3    3  502    0 -0.60594636175E+03  0.41618407474E+03 -0.48192846278E+03  0.87899671253E+03  0.50400001928E-02 0. -1.
       -1    1    3    3    0  502  0.60594636175E+03 -0.41618407474E+03  0.90521890006E+03  0.11661052416E+04  0.50400001928E-02 0.  1.
</event>
<event>
 5   0  0.2003576E-05  0.2001345E+04  0.7818609E-02  0.8605992E-01
        2   -1    0    0  501    0  0.00000000000E+00  0.00000000000E+00  0.12281875334E+04  0.12281875334E+04  0.25500000920E-02 0.  1.
       -2   -1    0    0    0  501  0.00000000000E+00  0.00000000000E+00 -0.81530351325E+03  0.81530351326E+03  0.25500000920E-02 0. -1.
    10030    2    1    2    0    0  0.00000000000E+00  0.00000000000E+00  0.41288402016E+03  0.20434910467E+04  0.20013451586E+04 0.  0.
        4    1    3    3  502    0  0.61732641853E+02 -0.40912555017E+03 -0.72387050599E+03  0.83377740267E+03  0.12699999809E+01 0. -1.
       -4    1    3    3    0  502 -0.61732641853E+02  0.40912555017E+03  0.11367545261E+04  0.12097136440E+04  0.12699999809E+01 0.  1.
</event>
<event>
 5   0  0.9333353E-06  0.1999832E+04  0.7818609E-02  0.8606699E-01
       -1   -1    0    0    0  501  0.00000000000E+00  0.00000000000E+00  0.14804000236E+04  0.14804000236E+04  0.50400001928E-02 0. -1.
        1   -1    0    0  501    0  0.00000000000E+00  0.00000000000E+00 -0.67537939547E+03  0.67537939549E+03  0.50400001928E-02 0.  1.
    10030    2    1    2    0    0  0.00000000000E+00  0.00000000000E+00  0.80502062814E+03  0.21557794191E+04  0.19998316660E+04 0.  0.
        2    1    3    3  502    0 -0.33949315107E+03 -0.39949866944E+03  0.13203629532E+04  0.14206382772E+04  0.25500000920E-02 0. -1.
       -2    1    3    3    0  502  0.33949315107E+03  0.39949866944E+03 -0.51534232506E+03  0.73514114190E+03  0.25500000920E-02 0.  1.
</event>
<event>
 5   0  0.9370269E-06  0.1999642E+04  0.7818609E-02  0.8606788E-01
        1   -1    0    0  501    0  0.00000000000E+00  0.00000000000E+00  0.99268040477E+03  0.99268040478E+03  0.50400001928E-02 0.  1.
       -1   -1    0    0    0  501  0.00000000000E+00  0.00000000000E+00 -0.10070125374E+04  0.10070125374E+04  0.50400001928E-02 0. -1.
    10030    2    1    2    0    0  0.00000000000E+00  0.00000000000E+00 -0.14332132621E+02  0.19996929422E+04  0.19996415811E+04 0.  0.
        4    1    3    3  502    0  0.23768385478E+03 -0.42799690672E+03  0.86461605868E+03  0.99359826329E+03  0.12699999809E+01 0.  1.
       -4    1    3    3    0  502 -0.23768385478E+03  0.42799690672E+03 -0.87894819131E+03  0.10060946789E+04  0.12699999809E+01 0. -1.
</event>
<event>
 5   0  0.2038882E-05  0.1973619E+04  0.7818609E-02  0.8619055E-01
       -2   -1    0    0    0  501  0.00000000000E+00  0.00000000000E+00  0.44489640504E+03  0.44489640505E+03  0.25500000920E-02 0. -1.
        2   -1    0    0  501    0  0.00000000000E+00  0.00000000000E+00 -0.21888092985E+04  0.21888092985E+04  0.25500000920E-02 0.  1.
    10030    2    1    2    0    0  0.00000000000E+00  0.00000000000E+00 -0.17439128935E+04  0.26337057036E+04  0.19736194043E+04 0.  0.
        3    1    3    3  502    0  0.60170134474E+03  0.42297781970E+03 -0.17499005104E+04  0.18981850676E+04  0.10100000352E+00 0.  1.
       -3    1    3    3    0  502 -0.60170134474E+03 -0.42297781970E+03  0.59876169348E+01  0.73552063599E+03  0.10100000352E+00 0. -1.
</event>
<event>
 5   0  0.9140695E-06  0.2012054E+04  0.7818609E-02  0.8601006E-01
        1   -1    0    0  501    0  0.00000000000E+00  0.00000000000E+00  0.14619128299E+04  0.14619128299E+04  0.50400001928E-02 0.  1.
       -1   -1    0    0    0  501  0.00000000000E+00  0.00000000000E+00 -0.69230558108E+03  0.69230558110E+03  0.50400001928E-02 0. -1.
    10030    2    1    2    0    0  0.00000000000E+00  0.00000000000E+00  0.76960724882E+03  0.21542184110E+04  0.20120540860E+04 0.  0.
        1    1    3    3  502    0  0.61146177226E+03 -0.79459942367E+03  0.29640690276E+03  0.10455289547E+04  0.50400001928E-02 0. -1.
       -1    1    3    3    0  502 -0.61146177226E+03  0.79459942367E+03  0.47320034606E+03  0.11086894563E+04  0.50400001928E-02 0.  1.
</event>
<event>
 5   0  0.2020029E-05  0.1998868E+04  0.7818609E-02  0.8607150E-01
        2   -1    0    0  501    0  0.00000000000E+00  0.00000000000E+00  0.10247342427E+04  0.10247342427E+04  0.25500000920E-02 0. -1.
       -2   -1    0    0    0  501  0.00000000000E+00  0.00000000000E+00 -0.97475829648E+03  0.97475829649E+03  0.25500000920E-02 0.  1.
    10030    2    1    2    0    0  0.00000000000E+00  0.00000000000E+00  0.49975946175E+02  0.19994925391E+04  0.19988678843E+04 0.  0.
        5    1    3    3  502    0  0.76432683940E+03  0.43903229464E+03  0.49619912896E+03  0.10115238696E+04  0.46999998093E+01 0. -1.
       -5    1    3    3    0  502 -0.76432683940E+03 -0.43903229464E+03 -0.44622318279E+03  0.98796866956E+03  0.46999998093E+01 0.  1.
</event>
<event>
 5   0  0.9333353E-06  0.2000181E+04  0.7818609E-02  0.8606536E-01
        1   -1    0    0  501    0  0.00000000000E+00  0.00000000000E+00  0.12457593533E+04  0.12457593533E+04  0.50400001928E-02 0.  1.
       -1   -1    0    0    0  501  0.00000000000E+00  0.00000000000E+00 -0.80286821617E+03  0.80286821618E+03  0.50400001928E-02 0. -1.
    10030    2    1    2    0    0  0.00000000000E+00  0.00000000000E+00  0.44289113709E+03  0.20486275695E+04  0.20001805816E+04 0.  0.
        2    1    3    3  502    0 -0.83206628880E+03  0.37690114023E+03  0.63848329508E+03  0.11144728335E+04  0.25500000920E-02 0.  1.
       -2    1    3    3    0  502  0.83206628880E+03 -0.37690114023E+03 -0.19559215799E+03  0.93415473597E+03  0.25500000920E-02 0. -1.
</event>
<event>
 5   0  0.1999142E-05  0.1996668E+04  0.7818609E-02  0.8608180E-01
        2   -1    0    0  501    0  0.00000000000E+00  0.00000000000E+00  0.14793682323E+04  0.14793682323E+04  0.25500000920E-02 0.  1.
       -2   -1    0    0    0  501  0.00000000000E+00  0.00000000000E+00 -0.67371357680E+03  0.67371357681E+03  0.25500000920E-02 0. -1.
    10030    2    1    2    0    0  0.00000000000E+00  0.00000000000E+00  0.80565465551E+03  0.21530818091E+04  0.19966676871E+04 0.  0.
        1    1    3    3  502    0  0.90294568920E+03  0.40160692594E+03  0.55559934712E+03  0.11337061679E+04  0.50400001928E-02 0.  1.
       -1    1    3    3    0  502 -0.90294568920E+03 -0.40160692594E+03  0.25005530839E+03  0.10193756412E+04  0.50400001928E-02 0. -1.
</event>
<event>
 5   0  0.1979765E-05  0.2002150E+04  0.7818609E-02  0.8605616E-01
       -2   -1    0    0    0  501  0.00000000000E+00  0.00000000000E+00  0.84956720666E+03  0.84956720666E+03  0.25500000920E-02 0. -1.
        2   -1    0    0  501    0  0.00000000000E+00  0.00000000000E+00 -0.11796021950E+04  0.11796021950E+04  0.25500000920E-02 0.  1.
    10030    2    1    2    0    0  0.00000000000E+00  0.00000000000E+00 -0.33003498834E+03  0.20291694017E+04  0.20021501860E+04 0.  0.
        2    1    3    3  502    0 -0.62076568553E+01 -0.71642832869E+03 -0.87362617340E+03  0.11298366147E+04  0.25500000920E-02 0.  1.
       -2    1    3    3    0  502  0.62076568553E+01  0.71642832869E+03  0.54359118506E+03  0.89933278692E+03  0.25500000920E-02 0. -1.
</event>
<event>
 5   0  0.7132000E-06  0.2000111E+04  0.7818609E-02  0.8606569E-01
        3   -1    0    0  501    0  0.00000000000E+00  0.00000000000E+00  0.23591094133E+04  0.23591094154E+04  0.10100000352E+00 0.  1.
       -3   -1    0    0    0  501  0.00000000000E+00  0.00000000000E+00 -0.42393563475E+03  0.42393564678E+03  0.10100000352E+00 0. -1.
    10030    2    1    2    0    0  0.00000000000E+00  0.00000000000E+00  0.19351737785E+04  0.27830450622E+04  0.20001105633E+04 0.  0.
        2    1    3    3  502    0  0.41173102560E+03 -0.81247992314E+03  0.15420778684E+04  0.17909914056E+04  0.25500000920E-02 0.  1.
       -2    1    3    3    0  502 -0.41173102560E+03  0.81247992314E+03  0.39309591015E+03  0.99205365658E+03  0.25500000920E-02 0. -1.
</event>
<event>
 5   0  0.9370269E-06  0.1992544E+04  0.7818609E-02  0.8610115E-01
        1   -1    0    0  501    0  0.00000000000E+00  0.00000000000E+00  0.22061113806E+04  0.22061113806E+04  0.50400001928E-02 0.  1.
       -1   -1    0    0    0  501  0.00000000000E+00  0.00000000000E+00 -0.44991286148E+03  0.44991286151E+03  0.50400001928E-02 0. -1.
    10030    2    1    2    0    0  0.00000000000E+00  0.00000000000E+00  0.17561985191E+04  0.26560242421E+04  0.19925439860E+04 0.  0.
        4    1    3    3  502    0  0.25403820258E+02  0.84002337787E+02 -0.44474939343E+03  0.45332701519E+03  0.12699999809E+01 0. -1.
       -4    1    3    3    0  502 -0.25403820258E+02 -0.84002337787E+02  0.22009479126E+04  0.22026972269E+04  0.12699999809E+01 0.  1.
</event>
<event>
 5   0  0.7132000E-06  0.1999705E+04  0.7818609E-02  0.8606759E-01
       -3   -1    0    0    0  501  0.00000000000E+00  0.00000000000E+00  0.87033655415E+03  0.87033656001E+03  0.10100000352E+00 0.  1.
        3   -1    0    0  501    0  0.00000000000E+00  0.00000000000E+00 -0.11486414306E+04  0.11486414351E+04  0.10100000352E+00 0. -1.
    10030    2    1    2    0    0  0.00000000000E+00  0.00000000000E+00 -0.27830487647E+03  0.20189779951E+04  0.19997046133E+04 0.  0.
        3    1    3    3  502    0 -0.97818794326E+03  0.20605609251E+03 -0.11911527310E+03  0.10067269859E+04  0.10100000352E+00 0. -1.
       -3    1    3    3    0  502  0.97818794326E+03 -0.20605609251E+03 -0.15918960337E+03  0.10122510092E+04  0.10100000352E+00 0.  1.
</event>
<event>
 5   0  0.2003576E-05  0.2002536E+04  0.7818609E-02  0.8605436E-01
       -2   -1    0    0    0  501  0.00000000000E+00  0.00000000000E+00  0.15041496604E+04  0.15041496604E+04  0.25500000920E-02 0. -1.
        2   -1    0    0  501    0  0.00000000000E+00  0.00000000000E+00 -0.66651453027E+03  0.66651453028E+03  0.25500000920E-02 0.  1.
    10030    2    1    2    0    0  0.00000000000E+00  0.00000000000E+00  0.83763513013E+03  0.21706641907E+04  0.20025359965E+04 0.  0.
        4    1    3    3  502    0  0.20623422057E+03  0.88061188919E+02  0.14765784337E+04  0.14935102312E+04  0.12699999809E+01 0. -1.
       -4    1    3    3    0  502 -0.20623422057E+03 -0.88061188919E+02 -0.63894330362E+03  0.67715395950E+03  0.12699999809E+01 0.  1.
</event>
<event>
 5   0  0.2020029E-05  0.1995146E+04  0.7818609E-02  0.8608893E-01
        2   -1    0    0  501    0  0.00000000000E+00  0.00000000000E+00  0.12666746964E+04  0.12666746964E+04  0.25500000920E-02 0. -1.
       -2   -1    0    0    0  501  0.00000000000E+00  0.00000000000E+00 -0.78564147627E+03  0.78564147627E+03  0.25500000920E-02 0.  1.
    10030    2    1    2    0    0  0.00000000000E+00  0.00000000000E+00  0.48103322009E+03  0.20523161726E+04  0.19951462888E+04 0.  0.
        5    1    3    3  502    0 -0.44154717230E+03 -0.89019373898E+03  0.33090537619E+03  0.10473439054E+04  0.46999998093E+01 0. -1.
       -5    1    3    3    0  502  0.44154717230E+03  0.89019373898E+03  0.15012784390E+03  0.10049722672E+04  0.46999998093E+01 0.  1.
</event>
<event>
 5   0  0.9140695E-06  0.1999207E+04  0.7818609E-02  0.8606992E-01
        1   -1    0    0  501    0  0.00000000000E+00  0.00000000000E+00  0.89390111285E+03  0.89390111286E+03  0.50400001928E-02 0. -1.
       -1   -1    0    0    0  501  0.00000000000E+00  0.00000000000E+00 -0.11178047754E+04  0.11178047754E+04  0.50400001928E-02 0.  1.
    10030    2    1    2    0    0  0.00000000000E+00  0.00000000000E+00 -0.22390366251E+03  0.20117058882E+04  0.19992067754E+04 0.  0.
        1    1    3    3  502    0 -0.38857678050E+03 -0.92032932051E+03 -0.76964343679E+02  0.10019588229E+04  0.50400001928E-02 0.  1.
       -1    1    3    3    0  502  0.38857678050E+03  0.92032932051E+03 -0.14693931883E+03  0.10097470653E+04  0.50400001928E-02 0. -1.
</event>
<event>
 5   0  0.2003576E-05  0.1998620E+04  0.7818609E-02  0.8607266E-01
       -2   -1    0    0    0  501  0.00000000000E+00  0.00000000000E+00  0.34226132803E+03  0.34226132804E+03  0.25500000920E-02 0.  1.
        2   -1    0    0  501    0  0.00000000000E+00  0.00000000000E+00 -0.29177140541E+04  0.29177140541E+04  0.25500000920E-02 0. -1.
    10030    2    1    2    0    0  0.00000000000E+00  0.00000000000E+00 -0.25754527261E+04  0.32599753821E+04  0.19986202110E+04 0.  0.
        4    1    3    3  502    0  0.15799994880E+03  0.23179657671E+03  0.27671885292E+03  0.39404133445E+03  0.12699999809E+01 0.  1.
       -4    1    3    3    0  502 -0.15799994880E+03 -0.23179657671E+03 -0.28521715790E+04  0.28659340477E+04  0.12699999809E+01 0. -1.
</event>
<event>
 5   0  0.7132000E-06  0.1981834E+04  0.7818609E-02  0.8615161E-01
       -3   -1    0    0    0  501  0.00000000000E+00  0.00000000000E+00  0.12442792574E+04  0.12442792615E+04  0.10100000352E+00 0. -1.
        3   -1    0    0  501    0  0.00000000000E+00  0.00000000000E+00 -0.78914468035E+03  0.78914468681E+03  0.10100000352E+00 0.  1.
    10030    2    1    2    0    0  0.00000000000E+00  0.00000000000E+00  0.45513457707E+03  0.20334239483E+04  0.19818338655E+04 0.  0.
        3    1    3    3  502    0 -0.14825877996E+03 -0.37442681844E+03 -0.70139657092E+03  0.80878505680E+03  0.10100000352E+00 0.  1.
       -3    1    3    3    0  502  0.14825877996E+03  0.37442681844E+03  0.11565311480E+04  0.12246388915E+04  0.10100000352E+00 0. -1.
</event>
<event>
 5   0  0.9220260E-06  0.2000734E+04  0.7818609E-02  0.8606278E-01
       -1   -1    0    0    0  501  0.00000000000E+00  0.00000000000E+00  0.52134278925E+03  0.52134278927E+03  0.50400001928E-02 0. -1.
        1   -1    0    0  501    0  0.00000000000E+00  0.00000000000E+00 -0.19195310271E+04  0.19195310271E+04  0.50400001928E-02 0.  1.
    10030    2    1    2    0    0  0.00000000000E+00  0.00000000000E+00 -0.13981882379E+04  0.24408738164E+04  0.20007335253E+04 0.  0.
        3    1    3    3  502    0 -0.84485234614E+03  0.32908301142E+03 -0.12147652566E+04  0.15158251066E+04  0.10100000352E+00 0.  1.
       -3    1    3    3    0  502  0.84485234614E+03 -0.32908301142E+03 -0.18342298133E+03  0.92504870978E+03  0.10100000352E+00 0. -1.
</event>
<event>
 5   0  0.9333353E-06  0.1998905E+04  0.7818609E-02  0.8607133E-01
        1   -1    0    0  501    0  0.00000000000E+00  0.00000000000E+00  0.16696614516E+04  0.16696614517E+04  0.50400001928E-02 0.  1.
       -1   -1    0    0    0  501  0.00000000000E+00  0.00000000000E+00 -0.59826789982E+03  0.59826789984E+03  0.50400001928E-02 0. -1.
    10030    2    1    2    0    0  0.00000000000E+00  0.00000000000E+00  0.10713935518E+04  0.22679293515E+04  0.19989045501E+04 0.  0.
        2    1    3    3  502    0 -0.62382314246E+03 -0.73937320034E+03  0.82064917505E+03  0.12685791702E+04  0.25500000920E-02 0.  1.
       -2    1    3    3    0  502  0.62382314246E+03  0.73937320034E+03  0.25074437678E+03  0.99935018134E+03  0.25500000920E-02 0. -1.
</event>
<event>
 5   0  0.9333353E-06  0.1999666E+04  0.7818609E-02  0.8606777E-01
        1   -1    0    0  501    0  0.00000000000E+00  0.00000000000E+00  0.16759703611E+04  0.16759703611E+04  0.50400001928E-02 0. -1.
       -1   -1    0    0    0  501  0.00000000000E+00  0.00000000000E+00 -0.59646974196E+03  0.59646974198E+03  0.50400001928E-02 0.  1.
    10030    2    1    2    0    0  0.00000000000E+00  0.00000000000E+00  0.10795006192E+04  0.22724401031E+04  0.19996655809E+04 0.  0.
        2    1    3    3  502    0 -0.84443585283E+03  0.15606591930E+03  0.11216956077E+04  0.14126675182E+04  0.25500000920E-02 0. -1.
       -2    1    3    3    0  502  0.84443585283E+03 -0.15606591930E+03 -0.42194988502E+02  0.85977258491E+03  0.25500000920E-02 0.  1.
</event>
<event>
 5   0  0.9140695E-06  0.2000235E+04  0.7818609E-02  0.8606511E-01
       -1   -1    0    0    0  501  0.00000000000E+00  0.00000000000E+00  0.70928595206E+03  0.70928595208E+03  0.50400001928E-02 0. -1.
        1   -1    0    0  501    0  0.00000000000E+00  0.00000000000E+00 -0.14101999766E+04  0.14101999766E+04  0.50400001928E-02 0.  1.
    10030    2    1    2    0    0  0.00000000000E+00  0.00000000000E+00 -0.70091402455E+03  0.21194859287E+04  0.20002350192E+04 0.  0.
        1    1    3    3  502    0  0.95094584983E+03  0.27342733318E+03 -0.50464703383E+03  0.11107336065E+04  0.50400001928E-02 0.  1.
       -1    1    3    3    0  502 -0.95094584983E+03 -0.27342733318E+03 -0.19626699071E+03  0.10087523222E+04  0.50400001928E-02 0. -1.
</event>
<event>
 5   0  0.9342635E-06  0.2000330E+04  0.7818609E-02  0.8606466E-01
       -1   -1    0    0    0  501  0.00000000000E+00  0.00000000000E+00  0.19612845490E+04  0.19612845490E+04  0.50400001928E-02 0. -1.
        1   -1    0    0  501    0  0.00000000000E+00  0.00000000000E+00 -0.51003841189E+03  0.51003841191E+03  0.50400001928E-02 0.  1.
    10030    2    1    2    0    0  0.00000000000E+00  0.00000000000E+00  0.14512461371E+04  0.24713229610E+04  0.20003304294E+04 0.  0.
        5    1    3    3  502    0  0.92354850318E+03 -0.90087166633E+01  0.11997641333E+04  0.15140934780E+04  0.46999998093E+01 0. -1.
       -5    1    3    3    0  502 -0.92354850318E+03  0.90087166633E+01  0.25148200386E+03  0.95722948292E+03  0.46999998093E+01 0.  1.
</event>
<event>
 5   0  0.9333353E-06  0.2008618E+04  0.7818609E-02  0.8602602E-01
       -1   -1    0    0    0  501  0.00000000000E+00  0.00000000000E+00  0.12508729096E+04  0.12508729096E+04  0.50400001928E-02 0.  1.
        1   -1    0    0  501    0  0.00000000000E+00  0.00000000000E+00 -0.80634646300E+03  0.80634646302E+03  0.50400001928E-02 0. -1.
    10030    2    1    2    0    0  0.00000000000E+00  0.00000000000E+00  0.44452644658E+03  0.20572193726E+04  0.20086183772E+04 0.  0.
        2    1    3    3  502    0  0.23793647400E+03 -0.43858930460E+03 -0.67041213612E+03  0.83571931654E+03  0.25500000920E-02 0. -1.
       -2    1    3    3    0  502 -0.23793647400E+03  0.43858930460E+03  0.11149385827E+04  0.12215000561E+04  0.25500000920E-02 0.  1.
</event>
<event>
 5   0  0.2003576E-05  0.1996532E+04  0.7818609E-02  0.8608244E-01
       -2   -1    0    0    0  501  0.00000000000E+00  0.00000000000E+00  0.37129460233E+03  0.37129460234E+03  0.25500000920E-02 0.  1.
        2   -1    0    0  501    0  0.00000000000E+00  0.00000000000E+00 -0.26839461589E+04  0.26839461589E+04  0.25500000920E-02 0. -1.
    10030    2    1    2    0    0  0.00000000000E+00  0.00000000000E+00 -0.23126515566E+04  0.30552407613E+04  0.19965317145E+04 0.  0.
        4    1    3    3  502    0 -0.25596711261E+03  0.24279329617E+03 -0.25853636702E+04  0.26093245615E+04  0.12699999809E+01 0. -1.
       -4    1    3    3    0  502  0.25596711261E+03 -0.24279329617E+03  0.27271211359E+03  0.44591619975E+03  0.12699999809E+01 0.  1.
</event>
<event>
 5   0  0.2003576E-05  0.1999682E+04  0.7818609E-02  0.8606769E-01
       -2   -1    0    0    0  501  0.00000000000E+00  0.00000000000E+00  0.93012863428E+03  0.93012863428E+03  0.25500000920E-02 0.  1.
        2   -1    0    0  501    0  0.00000000000E+00  0.00000000000E+00 -0.10747782494E+04  0.10747782494E+04  0.25500000920E-02 0. -1.
    10030    2    1    2    0    0  0.00000000000E+00  0.00000000000E+00 -0.14464961509E+03  0.20049068836E+04  0.19996820000E+04 0.  0.
        4    1    3    3  502    0  0.23784178716E+03  0.44011038381E+03  0.79562443606E+03  0.93983281588E+03  0.12699999809E+01 0.  1.
       -4    1    3    3    0  502 -0.23784178716E+03 -0.44011038381E+03 -0.94027405115E+03  0.10650740678E+04  0.12699999809E+01 0. -1.
</event>
<event>
 5   0  0.1999142E-05  0.2005171E+04  0.7818609E-02  0.8604207E-01
        2   -1    0    0  501    0  0.00000000000E+00  0.00000000000E+00  0.88112427954E+03  0.88112427954E+03  0.25500000920E-02 0. -1.
       -2   -1    0    0    0  501  0.00000000000E+00  0.00000000000E+00 -0.11407899109E+04  0.11407899109E+04  0.25500000920E-02 0.  1.
    10030    2    1    2    0    0  0.00000000000E+00  0.00000000000E+00 -0.25966563134E+03  0.20219141904E+04  0.20051710035E+04 0.  0.
        1    1    3    3  502    0  0.13632987540E+03 -0.31247425044E+03 -0.10805479031E+04  0.11330532923E+04  0.50400001928E-02 0.  1.
       -1    1    3    3    0  502 -0.13632987540E+03  0.31247425044E+03  0.82088227179E+03  0.88886089816E+03  0.50400001928E-02 0. -1.
</event>
<event>
 5   0  0.9370269E-06  0.1998118E+04  0.7818609E-02  0.8607501E-01
       -1   -1    0    0    0  501  0.00000000000E+00  0.00000000000E+00  0.87296863697E+03  0.87296863698E+03  0.50400001928E-02 0. -1.
        1   -1    0    0  501    0  0.00000000000E+00  0.00000000000E+00 -0.11433616055E+04  0.11433616056E+04  0.50400001928E-02 0.  1.
    10030    2    1    2    0    0  0.00000000000E+00  0.00000000000E+00 -0.27039296857E+03  0.20163302425E+04  0.19981179368E+04 0.  0.
        4    1    3    3  502    0  0.46705463742E+03 -0.73235744859E+03 -0.63328404856E+03  0.10749594252E+04  0.12699999809E+01 0.  1.
       -4    1    3    3    0  502 -0.46705463742E+03  0.73235744859E+03  0.36289107998E+03  0.94137081730E+03  0.12699999809E+01 0. -1.
</event>
<event>
 5   0  0.9370269E-06  0.1999661E+04  0.7818609E-02  0.8606779E-01
       -1   -1    0    0    0  501  0.00000000000E+00  0.00000000000E+00  0.70373744383E+03  0.70373744384E+03  0.50400001928E-02 0.  1.
        1   -1    0    0  501    0  0.00000000000E+00  0.00000000000E+00 -0.14205030339E+04  0.14205030339E+04  0.50400001928E-02 0. -1.
    10030    2    1    2    0    0  0.00000000000E+00  0.00000000000E+00 -0.71676559007E+03  0.21242404778E+04  0.19996611453E+04 0.  0.
        4    1    3    3  502    0 -0.63785250639E+03 -0.68568163456E+03 -0.73040700194E+03  0.11876494118E+04  0.12699999809E+01 0. -1.
       -4    1    3    3    0  502  0.63785250639E+03  0.68568163456E+03  0.13641411870E+02  0.93659106599E+03  0.12699999809E+01 0.  1.
</event>
<event>
 5   0  0.2020029E-05  0.1999239E+04  0.7818609E-02  0.8606977E-01
        2   -1    0    0  501    0  0.00000000000E+00  0.00000000000E+00  0.11596909185E+04  0.11596909185E+04  0.25500000920E-02 0.  1.
       -2   -1    0    0    0  501  0.00000000000E+00  0.00000000000E+00 -0.86164230720E+03  0.86164230720E+03  0.25500000920E-02 0. -1.
    10030    2    1    2    0    0  0.00000000000E+00  0.00000000000E+00  0.29804861126E+03  0.20213332257E+04  0.19992386137E+04 0.  0.
        5    1    3    3  502    0  0.81053886927E+03 -0.52519710474E+03  0.40957644166E+03  0.10490854155E+04  0.46999998093E+01 0.  1.
       -5    1    3    3    0  502 -0.81053886927E+03  0.52519710474E+03 -0.11152783039E+03  0.97224781017E+03  0.46999998093E+01 0. -1.
</event>
<event>
 5   0  0.9342635E-06  0.1997936E+04  0.7818609E-02  0.8607586E-01
       -1   -1    0    0    0  501  0.00000000000E+00  0.00000000000E+00  0.41559605216E+03  0.41559605219E+03  0.50400001928E-02 0.  1.
        1   -1    0    0  501    0  0.00000000000E+00  0.00000000000E+00 -0.24012190513E+04  0.24012190513E+04  0.50400001928E-02 0. -1.
    10030    2    1    2    0    0  0.00000000000E+00  0.00000000000E+00 -0.19856229992E+04  0.28168151035E+04  0.19979360932E+04 0.  0.
        5    1    3    3  502    0 -0.11662252777E+03  0.97844858653E+03 -0.12242721791E+04  0.15715682960E+04  0.46999998093E+01 0. -1.
       -5    1    3    3    0  502  0.11662252777E+03 -0.97844858653E+03 -0.76135082008E+03  0.12452468075E+04  0.46999998093E+01 0.  1.
</event>
<event>
 5   0  0.9342635E-06  0.1997585E+04  0.7818609E-02  0.8607750E-01
        1   -1    0    0  501    0  0.00000000000E+00  0.00000000000E+00  0.73974851633E+03  0.73974851635E+03  0.50400001928E-02 0. -1.
       -1   -1    0    0    0  501  0.00000000000E+00  0.00000000000E+00 -0.13485487192E+04  0.13485487192E+04  0.50400001928E-02 0.  1.
    10030    2    1    2    0    0  0.00000000000E+00  0.00000000000E+00 -0.60880020285E+03  0.20882972355E+04  0.19975854567E+04 0.  0.
        5    1    3    3  502    0 -0.44173661391E+03  0.49042428281E+03  0.47925193735E+03  0.81569094802E+03  0.46999998093E+01 0. -1.
       -5    1    3    3    0  502  0.44173661391E+03 -0.49042428281E+03 -0.10880521402E+04  0.12726062875E+04  0.46999998093E+01 0.  1.
</event>
<event>
 5   0  0.1979765E-05  0.1999954E+04  0.7818609E-02  0.8606642E-01
        2   -1    0    0  501    0  0.00000000000E+00  0.00000000000E+00  0.11528642980E+04  0.11528642980E+04  0.25500000920E-02 0.  1.
       -2   -1    0    0    0  501  0.00000000000E+00  0.00000000000E+00 -0.86736528489E+03  0.86736528489E+03  0.25500000920E-02 0. -1.
    10030    2    1    2    0    0  0.00000000000E+00  0.00000000000E+00  0.28549901310E+03  0.20202295829E+04  0.19999544697E+04 0.  0.
        2    1    3    3  502    0 -0.73002245152E+03  0.67623581335E+03  0.24237396002E+03  0.10241937275E+04  0.25500000920E-02 0. -1.
       -2    1    3    3    0  502  0.73002245152E+03 -0.67623581335E+03  0.43125053085E+02  0.99603585537E+03  0.25500000920E-02 0.  1.
</event>
<event>
 5   0  0.9220260E-06  0.2001077E+04  0.7818609E-02  0.8606117E-01
        1   -1    0    0  501    0  0.00000000000E+00  0.00000000000E+00  0.11892050791E+04  0.11892050791E+04  0.50400001928E-02 0. -1.
       -1   -1    0    0    0  501  0.00000000000E+00  0.00000000000E+00 -0.84180409892E+03  0.84180409893E+03  0.50400001928E-02 0.  1.
    10030    2    1    2    0    0  0.00000000000E+00  0.00000000000E+00  0.34740098021E+03  0.20310091781E+04  0.20010774199E+04 0.  0.
        3    1    3    3  502    0 -0.53737281258E+03  0.52370350474E+03 -0.49804733248E+03  0.90060316242E+03  0.10100000352E+00 0.  1.
       -3    1    3    3    0  502  0.53737281258E+03 -0.52370350474E+03  0.84544831268E+03  0.11304060156E+04  0.10100000352E+00 0. -1.
</event>
<event>
 5   0  0.2038882E-05  0.2014472E+04  0.7818609E-02  0.8599884E-01
        2   -1    0    0  501    0  0.00000000000E+00  0.00000000000E+00  0.11350182902E+04  0.11350182902E+04  0.25500000920E-02 0.  1.
       -2   -1    0    0    0  501  0.00000000000E+00  0.00000000000E+00 -0.89383930098E+03  0.89383930098E+03  0.25500000920E-02 0. -1.
    10030    2    1    2    0    0  0.00000000000E+00  0.00000000000E+00  0.24117898926E+03  0.20288575912E+04  0.20144715984E+04 0.  0.
        3    1    3    3  502    0  0.14095426884E+03 -0.10575620698E+03 -0.87819386254E+03  0.89569914124E+03  0.10100000352E+00 0. -1.
       -3    1    3    3    0  502 -0.14095426884E+03  0.10575620698E+03  0.11193728518E+04  0.11331584500E+04  0.10100000352E+00 0.  1.
</event>
<event>
 5   0  0.7132000E-06  0.1997540E+04  0.7818609E-02  0.8607772E-01
       -3   -1    0    0    0  501  0.00000000000E+00  0.00000000000E+00  0.18797823827E+04  0.18797823854E+04  0.10100000352E+00 0. -1.
        3   -1    0    0  501    0  0.00000000000E+00  0.00000000000E+00 -0.53066848104E+03  0.53066849065E+03  0.10100000352E+00 0.  1.
    10030    2    1    2    0    0  0.00000000000E+00  0.00000000000E+00  0.13491139017E+04  0.24104508761E+04  0.19975397634E+04 0.  0.
        5    1    3    3  502    0  0.32906882174E+03  0.22661608770E+03 -0.43001308452E+03  0.58700467077E+03  0.46999998093E+01 0.  1.
       -5    1    3    3    0  502 -0.32906882174E+03 -0.22661608770E+03  0.17791269862E+04  0.18234462053E+04  0.46999998093E+01 0. -1.
</event>
<event>
 5   0  0.2003576E-05  0.1999535E+04  0.7818609E-02  0.8606838E-01
       -2   -1    0    0    0  501  0.00000000000E+00  0.00000000000E+00  0.68208880962E+03  0.68208880962E+03  0.25500000920E-02 0. -1.
        2   -1    0    0  501    0  0.00000000000E+00  0.00000000000E+00 -0.14654035908E+04  0.14654035908E+04  0.25500000920E-02 0.  1.
    10030    2    1    2    0    0  0.00000000000E+00  0.00000000000E+00 -0.78331478123E+03  0.21474924005E+04  0.19995353369E+04 0.  0.
        4    1    3    3  502    0 -0.87147670708E+03  0.38486314519E+03 -0.71731458298E+03  0.11925322282E+04  0.12699999809E+01 0.  1.
       -4    1    3    3    0  502  0.87147670708E+03 -0.38486314519E+03 -0.66000198251E+02  0.95496017225E+03  0.12699999809E+01 0. -1.
</event>
<event>
 5   0  0.2003576E-05  0.2062702E+04  0.7818609E-02  0.8577854E-01
        2   -1    0    0  501    0  0.00000000000E+00  0.00000000000E+00  0.15601136634E+04  0.15601136634E+04  0.25500000920E-02 0. -1.
       -2   -1    0    0    0  501  0.00000000000E+00  0.00000000000E+00 -0.68179988662E+03  0.68179988662E+03  0.25500000920E-02 0.  1.
    10030    2    1    2    0    0  0.00000000000E+00  0.00000000000E+00  0.87831377674E+03  0.22419135500E+04  0.20627024204E+04 0.  0.
        4    1    3    3  502    0  0.91702955141E+03  0.17160173305E+03  0.91700595653E+03  0.13081635563E+04  0.12699999809E+01 0. -1.
       -4    1    3    3    0  502 -0.91702955141E+03 -0.17160173305E+03 -0.38692179786E+02  0.93374999364E+03  0.12699999809E+01 0.  1.
</event>
<event>
 5   0  0.9333353E-06  0.1994313E+04  0.7818609E-02  0.8609284E-01
        1   -1    0    0  501    0  0.00000000000E+00  0.00000000000E+00  0.75194477003E+03  0.75194477005E+03  0.50400001928E-02 0.  1.
       -1   -1    0    0    0  501  0.00000000000E+00  0.00000000000E+00 -0.13223321001E+04  0.13223321001E+04  0.50400001928E-02 0. -1.
    10030    2    1    2    0    0  0.00000000000E+00  0.00000000000E+00 -0.57038733007E+03  0.20742768702E+04  0.19943126204E+04 0.  0.
        2    1    3    3  502    0 -0.32015088043E+03 -0.72639403459E+03  0.34247297197E+03  0.86454185339E+03  0.25500000920E-02 0.  1.
       -2    1    3    3    0  502  0.32015088043E+03  0.72639403459E+03 -0.91286030204E+03  0.12097350168E+04  0.25500000920E-02 0. -1.
</event>
<event>
 5   0  0.1999142E-05  0.2004964E+04  0.7818609E-02  0.8604303E-01
       -2   -1    0    0    0  501  0.00000000000E+00  0.00000000000E+00  0.66301225296E+03  0.66301225297E+03  0.25500000920E-02 0.  1.
        2   -1    0    0  501    0  0.00000000000E+00  0.00000000000E+00 -0.15157644794E+04  0.15157644794E+04  0.25500000920E-02 0. -1.
    10030    2    1    2    0    0  0.00000000000E+00  0.00000000000E+00 -0.85275222641E+03  0.21787767323E+04  0.20049642615E+04 0.  0.
        1    1    3    3  502    0  0.37361907294E+03  0.11776278283E+03  0.57639371775E+03  0.69691391331E+03  0.50400001928E-02 0.  1.
       -1    1    3    3    0  502 -0.37361907294E+03 -0.11776278283E+03 -0.14291459442E+04  0.14818628190E+04  0.50400001928E-02 0. -1.
</event>
<event>
 5   0  0.9140695E-06  0.1996283E+04  0.7818609E-02  0.8608361E-01
        1   -1    0    0  501    0  0.00000000000E+00  0.00000000000E+00  0.20981285832E+04  0.20981285832E+04  0.50400001928E-02 0.  1.
       -1   -1    0    0    0  501  0.00000000000E+00  0.00000000000E+00 -0.47484507957E+03  0.47484507960E+03  0.50400001928E-02 0. -1.
    10030    2    1    2    0    0  0.00000000000E+00  0.00000000000E+00  0.16232835036E+04  0.25729736628E+04  0.19962825793E+04 0.  0.
        1    1    3    3  502    0  0.96767752371E+03  0.11372654433E+03  0.10909236351E+04  0.14626851659E+04  0.50400001928E-02 0.  1.
       -1    1    3    3    0  502 -0.96767752371E+03 -0.11372654433E+03  0.53235986851E+03  0.11102884969E+04  0.50400001928E-02 0. -1.
</event>
<event>
 5   0  0.9342635E-06  0.2000281E+04  0.7818609E-02  0.8606489E-01
       -1   -1    0    0    0  501  0.00000000000E+00  0.00000000000E+00  0.10043692122E+04  0.10043692122E+04  0.50400001928E-02 0. -1.
        1   -1    0    0  501    0  0.00000000000E+00  0.00000000000E+00 -0.99592984759E+03  0.99592984761E+03  0.50400001928E-02 0.  1.
    10030    2    1    2    0    0  0.00000000000E+00  0.00000000000E+00  0.84393646416E+01  0.20002990599E+04  0.20002812567E+04 0.  0.
        5    1    3    3  502    0 -0.56268712738E+03  0.26851896059E+03  0.78623684123E+03  0.10034489006E+04  0.46999998093E+01 0. -1.
       -5    1    3    3    0  502  0.56268712738E+03 -0.26851896059E+03 -0.77779747659E+03  0.99685015930E+03  0.46999998093E+01 0.  1.
</event>
<event>
 5   0  0.1999142E-05  0.2001087E+04  0.7818609E-02  0.8606113E-01
        2   -1    0    0  501    0  0.00000000000E+00  0.00000000000E+00  0.13434579752E+04  0.13434579752E+04  0.25500000920E-02 0. -1.
       -2   -1    0    0    0  501  0.00000000000E+00  0.00000000000E+00 -0.74515708316E+03  0.74515708316E+03  0.25500000920E-02 0.  1.
    10030    2    1    2    0    0  0.00000000000E+00  0.00000000000E+00  0.59830089202E+03  0.20886150583E+04  0.20010869308E+04 0.  0.
        1    1    3    3  502    0  0.89287588983E+03  0.46284338383E+02 -0.16962448583E+03  0.91002311005E+03  0.50400001928E-02 0.  1.
       -1    1    3    3    0  502 -0.89287588983E+03 -0.46284338383E+02  0.76792537784E+03  0.11785919483E+04  0.50400001928E-02 0. -1.
</event>
<event>
 5   0  0.9342635E-06  0.2009543E+04  0.7818609E-02  0.8602172E-01
        1   -1    0    0  501    0  0.00000000000E+00  0.00000000000E+00  0.26037015855E+04  0.26037015856E+04  0.50400001928E-02 0.  1.
       -1   -1    0    0    0  501  0.00000000000E+00  0.00000000000E+00 -0.38774262357E+03  0.38774262360E+03  0.50400001928E-02 0. -1.
    10030    2    1    2    0    0  0.00000000000E+00  0.00000000000E+00  0.22159589620E+04  0.29914442092E+04  0.20095433151E+04 0.  0.
        5    1    3    3  502    0 -0.52925394048E+03 -0.20027596359E+03  0.23439131752E+04  0.24112592681E+04  0.46999998093E+01 0.  1.
       -5    1    3    3    0  502  0.52925394048E+03  0.20027596359E+03 -0.12795421325E+03  0.58018494103E+03  0.46999998093E+01 0. -1.
</event>
<event>
 5   0  0.9220260E-06  0.2001811E+04  0.7818609E-02  0.8605775E-01
       -1   -1    0    0    0  501  0.00000000000E+00  0.00000000000E+00  0.50791739462E+03  0.50791739464E+03  0.50400001928E-02 0.  1.
        1   -1    0    0  501    0  0.00000000000E+00  0.00000000000E+00 -0.19723905826E+04  0.19723905826E+04  0.50400001928E-02 0. -1.
    10030    2    1    2    0    0  0.00000000000E+00  0.00000000000E+00 -0.14644731880E+04  0.24803079773E+04  0.20018106663E+04 0.  0.
        3    1    3    3  502    0 -0.15373411353E+03  0.47853605926E+03 -0.18046836332E+04  0.18733696815E+04  0.10100000352E+00 0. -1.
       -3    1    3    3    0  502  0.15373411353E+03 -0.47853605926E+03  0.34021044514E+03  0.60693829576E+03  0.10100000352E+00 0.  1.
</event>
<event>
 5   0  0.9370269E-06  0.1998599E+04  0.7818609E-02  0.8607276E-01
        1   -1    0    0  501    0  0.00000000000E+00  0.00000000000E+00  0.12586177146E+04  0.12586177146E+04  0.50400001928E-02 0.  1.
       -1   -1    0    0    0  501  0.00000000000E+00  0.00000000000E+00 -0.79340978183E+03  0.79340978185E+03  0.50400001928E-02 0. -1.
    10030    2    1    2    0    0  0.00000000000E+00  0.00000000000E+00  0.46520793280E+03  0.20520274965E+04  0.19985991158E+04 0.  0.
        4    1    3    3  502    0  0.76229520987E+03  0.10510246735E+02 -0.43072711481E+03  0.87563229304E+03  0.12699999809E+01 0. -1.
       -4    1    3    3    0  502 -0.76229520987E+03 -0.10510246735E+02  0.89593504761E+03  0.11763952035E+04  0.12699999809E+01 0.  1.
</event>
<event>
 5   0  0.2020029E-05  0.2000316E+04  0.7818609E-02  0.8606473E-01
        2   -1    0    0  501    0  0.00000000000E+00  0.00000000000E+00  0.19369245841E+04  0.19369245841E+04  0.25500000920E-02 0. -1.
       -2   -1    0    0    0  501  0.00000000000E+00  0.00000000000E+00 -0.51644544101E+03  0.51644544102E+03  0.25500000920E-02 0.  1.
    10030    2    1    2    0    0  0.00000000000E+00  0.00000000000E+00  0.14204791431E+04  0.24533700251E+04  0.20003158461E+04 0.  0.
        5    1    3    3  502    0  0.92693626306E+03  0.25534766801E+03  0.10480939960E+04  0.14222996807E+04  0.46999998093E+01 0. -1.
       -5    1    3    3    0  502 -0.92693626306E+03 -0.25534766801E+03  0.37238514710E+03  0.10310703444E+04  0.46999998093E+01 0.  1.
</event>
<event>
 5   0  0.1999142E-05  0.1974341E+04  0.7818609E-02  0.8618712E-01
       -2   -1    0    0    0  501  0.00000000000E+00  0.00000000000E+00  0.11043786436E+04  0.11043786436E+04  0.25500000920E-02 0.  1.
        2   -1    0    0  501    0  0.00000000000E+00  0.00000000000E+00 -0.88240168195E+03  0.88240168196E+03  0.25500000920E-02 0. -1.
    10030    2    1    2    0    0  0.00000000000E+00  0.00000000000E+00  0.22197696165E+03  0.19867803256E+04  0.19743409763E+04 0.  0.
        1    1    3    3  502    0  0.53525136786E+03 -0.81723731429E+03 -0.31802398019E+02  0.97743656941E+03  0.50400001928E-02 0.  1.
       -1    1    3    3    0  502 -0.53525136786E+03  0.81723731429E+03  0.25377935967E+03  0.10093437562E+04  0.50400001928E-02 0. -1.
</event>
<event>
 5   0  0.9333353E-06  0.1996748E+04  0.7818609E-02  0.8608143E-01
       -1   -1    0    0    0  501  0.00000000000E+00  0.00000000000E+00  0.12422039566E+04  0.12422039566E+04  0.50400001928E-02 0. -1.
        1   -1    0    0  501    0  0.00000000000E+00  0.00000000000E+00 -0.80240498160E+03  0.80240498161E+03  0.50400001928E-02 0.  1.
    10030    2    1    2    0    0  0.00000000000E+00  0.00000000000E+00  0.43979897503E+03  0.20446089383E+04  0.19967479991E+04 0.  0.
        2    1    3    3  502    0  0.91962721504E+03  0.10138597069E+03 -0.16426965782E+03  0.93966901097E+03  0.25500000920E-02 0. -1.
       -2    1    3    3    0  502 -0.91962721504E+03 -0.10138597069E+03  0.60406863285E+03  0.11049399273E+04  0.25500000920E-02 0.  1.
</event>
<event>
 5   0  0.9342635E-06  0.1997881E+04  0.7818609E-02  0.8607612E-01
        1   -1    0    0  501    0  0.00000000000E+00  0.00000000000E+00  0.15390529000E+04  0.15390529000E+04  0.50400001928E-02 0.  1.
       -1   -1    0    0    0  501  0.00000000000E+00  0.00000000000E+00 -0.64837409489E+03  0.64837409491E+03  0.50400001928E-02 0. -1.
    10030    2    1    2    0    0  0.00000000000E+00  0.00000000000E+00  0.89067880509E+03  0.21874269949E+04  0.19978809084E+04 0.  0.
        5    1    3    3  502    0 -0.18805697353E+03  0.27068712604E+02  0.15190759419E+04  0.15309186614E+04  0.46999998093E+01 0.  1.
       -5    1    3    3    0  502  0.18805697353E+03 -0.27068712604E+02 -0.62839713678E+03  0.65650833354E+03  0.46999998093E+01 0. -1.
</event>
<event>
 5   0  0.2038882E-05  0.1993582E+04  0.7818609E-02  0.8609627E-01
        2   -1    0    0  501    0  0.00000000000E+00  0.00000000000E+00  0.12965982014E+04  0.12965982014E+04  0.25500000920E-02 0. -1.
       -2   -1    0    0    0  501  0.00000000000E+00  0.00000000000E+00 -0.76630702108E+03  0.76630702109E+03  0.25500000920E-02 0.  1.
    10030    2    1    2    0    0  0.00000000000E+00  0.00000000000E+00  0.53029118032E+03  0.20629052225E+04  0.19935820076E+04 0.  0.
        3    1    3    3  502    0 -0.63588736852E+03 -0.36145524319E+03 -0.43559503705E+03  0.85131996615E+03  0.10100000352E+00 0.  1.
       -3    1    3    3    0  502  0.63588736852E+03  0.36145524319E+03  0.96588621737E+03  0.12115852563E+04  0.10100000352E+00 0. -1.
</event>
<event>
 5   0  0.1999142E-05  0.1996105E+04  0.7818609E-02  0.8608444E-01
        2   -1    0    0  501    0  0.00000000000E+00  0.00000000000E+00  0.13770620445E+04  0.13770620445E+04  0.25500000920E-02 0. -1.
       -2   -1    0    0    0  501  0.00000000000E+00  0.00000000000E+00 -0.72335815987E+03  0.72335815987E+03  0.25500000920E-02 0.  1.
    10030    2    1    2    0    0  0.00000000000E+00  0.00000000000E+00  0.65370388466E+03  0.21004202044E+04  0.19961052743E+04 0.  0.
        1    1    3    3  502    0 -0.80375978573E+03 -0.58971093949E+03  0.27616535440E+03  0.10344351542E+04  0.50400001928E-02 0. -1.
       -1    1    3    3    0  502  0.80375978573E+03  0.58971093949E+03  0.37753853026E+03  0.10659850502E+04  0.50400001928E-02 0.  1.
</event>
<event>
 5   0  0.9342635E-06  0.1998313E+04  0.7818609E-02  0.8607410E-01
        1   -1    0    0  501    0  0.00000000000E+00  0.00000000000E+00  0.12479647006E+04  0.12479647006E+04  0.50400001928E-02 0. -1.
       -1   -1    0    0    0  501  0.00000000000E+00  0.00000000000E+00 -0.79995379908E+03  0.79995379910E+03  0.50400001928E-02 0.  1.
    10030    2    1    2    0    0  0.00000000000E+00  0.00000000000E+00  0.44801090152E+03  0.20479184997E+04  0.19983133922E+04 0.  0.
        5    1    3    3  502    0 -0.60651019768E+03  0.13827285591E+03 -0.57727152903E+03  0.84866866962E+03  0.46999998093E+01 0.  1.
       -5    1    3    3    0  502  0.60651019768E+03 -0.13827285591E+03  0.10252824305E+04  0.11992498301E+04  0.46999998093E+01 0. -1.
</event>
<event>
 5   0  0.9333353E-06  0.2000795E+04  0.7818609E-02  0.8606249E-01
        1   -1    0    0  501    0  0.00000000000E+00  0.00000000000E+00  0.88145442288E+03  0.88145442289E+03  0.50400001928E-02 0.  1.
       -1   -1    0    0    0  501  0.00000000000E+00  0.00000000000E+00 -0.11353911284E+04  0.11353911284E+04  0.50400001928E-02 0. -1.
    10030    2    1    2    0    0  0.00000000000E+00  0.00000000000E+00 -0.25393670553E+03  0.20168455513E+04  0.20007953737E+04 0.  0.
        2    1    3    3  502    0 -0.89326206526E+03  0.21362163142E+03 -0.52668966354E+03  0.10587508301E+04  0.25500000920E-02 0.  1.
       -2    1    3    3    0  502  0.89326206526E+03 -0.21362163142E+03  0.27275295801E+03  0.95809472117E+03  0.25500000920E-02 0. -1.
</event>
<event>
 5   0  0.9342635E-06  0.2000350E+04  0.7818609E-02  0.8606457E-01
       -1   -1    0    0    0  501  0.00000000000E+00  0.00000000000E+00  0.54858788843E+03  0.54858788845E+03  0.50400001928E-02 0. -1.
        1   -1    0    0  501    0  0.00000000000E+00  0.00000000000E+00 -0.18235008718E+04  0.18235008718E+04  0.50400001928E-02 0.  1.
    10030    2    1    2    0    0  0.00000000000E+00  0.00000000000E+00 -0.12749129834E+04  0.23720887603E+04  0.20003504621E+04 0.  0.
        5    1    3    3  502    0  0.64415432977E+03 -0.76146818500E+03 -0.72587733346E+03  0.12335674244E+04  0.46999998093E+01 0.  1.
       -5    1    3    3    0  502 -0.64415432977E+03  0.76146818500E+03 -0.54903564992E+03  0.11385213359E+04  0.46999998093E+01 0. -1.
</event>
<event>
 5   0  0.9333353E-06  0.1999090E+04  0.7818609E-02  0.8607046E-01
        1   -1    0    0  501    0  0.00000000000E+00  0.00000000000E+00  0.82808723808E+03  0.82808723810E+03  0.50400001928E-02 0.  1.
       -1   -1    0    0    0  501  0.00000000000E+00  0.00000000000E+00 -0.12065038801E+04  0.12065038801E+04  0.50400001928E-02 0. -1.
    10030    2    1    2    0    0  0.00000000000E+00  0.00000000000E+00 -0.37841664198E+03  0.20345911182E+04  0.19990902589E+04 0.  0.
        2    1    3    3  502    0 -0.21771938628E+03  0.63197841103E+03 -0.94556931944E+03  0.11579722713E+04  0.25500000920E-02 0. -1.
       -2    1    3    3    0  502  0.21771938628E+03 -0.63197841103E+03  0.56715267746E+03  0.87661884689E+03  0.25500000920E-02 0.  1.
</event>
<event>
 5   0  0.9342635E-06  0.1997767E+04  0.7818609E-02  0.8607666E-01
       -1   -1    0    0    0  501  0.00000000000E+00  0.00000000000E+00  0.99165444500E+03  0.99165444501E+03  0.50400001928E-02 0. -1.
        1   -1    0    0  501    0  0.00000000000E+00  0.00000000000E+00 -0.10061649644E+04  0.10061649644E+04  0.50400001928E-02 0.  1.
    10030    2    1    2    0    0  0.00000000000E+00  0.00000000000E+00 -0.14510519429E+02  0.19978194095E+04  0.19977667125E+04 0.  0.
        5    1    3    3  502    0 -0.21530732817E+03  0.70644242964E+03 -0.67982613381E+03  0.10037947072E+04  0.46999998093E+01 0.  1.
       -5    1    3    3    0  502  0.21530732817E+03 -0.70644242964E+03  0.66531561438E+03  0.99402470226E+03  0.46999998093E+01 0. -1.
</event>
<event>
 5   0  0.9333353E-06  0.1997687E+04  0.7818609E-02  0.8607703E-01
        1   -1    0    0  501    0  0.00000000000E+00  0.00000000000E+00  0.15242307218E+04  0.15242307218E+04  0.50400001928E-02 0. -1.
       -1   -1    0    0    0  501  0.00000000000E+00  0.00000000000E+00 -0.65455236502E+03  0.65455236504E+03  0.50400001928E-02 0.  1.
    10030    2    1    2    0    0  0.00000000000E+00  0.00000000000E+00  0.86967835678E+03  0.21787830869E+04  0.19976874869E+04 0.  0.
        2    1    3    3  502    0  0.24566114772E+03 -0.14613622511E+02 -0.62096994073E+03  0.66795705308E+03  0.25500000920E-02 0.  1.
       -2    1    3    3    0  502 -0.24566114772E+03  0.14613622511E+02  0.14906482975E+04  0.15108260338E+04  0.25500000920E-02 0. -1.
</event>
<event>
 5   0  0.2038882E-05  0.1994903E+04  0.7818609E-02  0.8609007E-01
        2   -1    0    0  501    0  0.00000000000E+00  0.00000000000E+00  0.24077937242E+04  0.24077937242E+04  0.25500000920E-02 0.  1.
       -2   -1    0    0    0  501  0.00000000000E+00  0.00000000000E+00 -0.41320374327E+03  0.41320374328E+03  0.25500000920E-02 0. -1.
    10030    2    1    2    0    0  0.00000000000E+00  0.00000000000E+00  0.19945899810E+04  0.28209974675E+04  0.19949028847E+04 0.  0.
        3    1    3    3  502    0  0.71689888151E+03 -0.26630947008E+03  0.91778211630E+02  0.77025190068E+03  0.10100000352E+00 0. -1.
       -3    1    3    3    0  502 -0.71689888151E+03  0.26630947008E+03  0.19028117693E+04  0.20507455668E+04  0.10100000352E+00 0.  1.
</event>
<event>
 5   0  0.1979765E-05  0.1997953E+04  0.7818609E-02  0.8607578E-01
        2   -1    0    0  501    0  0.00000000000E+00  0.00000000000E+00  0.22558421984E+04  0.22558421984E+04  0.25500000920E-02 0.  1.
       -2   -1    0    0    0  501  0.00000000000E+00  0.00000000000E+00 -0.44238627180E+03  0.44238627181E+03  0.25500000920E-02 0. -1.
    10030    2    1    2    0    0  0.00000000000E+00  0.00000000000E+00  0.18134559266E+04  0.26982284702E+04  0.19979525719E+04 0.  0.
        2    1    3    3  502    0  0.64452370217E+03 -0.71818257235E+03  0.55779605694E+03  0.11146001306E+04  0.25500000920E-02 0. -1.
       -2    1    3    3    0  502 -0.64452370217E+03  0.71818257235E+03  0.12556598696E+04  0.15836283396E+04  0.25500000920E-02 0.  1.
</event>
<event>
 5   0  0.1999142E-05  0.1995538E+04  0.7818609E-02  0.8608710E-01
       -2   -1    0    0    0  501  0.00000000000E+00  0.00000000000E+00  0.58174834488E+03  0.58174834489E+03  0.25500000920E-02 0. -1.
        2   -1    0    0  501    0  0.00000000000E+00  0.00000000000E+00 -0.17112944898E+04  0.17112944898E+04  0.25500000920E-02 0.  1.
    10030    2    1    2    0    0  0.00000000000E+00  0.00000000000E+00 -0.11295461449E+04  0.22930428347E+04  0.19955377591E+04 0.  0.
        1    1    3    3  502    0  0.57928321739E+03  0.80348073064E+03 -0.42691921376E+03  0.10786150127E+04  0.50400001928E-02 0. -1.
       -1    1    3    3    0  502 -0.57928321739E+03 -0.80348073064E+03 -0.70262693115E+03  0.12144278220E+04  0.50400001928E-02 0.  1.
</event>
<event>
 5   0  0.9333353E-06  0.2002469E+04  0.7818609E-02  0.8605467E-01
       -1   -1    0    0    0  501  0.00000000000E+00  0.00000000000E+00  0.73496832619E+03  0.73496832621E+03  0.50400001928E-02 0.  1.
        1   -1    0    0  501    0  0.00000000000E+00  0.00000000000E+00 -0.13639645753E+04  0.13639645753E+04  0.50400001928E-02 0. -1.
    10030    2    1    2    0    0  0.00000000000E+00  0.00000000000E+00 -0.62899624914E+03  0.20989329015E+04  0.20024692367E+04 0.  0.
        2    1    3    3  502    0 -0.38324985498E+03  0.57501761858E+02 -0.12821626804E+04  0.13394506497E+04  0.25500000920E-02 0. -1.
       -2    1    3    3    0  502  0.38324985498E+03 -0.57501761858E+02  0.65316643126E+03  0.75948225186E+03  0.25500000920E-02 0.  1.
</event>
<event>
 5   0  0.2003576E-05  0.2007840E+04  0.7818609E-02  0.8602964E-01
        2   -1    0    0  501    0  0.00000000000E+00  0.00000000000E+00  0.31205211068E+04  0.31205211068E+04  0.25500000920E-02 0.  1.
       -2   -1    0    0    0  501  0.00000000000E+00  0.00000000000E+00 -0.32297672337E+03  0.32297672338E+03  0.25500000920E-02 0. -1.
    10030    2    1    2    0    0  0.00000000000E+00  0.00000000000E+00  0.27975443835E+04  0.34434978302E+04  0.20078403147E+04 0.  0.
        4    1    3    3  502    0 -0.19116440557E+03 -0.64144221007E+03  0.26820219465E+04  0.27642784362E+04  0.12699999809E+01 0.  1.
       -4    1    3    3    0  502  0.19116440557E+03  0.64144221007E+03  0.11552243702E+03  0.67921939399E+03  0.12699999809E+01 0. -1.
</event>
<event>
 5   0  0.9140695E-06  0.1995697E+04  0.7818609E-02  0.8608635E-01
        1   -1    0    0  501    0  0.00000000000E+00  0.00000000000E+00  0.59189375414E+03  0.59189375416E+03  0.50400001928E-02 0. -1.
       -1   -1    0    0    0  501  0.00000000000E+00  0.00000000000E+00 -0.16822299694E+04  0.16822299694E+04  0.50400001928E-02 0.  1.
    10030    2    1    2    0    0  0.00000000000E+00  0.00000000000E+00 -0.10903362153E+04  0.22741237236E+04  0.19956967825E+04 0.  0.
        1    1    3    3  502    0  0.19161185402E+03  0.50287934107E+03 -0.15026977573E+04  0.15961526507E+04  0.50400001928E-02 0.  1.
       -1    1    3    3    0  502 -0.19161185402E+03 -0.50287934107E+03  0.41236154208E+03  0.67797107290E+03  0.50400001928E-02 0. -1.
</event>
<event>
 5   0  0.9370269E-06  0.2000847E+04  0.7818609E-02  0.8606225E-01
       -1   -1    0    0    0  501  0.00000000000E+00  0.00000000000E+00  0.65872698207E+03  0.65872698209E+03  0.50400001928E-02 0.  1.
        1   -1    0    0  501    0  0.00000000000E+00  0.00000000000E+00 -0.15193660668E+04  0.15193660668E+04  0.50400001928E-02 0. -1.
    10030    2    1    2    0    0  0.00000000000E+00  0.00000000000E+00 -0.86063908471E+03  0.21780930489E+04  0.20008472444E+04 0.  0.
        4    1    3    3  502    0 -0.47160116646E+03  0.17655662036E+03  0.51070311641E+03  0.71721627589E+03  0.12699999809E+01 0.  1.
       -4    1    3    3    0  502  0.47160116646E+03 -0.17655662036E+03 -0.13713422011E+04  0.14608767730E+04  0.12699999809E+01 0. -1.
</event>
<event>
 5   0  0.2038882E-05  0.1995449E+04  0.7818609E-02  0.8608752E-01
       -2   -1    0    0    0  501  0.00000000000E+00  0.00000000000E+00  0.51538412636E+03  0.51538412637E+03  0.25500000920E-02 0.  1.
        2   -1    0    0  501    0  0.00000000000E+00  0.00000000000E+00 -0.19314792269E+04  0.19314792269E+04  0.25500000920E-02 0. -1.
    10030    2    1    2    0    0  0.00000000000E+00  0.00000000000E+00 -0.14160951005E+04  0.24468633532E+04  0.19954485550E+04 0.  0.
        3    1    3    3  502    0 -0.87482772590E+03  0.18437367700E+03 -0.16498680071E+03  0.90914127471E+03  0.10100000352E+00 0.  1.
       -3    1    3    3    0  502  0.87482772590E+03 -0.18437367700E+03 -0.12511082998E+04  0.15377220785E+04  0.10100000352E+00 0. -1.
</event>
<event>
 5   0  0.9342635E-06  0.1992392E+04  0.7818609E-02  0.8610186E-01
        1   -1    0    0  501    0  0.00000000000E+00  0.00000000000E+00  0.11052417075E+04  0.11052417075E+04  0.50400001928E-02 0. -1.
       -1   -1    0    0    0  501  0.00000000000E+00  0.00000000000E+00 -0.89790917884E+03  0.89790917885E+03  0.50400001928E-02 0.  1.
    10030    2    1    2    0    0  0.00000000000E+00  0.00000000000E+00  0.20733252867E+03  0.20031508864E+04  0.19923922044E+04 0.  0.
        5    1    3    3  502    0 -0.51516994407E+03  0.76379407670E+03 -0.27733004555E+03  0.96214110558E+03  0.46999998093E+01 0.  1.
       -5    1    3    3    0  502  0.51516994407E+03 -0.76379407670E+03  0.48466257422E+03  0.10410097808E+04  0.46999998093E+01 0. -1.
</event>
<event>
 5   0  0.2038882E-05  0.2000040E+04  0.7818609E-02  0.8606602E-01
        2   -1    0    0  501    0  0.00000000000E+00  0.00000000000E+00  0.17486503505E+04  0.17486503505E+04  0.25500000920E-02 0. -1.
       -2   -1    0    0    0  501  0.00000000000E+00  0.00000000000E+00 -0.57189248406E+03  0.57189248407E+03  0.25500000920E-02 0.  1.
    10030    2    1    2    0    0  0.00000000000E+00  0.00000000000E+00  0.11767578665E+04  0.23205428346E+04  0.20000399923E+04 0.  0.
        3    1    3    3  502    0  0.51182892463E+03 -0.12966186890E+03  0.15737425273E+04  0.16599537948E+04  0.10100000352E+00 0. -1.
       -3    1    3    3    0  502 -0.51182892463E+03  0.12966186890E+03 -0.39698466087E+03  0.66058903979E+03  0.10100000352E+00 0.  1.
</event>
<event>
 5   0  0.9370269E-06  0.1995967E+04  0.7818609E-02  0.8608508E-01
       -1   -1    0    0    0  501  0.00000000000E+00  0.00000000000E+00  0.68802477461E+03  0.68802477463E+03  0.50400001928E-02 0.  1.
        1   -1    0    0  501    0  0.00000000000E+00  0.00000000000E+00 -0.14475803816E+04  0.14475803816E+04  0.50400001928E-02 0. -1.
    10030    2    1    2    0    0  0.00000000000E+00  0.00000000000E+00 -0.75955560700E+03  0.21356051562E+04  0.19959670997E+04 0.  0.
        4    1    3    3  502    0 -0.76651816540E+02 -0.36991678719E+03  0.60856399274E+03  0.71628602986E+03  0.12699999809E+01 0.  1.
       -4    1    3    3    0  502  0.76651816540E+02  0.36991678719E+03 -0.13681195997E+04  0.14193191264E+04  0.12699999809E+01 0. -1.
</event>
<event>
 5   0  0.9342635E-06  0.1998389E+04  0.7818609E-02  0.8607374E-01
       -1   -1    0    0    0  501  0.00000000000E+00  0.00000000000E+00  0.73254958368E+03  0.73254958370E+03  0.50400001928E-02 0.  1.
        1   -1    0    0  501    0  0.00000000000E+00  0.00000000000E+00 -0.13628973539E+04  0.13628973539E+04  0.50400001928E-02 0. -1.
    10030    2    1    2    0    0  0.00000000000E+00  0.00000000000E+00 -0.63034777019E+03  0.20954469376E+04  0.19983892406E+04 0.  0.
        5    1    3    3  502    0 -0.52040365671E+03 -0.85264515962E+03 -0.33963194524E+03  0.10550808890E+04  0.46999998093E+01 0.  1.
       -5    1    3    3    0  502  0.52040365671E+03  0.85264515962E+03 -0.29071582496E+03  0.10403660486E+04  0.46999998093E+01 0. -1.
</event>
<event>
 5   0  0.2020029E-05  0.2000008E+04  0.7818609E-02  0.8606617E-01
        2   -1    0    0  501    0  0.00000000000E+00  0.00000000000E+00  0.81375661783E+03  0.81375661784E+03  0.25500000920E-02 0.  1.
       -2   -1    0    0    0  501  0.00000000000E+00  0.00000000000E+00 -0.12288789730E+04  0.12288789730E+04  0.25500000920E-02 0. -1.
    10030    2    1    2    0    0  0.00000000000E+00  0.00000000000E+00 -0.41512235521E+03  0.20426355909E+04  0.20000083968E+04 0.  0.
        5    1    3    3  502    0 -0.46186689659E+03 -0.70468491835E+02  0.69542059549E+03  0.83780590422E+03  0.46999998093E+01 0.  1.
       -5    1    3    3    0  502  0.46186689659E+03  0.70468491835E+02 -0.11105429507E+04  0.12048296867E+04  0.46999998093E+01 0. -1.
</event>
<event>
 5   0  0.9140695E-06  0.2005543E+04  0.7818609E-02  0.8604034E-01
        1   -1    0    0  501    0  0.00000000000E+00  0.00000000000E+00  0.10238735346E+04  0.10238735346E+04  0.50400001928E-02 0.  1.
       -1   -1    0    0    0  501  0.00000000000E+00  0.00000000000E+00 -0.98210432920E+03  0.98210432922E+03  0.50400001928E-02 0. -1.
    10030    2    1    2    0    0  0.00000000000E+00  0.00000000000E+00  0.41769205355E+02  0.20059778638E+04  0.20055429498E+04 0.  0.
        1    1    3    3  502    0 -0.66101004889E+03  0.27613143886E+03 -0.68095679218E+03  0.98837493346E+03  0.50400001928E-02 0. -1.
       -1    1    3    3    0  502  0.66101004889E+03 -0.27613143886E+03  0.72272599754E+03  0.10176029303E+04  0.50400001928E-02 0.  1.
</event>
<event>
 5   0  0.2020029E-05  0.2006704E+04  0.7818609E-02  0.8603493E-01
        2   -1    0    0  501    0  0.00000000000E+00  0.00000000000E+00  0.12483539044E+04  0.12483539044E+04  0.25500000920E-02 0.  1.
       -2   -1    0    0    0  501  0.00000000000E+00  0.00000000000E+00 -0.80643427738E+03  0.80643427738E+03  0.25500000920E-02 0. -1.
    10030    2    1    2    0    0  0.00000000000E+00  0.00000000000E+00  0.44191962702E+03  0.20547881818E+04  0.20067041424E+04 0.  0.
        5    1    3    3  502    0 -0.75214614064E+03  0.10235196691E+03  0.89280163514E+03  0.11718859124E+04  0.46999998093E+01 0.  1.
       -5    1    3    3    0  502  0.75214614064E+03 -0.10235196691E+03 -0.45088200812E+03  0.88290226937E+03  0.46999998093E+01 0. -1.
</event>
<event>
 5   0  0.9333353E-06  0.2003393E+04  0.7818609E-02  0.8605036E-01
       -1   -1    0    0    0  501  0.00000000000E+00  0.00000000000E+00  0.96766840093E+03  0.96766840095E+03  0.50400001928E-02 0.  1.
        1   -1    0    0  501    0  0.00000000000E+00  0.00000000000E+00 -0.10369208816E+04  0.10369208816E+04  0.50400001928E-02 0. -1.
    10030    2    1    2    0    0  0.00000000000E+00  0.00000000000E+00 -0.69252480682E+02  0.20045892826E+04  0.20033926938E+04 0.  0.
        2    1    3    3  502    0  0.69714546362E+03 -0.39544251278E+03  0.56657286943E+03  0.98152503521E+03  0.25500000920E-02 0.  1.
       -2    1    3    3    0  502 -0.69714546362E+03  0.39544251278E+03 -0.63582535011E+03  0.10230642474E+04  0.25500000920E-02 0. -1.
</event>
<event>
 5   0  0.9220260E-06  0.1997572E+04  0.7818609E-02  0.8607757E-01
       -1   -1    0    0    0  501  0.00000000000E+00  0.00000000000E+00  0.70703774331E+03  0.70703774332E+03  0.50400001928E-02 0. -1.
        1   -1    0    0  501    0  0.00000000000E+00  0.00000000000E+00 -0.14109194298E+04  0.14109194298E+04  0.50400001928E-02 0.  1.
    10030    2    1    2    0    0  0.00000000000E+00  0.00000000000E+00 -0.70388168652E+03  0.21179571732E+04  0.19975718157E+04 0.  0.
        3    1    3    3  502    0 -0.80378665670E+02  0.63495046750E+03  0.46104903206E+03  0.78878960834E+03  0.10100000352E+00 0. -1.
       -3    1    3    3    0  502  0.80378665670E+02 -0.63495046750E+03 -0.11649307186E+04  0.13291675648E+04  0.10100000352E+00 0.  1.
</event>
<event>
 5   0  0.9342635E-06  0.1997908E+04  0.7818609E-02  0.8607599E-01
       -1   -1    0    0    0  501  0.00000000000E+00  0.00000000000E+00  0.20459537486E+04  0.20459537486E+04  0.50400001928E-02 0. -1.
        1   -1    0    0  501    0  0.00000000000E+00  0.00000000000E+00 -0.48774764636E+03  0.48774764639E+03  0.50400001928E-02 0.  1.
    10030    2    1    2    0    0  0.00000000000E+00  0.00000000000E+00  0.15582061022E+04  0.25337013950E+04  0.19979080314E+04 0.  0.
        5    1    3    3  502    0  0.50658945130E+03  0.47375435205E+03 -0.13258403396E+03  0.70617042866E+03  0.46999998093E+01 0.  1.
       -5    1    3    3    0  502 -0.50658945130E+03 -0.47375435205E+03  0.16907901362E+04  0.18275309663E+04  0.46999998093E+01 0. -1.
</event>
<event>
 5   0  0.1979765E-05  0.2001002E+04  0.7818609E-02  0.8606152E-01
        2   -1    0    0  501    0  0.00000000000E+00  0.00000000000E+00  0.11753307233E+04  0.11753307234E+04  0.25500000920E-02 0.  1.
       -2   -1    0    0    0  501  0.00000000000E+00  0.00000000000E+00 -0.85167705899E+03  0.85167705899E+03  0.25500000920E-02 0. -1.
    10030    2    1    2    0    0  0.00000000000E+00  0.00000000000E+00  0.32365366436E+03  0.20270077823E+04  0.20010019628E+04 0.  0.
        2    1    3    3  502    0  0.11658868983E+03 -0.91393892538E+03 -0.23327414140E+03  0.95041785914E+03  0.25500000920E-02 0.  1.
       -2    1    3    3    0  502 -0.11658868983E+03  0.91393892538E+03  0.55692780576E+03  0.10765899232E+04  0.25500000920E-02 0. -1.
</event>
<event>
 5   0  0.1999142E-05  0.1999835E+04  0.7818609E-02  0.8606698E-01
        2   -1    0    0  501    0  0.00000000000E+00  0.00000000000E+00  0.13320714724E+04  0.13320714724E+04  0.25500000920E-02 0. -1.
       -2   -1    0    0    0  501  0.00000000000E+00  0.00000000000E+00 -0.75058655009E+03  0.75058655009E+03  0.25500000920E-02 0.  1.
    10030    2    1    2    0    0  0.00000000000E+00  0.00000000000E+00  0.58148492229E+03  0.20826580225E+04  0.19998349241E+04 0.  0.
        1    1    3    3  502    0 -0.14898326613E+03  0.72070884720E+03  0.99569476438E+03  0.12381539968E+04  0.50400001928E-02 0. -1.
       -1    1    3    3    0  502  0.14898326613E+03 -0.72070884720E+03 -0.41420984209E+03  0.84450402564E+03  0.50400001928E-02 0.  1.
</event>
<event>
 5   0  0.9140695E-06  0.2001032E+04  0.7818609E-02  0.8606138E-01
       -1   -1    0    0    0  501  0.00000000000E+00  0.00000000000E+00  0.10022077449E+04  0.10022077449E+04  0.50400001928E-02 0.  1.
        1   -1    0    0  501    0  0.00000000000E+00  0.00000000000E+00 -0.99882692197E+03  0.99882692198E+03  0.50400001928E-02 0. -1.
    10030    2    1    2    0    0  0.00000000000E+00  0.00000000000E+00  0.33808229085E+01  0.20010346669E+04  0.20010318109E+04 0.  0.
        1    1    3    3  502    0 -0.13684814171E+03 -0.82029014998E+03  0.55795439214E+03  0.10014571622E+04  0.50400001928E-02 0.  1.
       -1    1    3    3    0  502  0.13684814171E+03  0.82029014998E+03 -0.55457356924E+03  0.99957750463E+03  0.50400001928E-02 0. -1.
</event>
<event>
 5   0  0.9220260E-06  0.1998971E+04  0.7818609E-02  0.8607102E-01
       -1   -1    0    0    0  501  0.00000000000E+00  0.00000000000E+00  0.66189969899E+03  0.66189969901E+03  0.50400001928E-02 0.  1.
        1   -1    0    0  501    0  0.00000000000E+00  0.00000000000E+00 -0.15092492371E+04  0.15092492371E+04  0.50400001928E-02 0. -1.
    10030    2    1    2    0    0  0.00000000000E+00  0.00000000000E+00 -0.84734953815E+03  0.21711489362E+04  0.19989713513E+04 0.  0.
        3    1    3    3  502    0  0.32106885323E+03 -0.41174160118E+03 -0.13493477477E+04  0.14468433603E+04  0.10100000352E+00 0. -1.
       -3    1    3    3    0  502 -0.32106885323E+03  0.41174160118E+03  0.50199820957E+03  0.72430557590E+03  0.10100000352E+00 0.  1.
</event>
<event>
 5   0  0.9220260E-06  0.1998921E+04  0.7818609E-02  0.8607125E-01
        1   -1    0    0  501    0  0.00000000000E+00  0.00000000000E+00  0.12170512943E+04  0.12170512943E+04  0.50400001928E-02 0.  1.
       -1   -1    0    0    0  501  0.00000000000E+00  0.00000000000E+00 -0.82077202573E+03  0.82077202575E+03  0.50400001928E-02 0. -1.
    10030    2    1    2    0    0  0.00000000000E+00  0.00000000000E+00  0.39627926856E+03  0.20378233201E+04  0.19989213654E+04 0.  0.
        3    1    3    3  502    0  0.52321494374E+03 -0.80847404397E+03 -0.74530557582E+02  0.96588765980E+03  0.10100000352E+00 0. -1.
       -3    1    3    3    0  502 -0.52321494374E+03  0.80847404397E+03  0.47080982614E+03  0.10719356603E+04  0.10100000352E+00 0.  1.
</event>
<event>
 5   0  0.9333353E-06  0.1997414E+04  0.7818609E-02  0.8607831E-01
        1   -1    0    0  501    0  0.00000000000E+00  0.00000000000E+00  0.88335808731E+03  0.88335808733E+03  0.50400001928E-02 0. -1.
       -1   -1    0    0    0  501  0.00000000000E+00  0.00000000000E+00 -0.11291180968E+04  0.11291180968E+04  0.50400001928E-02 0.  1.
    10030    2    1    2    0    0  0.00000000000E+00  0.00000000000E+00 -0.24576000950E+03  0.20124761841E+04  0.19974139304E+04 0.  0.
        2    1    3    3  502    0 -0.14951629962E+03  0.77411570473E+03  0.49477242872E+03  0.93081147629E+03  0.25500000920E-02 0. -1.
       -2    1    3    3    0  502  0.14951629962E+03 -0.77411570473E+03 -0.74053243822E+03  0.10816647079E+04  0.25500000920E-02 0.  1.
</event>
<event>
 5   0  0.1999142E-05  0.1987704E+04  0.7818609E-02  0.8612391E-01
       -2   -1    0    0    0  501  0.00000000000E+00  0.00000000000E+00  0.17469705013E+04  0.17469705013E+04  0.25500000920E-02 0. -1.
        2   -1    0    0  501    0  0.00000000000E+00  0.00000000000E+00 -0.56540267405E+03  0.56540267405E+03  0.25500000920E-02 0.  1.
    10030    2    1    2    0    0  0.00000000000E+00  0.00000000000E+00  0.11815678273E+04  0.23123731754E+04  0.19877039950E+04 0.  0.
        1    1    3    3  502    0  0.40525622825E+02  0.36693524643E+03 -0.48268092868E+03  0.60767152321E+03  0.50400001928E-02 0.  1.
       -1    1    3    3    0  502 -0.40525622825E+02 -0.36693524643E+03  0.16642487560E+04  0.17047016522E+04  0.50400001928E-02 0. -1.
</event>
<event>
 5   0  0.2038882E-05  0.2000134E+04  0.7818609E-02  0.8606558E-01
        2   -1    0    0  501    0  0.00000000000E+00  0.00000000000E+00  0.17932826848E+04  0.17932826848E+04  0.25500000920E-02 0.  1.
       -2   -1    0    0    0  501  0.00000000000E+00  0.00000000000E+00 -0.55771155317E+03  0.55771155318E+03  0.25500000920E-02 0. -1.
    10030    2    1    2    0    0  0.00000000000E+00  0.00000000000E+00  0.12355711317E+04  0.23509942380E+04  0.20001344669E+04 0.  0.
        3    1    3    3  502    0 -0.99452742857E+03  0.76939253931E+02  0.70197378415E+03  0.12197424559E+04  0.10100000352E+00 0.  1.
       -3    1    3    3    0  502  0.99452742857E+03 -0.76939253931E+02  0.53359734752E+03  0.11312517821E+04  0.10100000352E+00 0. -1.
</event>
<event>
 5   0  0.9220260E-06  0.1973683E+04  0.7818609E-02  0.8619025E-01
       -1   -1    0    0    0  501  0.00000000000E+00  0.00000000000E+00  0.40052959269E+03  0.40052959272E+03  0.50400001928E-02 0. -1.
        1   -1    0    0  501    0  0.00000000000E+00  0.00000000000E+00 -0.24314204555E+04  0.24314204555E+04  0.50400001928E-02 0.  1.
    10030    2    1    2    0    0  0.00000000000E+00  0.00000000000E+00 -0.20308908628E+04  0.28319500482E+04  0.19736826946E+04 0.  0.
        3    1    3    3  502    0  0.22180416121E+03  0.37800598486E+03  0.25322207893E+03  0.50616898559E+03  0.10100000352E+00 0. -1.
       -3    1    3    3    0  502 -0.22180416121E+03 -0.37800598486E+03 -0.22841129417E+04  0.23257810626E+04  0.10100000352E+00 0.  1.
</event>
<event>
 5   0  0.2003576E-05  0.2001297E+04  0.7818609E-02  0.8606014E-01
        2   -1    0    0  501    0  0.00000000000E+00  0.00000000000E+00  0.13831266851E+04  0.13831266851E+04  0.25500000920E-02 0.  1.
       -2   -1    0    0    0  501  0.00000000000E+00  0.00000000000E+00 -0.72393773145E+03  0.72393773146E+03  0.25500000920E-02 0. -1.
    10030    2    1    2    0    0  0.00000000000E+00  0.00000000000E+00  0.65918895364E+03  0.21070644166E+04  0.20012971741E+04 0.  0.
        4    1    3    3  502    0  0.76916334163E+03  0.26726362181E+03  0.94192743020E+03  0.12450987858E+04  0.12699999809E+01 0.  1.
       -4    1    3    3    0  502 -0.76916334163E+03 -0.26726362181E+03 -0.28273847655E+03  0.86196563079E+03  0.12699999809E+01 0. -1.
</event>
<event>
 5   0  0.9220260E-06  0.1991230E+04  0.7818609E-02  0.8610732E-01
       -1   -1    0    0    0  501  0.00000000000E+00  0.00000000000E+00  0.81032280316E+03  0.81032280317E+03  0.50400001928E-02 0.  1.
        1   -1    0    0  501    0  0.00000000000E+00  0.00000000000E+00 -0.12232769466E+04  0.12232769466E+04  0.50400001928E-02 0. -1.
    10030    2    1    2    0    0  0.00000000000E+00  0.00000000000E+00 -0.41295414340E+03  0.20335997497E+04  0.19912299761E+04 0.  0.
        3    1    3    3  502    0  0.18679078119E+03 -0.29008513873E+03 -0.11602705371E+04  0.12104825125E+04  0.10100000352E+00 0. -1.
       -3    1    3    3    0  502 -0.18679078119E+03  0.29008513873E+03  0.74731639372E+03  0.82311723720E+03  0.10100000352E+00 0.  1.
</event>
<event>
 5   0  0.9220260E-06  0.2002482E+04  0.7818609E-02  0.8605461E-01
        1   -1    0    0  501    0  0.00000000000E+00  0.00000000000E+00  0.10062633536E+04  0.10062633536E+04  0.50400001928E-02 0.  1.
       -1   -1    0    0    0  501  0.00000000000E+00  0.00000000000E+00 -0.99624379332E+03  0.99624379333E+03  0.50400001928E-02 0. -1.
    10030    2    1    2    0    0  0.00000000000E+00  0.00000000000E+00  0.10019560290E+02  0.20025071470E+04  0.20024820803E+04 0.  0.
        3    1    3    3  502    0  0.86457419752E+03  0.12055088669E+02  0.50984254699E+03  0.10037795082E+04  0.10100000352E+00 0.  1.
       -3    1    3    3    0  502 -0.86457419752E+03 -0.12055088669E+02 -0.49982298670E+03  0.99872763875E+03  0.10100000352E+00 0. -1.
</event>
<event>
 5   0  0.2020029E-05  0.1981256E+04  0.7818609E-02  0.8615434E-01
       -2   -1    0    0    0  501  0.00000000000E+00  0.00000000000E+00  0.50349366681E+03  0.50349366682E+03  0.25500000920E-02 0.  1.
        2   -1    0    0  501    0  0.00000000000E+00  0.00000000000E+00 -0.19490694557E+04  0.19490694557E+04  0.25500000920E-02 0. -1.
    10030    2    1    2    0    0  0.00000000000E+00  0.00000000000E+00 -0.14455757889E+04  0.24525631226E+04  0.19812562955E+04 0.  0.
        5    1    3    3  502    0 -0.48261375908E+03  0.81116490322E+03 -0.10950130956E+04  0.14456764196E+04  0.46999998093E+01 0. -1.
       -5    1    3    3    0  502  0.48261375908E+03 -0.81116490322E+03 -0.35056269337E+03  0.10068867030E+04  0.46999998093E+01 0.  1.
</event>
<event>
 5   0  0.9370269E-06  0.1984388E+04  0.7818609E-02  0.8613955E-01
       -1   -1    0    0    0  501  0.00000000000E+00  0.00000000000E+00  0.94802167909E+03  0.94802167910E+03  0.50400001928E-02 0. -1.
        1   -1    0    0  501    0  0.00000000000E+00  0.00000000000E+00 -0.10384239734E+04  0.10384239734E+04  0.50400001928E-02 0.  1.
    10030    2    1    2    0    0  0.00000000000E+00  0.00000000000E+00 -0.90402294332E+02  0.19864456525E+04  0.19843875014E+04 0.  0.
        4    1    3    3  502    0  0.27511443866E+03 -0.93743425049E+03 -0.21851620778E+03  0.10011103208E+04  0.12699999809E+01 0.  1.
       -4    1    3    3    0  502 -0.27511443866E+03  0.93743425049E+03  0.12811391345E+03  0.98533533179E+03  0.12699999809E+01 0. -1.
</event>
<event>
 5   0  0.9220260E-06  0.2004454E+04  0.7818609E-02  0.8604541E-01
       -1   -1    0    0    0  501  0.00000000000E+00  0.00000000000E+00  0.99550576614E+03  0.99550576615E+03  0.50400001928E-02 0. -1.
        1   -1    0    0  501    0  0.00000000000E+00  0.00000000000E+00 -0.10089935377E+04  0.10089935377E+04  0.50400001928E-02 0.  1.
    10030    2    1    2    0    0  0.00000000000E+00  0.00000000000E+00 -0.13487771593E+02  0.20044993039E+04  0.20044539255E+04 0.  0.
        3    1    3    3  502    0 -0.75911284062E+03  0.20937420007E+03  0.61324516063E+03  0.99807790161E+03  0.10100000352E+00 0. -1.
       -3    1    3    3    0  502  0.75911284062E+03 -0.20937420007E+03 -0.62673293222E+03  0.10064214023E+04  0.10100000352E+00 0.  1.
</event>
<event>
 5   0  0.1979765E-05  0.1999813E+04  0.7818609E-02  0.8606708E-01
        2   -1    0    0  501    0  0.00000000000E+00  0.00000000000E+00  0.17147160474E+04  0.17147160474E+04  0.25500000920E-02 0.  1.
       -2   -1    0    0    0  501  0.00000000000E+00  0.00000000000E+00 -0.58307815043E+03  0.58307815043E+03  0.25500000920E-02 0. -1.
    10030    2    1    2    0    0  0.00000000000E+00  0.00000000000E+00  0.11316378969E+04  0.22977941978E+04  0.19998134527E+04 0.  0.
        2    1    3    3  502    0  0.24160237907E+03  0.39710975767E+03 -0.45138771998E+03  0.64793421191E+03  0.25500000920E-02 0. -1.
       -2    1    3    3    0  502 -0.24160237907E+03 -0.39710975767E+03  0.15830256169E+04  0.16498599859E+04  0.25500000920E-02 0.  1.
</event>
<event>
 5   0  0.9370269E-06  0.2000893E+04  0.7818609E-02  0.8606203E-01
        1   -1    0    0  501    0  0.00000000000E+00  0.00000000000E+00  0.19503326457E+04  0.19503326457E+04  0.50400001928E-02 0.  1.
       -1   -1    0    0    0  501  0.00000000000E+00  0.00000000000E+00 -0.51319097667E+03  0.51319097670E+03  0.50400001928E-02 0. -1.
    10030    2    1    2    0    0  0.00000000000E+00  0.00000000000E+00  0.14371416690E+04  0.24635236224E+04  0.20008929160E+04 0.  0.
        4    1    3    3  502    0 -0.27066535052E+03 -0.76017636221E+03  0.14467197923E+04  0.16565408549E+04  0.12699999809E+01 0. -1.
       -4    1    3    3    0  502  0.27066535052E+03  0.76017636221E+03 -0.95781233124E+01  0.80698276746E+03  0.12699999809E+01 0.  1.
</event>
<event>
 5   0  0.1999142E-05  0.1960042E+04  0.7818609E-02  0.8625534E-01
        2   -1    0    0  501    0  0.00000000000E+00  0.00000000000E+00  0.23363861533E+04  0.23363861533E+04  0.25500000920E-02 0. -1.
       -2   -1    0    0    0  501  0.00000000000E+00  0.00000000000E+00 -0.41107978604E+03  0.41107978605E+03  0.25500000920E-02 0.  1.
    10030    2    1    2    0    0  0.00000000000E+00  0.00000000000E+00  0.19253063673E+04  0.27474659394E+04  0.19600419588E+04 0.  0.
        1    1    3    3  502    0  0.59857336632E+02 -0.28123354040E+03  0.22759300827E+04  0.22940211303E+04  0.50400001928E-02 0. -1.
       -1    1    3    3    0  502 -0.59857336632E+02  0.28123354040E+03 -0.35062371544E+03  0.45344480904E+03  0.50400001928E-02 0.  1.
</event>
<event>
 5   0  0.9333353E-06  0.1999254E+04  0.7818609E-02  0.8606969E-01
        1   -1    0    0  501    0  0.00000000000E+00  0.00000000000E+00  0.13180184067E+04  0.13180184067E+04  0.50400001928E-02 0. -1.
       -1   -1    0    0    0  501  0.00000000000E+00  0.00000000000E+00 -0.75814904776E+03  0.75814904777E+03  0.50400001928E-02 0.  1.
    10030    2    1    2    0    0  0.00000000000E+00  0.00000000000E+00  0.55986935892E+03  0.20761674545E+04  0.19992542609E+04 0.  0.
        2    1    3    3  502    0 -0.28699292341E+03 -0.13509332885E+03  0.12643696690E+04  0.13035512286E+04  0.25500000920E-02 0. -1.
       -2    1    3    3    0  502  0.28699292341E+03  0.13509332885E+03 -0.70450031009E+03  0.77261622589E+03  0.25500000920E-02 0.  1.
</event>
<event>
 5   0  0.9370269E-06  0.1980571E+04  0.7818609E-02  0.8615759E-01
        1   -1    0    0  501    0  0.00000000000E+00  0.00000000000E+00  0.17116804470E+04  0.17116804470E+04  0.50400001928E-02 0. -1.
       -1   -1    0    0    0  501  0.00000000000E+00  0.00000000000E+00 -0.57292547265E+03  0.57292547267E+03  0.50400001928E-02 0.  1.
    10030    2    1    2    0    0  0.00000000000E+00  0.00000000000E+00  0.11387549743E+04  0.22846059197E+04  0.19805709572E+04 0.  0.
        4    1    3    3  502    0  0.32772544736E+03  0.66364984888E+03 -0.18951259855E+03  0.76403647078E+03  0.12699999809E+01 0.  1.
       -4    1    3    3    0  502 -0.32772544736E+03 -0.66364984888E+03  0.13282675729E+04  0.15205694489E+04  0.12699999809E+01 0. -1.
</event>
<event>
 5   0  0.2038882E-05  0.2008875E+04  0.7818609E-02  0.8602482E-01
        2   -1    0    0  501    0  0.00000000000E+00  0.00000000000E+00  0.11351650538E+04  0.11351650538E+04  0.25500000920E-02 0.  1.
       -2   -1    0    0    0  501  0.00000000000E+00  0.00000000000E+00 -0.88876487895E+03  0.88876487895E+03  0.25500000920E-02 0. -1.
    10030    2    1    2    0    0  0.00000000000E+00  0.00000000000E+00  0.24640017484E+03  0.20239299327E+04  0.20088751396E+04 0.  0.
        3    1    3    3  502    0  0.40953189578E+03  0.91424940593E+03  0.49670465353E+02  0.10030132179E+04  0.10100000352E+00 0.  1.
       -3    1    3    3    0  502 -0.40953189578E+03 -0.91424940593E+03  0.19672970948E+03  0.10209167149E+04  0.10100000352E+00 0. -1.
</event>
<event>
 5   0  0.9220260E-06  0.1996522E+04  0.7818609E-02  0.8608248E-01
       -1   -1    0    0    0  501  0.00000000000E+00  0.00000000000E+00  0.14022711236E+04  0.14022711236E+04  0.50400001928E-02 0.  1.
        1   -1    0    0  501    0  0.00000000000E+00  0.00000000000E+00 -0.71065108008E+03  0.71065108010E+03  0.50400001928E-02 0. -1.
    10030    2    1    2    0    0  0.00000000000E+00  0.00000000000E+00  0.69162004352E+03  0.21129222037E+04  0.19965224653E+04 0.  0.
        3    1    3    3  502    0 -0.95094159013E+03  0.22786530353E+03  0.55829670850E+03  0.11260140893E+04  0.10100000352E+00 0. -1.
       -3    1    3    3    0  502  0.95094159013E+03 -0.22786530353E+03  0.13332333502E+03  0.98690811440E+03  0.10100000352E+00 0.  1.
</event>
<event>
 5   0  0.1979765E-05  0.1993282E+04  0.7818609E-02  0.8609768E-01
        2   -1    0    0  501    0  0.00000000000E+00  0.00000000000E+00  0.11814992336E+04  0.11814992336E+04  0.25500000920E-02 0. -1.
       -2   -1    0    0    0  501  0.00000000000E+00  0.00000000000E+00 -0.84070617728E+03  0.84070617728E+03  0.25500000920E-02 0.  1.
    10030    2    1    2    0    0  0.00000000000E+00  0.00000000000E+00  0.34079305632E+03  0.20222054109E+04  0.19932824227E+04 0.  0.
        2    1    3    3  502    0 -0.47386952081E+03  0.20240358355E+03 -0.69507891562E+03  0.86524807560E+03  0.25500000920E-02 0.  1.
       -2    1    3    3    0  502  0.47386952081E+03 -0.20240358355E+03  0.10358719719E+04  0.11569573353E+04  0.25500000920E-02 0. -1.
</event>
<event>
 5   0  0.2038882E-05  0.2000224E+04  0.7818609E-02  0.8606516E-01
        2   -1    0    0  501    0  0.00000000000E+00  0.00000000000E+00  0.60421346928E+03  0.60421346929E+03  0.25500000920E-02 0.  1.
       -2   -1    0    0    0  501  0.00000000000E+00  0.00000000000E+00 -0.16554155001E+04  0.16554155001E+04  0.25500000920E-02 0. -1.
    10030    2    1    2    0    0  0.00000000000E+00  0.00000000000E+00 -0.10512020308E+04  0.22596289694E+04  0.20002243299E+04 0.  0.
        3    1    3    3  502    0  0.10475251380E+03  0.95982166327E+03 -0.82017372076E+03  0.12668526579E+04  0.10100000352E+00 0. -1.
       -3    1    3    3    0  502 -0.10475251380E+03 -0.95982166327E+03 -0.23102831008E+03  0.99277631151E+03  0.10100000352E+00 0.  1.
</event>
<event>
 5   0  0.1979765E-05  0.1999715E+04  0.7818609E-02  0.8606754E-01
        2   -1    0    0  501    0  0.00000000000E+00  0.00000000000E+00  0.12753478352E+04  0.12753478352E+04  0.25500000920E-02 0. -1.
       -2   -1    0    0    0  501  0.00000000000E+00  0.00000000000E+00 -0.78387614749E+03  0.78387614749E+03  0.25500000920E-02 0.  1.
    10030    2    1    2    0    0  0.00000000000E+00  0.00000000000E+00  0.49147168774E+03  0.20592239827E+04  0.19997147274E+04 0.  0.
        2    1    3    3  502    0  0.15613558765E+03  0.96691594247E+03  0.38731292755E+02  0.98020654690E+03  0.25500000920E-02 0.  1.
       -2    1    3    3    0  502 -0.15613558765E+03 -0.96691594247E+03  0.45274039498E+03  0.10790174358E+04  0.25500000920E-02 0. -1.
</event>
<event>
 5   0  0.1979765E-05  0.1999282E+04  0.7818609E-02  0.8606957E-01
       -2   -1    0    0    0  501  0.00000000000E+00  0.00000000000E+00  0.50808947488E+03  0.50808947488E+03  0.25500000920E-02 0. -1.
        2   -1    0    0  501    0  0.00000000000E+00  0.00000000000E+00 -0.19667439141E+04  0.19667439141E+04  0.25500000920E-02 0.  1.
    10030    2    1    2    0    0  0.00000000000E+00  0.00000000000E+00 -0.14586544392E+04  0.24748333890E+04  0.19992817536E+04 0.  0.
        2    1    3    3  502    0 -0.71754887147E+03  0.16340018232E+03 -0.15667894126E+04  0.17310127285E+04  0.25500000920E-02 0.  1.
       -2    1    3    3    0  502  0.71754887147E+03 -0.16340018232E+03  0.10813497343E+03  0.74382066051E+03  0.25500000920E-02 0. -1.
</event>
<event>
 5   0  0.9342635E-06  0.2001548E+04  0.7818609E-02  0.8605897E-01
        1   -1    0    0  501    0  0.00000000000E+00  0.00000000000E+00  0.94897084151E+03  0.94897084152E+03  0.50400001928E-02 0. -1.
       -1   -1    0    0    0  501  0.00000000000E+00  0.00000000000E+00 -0.10554049833E+04  0.10554049833E+04  0.50400001928E-02 0.  1.
    10030    2    1    2    0    0  0.00000000000E+00  0.00000000000E+00 -0.10643414183E+03  0.20043758249E+04  0.20015479561E+04 0.  0.
        5    1    3    3  502    0 -0.67569964581E+02 -0.93084649171E+03  0.30852115642E+03  0.98297929032E+03  0.46999998093E+01 0. -1.
       -5    1    3    3    0  502  0.67569964581E+02  0.93084649171E+03 -0.41495529825E+03  0.10213965345E+04  0.46999998093E+01 0.  1.
</event>
<event>
 5   0  0.9370269E-06  0.1985954E+04  0.7818609E-02  0.8613216E-01
        1   -1    0    0  501    0  0.00000000000E+00  0.00000000000E+00  0.11386032625E+04  0.11386032625E+04  0.50400001928E-02 0. -1.
       -1   -1    0    0    0  501  0.00000000000E+00  0.00000000000E+00 -0.86597598993E+03  0.86597598995E+03  0.50400001928E-02 0.  1.
    10030    2    1    2    0    0  0.00000000000E+00  0.00000000000E+00  0.27262727252E+03  0.20045792524E+04  0.19859537632E+04 0.  0.
        4    1    3    3  502    0  0.11792777110E+03  0.81126072168E+03  0.70188150313E+03  0.10792081241E+04  0.12699999809E+01 0. -1.
       -4    1    3    3    0  502 -0.11792777110E+03 -0.81126072168E+03 -0.42925423061E+03  0.92537112833E+03  0.12699999809E+01 0.  1.
</event>
<event>
 5   0  0.1979765E-05  0.1997476E+04  0.7818609E-02  0.8607802E-01
       -2   -1    0    0    0  501  0.00000000000E+00  0.00000000000E+00  0.99480784390E+03  0.99480784390E+03  0.25500000920E-02 0. -1.
        2   -1    0    0  501    0  0.00000000000E+00  0.00000000000E+00 -0.10026832434E+04  0.10026832434E+04  0.25500000920E-02 0.  1.
    10030    2    1    2    0    0  0.00000000000E+00  0.00000000000E+00 -0.78753994838E+01  0.19974910873E+04  0.19974755623E+04 0.  0.
        2    1    3    3  502    0  0.30874908317E+02 -0.27019036882E+03 -0.96494520021E+03  0.10025344557E+04  0.25500000920E-02 0.  1.
       -2    1    3    3    0  502 -0.30874908317E+02  0.27019036882E+03  0.95706980072E+03  0.99495663163E+03  0.25500000920E-02 0. -1.
</event>
<event>
 5   0  0.1979765E-05  0.1998131E+04  0.7818609E-02  0.8607495E-01
       -2   -1    0    0    0  501  0.00000000000E+00  0.00000000000E+00  0.80800202073E+03  0.80800202073E+03  0.25500000920E-02 0.  1.
        2   -1    0    0  501    0  0.00000000000E+00  0.00000000000E+00 -0.12353083974E+04  0.12353083974E+04  0.25500000920E-02 0. -1.
    10030    2    1    2    0    0  0.00000000000E+00  0.00000000000E+00 -0.42730637671E+03  0.20433104182E+04  0.19981308079E+04 0.  0.
        2    1    3    3  502    0 -0.83111917957E+02  0.83046702455E+03 -0.77520405258E+03  0.11390892822E+04  0.25500000920E-02 0. -1.
       -2    1    3    3    0  502  0.83111917957E+02 -0.83046702455E+03  0.34789767587E+03  0.90422113593E+03  0.25500000920E-02 0.  1.
</event>
<event>
 5   0  0.7132000E-06  0.2000894E+04  0.7818609E-02  0.8606203E-01
        3   -1    0    0  501    0  0.00000000000E+00  0.00000000000E+00  0.74618548743E+03  0.74618549426E+03  0.10100000352E+00 0. -1.
       -3   -1    0    0    0  501  0.00000000000E+00  0.00000000000E+00 -0.13413471929E+04  0.13413471967E+04  0.10100000352E+00 0.  1.
    10030    2    1    2    0    0  0.00000000000E+00  0.00000000000E+00 -0.59516170543E+03  0.20875326909E+04  0.20008936204E+04 0.  0.
        1    1    3    3  502    0 -0.20999673422E+03 -0.77179912622E+03  0.32937337974E+03  0.86501985117E+03  0.50400001928E-02 0. -1.
       -1    1    3    3    0  502  0.20999673422E+03  0.77179912622E+03 -0.92453508516E+03  0.12225128397E+04  0.50400001928E-02 0.  1.
</event>
<event>
 5   0  0.2038882E-05  0.1997324E+04  0.7818609E-02  0.8607873E-01
       -2   -1    0    0    0  501  0.00000000000E+00  0.00000000000E+00  0.65491867423E+03  0.65491867424E+03  0.25500000920E-02 0.  1.
        2   -1    0    0  501    0  0.00000000000E+00  0.00000000000E+00 -0.15228239350E+04  0.15228239350E+04  0.25500000920E-02 0. -1.
    10030    2    1    2    0    0  0.00000000000E+00  0.00000000000E+00 -0.86790526077E+03  0.21777426092E+04  0.19973240424E+04 0.  0.
        3    1    3    3  502    0  0.47666308355E+03 -0.45970749579E+03 -0.12489969448E+04  0.14136944702E+04  0.10100000352E+00 0. -1.
       -3    1    3    3    0  502 -0.47666308355E+03  0.45970749579E+03  0.38109168401E+03  0.76404813901E+03  0.10100000352E+00 0.  1.
</event>
<event>
 5   0  0.9333353E-06  0.2005569E+04  0.7818609E-02  0.8604021E-01
        1   -1    0    0  501    0  0.00000000000E+00  0.00000000000E+00  0.59761107295E+03  0.59761107297E+03  0.50400001928E-02 0.  1.
       -1   -1    0    0    0  501  0.00000000000E+00  0.00000000000E+00 -0.16826606102E+04  0.16826606102E+04  0.50400001928E-02 0. -1.
    10030    2    1    2    0    0  0.00000000000E+00  0.00000000000E+00 -0.10850495372E+04  0.22802716831E+04  0.20055688596E+04 0.  0.
        2    1    3    3  502    0 -0.50092372974E+03 -0.85011317580E+03 -0.33926575847E+03  0.10434166232E+04  0.25500000920E-02 0. -1.
       -2    1    3    3    0  502  0.50092372974E+03  0.85011317580E+03 -0.74578377875E+03  0.12368550600E+04  0.25500000920E-02 0.  1.
</event>
<event>
 5   0  0.9140695E-06  0.2000302E+04  0.7818609E-02  0.8606480E-01
        1   -1    0    0  501    0  0.00000000000E+00  0.00000000000E+00  0.14098476930E+04  0.14098476930E+04  0.50400001928E-02 0. -1.
       -1   -1    0    0    0  501  0.00000000000E+00  0.00000000000E+00 -0.70951052056E+03  0.70951052058E+03  0.50400001928E-02 0.  1.
    10030    2    1    2    0    0  0.00000000000E+00  0.00000000000E+00  0.70033717244E+03  0.21193582136E+04  0.20003017478E+04 0.  0.
        1    1    3    3  502    0  0.60653297533E+03 -0.32020878435E+02  0.11920659340E+04  0.13378821988E+04  0.50400001928E-02 0. -1.
       -1    1    3    3    0  502 -0.60653297533E+03  0.32020878435E+02 -0.49172876153E+03  0.78147601483E+03  0.50400001928E-02 0.  1.
</event>
<event>
 5   0  0.1979765E-05  0.2027128E+04  0.7818609E-02  0.8594042E-01
       -2   -1    0    0    0  501  0.00000000000E+00  0.00000000000E+00  0.60827053731E+03  0.60827053731E+03  0.25500000920E-02 0.  1.
        2   -1    0    0  501    0  0.00000000000E+00  0.00000000000E+00 -0.16889057274E+04  0.16889057275E+04  0.25500000920E-02 0. -1.
    10030    2    1    2    0    0  0.00000000000E+00  0.00000000000E+00 -0.10806351901E+04  0.22971762648E+04  0.20271276174E+04 0.  0.
        2    1    3    3  502    0 -0.88515611270E+03  0.45917340943E+03 -0.74608325836E+03  0.12453841946E+04  0.25500000920E-02 0.  1.
       -2    1    3    3    0  502  0.88515611270E+03 -0.45917340943E+03 -0.33455193179E+03  0.10517920702E+04  0.25500000920E-02 0. -1.
</event>
<event>
 5   0  0.2020029E-05  0.1998696E+04  0.7818609E-02  0.8607231E-01
        2   -1    0    0  501    0  0.00000000000E+00  0.00000000000E+00  0.86576771654E+03  0.86576771654E+03  0.25500000920E-02 0. -1.
       -2   -1    0    0    0  501  0.00000000000E+00  0.00000000000E+00 -0.11535381770E+04  0.11535381770E+04  0.25500000920E-02 0.  1.
    10030    2    1    2    0    0  0.00000000000E+00  0.00000000000E+00 -0.28777046042E+03  0.20193058935E+04  0.19986956881E+04 0.  0.
        5    1    3    3  502    0 -0.39368304815E+03 -0.50432405337E+03  0.63171907880E+03  0.89912189258E+03  0.46999998093E+01 0. -1.
       -5    1    3    3    0  502  0.39368304815E+03  0.50432405337E+03 -0.91948953922E+03  0.11201840009E+04  0.46999998093E+01 0.  1.
</event>
<event>
 5   0  0.9333353E-06  0.2001611E+04  0.7818609E-02  0.8605868E-01
       -1   -1    0    0    0  501  0.00000000000E+00  0.00000000000E+00  0.89135087251E+03  0.89135087253E+03  0.50400001928E-02 0.  1.
        1   -1    0    0  501    0  0.00000000000E+00  0.00000000000E+00 -0.11237003242E+04  0.11237003242E+04  0.50400001928E-02 0. -1.
    10030    2    1    2    0    0  0.00000000000E+00  0.00000000000E+00 -0.23234945165E+03  0.20150511967E+04  0.20016106159E+04 0.  0.
        2    1    3    3  502    0  0.84202431766E+03 -0.50345263445E+03  0.82996525260E+02  0.98455976451E+03  0.25500000920E-02 0.  1.
       -2    1    3    3    0  502 -0.84202431766E+03  0.50345263445E+03 -0.31534597691E+03  0.10304914322E+04  0.25500000920E-02 0. -1.
</event>
<event>
 5   0  0.9342635E-06  0.2008975E+04  0.7818609E-02  0.8602436E-01
       -1   -1    0    0    0  501  0.00000000000E+00  0.00000000000E+00  0.79061865502E+03  0.79061865504E+03  0.50400001928E-02 0.  1.
        1   -1    0    0  501    0  0.00000000000E+00  0.00000000000E+00 -0.12762093566E+04  0.12762093567E+04  0.50400001928E-02 0. -1.
    10030    2    1    2    0    0  0.00000000000E+00  0.00000000000E+00 -0.48559070162E+03  0.20668280117E+04  0.20089747884E+04 0.  0.
        5    1    3    3  502    0 -0.72763514039E+03 -0.74686425654E+02 -0.95105482661E+03  0.11998159579E+04  0.46999998093E+01 0. -1.
       -5    1    3    3    0  502  0.72763514039E+03  0.74686425654E+02  0.46546412499E+03  0.86701205376E+03  0.46999998093E+01 0.  1.
</event>
<event>
 5   0  0.2003576E-05  0.2003011E+04  0.7818609E-02  0.8605214E-01
       -2   -1    0    0    0  501  0.00000000000E+00  0.00000000000E+00  0.34487211337E+03  0.34487211338E+03  0.25500000920E-02 0.  1.
        2   -1    0    0  501    0  0.00000000000E+00  0.00000000000E+00 -0.29083638228E+04  0.29083638228E+04  0.25500000920E-02 0. -1.
    10030    2    1    2    0    0  0.00000000000E+00  0.00000000000E+00 -0.25634917094E+04  0.32532359362E+04  0.20030113110E+04 0.  0.
        4    1    3    3  502    0 -0.10600465869E+03 -0.81381471849E+03 -0.34946434434E+03  0.89199681870E+03  0.12699999809E+01 0.  1.
       -4    1    3    3    0  502  0.10600465869E+03  0.81381471849E+03 -0.22140273651E+04  0.23612391175E+04  0.12699999809E+01 0. -1.
</event>
<event>
 5   0  0.9220260E-06  0.2002466E+04  0.7818609E-02  0.8605469E-01
        1   -1    0    0  501    0  0.00000000000E+00  0.00000000000E+00  0.13307389607E+04  0.13307389607E+04  0.50400001928E-02 0.  1.
       -1   -1    0    0    0  501  0.00000000000E+00  0.00000000000E+00 -0.75331616329E+03  0.75331616331E+03  0.50400001928E-02 0. -1.
    10030    2    1    2    0    0  0.00000000000E+00  0.00000000000E+00  0.57742279744E+03  0.20840551240E+04  0.20024656484E+04 0.  0.
        3    1    3    3  502    0 -0.68951684958E+03  0.19367907792E+03 -0.43945439427E+03  0.84027688646E+03  0.10100000352E+00 0. -1.
       -3    1    3    3    0  502  0.68951684958E+03 -0.19367907792E+03  0.10168771917E+04  0.12437782376E+04  0.10100000352E+00 0.  1.
</event>
<event>
 5   0  0.9333353E-06  0.1998094E+04  0.7818609E-02  0.8607512E-01
       -1   -1    0    0    0  501  0.00000000000E+00  0.00000000000E+00  0.97466233233E+03  0.97466233235E+03  0.50400001928E-02 0. -1.
        1   -1    0    0  501    0  0.00000000000E+00  0.00000000000E+00 -0.10240416075E+04  0.10240416075E+04  0.50400001928E-02 0.  1.
    10030    2    1    2    0    0  0.00000000000E+00  0.00000000000E+00 -0.49379275172E+02  0.19987039399E+04  0.19980938733E+04 0.  0.
        2    1    3    3  502    0  0.44735419142E+03  0.22415167224E+03 -0.88966461051E+03  0.10207217368E+04  0.25500000920E-02 0.  1.
       -2    1    3    3    0  502 -0.44735419142E+03 -0.22415167224E+03  0.84028533534E+03  0.97798220308E+03  0.25500000920E-02 0. -1.
</event>
<event>
 5   0  0.1979765E-05  0.1994988E+04  0.7818609E-02  0.8608967E-01
        2   -1    0    0  501    0  0.00000000000E+00  0.00000000000E+00  0.82378615361E+03  0.82378615361E+03  0.25500000920E-02 0.  1.
       -2   -1    0    0    0  501  0.00000000000E+00  0.00000000000E+00 -0.12078309647E+04  0.12078309647E+04  0.25500000920E-02 0. -1.
    10030    2    1    2    0    0  0.00000000000E+00  0.00000000000E+00 -0.38404481106E+03  0.20316171183E+04  0.19949881449E+04 0.  0.
        2    1    3    3  502    0 -0.56719475710E+03 -0.64676295866E+03  0.32220649671E+03  0.91860178734E+03  0.25500000920E-02 0.  1.
       -2    1    3    3    0  502  0.56719475710E+03  0.64676295866E+03 -0.70625130777E+03  0.11130153309E+04  0.25500000920E-02 0. -1.
</event>
<event>
 5   0  0.2020029E-05  0.1999093E+04  0.7818609E-02  0.8607045E-01
       -2   -1    0    0    0  501  0.00000000000E+00  0.00000000000E+00  0.64443910776E+03  0.64443910777E+03  0.25500000920E-02 0. -1.
        2   -1    0    0  501    0  0.00000000000E+00  0.00000000000E+00 -0.15503301870E+04  0.15503301870E+04  0.25500000920E-02 0.  1.
    10030    2    1    2    0    0  0.00000000000E+00  0.00000000000E+00 -0.90589107924E+03  0.21947692948E+04  0.19990931969E+04 0.  0.
        5    1    3    3  502    0  0.42231091113E+03 -0.18484499331E+03  0.52074504849E+03  0.69549383371E+03  0.46999998093E+01 0. -1.
       -5    1    3    3    0  502 -0.42231091113E+03  0.18484499331E+03 -0.14266361277E+04  0.14992754611E+04  0.46999998093E+01 0.  1.
</event>
<event>
 5   0  0.9370269E-06  0.2023027E+04  0.7818609E-02  0.8595930E-01
        1   -1    0    0  501    0  0.00000000000E+00  0.00000000000E+00  0.52893286812E+03  0.52893286814E+03  0.50400001928E-02 0. -1.
       -1   -1    0    0    0  501  0.00000000000E+00  0.00000000000E+00 -0.19343839331E+04  0.19343839331E+04  0.50400001928E-02 0.  1.
    10030    2    1    2    0    0  0.00000000000E+00  0.00000000000E+00 -0.14054510650E+04  0.24633168012E+04  0.20230266848E+04 0.  0.
        4    1    3    3  502    0 -0.28611617336E+03  0.12926754540E+03  0.46809975783E+03  0.56364133909E+03  0.12699999809E+01 0. -1.
       -4    1    3    3    0  502  0.28611617336E+03 -0.12926754540E+03 -0.18735508228E+04  0.18996754621E+04  0.12699999809E+01 0.  1.
</event>
<event>
 5   0  0.2020029E-05  0.2003540E+04  0.7818609E-02  0.8604968E-01
        2   -1    0    0  501    0  0.00000000000E+00  0.00000000000E+00  0.17084510516E+04  0.17084510516E+04  0.25500000920E-02 0.  1.
       -2   -1    0    0    0  501  0.00000000000E+00  0.00000000000E+00 -0.58739924980E+03  0.58739924981E+03  0.25500000920E-02 0. -1.
    10030    2    1    2    0    0  0.00000000000E+00  0.00000000000E+00  0.11210518018E+04  0.22958503014E+04  0.20035397336E+04 0.  0.
        5    1    3    3  502    0 -0.59566275503E+03 -0.73098661721E+03  0.17300725915E+03  0.95870180660E+03  0.46999998093E+01 0. -1.
       -5    1    3    3    0  502  0.59566275503E+03  0.73098661721E+03  0.94804454261E+03  0.13371484948E+04  0.46999998093E+01 0.  1.
</event>
<event>
 5   0  0.9220260E-06  0.2000126E+04  0.7818609E-02  0.8606562E-01
       -1   -1    0    0    0  501  0.00000000000E+00  0.00000000000E+00  0.10639773471E+04  0.10639773471E+04  0.50400001928E-02 0.  1.
        1   -1    0    0  501    0  0.00000000000E+00  0.00000000000E+00 -0.93998849637E+03  0.93998849639E+03  0.50400001928E-02 0. -1.
    10030    2    1    2    0    0  0.00000000000E+00  0.00000000000E+00  0.12398885071E+03  0.20039658435E+04  0.20001264627E+04 0.  0.
        3    1    3    3  502    0 -0.24963053106E+03 -0.69296202040E+03 -0.61577635072E+03  0.96004806549E+03  0.10100000352E+00 0. -1.
       -3    1    3    3    0  502  0.24963053106E+03  0.69296202040E+03  0.73976520143E+03  0.10439177780E+04  0.10100000352E+00 0.  1.
</event>
<event>
 5   0  0.1979765E-05  0.2001362E+04  0.7818609E-02  0.8605984E-01
       -2   -1    0    0    0  501  0.00000000000E+00  0.00000000000E+00  0.66957134867E+03  0.66957134868E+03  0.25500000920E-02 0. -1.
        2   -1    0    0  501    0  0.00000000000E+00  0.00000000000E+00 -0.14955279222E+04  0.14955279222E+04  0.25500000920E-02 0.  1.
    10030    2    1    2    0    0  0.00000000000E+00  0.00000000000E+00 -0.82595657350E+03  0.21650992708E+04  0.20013621839E+04 0.  0.
        2    1    3    3  502    0 -0.33459763121E+03  0.56087930229E+03 -0.12331761226E+04  0.13954442002E+04  0.25500000920E-02 0.  1.
       -2    1    3    3    0  502  0.33459763121E+03 -0.56087930229E+03  0.40721954912E+03  0.76965507062E+03  0.25500000920E-02 0. -1.
</event>
<event>
 5   0  0.2038882E-05  0.1999219E+04  0.7818609E-02  0.8606986E-01
        2   -1    0    0  501    0  0.00000000000E+00  0.00000000000E+00  0.18268189948E+04  0.18268189948E+04  0.25500000920E-02 0.  1.
       -2   -1    0    0    0  501  0.00000000000E+00  0.00000000000E+00 -0.54697235590E+03  0.54697235591E+03  0.25500000920E-02 0. -1.
    10030    2    1    2    0    0  0.00000000000E+00  0.00000000000E+00  0.12798466389E+04  0.23737913507E+04  0.19992193370E+04 0.  0.
        3    1    3    3  502    0 -0.97563589578E+03 -0.21452833823E+03  0.68325249571E+03  0.12102569116E+04  0.10100000352E+00 0. -1.
       -3    1    3    3    0  502  0.97563589578E+03  0.21452833823E+03  0.59659414318E+03  0.11635344391E+04  0.10100000352E+00 0.  1.
</event>
<event>
 5   0  0.1999142E-05  0.2001837E+04  0.7818609E-02  0.8605762E-01
        2   -1    0    0  501    0  0.00000000000E+00  0.00000000000E+00  0.14104036291E+04  0.14104036291E+04  0.25500000920E-02 0. -1.
       -2   -1    0    0    0  501  0.00000000000E+00  0.00000000000E+00 -0.71032005932E+03  0.71032005933E+03  0.25500000920E-02 0.  1.
    10030    2    1    2    0    0  0.00000000000E+00  0.00000000000E+00  0.70008356982E+03  0.21207236885E+04  0.20018371458E+04 0.  0.
        1    1    3    3  502    0 -0.13659477990E+03 -0.32920314360E+03 -0.64081527546E+03  0.73326465955E+03  0.50400001928E-02 0.  1.
       -1    1    3    3    0  502  0.13659477990E+03  0.32920314360E+03  0.13408988453E+04  0.13874590289E+04  0.50400001928E-02 0. -1.
</event>
<event>
 5   0  0.9140695E-06  0.1994931E+04  0.7818609E-02  0.8608994E-01
        1   -1    0    0  501    0  0.00000000000E+00  0.00000000000E+00  0.19209073093E+04  0.19209073093E+04  0.50400001928E-02 0. -1.
       -1   -1    0    0    0  501  0.00000000000E+00  0.00000000000E+00 -0.51795177157E+03  0.51795177159E+03  0.50400001928E-02 0.  1.
    10030    2    1    2    0    0  0.00000000000E+00  0.00000000000E+00  0.14029555377E+04  0.24388590809E+04  0.19949309200E+04 0.  0.
        1    1    3    3  502    0 -0.86843203190E+03 -0.12596343103E+03  0.12171534706E+03  0.88592076718E+03  0.50400001928E-02 0.  1.
       -1    1    3    3    0  502  0.86843203190E+03  0.12596343103E+03  0.12812401906E+04  0.15529383137E+04  0.50400001928E-02 0. -1.
</event>
<event>
 5   0  0.2038882E-05  0.2005213E+04  0.7818609E-02  0.8604187E-01
        2   -1    0    0  501    0  0.00000000000E+00  0.00000000000E+00  0.16595138152E+04  0.16595138152E+04  0.25500000920E-02 0.  1.
       -2   -1    0    0    0  501  0.00000000000E+00  0.00000000000E+00 -0.60573176383E+03  0.60573176384E+03  0.25500000920E-02 0. -1.
    10030    2    1    2    0    0  0.00000000000E+00  0.00000000000E+00  0.10537820514E+04  0.22652455790E+04  0.20052134354E+04 0.  0.
        3    1    3    3  502    0 -0.45937617567E+03 -0.66046323874E+03  0.12027954930E+04  0.14470505066E+04  0.10100000352E+00 0.  1.
       -3    1    3    3    0  502  0.45937617567E+03  0.66046323874E+03 -0.14901344167E+03  0.81819507240E+03  0.10100000352E+00 0. -1.
</event>
<event>
 5   0  0.9370269E-06  0.2001540E+04  0.7818609E-02  0.8605901E-01
        1   -1    0    0  501    0  0.00000000000E+00  0.00000000000E+00  0.10479493286E+04  0.10479493286E+04  0.50400001928E-02 0.  1.
       -1   -1    0    0    0  501  0.00000000000E+00  0.00000000000E+00 -0.95571435709E+03  0.95571435711E+03  0.50400001928E-02 0. -1.
    10030    2    1    2    0    0  0.00000000000E+00  0.00000000000E+00  0.92234971512E+02  0.20036636857E+04  0.20015396263E+04 0.  0.
        4    1    3    3  502    0  0.10627190013E+03  0.77843345739E+03  0.66668359291E+03  0.10303984619E+04  0.12699999809E+01 0.  1.
       -4    1    3    3    0  502 -0.10627190013E+03 -0.77843345739E+03 -0.57444862140E+03  0.97326522381E+03  0.12699999809E+01 0. -1.
</event>
<event>
 5   0  0.2020029E-05  0.2002983E+04  0.7818609E-02  0.8605227E-01
        2   -1    0    0  501    0  0.00000000000E+00  0.00000000000E+00  0.13524485442E+04  0.13524485442E+04  0.25500000920E-02 0.  1.
       -2   -1    0    0    0  501  0.00000000000E+00  0.00000000000E+00 -0.74160716265E+03  0.74160716266E+03  0.25500000920E-02 0. -1.
    10030    2    1    2    0    0  0.00000000000E+00  0.00000000000E+00  0.61084138159E+03  0.20940557069E+04  0.20029833025E+04 0.  0.
        5    1    3    3  502    0 -0.34493125304E+03 -0.30794899183E+03 -0.62331382620E+03  0.77611363010E+03  0.46999998093E+01 0. -1.
       -5    1    3    3    0  502  0.34493125304E+03  0.30794899183E+03  0.12341552078E+04  0.13179420768E+04  0.46999998093E+01 0.  1.
</event>
<event>
 5   0  0.9370269E-06  0.1999375E+04  0.7818609E-02  0.8606913E-01
        1   -1    0    0  501    0  0.00000000000E+00  0.00000000000E+00  0.17344077303E+04  0.17344077303E+04  0.50400001928E-02 0.  1.
       -1   -1    0    0    0  501  0.00000000000E+00  0.00000000000E+00 -0.57620526577E+03  0.57620526579E+03  0.50400001928E-02 0. -1.
    10030    2    1    2    0    0  0.00000000000E+00  0.00000000000E+00  0.11582024645E+04  0.23106129961E+04  0.19993747695E+04 0.  0.
        4    1    3    3  502    0 -0.13800119930E+03  0.36265492651E+03 -0.48562592603E+03  0.62160846170E+03  0.12699999809E+01 0. -1.
       -4    1    3    3    0  502  0.13800119930E+03 -0.36265492651E+03  0.16438283906E+04  0.16890045344E+04  0.12699999809E+01 0.  1.
</event>
<event>
 5   0  0.9220260E-06  0.2003936E+04  0.7818609E-02  0.8604783E-01
        1   -1    0    0  501    0  0.00000000000E+00  0.00000000000E+00  0.11172846045E+04  0.11172846045E+04  0.50400001928E-02 0. -1.
       -1   -1    0    0    0  501  0.00000000000E+00  0.00000000000E+00 -0.89855316786E+03  0.89855316787E+03  0.50400001928E-02 0.  1.
    10030    2    1    2    0    0  0.00000000000E+00  0.00000000000E+00  0.21873143662E+03  0.20158377724E+04  0.20039357482E+04 0.  0.
        3    1    3    3  502    0 -0.23857168657E+03 -0.68902174757E+03  0.80066797299E+03  0.10829296521E+04  0.10100000352E+00 0. -1.
       -3    1    3    3    0  502  0.23857168657E+03  0.68902174757E+03 -0.58193653637E+03  0.93290812025E+03  0.10100000352E+00 0.  1.
</event>
<event>
 5   0  0.1999142E-05  0.1993871E+04  0.7818609E-02  0.8609492E-01
        2   -1    0    0  501    0  0.00000000000E+00  0.00000000000E+00  0.99160376748E+03  0.99160376748E+03  0.25500000920E-02 0.  1.
       -2   -1    0    0    0  501  0.00000000000E+00  0.00000000000E+00 -0.10022955338E+04  0.10022955338E+04  0.25500000920E-02 0. -1.
    10030    2    1    2    0    0  0.00000000000E+00  0.00000000000E+00 -0.10691766323E+02  0.19938993013E+04  0.19938706352E+04 0.  0.
        1    1    3    3  502    0  0.22523860755E+03  0.97069407763E+03 -0.35356391991E+02  0.99711057419E+03  0.50400001928E-02 0. -1.
       -1    1    3    3    0  502 -0.22523860755E+03 -0.97069407763E+03  0.24664625667E+02  0.99678872710E+03  0.50400001928E-02 0.  1.
</event>
<event>
 5   0  0.2003576E-05  0.1999906E+04  0.7818609E-02  0.8606665E-01
       -2   -1    0    0    0  501  0.00000000000E+00  0.00000000000E+00  0.49015552541E+03  0.49015552542E+03  0.25500000920E-02 0. -1.
        2   -1    0    0  501    0  0.00000000000E+00  0.00000000000E+00 -0.20399774671E+04  0.20399774671E+04  0.25500000920E-02 0.  1.
    10030    2    1    2    0    0  0.00000000000E+00  0.00000000000E+00 -0.15498219416E+04  0.25301329925E+04  0.19999062250E+04 0.  0.
        4    1    3    3  502    0  0.70238086613E+03  0.58109749222E+03 -0.25498976169E+03  0.94659102470E+03  0.12699999809E+01 0.  1.
       -4    1    3    3    0  502 -0.70238086613E+03 -0.58109749222E+03 -0.12948321800E+04  0.15835419678E+04  0.12699999809E+01 0. -1.
</event>
<event>
 5   0  0.2038882E-05  0.1998626E+04  0.7818609E-02  0.8607263E-01
       -2   -1    0    0    0  501  0.00000000000E+00  0.00000000000E+00  0.77859567122E+03  0.77859567122E+03  0.25500000920E-02 0.  1.
        2   -1    0    0  501    0  0.00000000000E+00  0.00000000000E+00 -0.12826000304E+04  0.12826000304E+04  0.25500000920E-02 0. -1.
    10030    2    1    2    0    0  0.00000000000E+00  0.00000000000E+00 -0.50400435914E+03  0.20611957016E+04  0.19986263598E+04 0.  0.
        3    1    3    3  502    0 -0.24359913633E+03  0.76359725416E+03  0.36351182262E+03  0.88009213220E+03  0.10100000352E+00 0.  1.
       -3    1    3    3    0  502  0.24359913633E+03 -0.76359725416E+03 -0.86751618176E+03  0.11811035694E+04  0.10100000352E+00 0. -1.
</event>
<event>
 5   0  0.9370269E-06  0.2000954E+04  0.7818609E-02  0.8606175E-01
        1   -1    0    0  501    0  0.00000000000E+00  0.00000000000E+00  0.21474805172E+04  0.21474805172E+04  0.50400001928E-02 0. -1.
       -1   -1    0    0    0  501  0.00000000000E+00  0.00000000000E+00 -0.46610647879E+03  0.46610647882E+03  0.50400001928E-02 0.  1.
    10030    2    1    2    0    0  0.00000000000E+00  0.00000000000E+00  0.16813740384E+04  0.26135869960E+04  0.20009543545E+04 0.  0.
        4    1    3    3  502    0 -0.64788043601E+03 -0.19108698965E+03 -0.12330702196E+03  0.68663638962E+03  0.12699999809E+01 0.  1.
       -4    1    3    3    0  502  0.64788043601E+03  0.19108698965E+03  0.18046810603E+04  0.19269506064E+04  0.12699999809E+01 0. -1.
</event>
<event>
 5   0  0.9333353E-06  0.2000691E+04  0.7818609E-02  0.8606298E-01
        1   -1    0    0  501    0  0.00000000000E+00  0.00000000000E+00  0.11916290996E+04  0.11916290996E+04  0.50400001928E-02 0. -1.
       -1   -1    0    0    0  501  0.00000000000E+00  0.00000000000E+00 -0.83976733383E+03  0.83976733384E+03  0.50400001928E-02 0.  1.
    10030    2    1    2    0    0  0.00000000000E+00  0.00000000000E+00  0.35186176575E+03  0.20313964334E+04  0.20006910725E+04 0.  0.
        2    1    3    3  502    0 -0.51505664973E+03 -0.67111625636E+03  0.71798833264E+03  0.11095889454E+04  0.25500000920E-02 0. -1.
       -2    1    3    3    0  502  0.51505664973E+03  0.67111625636E+03 -0.36612656688E+03  0.92180748802E+03  0.25500000920E-02 0.  1.
</event>
<event>
 5   0  0.2020029E-05  0.2003901E+04  0.7818609E-02  0.8604799E-01
       -2   -1    0    0    0  501  0.00000000000E+00  0.00000000000E+00  0.39090297501E+03  0.39090297502E+03  0.25500000920E-02 0.  1.
        2   -1    0    0  501    0  0.00000000000E+00  0.00000000000E+00 -0.25681680882E+04  0.25681680882E+04  0.25500000920E-02 0. -1.
    10030    2    1    2    0    0  0.00000000000E+00  0.00000000000E+00 -0.21772651132E+04  0.29590710632E+04  0.20039007421E+04 0.  0.
        5    1    3    3  502    0  0.68886196141E+03 -0.68219540124E+03 -0.71517855910E+03  0.12047505255E+04  0.46999998093E+01 0.  1.
       -5    1    3    3    0  502 -0.68886196141E+03  0.68219540124E+03 -0.14620865541E+04  0.17543205377E+04  0.46999998093E+01 0. -1.
</event>
<event>
 5   0  0.9140695E-06  0.2004526E+04  0.7818609E-02  0.8604508E-01
       -1   -1    0    0    0  501  0.00000000000E+00  0.00000000000E+00  0.59828068436E+03  0.59828068438E+03  0.50400001928E-02 0. -1.
        1   -1    0    0  501    0  0.00000000000E+00  0.00000000000E+00 -0.16790299264E+04  0.16790299264E+04  0.50400001928E-02 0.  1.
    10030    2    1    2    0    0  0.00000000000E+00  0.00000000000E+00 -0.10807492421E+04  0.22773106108E+04  0.20045260522E+04 0.  0.
        1    1    3    3  502    0 -0.67450430431E+02 -0.17840766399E+03  0.57747249202E+03  0.60815568254E+03  0.50400001928E-02 0. -1.
       -1    1    3    3    0  502  0.67450430431E+02  0.17840766399E+03 -0.16582217341E+04  0.16691549283E+04  0.50400001928E-02 0.  1.
</event>
<event>
 5   0  0.2038882E-05  0.2004237E+04  0.7818609E-02  0.8604643E-01
       -2   -1    0    0    0  501  0.00000000000E+00  0.00000000000E+00  0.84474325410E+03  0.84474325411E+03  0.25500000920E-02 0. -1.
        2   -1    0    0  501    0  0.00000000000E+00  0.00000000000E+00 -0.11888121181E+04  0.11888121181E+04  0.25500000920E-02 0.  1.
    10030    2    1    2    0    0  0.00000000000E+00  0.00000000000E+00 -0.34406886402E+03  0.20335553722E+04  0.20042365301E+04 0.  0.
        3    1    3    3  502    0 -0.82215936414E+03  0.55237550599E+03 -0.17569832723E+02  0.99064293713E+03  0.10100000352E+00 0.  1.
       -3    1    3    3    0  502  0.82215936414E+03 -0.55237550599E+03 -0.32649903130E+03  0.10429124351E+04  0.10100000352E+00 0. -1.
</event>
<event>
 5   0  0.9333353E-06  0.2001122E+04  0.7818609E-02  0.8606096E-01
        1   -1    0    0  501    0  0.00000000000E+00  0.00000000000E+00  0.23094236530E+04  0.23094236530E+04  0.50400001928E-02 0. -1.
       -1   -1    0    0    0  501  0.00000000000E+00  0.00000000000E+00 -0.43349423974E+03  0.43349423977E+03  0.50400001928E-02 0.  1.
    10030    2    1    2    0    0  0.00000000000E+00  0.00000000000E+00  0.18759294133E+04  0.27429178928E+04  0.20011215363E+04 0.  0.
        2    1    3    3  502    0 -0.35251607924E+03  0.82834527153E+03  0.33939761178E+03  0.96208846468E+03  0.25500000920E-02 0.  1.
       -2    1    3    3    0  502  0.35251607924E+03 -0.82834527153E+03  0.15365318015E+04  0.17808294281E+04  0.25500000920E-02 0. -1.
</event>
<event>
 5   0  0.9370269E-06  0.1995639E+04  0.7818609E-02  0.8608662E-01
       -1   -1    0    0    0  501  0.00000000000E+00  0.00000000000E+00  0.42644244304E+03  0.42644244307E+03  0.50400001928E-02 0.  1.
        1   -1    0    0  501    0  0.00000000000E+00  0.00000000000E+00 -0.23347671540E+04  0.23347671540E+04  0.50400001928E-02 0. -1.
    10030    2    1    2    0    0  0.00000000000E+00  0.00000000000E+00 -0.19083247109E+04  0.27612095970E+04  0.19956390547E+04 0.  0.
        4    1    3    3  502    0  0.51214077808E+03  0.11346527786E+03 -0.21285953373E+04  0.21922778722E+04  0.12699999809E+01 0. -1.
       -4    1    3    3    0  502 -0.51214077808E+03 -0.11346527786E+03  0.22027062637E+03  0.56893172489E+03  0.12699999809E+01 0.  1.
</event>
<event>
 5   0  0.9342635E-06  0.1998654E+04  0.7818609E-02  0.8607250E-01
        1   -1    0    0  501    0  0.00000000000E+00  0.00000000000E+00  0.13237980512E+04  0.13237980512E+04  0.50400001928E-02 0.  1.
       -1   -1    0    0    0  501  0.00000000000E+00  0.00000000000E+00 -0.75438597648E+03  0.75438597650E+03  0.50400001928E-02 0. -1.
    10030    2    1    2    0    0  0.00000000000E+00  0.00000000000E+00  0.56941207467E+03  0.20781840277E+04  0.19986542327E+04 0.  0.
        5    1    3    3  502    0  0.30756665775E+03 -0.92070258806E+02 -0.69928987487E+03  0.76948203397E+03  0.46999998093E+01 0. -1.
       -5    1    3    3    0  502 -0.30756665775E+03  0.92070258806E+02  0.12687019495E+04  0.13087019937E+04  0.46999998093E+01 0.  1.
</event>
<event>
 5   0  0.2003576E-05  0.1997506E+04  0.7818609E-02  0.8607788E-01
       -2   -1    0    0    0  501  0.00000000000E+00  0.00000000000E+00  0.10333355231E+04  0.10333355231E+04  0.25500000920E-02 0.  1.
        2   -1    0    0  501    0  0.00000000000E+00  0.00000000000E+00 -0.96532780303E+03  0.96532780303E+03  0.25500000920E-02 0. -1.
    10030    2    1    2    0    0  0.00000000000E+00  0.00000000000E+00  0.68007720029E+02  0.19986633261E+04  0.19975059552E+04 0.  0.
        4    1    3    3  502    0 -0.85391712873E+03 -0.79359898479E+02  0.54619247531E+03  0.10167597008E+04  0.12699999809E+01 0.  1.
       -4    1    3    3    0  502  0.85391712873E+03  0.79359898479E+02 -0.47818475528E+03  0.98190362527E+03  0.12699999809E+01 0. -1.
</event>
<event>
 5   0  0.9342635E-06  0.1999785E+04  0.7818609E-02  0.8606721E-01
        1   -1    0    0  501    0  0.00000000000E+00  0.00000000000E+00  0.15652917939E+04  0.15652917939E+04  0.50400001928E-02 0. -1.
       -1   -1    0    0    0  501  0.00000000000E+00  0.00000000000E+00 -0.63872118384E+03  0.63872118386E+03  0.50400001928E-02 0.  1.
    10030    2    1    2    0    0  0.00000000000E+00  0.00000000000E+00  0.92657061008E+03  0.22040129778E+04  0.19997850161E+04 0.  0.
        5    1    3    3  502    0 -0.70720362975E+03 -0.67479505998E+03  0.23137351476E+03  0.10045103983E+04  0.46999998093E+01 0.  1.
       -5    1    3    3    0  502  0.70720362975E+03  0.67479505998E+03  0.69519709532E+03  0.11995025795E+04  0.46999998093E+01 0. -1.
</event>
<event>
 5   0  0.1979765E-05  0.1994301E+04  0.7818609E-02  0.8609290E-01
        2   -1    0    0  501    0  0.00000000000E+00  0.00000000000E+00  0.10413279884E+04  0.10413279884E+04  0.25500000920E-02 0. -1.
       -2   -1    0    0    0  501  0.00000000000E+00  0.00000000000E+00 -0.95484705294E+03  0.95484705294E+03  0.25500000920E-02 0.  1.
    10030    2    1    2    0    0  0.00000000000E+00  0.00000000000E+00  0.86480935484E+02  0.19961750414E+04  0.19943008408E+04 0.  0.
        2    1    3    3  502    0 -0.41003278760E+03  0.29701931314E+02  0.95255438268E+03  0.10374820209E+04  0.25500000920E-02 0. -1.
       -2    1    3    3    0  502  0.41003278760E+03 -0.29701931314E+02 -0.86607344720E+03  0.95869302051E+03  0.25500000920E-02 0.  1.
</event>
<event>
 5   0  0.9370269E-06  0.2003634E+04  0.7818609E-02  0.8604924E-01
       -1   -1    0    0    0  501  0.00000000000E+00  0.00000000000E+00  0.12577099029E+04  0.12577099029E+04  0.50400001928E-02 0.  1.
        1   -1    0    0  501    0  0.00000000000E+00  0.00000000000E+00 -0.79798777831E+03  0.79798777833E+03  0.50400001928E-02 0. -1.
    10030    2    1    2    0    0  0.00000000000E+00  0.00000000000E+00  0.45972212454E+03  0.20556976812E+04  0.20036338300E+04 0.  0.
        4    1    3    3  502    0  0.76061256678E+03  0.12614686915E+03 -0.42644124553E+03  0.88107789561E+03  0.12699999809E+01 0. -1.
       -4    1    3    3    0  502 -0.76061256678E+03 -0.12614686915E+03  0.88616337007E+03  0.11746197856E+04  0.12699999809E+01 0.  1.
</event>
<event>
 5   0  0.9140695E-06  0.1992490E+04  0.7818609E-02  0.8610140E-01
        1   -1    0    0  501    0  0.00000000000E+00  0.00000000000E+00  0.13271551801E+04  0.13271551801E+04  0.50400001928E-02 0. -1.
       -1   -1    0    0    0  501  0.00000000000E+00  0.00000000000E+00 -0.74784292394E+03  0.74784292396E+03  0.50400001928E-02 0.  1.
    10030    2    1    2    0    0  0.00000000000E+00  0.00000000000E+00  0.57931225618E+03  0.20749981041E+04  0.19924895086E+04 0.  0.
        1    1    3    3  502    0  0.41416935897E+03  0.63502949364E+03 -0.38340799738E+03  0.84958837573E+03  0.50400001928E-02 0.  1.
       -1    1    3    3    0  502 -0.41416935897E+03 -0.63502949364E+03  0.96272025356E+03  0.12254097284E+04  0.50400001928E-02 0. -1.
</event>
<event>
 5   0  0.1979765E-05  0.1963547E+04  0.7818609E-02  0.8623856E-01
       -2   -1    0    0    0  501  0.00000000000E+00  0.00000000000E+00  0.41688073590E+03  0.41688073591E+03  0.25500000920E-02 0.  1.
        2   -1    0    0  501    0  0.00000000000E+00  0.00000000000E+00 -0.23121213775E+04  0.23121213775E+04  0.25500000920E-02 0. -1.
    10030    2    1    2    0    0  0.00000000000E+00  0.00000000000E+00 -0.18952406416E+04  0.27290021134E+04  0.19635466497E+04 0.  0.
        2    1    3    3  502    0  0.31244511912E+03  0.92943500186E+03 -0.87942657446E+03  0.13171417824E+04  0.25500000920E-02 0.  1.
       -2    1    3    3    0  502 -0.31244511912E+03 -0.92943500186E+03 -0.10158140671E+04  0.14118603309E+04  0.25500000920E-02 0. -1.
</event>
<event>
 5   0  0.1999142E-05  0.2002256E+04  0.7818609E-02  0.8605567E-01
       -2   -1    0    0    0  501  0.00000000000E+00  0.00000000000E+00  0.10583080608E+04  0.10583080608E+04  0.25500000920E-02 0.  1.
        2   -1    0    0  501    0  0.00000000000E+00  0.00000000000E+00 -0.94703714365E+03  0.94703714365E+03  0.25500000920E-02 0. -1.
    10030    2    1    2    0    0  0.00000000000E+00  0.00000000000E+00  0.11127091712E+03  0.20053452044E+04  0.20022557709E+04 0.  0.
        1    1    3    3  502    0 -0.74476364168E+03  0.56330983857E+03 -0.30584551220E+03  0.98261504851E+03  0.50400001928E-02 0. -1.
       -1    1    3    3    0  502  0.74476364168E+03 -0.56330983857E+03  0.41711642932E+03  0.10227301559E+04  0.50400001928E-02 0.  1.
</event>
<event>
 5   0  0.9333353E-06  0.2002167E+04  0.7818609E-02  0.8605608E-01
        1   -1    0    0  501    0  0.00000000000E+00  0.00000000000E+00  0.16192630823E+04  0.16192630823E+04  0.50400001928E-02 0. -1.
       -1   -1    0    0    0  501  0.00000000000E+00  0.00000000000E+00 -0.61890371105E+03  0.61890371107E+03  0.50400001928E-02 0.  1.
    10030    2    1    2    0    0  0.00000000000E+00  0.00000000000E+00  0.10003593713E+04  0.22381667934E+04  0.20021667571E+04 0.  0.
        2    1    3    3  502    0  0.79563527891E+03 -0.47488467067E+02  0.11772793680E+04  0.14217163437E+04  0.25500000920E-02 0. -1.
       -2    1    3    3    0  502 -0.79563527891E+03  0.47488467067E+02 -0.17691999676E+03  0.81645044970E+03  0.25500000920E-02 0.  1.
</event>
<event>
 5   0  0.9140695E-06  0.1997099E+04  0.7818609E-02  0.8607978E-01
       -1   -1    0    0    0  501  0.00000000000E+00  0.00000000000E+00  0.75363218433E+03  0.75363218435E+03  0.50400001928E-02 0. -1.
        1   -1    0    0  501    0  0.00000000000E+00  0.00000000000E+00 -0.13230606215E+04  0.13230606215E+04  0.50400001928E-02 0.  1.
    10030    2    1    2    0    0  0.00000000000E+00  0.00000000000E+00 -0.56942843712E+03  0.20766928058E+04  0.19970989622E+04 0.  0.
        1    1    3    3  502    0 -0.40643424891E+03  0.77709772639E+03  0.21184379012E+03  0.90219037153E+03  0.50400001928E-02 0. -1.
       -1    1    3    3    0  502  0.40643424891E+03 -0.77709772639E+03 -0.78127222724E+03  0.11745024343E+04  0.50400001928E-02 0.  1.
</event>
<event>
 5   0  0.9370269E-06  0.2002623E+04  0.7818609E-02  0.8605396E-01
        1   -1    0    0  501    0  0.00000000000E+00  0.00000000000E+00  0.14931822763E+04  0.14931822763E+04  0.50400001928E-02 0. -1.
       -1   -1    0    0    0  501  0.00000000000E+00  0.00000000000E+00 -0.67146811356E+03  0.67146811357E+03  0.50400001928E-02 0.  1.
    10030    2    1    2    0    0  0.00000000000E+00  0.00000000000E+00  0.82171416274E+03  0.21646503899E+04  0.20026225668E+04 0.  0.
        4    1    3    3  502    0 -0.47689717710E+03  0.90073977965E+02 -0.53583456472E+03  0.72295541542E+03  0.12699999809E+01 0.  1.
       -4    1    3    3    0  502  0.47689717710E+03 -0.90073977965E+02  0.13575487275E+04  0.14416949745E+04  0.12699999809E+01 0. -1.
</event>
<event>
 5   0  0.2003576E-05  0.1999485E+04  0.7818609E-02  0.8606862E-01
       -2   -1    0    0    0  501  0.00000000000E+00  0.00000000000E+00  0.86314695649E+03  0.86314695650E+03  0.25500000920E-02 0. -1.
        2   -1    0    0  501    0  0.00000000000E+00  0.00000000000E+00 -0.11579544817E+04  0.11579544817E+04  0.25500000920E-02 0.  1.
    10030    2    1    2    0    0  0.00000000000E+00  0.00000000000E+00 -0.29480752523E+03  0.20211014382E+04  0.19994848203E+04 0.  0.
        4    1    3    3  502    0 -0.27887633509E+03 -0.92557335323E+03 -0.40516104992E+03  0.10481484302E+04  0.12699999809E+01 0. -1.
       -4    1    3    3    0  502  0.27887633509E+03  0.92557335323E+03  0.11035352469E+03  0.97295300801E+03  0.12699999809E+01 0.  1.
</event>
<event>
 5   0  0.9220260E-06  0.2004746E+04  0.7818609E-02  0.8604405E-01
       -1   -1    0    0    0  501  0.00000000000E+00  0.00000000000E+00  0.11484294675E+04  0.11484294676E+04  0.50400001928E-02 0. -1.
        1   -1    0    0  501    0  0.00000000000E+00  0.00000000000E+00 -0.87489209827E+03  0.87489209829E+03  0.50400001928E-02 0.  1.
    10030    2    1    2    0    0  0.00000000000E+00  0.00000000000E+00  0.27353736927E+03  0.20233215658E+04  0.20047462349E+04 0.  0.
        3    1    3    3  502    0 -0.85628737427E+03 -0.16713886974E+03  0.63488847206E+03  0.10790027114E+04  0.10100000352E+00 0. -1.
       -3    1    3    3    0  502  0.85628737427E+03  0.16713886974E+03 -0.36135110279E+03  0.94431885441E+03  0.10100000352E+00 0.  1.
</event>
<event>
 5   0  0.9140695E-06  0.2000531E+04  0.7818609E-02  0.8606372E-01
        1   -1    0    0  501    0  0.00000000000E+00  0.00000000000E+00  0.20481585130E+04  0.20481585130E+04  0.50400001928E-02 0. -1.
       -1   -1    0    0    0  501  0.00000000000E+00  0.00000000000E+00 -0.48850279048E+03  0.48850279050E+03  0.50400001928E-02 0.  1.
    10030    2    1    2    0    0  0.00000000000E+00  0.00000000000E+00  0.15596557225E+04  0.25366613035E+04  0.20005310785E+04 0.  0.
        1    1    3    3  502    0  0.61466216342E+03  0.21858005154E+03  0.17412853375E+04  0.18594788088E+04  0.50400001928E-02 0. -1.
       -1    1    3    3    0  502 -0.61466216342E+03 -0.21858005154E+03 -0.18162961492E+03  0.67718249469E+03  0.50400001928E-02 0.  1.
</event>
<event>
 5   0  0.9140695E-06  0.2000789E+04  0.7818609E-02  0.8606252E-01
       -1   -1    0    0    0  501  0.00000000000E+00  0.00000000000E+00  0.15686491315E+04  0.15686491315E+04  0.50400001928E-02 0. -1.
        1   -1    0    0  501    0  0.00000000000E+00  0.00000000000E+00 -0.63799452215E+03  0.63799452217E+03  0.50400001928E-02 0.  1.
    10030    2    1    2    0    0  0.00000000000E+00  0.00000000000E+00  0.93065460936E+03  0.22066436537E+04  0.20007893973E+04 0.  0.
        1    1    3    3  502    0  0.34322869220E+03 -0.91902347822E+03  0.68139024563E+03  0.11944466315E+04  0.50400001928E-02 0.  1.
       -1    1    3    3    0  502 -0.34322869220E+03  0.91902347822E+03  0.24926436373E+03  0.10121970222E+04  0.50400001928E-02 0. -1.
</event>
<event>
 5   0  0.2003576E-05  0.2008084E+04  0.7818609E-02  0.8602851E-01
        2   -1    0    0  501    0  0.00000000000E+00  0.00000000000E+00  0.12657895596E+04  0.12657895596E+04  0.25500000920E-02 0.  1.
       -2   -1    0    0    0  501  0.00000000000E+00  0.00000000000E+00 -0.79641986211E+03  0.79641986211E+03  0.25500000920E-02 0. -1.
    10030    2    1    2    0    0  0.00000000000E+00  0.00000000000E+00  0.46936969747E+03  0.20622094217E+04  0.20080836103E+04 0.  0.
        4    1    3    3  502    0  0.78841484791E+02 -0.83952884416E+03 -0.32505091763E+03  0.90370591005E+03  0.12699999809E+01 0. -1.
       -4    1    3    3    0  502 -0.78841484791E+02  0.83952884416E+03  0.79442061510E+03  0.11585035116E+04  0.12699999809E+01 0.  1.
</event>
<event>
 5   0  0.2038882E-05  0.2000458E+04  0.7818609E-02  0.8606406E-01
        2   -1    0    0  501    0  0.00000000000E+00  0.00000000000E+00  0.21409295066E+04  0.21409295066E+04  0.25500000920E-02 0. -1.
       -2   -1    0    0    0  501  0.00000000000E+00  0.00000000000E+00 -0.46730093877E+03  0.46730093878E+03  0.25500000920E-02 0.  1.
    10030    2    1    2    0    0  0.00000000000E+00  0.00000000000E+00  0.16736285678E+04  0.26082304454E+04  0.20004583158E+04 0.  0.
        3    1    3    3  502    0 -0.57909207617E+02  0.39337467760E+02  0.21377313652E+04  0.21388773486E+04  0.10100000352E+00 0. -1.
       -3    1    3    3    0  502  0.57909207617E+02 -0.39337467760E+02 -0.46410279736E+03  0.46935309673E+03  0.10100000352E+00 0.  1.
</event>
<event>
 5   0  0.2020029E-05  0.1997921E+04  0.7818609E-02  0.8607593E-01
       -2   -1    0    0    0  501  0.00000000000E+00  0.00000000000E+00  0.74828350746E+03  0.74828350746E+03  0.25500000920E-02 0. -1.
        2   -1    0    0  501    0  0.00000000000E+00  0.00000000000E+00 -0.13336145928E+04  0.13336145928E+04  0.25500000920E-02 0.  1.
    10030    2    1    2    0    0  0.00000000000E+00  0.00000000000E+00 -0.58533108534E+03  0.20818981003E+04  0.19979207243E+04 0.  0.
        5    1    3    3  502    0  0.93290104654E+03 -0.16206733181E+03 -0.62436841819E+03  0.11342081794E+04  0.46999998093E+01 0.  1.
       -5    1    3    3    0  502 -0.93290104654E+03  0.16206733181E+03  0.39037332846E+02  0.94768992082E+03  0.46999998093E+01 0. -1.
</event>
<event>
 5   0  0.2038882E-05  0.1999307E+04  0.7818609E-02  0.8606945E-01
        2   -1    0    0  501    0  0.00000000000E+00  0.00000000000E+00  0.17265812157E+04  0.17265812157E+04  0.25500000920E-02 0. -1.
       -2   -1    0    0    0  501  0.00000000000E+00  0.00000000000E+00 -0.57877779641E+03  0.57877779641E+03  0.25500000920E-02 0.  1.
    10030    2    1    2    0    0  0.00000000000E+00  0.00000000000E+00  0.11478034193E+04  0.23053590121E+04  0.19993067512E+04 0.  0.
        3    1    3    3  502    0  0.31539139941E+03 -0.86840342786E+02 -0.51531198314E+03  0.61037646590E+03  0.10100000352E+00 0.  1.
       -3    1    3    3    0  502 -0.31539139941E+03  0.86840342786E+02  0.16631154024E+04  0.16949825462E+04  0.10100000352E+00 0. -1.
</event>
<event>
 5   0  0.9342635E-06  0.2000658E+04  0.7818609E-02  0.8606313E-01
        1   -1    0    0  501    0  0.00000000000E+00  0.00000000000E+00  0.15086845642E+04  0.15086845642E+04  0.50400001928E-02 0.  1.
       -1   -1    0    0    0  501  0.00000000000E+00  0.00000000000E+00 -0.66326518410E+03  0.66326518412E+03  0.50400001928E-02 0. -1.
    10030    2    1    2    0    0  0.00000000000E+00  0.00000000000E+00  0.84541938005E+03  0.21719497483E+04  0.20006578370E+04 0.  0.
        5    1    3    3  502    0 -0.96929691508E+03  0.21258477648E+03  0.28578811329E+03  0.10326789106E+04  0.46999998093E+01 0.  1.
       -5    1    3    3    0  502  0.96929691508E+03 -0.21258477648E+03  0.55963126676E+03  0.11392708376E+04  0.46999998093E+01 0. -1.
</event>
<event>
 5   0  0.2020029E-05  0.2001780E+04  0.7818609E-02  0.8605789E-01
       -2   -1    0    0    0  501  0.00000000000E+00  0.00000000000E+00  0.61450207134E+03  0.61450207134E+03  0.25500000920E-02 0. -1.
        2   -1    0    0  501    0  0.00000000000E+00  0.00000000000E+00 -0.16302314344E+04  0.16302314344E+04  0.25500000920E-02 0.  1.
    10030    2    1    2    0    0  0.00000000000E+00  0.00000000000E+00 -0.10157293630E+04  0.22447335057E+04  0.20017798012E+04 0.  0.
        5    1    3    3  502    0 -0.31067115222E+03 -0.24264042059E+03  0.52377488924E+03  0.65555561406E+03  0.46999998093E+01 0. -1.
       -5    1    3    3    0  502  0.31067115222E+03  0.24264042059E+03 -0.15395042523E+04  0.15891778916E+04  0.46999998093E+01 0.  1.
</event>
<event>
 5   0  0.1979765E-05  0.2000928E+04  0.7818609E-02  0.8606187E-01
        2   -1    0    0  501    0  0.00000000000E+00  0.00000000000E+00  0.87513321038E+03  0.87513321038E+03  0.25500000920E-02 0. -1.
       -2   -1    0    0    0  501  0.00000000000E+00  0.00000000000E+00 -0.11437436392E+04  0.11437436392E+04  0.25500000920E-02 0.  1.
    10030    2    1    2    0    0  0.00000000000E+00  0.00000000000E+00 -0.26861042882E+03  0.20188768496E+04  0.20009278276E+04 0.  0.
        2    1    3    3  502    0  0.37710111790E+03  0.31929249122E+03  0.74342655813E+03  0.89265670636E+03  0.25500000920E-02 0. -1.
       -2    1    3    3    0  502 -0.37710111790E+03 -0.31929249122E+03 -0.10120369869E+04  0.11262201432E+04  0.25500000920E-02 0.  1.
</event>
<event>
 5   0  0.2020029E-05  0.2024453E+04  0.7818609E-02  0.8595273E-01
       -2   -1    0    0    0  501  0.00000000000E+00  0.00000000000E+00  0.91220320922E+03  0.91220320922E+03  0.25500000920E-02 0.  1.
        2   -1    0    0  501    0  0.00000000000E+00  0.00000000000E+00 -0.11232177967E+04  0.11232177967E+04  0.25500000920E-02 0. -1.
    10030    2    1    2    0    0  0.00000000000E+00  0.00000000000E+00 -0.21101458749E+03  0.20354210059E+04  0.20244533868E+04 0.  0.
        5    1    3    3  502    0  0.66908868366E+03 -0.27934815293E+03  0.60462343652E+03  0.94409038081E+03  0.46999998093E+01 0.  1.
       -5    1    3    3    0  502 -0.66908868366E+03  0.27934815293E+03 -0.81563802401E+03  0.10913306251E+04  0.46999998093E+01 0. -1.
</event>
<event>
 5   0  0.9140695E-06  0.2000890E+04  0.7818609E-02  0.8606205E-01
       -1   -1    0    0    0  501  0.00000000000E+00  0.00000000000E+00  0.79703537312E+03  0.79703537314E+03  0.50400001928E-02 0.  1.
        1   -1    0    0  501    0  0.00000000000E+00  0.00000000000E+00 -0.12557661159E+04  0.12557661159E+04  0.50400001928E-02 0. -1.
    10030    2    1    2    0    0  0.00000000000E+00  0.00000000000E+00 -0.45873074281E+03  0.20528014891E+04  0.20008898169E+04 0.  0.
        1    1    3    3  502    0  0.87902081411E+03 -0.13824879290E+03 -0.69850322782E+03  0.11312369688E+04  0.50400001928E-02 0. -1.
       -1    1    3    3    0  502 -0.87902081411E+03  0.13824879290E+03  0.23977248501E+03  0.92156452024E+03  0.50400001928E-02 0.  1.
</event>
<event>
 5   0  0.1979765E-05  0.1995226E+04  0.7818609E-02  0.8608856E-01
        2   -1    0    0  501    0  0.00000000000E+00  0.00000000000E+00  0.18259903789E+04  0.18259903789E+04  0.25500000920E-02 0. -1.
       -2   -1    0    0    0  501  0.00000000000E+00  0.00000000000E+00 -0.54503663977E+03  0.54503663978E+03  0.25500000920E-02 0.  1.
    10030    2    1    2    0    0  0.00000000000E+00  0.00000000000E+00  0.12809537391E+04  0.23710270186E+04  0.19952259625E+04 0.  0.
        2    1    3    3  502    0 -0.58462816645E+03 -0.76994304981E+03  0.34786928718E+03  0.10274314741E+04  0.25500000920E-02 0.  1.
       -2    1    3    3    0  502  0.58462816645E+03  0.76994304981E+03  0.93308445190E+03  0.13435955446E+04  0.25500000920E-02 0. -1.
</event>
<event>
 5   0  0.9342635E-06  0.2003545E+04  0.7818609E-02  0.8604965E-01
       -1   -1    0    0    0  501  0.00000000000E+00  0.00000000000E+00  0.86700044547E+03  0.86700044548E+03  0.50400001928E-02 0.  1.
        1   -1    0    0  501    0  0.00000000000E+00  0.00000000000E+00 -0.11574943847E+04  0.11574943847E+04  0.50400001928E-02 0. -1.
    10030    2    1    2    0    0  0.00000000000E+00  0.00000000000E+00 -0.29049393925E+03  0.20244948302E+04  0.20035450054E+04 0.  0.
        5    1    3    3  502    0  0.10166120297E+03  0.10507851969E+03 -0.11466441939E+04  0.11559374953E+04  0.46999998093E+01 0. -1.
       -5    1    3    3    0  502 -0.10166120297E+03 -0.10507851969E+03  0.85615025468E+03  0.86855733494E+03  0.46999998093E+01 0.  1.
</event>
<event>
 5   0  0.9220260E-06  0.2009278E+04  0.7818609E-02  0.8602295E-01
        1   -1    0    0  501    0  0.00000000000E+00  0.00000000000E+00  0.96732940283E+03  0.96732940284E+03  0.50400001928E-02 0.  1.
       -1   -1    0    0    0  501  0.00000000000E+00  0.00000000000E+00 -0.10433879200E+04  0.10433879200E+04  0.50400001928E-02 0. -1.
    10030    2    1    2    0    0  0.00000000000E+00  0.00000000000E+00 -0.76058517137E+02  0.20107173228E+04  0.20092782919E+04 0.  0.
        3    1    3    3  502    0 -0.67211809165E+03 -0.44025832381E+03  0.56550273759E+03  0.98252912284E+03  0.10100000352E+00 0.  1.
       -3    1    3    3    0  502  0.67211809165E+03  0.44025832381E+03 -0.64156125472E+03  0.10281882000E+04  0.10100000352E+00 0. -1.
</event>
<event>
 5   0  0.2003576E-05  0.1986138E+04  0.7818609E-02  0.8613129E-01
       -2   -1    0    0    0  501  0.00000000000E+00  0.00000000000E+00  0.13133313475E+04  0.13133313475E+04  0.25500000920E-02 0.  1.
        2   -1    0    0  501    0  0.00000000000E+00  0.00000000000E+00 -0.75090392107E+03  0.75090392108E+03  0.25500000920E-02 0. -1.
    10030    2    1    2    0    0  0.00000000000E+00  0.00000000000E+00  0.56242742644E+03  0.20642352686E+04  0.19861376171E+04 0.  0.
        4    1    3    3  502    0 -0.43587202124E+03  0.11835979684E+03  0.12004055296E+04  0.12825632572E+04  0.12699999809E+01 0.  1.
       -4    1    3    3    0  502  0.43587202124E+03 -0.11835979684E+03 -0.63797810313E+03  0.78167201139E+03  0.12699999809E+01 0. -1.
</event>
<event>
 5   0  0.9220260E-06  0.2002346E+04  0.7818609E-02  0.8605525E-01
       -1   -1    0    0    0  501  0.00000000000E+00  0.00000000000E+00  0.95246533403E+03  0.95246533404E+03  0.50400001928E-02 0.  1.
        1   -1    0    0  501    0  0.00000000000E+00  0.00000000000E+00 -0.10523712075E+04  0.10523712075E+04  0.50400001928E-02 0. -1.
    10030    2    1    2    0    0  0.00000000000E+00  0.00000000000E+00 -0.99905873432E+02  0.20048365415E+04  0.20023457181E+04 0.  0.
        3    1    3    3  502    0 -0.52627835834E+03  0.52203896646E+03  0.62382807216E+03  0.96884212686E+03  0.10100000352E+00 0.  1.
       -3    1    3    3    0  502  0.52627835834E+03 -0.52203896646E+03 -0.72373394560E+03  0.10359944146E+04  0.10100000352E+00 0. -1.
</event>
<event>
 5   0  0.9370269E-06  0.1999937E+04  0.7818609E-02  0.8606650E-01
       -1   -1    0    0    0  501  0.00000000000E+00  0.00000000000E+00  0.68437665011E+03  0.68437665013E+03  0.50400001928E-02 0.  1.
        1   -1    0    0  501    0  0.00000000000E+00  0.00000000000E+00 -0.14610916331E+04  0.14610916331E+04  0.50400001928E-02 0. -1.
    10030    2    1    2    0    0  0.00000000000E+00  0.00000000000E+00 -0.77671498299E+03  0.21454682832E+04  0.19999369964E+04 0.  0.
        4    1    3    3  502    0  0.17732230510E+03  0.86803990175E+03 -0.88577826326E+03  0.12528133203E+04  0.12699999809E+01 0. -1.
       -4    1    3    3    0  502 -0.17732230510E+03 -0.86803990175E+03  0.10906328026E+03  0.89265496297E+03  0.12699999809E+01 0.  1.
</event>
<event>
 5   0  0.9220260E-06  0.1999219E+04  0.7818609E-02  0.8606986E-01
       -1   -1    0    0    0  501  0.00000000000E+00  0.00000000000E+00  0.11298644553E+04  0.11298644553E+04  0.50400001928E-02 0. -1.
        1   -1    0    0  501    0  0.00000000000E+00  0.00000000000E+00 -0.88437053065E+03  0.88437053066E+03  0.50400001928E-02 0.  1.
    10030    2    1    2    0    0  0.00000000000E+00  0.00000000000E+00  0.24549392466E+03  0.20142349860E+04  0.19992186753E+04 0.  0.
        3    1    3    3  502    0  0.38631261857E+03 -0.28770661599E+03  0.10052290726E+04  0.11146739589E+04  0.10100000352E+00 0. -1.
       -3    1    3    3    0  502 -0.38631261857E+03  0.28770661599E+03 -0.75973514794E+03  0.89956102704E+03  0.10100000352E+00 0.  1.
</event>
<event>
 5   0  0.2020029E-05  0.2001867E+04  0.7818609E-02  0.8605748E-01
       -2   -1    0    0    0  501  0.00000000000E+00  0.00000000000E+00  0.56130845491E+03  0.56130845492E+03  0.25500000920E-02 0.  1.
        2   -1    0    0  501    0  0.00000000000E+00  0.00000000000E+00 -0.17848788003E+04  0.17848788003E+04  0.25500000920E-02 0. -1.
    10030    2    1    2    0    0  0.00000000000E+00  0.00000000000E+00 -0.12235703454E+04  0.23461872552E+04  0.20018666905E+04 0.  0.
        5    1    3    3  502    0  0.84069716796E+03 -0.47684209371E+03 -0.91671996033E+03  0.13321214983E+04  0.46999998093E+01 0. -1.
       -5    1    3    3    0  502 -0.84069716796E+03  0.47684209371E+03 -0.30685038505E+03  0.10140657569E+04  0.46999998093E+01 0.  1.
</event>
<event>
 5   0  0.9370269E-06  0.2000286E+04  0.7818609E-02  0.8606487E-01
        1   -1    0    0  501    0  0.00000000000E+00  0.00000000000E+00  0.17058288782E+04  0.17058288782E+04  0.50400001928E-02 0. -1.
       -1   -1    0    0    0  501  0.00000000000E+00  0.00000000000E+00 -0.58639271951E+03  0.58639271953E+03  0.50400001928E-02 0.  1.
    10030    2    1    2    0    0  0.00000000000E+00  0.00000000000E+00  0.11194361587E+04  0.22922215978E+04  0.20002856146E+04 0.  0.
        4    1    3    3  502    0 -0.23730432495E+03 -0.71613294912E+03  0.13121476047E+04  0.15135695203E+04  0.12699999809E+01 0. -1.
       -4    1    3    3    0  502  0.23730432495E+03  0.71613294912E+03 -0.19271144593E+03  0.77865207747E+03  0.12699999809E+01 0.  1.
</event>
<event>
 5   0  0.9342635E-06  0.2001294E+04  0.7818609E-02  0.8606016E-01
       -1   -1    0    0    0  501  0.00000000000E+00  0.00000000000E+00  0.63527608341E+03  0.63527608343E+03  0.50400001928E-02 0.  1.
        1   -1    0    0  501    0  0.00000000000E+00  0.00000000000E+00 -0.15761570451E+04  0.15761570451E+04  0.50400001928E-02 0. -1.
    10030    2    1    2    0    0  0.00000000000E+00  0.00000000000E+00 -0.94088096169E+03  0.22114331285E+04  0.20012944556E+04 0.  0.
        5    1    3    3  502    0  0.78128141764E+03  0.41328114098E+03 -0.98881549383E+03  0.13262654809E+04  0.46999998093E+01 0. -1.
       -5    1    3    3    0  502 -0.78128141764E+03 -0.41328114098E+03  0.47934532143E+02  0.88516764763E+03  0.46999998093E+01 0.  1.
</event>
<event>
 5   0  0.2020029E-05  0.1998964E+04  0.7818609E-02  0.8607105E-01
        2   -1    0    0  501    0  0.00000000000E+00  0.00000000000E+00  0.99531985726E+03  0.99531985726E+03  0.25500000920E-02 0.  1.
       -2   -1    0    0    0  501  0.00000000000E+00  0.00000000000E+00 -0.10036616897E+04  0.10036616897E+04  0.25500000920E-02 0. -1.
    10030    2    1    2    0    0  0.00000000000E+00  0.00000000000E+00 -0.83418323952E+01  0.19989815469E+04  0.19989641414E+04 0.  0.
        5    1    3    3  502    0 -0.36576326766E+03  0.91945549973E+03  0.13640461468E+03  0.99890414598E+03  0.46999998093E+01 0.  1.
       -5    1    3    3    0  502  0.36576326766E+03 -0.91945549973E+03 -0.14474644708E+03  0.10000774009E+04  0.46999998093E+01 0. -1.
</event>
<event>
 5   0  0.9342635E-06  0.1993705E+04  0.7818609E-02  0.8609570E-01
       -1   -1    0    0    0  501  0.00000000000E+00  0.00000000000E+00  0.67505546455E+03  0.67505546457E+03  0.50400001928E-02 0.  1.
        1   -1    0    0  501    0  0.00000000000E+00  0.00000000000E+00 -0.14720490714E+04  0.14720490714E+04  0.50400001928E-02 0. -1.
    10030    2    1    2    0    0  0.00000000000E+00  0.00000000000E+00 -0.79699360684E+03  0.21471045360E+04  0.19937048626E+04 0.  0.
        5    1    3    3  502    0  0.19471059321E+03 -0.17075225320E+03 -0.14351753822E+04  0.14583617571E+04  0.46999998093E+01 0. -1.
       -5    1    3    3    0  502 -0.19471059321E+03  0.17075225320E+03  0.63818177532E+03  0.68874277885E+03  0.46999998093E+01 0.  1.
</event>
<event>
 5   0  0.2003576E-05  0.1998704E+04  0.7818609E-02  0.8607227E-01
        2   -1    0    0  501    0  0.00000000000E+00  0.00000000000E+00  0.18839068312E+04  0.18839068312E+04  0.25500000920E-02 0.  1.
       -2   -1    0    0    0  501  0.00000000000E+00  0.00000000000E+00 -0.53012421106E+03  0.53012421107E+03  0.25500000920E-02 0. -1.
    10030    2    1    2    0    0  0.00000000000E+00  0.00000000000E+00  0.13537826202E+04  0.24140310423E+04  0.19987042029E+04 0.  0.
        4    1    3    3  502    0  0.92910308179E+03 -0.46654028015E+02  0.11178515389E+04  0.14543049236E+04  0.12699999809E+01 0.  1.
       -4    1    3    3    0  502 -0.92910308179E+03  0.46654028015E+02  0.23593108130E+03  0.95972611872E+03  0.12699999809E+01 0. -1.
</event>
<event>
 5   0  0.9370269E-06  0.2001380E+04  0.7818609E-02  0.8605976E-01
        1   -1    0    0  501    0  0.00000000000E+00  0.00000000000E+00  0.18418791044E+04  0.18418791044E+04  0.50400001928E-02 0.  1.
       -1   -1    0    0    0  501  0.00000000000E+00  0.00000000000E+00 -0.54367309677E+03  0.54367309679E+03  0.50400001928E-02 0. -1.
    10030    2    1    2    0    0  0.00000000000E+00  0.00000000000E+00  0.12982060077E+04  0.23855522012E+04  0.20013796408E+04 0.  0.
        4    1    3    3  502    0 -0.30910023277E+03  0.95142020667E+03  0.61906339739E+03  0.11764286916E+04  0.12699999809E+01 0.  1.
       -4    1    3    3    0  502  0.30910023277E+03 -0.95142020667E+03  0.67914261027E+03  0.12091235096E+04  0.12699999809E+01 0. -1.
</event>
<event>
 5   0  0.9333353E-06  0.2004900E+04  0.7818609E-02  0.8604333E-01
        1   -1    0    0  501    0  0.00000000000E+00  0.00000000000E+00  0.86971122440E+03  0.86971122442E+03  0.50400001928E-02 0. -1.
       -1   -1    0    0    0  501  0.00000000000E+00  0.00000000000E+00 -0.11554474863E+04  0.11554474863E+04  0.50400001928E-02 0.  1.
    10030    2    1    2    0    0  0.00000000000E+00  0.00000000000E+00 -0.28573626192E+03  0.20251587107E+04  0.20048996464E+04 0.  0.
        2    1    3    3  502    0  0.69580819100E+03  0.39736575884E+03 -0.75133118881E+03  0.10984293970E+04  0.25500000920E-02 0. -1.
       -2    1    3    3    0  502 -0.69580819100E+03 -0.39736575884E+03  0.46559492689E+03  0.92672931372E+03  0.25500000920E-02 0.  1.
</event>
<event>
 5   0  0.9220260E-06  0.2001574E+04  0.7818609E-02  0.8605885E-01
        1   -1    0    0  501    0  0.00000000000E+00  0.00000000000E+00  0.21556741278E+04  0.21556741278E+04  0.50400001928E-02 0. -1.
       -1   -1    0    0    0  501  0.00000000000E+00  0.00000000000E+00 -0.46462225332E+03  0.46462225335E+03  0.50400001928E-02 0.  1.
    10030    2    1    2    0    0  0.00000000000E+00  0.00000000000E+00  0.16910518745E+04  0.26202963811E+04  0.20015735517E+04 0.  0.
        3    1    3    3  502    0  0.96348427668E+03  0.26559094985E+03  0.77707950258E+03  0.12659751449E+04  0.10100000352E+00 0. -1.
       -3    1    3    3    0  502 -0.96348427668E+03 -0.26559094985E+03  0.91397237189E+03  0.13543212362E+04  0.10100000352E+00 0.  1.
</event>
<event>
 5   0  0.2038882E-05  0.1994298E+04  0.7818609E-02  0.8609291E-01
        2   -1    0    0  501    0  0.00000000000E+00  0.00000000000E+00  0.12870834802E+04  0.12870834802E+04  0.25500000920E-02 0.  1.
       -2   -1    0    0    0  501  0.00000000000E+00  0.00000000000E+00 -0.77252679054E+03  0.77252679055E+03  0.25500000920E-02 0. -1.
    10030    2    1    2    0    0  0.00000000000E+00  0.00000000000E+00  0.51455668970E+03  0.20596102708E+04  0.19942983429E+04 0.  0.
        3    1    3    3  502    0  0.54428979688E+03 -0.11382996564E+03  0.11120915292E+04  0.12433648795E+04  0.10100000352E+00 0.  1.
       -3    1    3    3    0  502 -0.54428979688E+03  0.11382996564E+03 -0.59753483954E+03  0.81624539125E+03  0.10100000352E+00 0. -1.
</event>
<event>
 5   0  0.9333353E-06  0.1998311E+04  0.7818609E-02  0.8607411E-01
        1   -1    0    0  501    0  0.00000000000E+00  0.00000000000E+00  0.12486305170E+04  0.12486305170E+04  0.50400001928E-02 0.  1.
       -1   -1    0    0    0  501  0.00000000000E+00  0.00000000000E+00 -0.79952547380E+03  0.79952547382E+03  0.50400001928E-02 0. -1.
    10030    2    1    2    0    0  0.00000000000E+00  0.00000000000E+00  0.44910504323E+03  0.20481559909E+04  0.19983111927E+04 0.  0.
        2    1    3    3  502    0  0.59290621559E+03 -0.20039606396E+03  0.10228351454E+04  0.11991197178E+04  0.25500000920E-02 0.  1.
       -2    1    3    3    0  502 -0.59290621559E+03  0.20039606396E+03 -0.57373010213E+03  0.84903627310E+03  0.25500000920E-02 0. -1.
</event>
<event>
 5   0  0.9333353E-06  0.2005659E+04  0.7818609E-02  0.8603979E-01
        1   -1    0    0  501    0  0.00000000000E+00  0.00000000000E+00  0.13488764252E+04  0.13488764252E+04  0.50400001928E-02 0.  1.
       -1   -1    0    0    0  501  0.00000000000E+00  0.00000000000E+00 -0.74555898234E+03  0.74555898236E+03  0.50400001928E-02 0. -1.
    10030    2    1    2    0    0  0.00000000000E+00  0.00000000000E+00  0.60331744282E+03  0.20944354075E+04  0.20056589290E+04 0.  0.
        2    1    3    3  502    0  0.40865209012E+03  0.22463968055E+03  0.12287663377E+04  0.13142778357E+04  0.25500000920E-02 0.  1.
       -2    1    3    3    0  502 -0.40865209012E+03 -0.22463968055E+03 -0.62544889484E+03  0.78015757184E+03  0.25500000920E-02 0. -1.
</event>
<event>
 5   0  0.2020029E-05  0.2004829E+04  0.7818609E-02  0.8604366E-01
       -2   -1    0    0    0  501  0.00000000000E+00  0.00000000000E+00  0.64498214561E+03  0.64498214562E+03  0.25500000920E-02 0.  1.
        2   -1    0    0  501    0  0.00000000000E+00  0.00000000000E+00 -0.15579267886E+04  0.15579267886E+04  0.25500000920E-02 0. -1.
    10030    2    1    2    0    0  0.00000000000E+00  0.00000000000E+00 -0.91294464294E+03  0.22029089342E+04  0.20048291327E+04 0.  0.
        5    1    3    3  502    0  0.71329291036E+03  0.58280099880E+03 -0.89097718078E+03  0.12815249537E+04  0.46999998093E+01 0.  1.
       -5    1    3    3    0  502 -0.71329291036E+03 -0.58280099880E+03 -0.21967462168E+02  0.92138398052E+03  0.46999998093E+01 0. -1.
</event>
<event>
 5   0  0.2003576E-05  0.2000324E+04  0.7818609E-02  0.8606469E-01
        2   -1    0    0  501    0  0.00000000000E+00  0.00000000000E+00  0.97132675394E+03  0.97132675395E+03  0.25500000920E-02 0. -1.
       -2   -1    0    0    0  501  0.00000000000E+00  0.00000000000E+00 -0.10298533327E+04  0.10298533327E+04  0.25500000920E-02 0.  1.
    10030    2    1    2    0    0  0.00000000000E+00  0.00000000000E+00 -0.58526578724E+02  0.20011800866E+04  0.20003240684E+04 0.  0.
        4    1    3    3  502    0 -0.21749497267E+03  0.88653079655E+03  0.37966775333E+03  0.98863043257E+03  0.12699999809E+01 0. -1.
       -4    1    3    3    0  502  0.21749497267E+03 -0.88653079655E+03 -0.43819433205E+03  0.10125496541E+04  0.12699999809E+01 0.  1.
</event>
<event>
 5   0  0.9333353E-06  0.2001660E+04  0.7818609E-02  0.8605845E-01
        1   -1    0    0  501    0  0.00000000000E+00  0.00000000000E+00  0.13700353048E+04  0.13700353048E+04  0.50400001928E-02 0.  1.
       -1   -1    0    0    0  501  0.00000000000E+00  0.00000000000E+00 -0.73112037260E+03  0.73112037262E+03  0.50400001928E-02 0. -1.
    10030    2    1    2    0    0  0.00000000000E+00  0.00000000000E+00  0.63891493218E+03  0.21011556774E+04  0.20016600336E+04 0.  0.
        2    1    3    3  502    0  0.33349644314E+03 -0.33294750290E+03  0.12462876163E+04  0.13324063719E+04  0.25500000920E-02 0.  1.
       -2    1    3    3    0  502 -0.33349644314E+03  0.33294750290E+03 -0.60737268414E+03  0.76874930551E+03  0.25500000920E-02 0. -1.
</event>
<event>
 5   0  0.9140695E-06  0.2003070E+04  0.7818609E-02  0.8605187E-01
        1   -1    0    0  501    0  0.00000000000E+00  0.00000000000E+00  0.17346196729E+04  0.17346196729E+04  0.50400001928E-02 0. -1.
       -1   -1    0    0    0  501  0.00000000000E+00  0.00000000000E+00 -0.57826667565E+03  0.57826667567E+03  0.50400001928E-02 0.  1.
    10030    2    1    2    0    0  0.00000000000E+00  0.00000000000E+00  0.11563529973E+04  0.23128863486E+04  0.20030703950E+04 0.  0.
        1    1    3    3  502    0  0.25275552173E+03  0.92985679367E+03  0.26289912670E+03  0.99881678067E+03  0.50400001928E-02 0. -1.
       -1    1    3    3    0  502 -0.25275552173E+03 -0.92985679367E+03  0.89345387055E+03  0.13140695679E+04  0.50400001928E-02 0.  1.
</event>
<event>
 5   0  0.9220260E-06  0.1998929E+04  0.7818609E-02  0.8607122E-01
       -1   -1    0    0    0  501  0.00000000000E+00  0.00000000000E+00  0.88021448484E+03  0.88021448485E+03  0.50400001928E-02 0.  1.
        1   -1    0    0  501    0  0.00000000000E+00  0.00000000000E+00 -0.11348704262E+04  0.11348704263E+04  0.50400001928E-02 0. -1.
    10030    2    1    2    0    0  0.00000000000E+00  0.00000000000E+00 -0.25465594141E+03  0.20150849111E+04  0.19989291009E+04 0.  0.
        3    1    3    3  502    0 -0.23881071108E+02 -0.85339983042E+03 -0.65120862929E+03  0.10737477661E+04  0.10100000352E+00 0. -1.
       -3    1    3    3    0  502  0.23881071108E+02  0.85339983042E+03  0.39655268788E+03  0.94133714502E+03  0.10100000352E+00 0.  1.
</event>
<event>
 5   0  0.1979765E-05  0.2000245E+04  0.7818609E-02  0.8606506E-01
       -2   -1    0    0    0  501  0.00000000000E+00  0.00000000000E+00  0.87421550681E+03  0.87421550681E+03  0.25500000920E-02 0. -1.
        2   -1    0    0  501    0  0.00000000000E+00  0.00000000000E+00 -0.11441625825E+04  0.11441625825E+04  0.25500000920E-02 0.  1.
    10030    2    1    2    0    0  0.00000000000E+00  0.00000000000E+00 -0.26994707573E+03  0.20183780894E+04  0.20002446570E+04 0.  0.
        2    1    3    3  502    0  0.20615390245E+03 -0.43812011144E+03 -0.10180045436E+04  0.11272896320E+04  0.25500000920E-02 0.  1.
       -2    1    3    3    0  502 -0.20615390245E+03  0.43812011144E+03  0.74805746790E+03  0.89108845736E+03  0.25500000920E-02 0. -1.
</event>
<event>
 5   0  0.9140695E-06  0.1998974E+04  0.7818609E-02  0.8607101E-01
       -1   -1    0    0    0  501  0.00000000000E+00  0.00000000000E+00  0.12646542732E+04  0.12646542733E+04  0.50400001928E-02 0.  1.
        1   -1    0    0  501    0  0.00000000000E+00  0.00000000000E+00 -0.78991872131E+03  0.78991872133E+03  0.50400001928E-02 0. -1.
    10030    2    1    2    0    0  0.00000000000E+00  0.00000000000E+00  0.47473555193E+03  0.20545729946E+04  0.19989738232E+04 0.  0.
        1    1    3    3  502    0 -0.30145234142E+03 -0.88226019146E+03 -0.13281294625E+03  0.94175147374E+03  0.50400001928E-02 0. -1.
       -1    1    3    3    0  502  0.30145234142E+03  0.88226019146E+03  0.60754849818E+03  0.11128215208E+04  0.50400001928E-02 0.  1.
</event>
<event>
 5   0  0.2020029E-05  0.1996063E+04  0.7818609E-02  0.8608464E-01
        2   -1    0    0  501    0  0.00000000000E+00  0.00000000000E+00  0.10844954492E+04  0.10844954492E+04  0.25500000920E-02 0.  1.
       -2   -1    0    0    0  501  0.00000000000E+00  0.00000000000E+00 -0.91846074186E+03  0.91846074186E+03  0.25500000920E-02 0. -1.
    10030    2    1    2    0    0  0.00000000000E+00  0.00000000000E+00  0.16603470730E+03  0.20029561910E+04  0.19960626190E+04 0.  0.
        5    1    3    3  502    0 -0.52593981106E+03 -0.79732948681E+03  0.37332153878E+03  0.10255428108E+04  0.46999998093E+01 0.  1.
       -5    1    3    3    0  502  0.52593981106E+03  0.79732948681E+03 -0.20728683149E+03  0.97741338026E+03  0.46999998093E+01 0. -1.
</event>
<event>
 5   0  0.9220260E-06  0.1996484E+04  0.7818609E-02  0.8608266E-01
       -1   -1    0    0    0  501  0.00000000000E+00  0.00000000000E+00  0.97298717752E+03  0.97298717753E+03  0.50400001928E-02 0.  1.
        1   -1    0    0  501    0  0.00000000000E+00  0.00000000000E+00 -0.10241522227E+04  0.10241522228E+04  0.50400001928E-02 0. -1.
    10030    2    1    2    0    0  0.00000000000E+00  0.00000000000E+00 -0.51165045228E+02  0.19971394003E+04  0.19964838898E+04 0.  0.
        3    1    3    3  502    0 -0.73472659432E+03  0.67377816915E+03  0.26268662125E+02  0.99724131605E+03  0.10100000352E+00 0.  1.
       -3    1    3    3    0  502  0.73472659432E+03 -0.67377816915E+03 -0.77433707353E+02  0.99989808424E+03  0.10100000352E+00 0. -1.
</event>
<event>
 5   0  0.1979765E-05  0.2002134E+04  0.7818609E-02  0.8605624E-01
       -2   -1    0    0    0  501  0.00000000000E+00  0.00000000000E+00  0.32516044903E+03  0.32516044904E+03  0.25500000920E-02 0.  1.
        2   -1    0    0  501    0  0.00000000000E+00  0.00000000000E+00 -0.30819704679E+04  0.30819704679E+04  0.25500000920E-02 0. -1.
    10030    2    1    2    0    0  0.00000000000E+00  0.00000000000E+00 -0.27568100188E+04  0.34071309169E+04  0.20021337630E+04 0.  0.
        2    1    3    3  502    0 -0.58586883026E+03  0.17489026662E+03 -0.27273099297E+04  0.27950041760E+04  0.25500000920E-02 0. -1.
       -2    1    3    3    0  502  0.58586883026E+03 -0.17489026662E+03 -0.29500089178E+02  0.61212674087E+03  0.25500000920E-02 0.  1.
</event>
<event>
 5   0  0.7132000E-06  0.2002751E+04  0.7818609E-02  0.8605336E-01
        3   -1    0    0  501    0  0.00000000000E+00  0.00000000000E+00  0.14321897587E+04  0.14321897622E+04  0.10100000352E+00 0. -1.
       -3   -1    0    0    0  501  0.00000000000E+00  0.00000000000E+00 -0.70015373666E+03  0.70015374395E+03  0.10100000352E+00 0.  1.
    10030    2    1    2    0    0  0.00000000000E+00  0.00000000000E+00  0.73203602200E+03  0.21323435062E+04  0.20027511305E+04 0.  0.
        4    1    3    3  502    0  0.15858014962E+03 -0.93275535722E+02  0.14140400772E+04  0.14259589553E+04  0.12699999809E+01 0. -1.
       -4    1    3    3    0  502 -0.15858014962E+03  0.93275535722E+02 -0.68200405522E+03  0.70638455083E+03  0.12699999809E+01 0.  1.
</event>
<event>
 5   0  0.2020029E-05  0.2008713E+04  0.7818609E-02  0.8602558E-01
       -2   -1    0    0    0  501  0.00000000000E+00  0.00000000000E+00  0.10432877866E+04  0.10432877866E+04  0.25500000920E-02 0. -1.
        2   -1    0    0  501    0  0.00000000000E+00  0.00000000000E+00 -0.96687797461E+03  0.96687797461E+03  0.25500000920E-02 0.  1.
    10030    2    1    2    0    0  0.00000000000E+00  0.00000000000E+00  0.76409812005E+02  0.20101657612E+04  0.20087130030E+04 0.  0.
        5    1    3    3  502    0  0.61637351138E+03 -0.24433546580E+03 -0.71672372235E+03  0.97638676228E+03  0.46999998093E+01 0.  1.
       -5    1    3    3    0  502 -0.61637351138E+03  0.24433546580E+03  0.79313353435E+03  0.10337789990E+04  0.46999998093E+01 0. -1.
</event>
<event>
 5   0  0.9140695E-06  0.2004659E+04  0.7818609E-02  0.8604445E-01
        1   -1    0    0  501    0  0.00000000000E+00  0.00000000000E+00  0.95177613327E+03  0.95177613329E+03  0.50400001928E-02 0.  1.
       -1   -1    0    0    0  501  0.00000000000E+00  0.00000000000E+00 -0.10555680724E+04  0.10555680724E+04  0.50400001928E-02 0. -1.
    10030    2    1    2    0    0  0.00000000000E+00  0.00000000000E+00 -0.10379193911E+03  0.20073442057E+04  0.20046590716E+04 0.  0.
        1    1    3    3  502    0  0.66393087865E+03 -0.62607118827E+03  0.36326177291E+03  0.98220591533E+03  0.50400001928E-02 0. -1.
       -1    1    3    3    0  502 -0.66393087865E+03  0.62607118827E+03 -0.46705371202E+03  0.10251382904E+04  0.50400001928E-02 0.  1.
</event>
<event>
 5   0  0.9370269E-06  0.2001478E+04  0.7818609E-02  0.8605930E-01
       -1   -1    0    0    0  501  0.00000000000E+00  0.00000000000E+00  0.60385502056E+03  0.60385502058E+03  0.50400001928E-02 0. -1.
        1   -1    0    0  501    0  0.00000000000E+00  0.00000000000E+00 -0.16584748979E+04  0.16584748979E+04  0.50400001928E-02 0.  1.
    10030    2    1    2    0    0  0.00000000000E+00  0.00000000000E+00 -0.10546198773E+04  0.22623299184E+04  0.20014778476E+04 0.  0.
        4    1    3    3  502    0  0.89031298129E+03  0.43511950578E+03 -0.36950606375E+03  0.10576022565E+04  0.12699999809E+01 0. -1.
       -4    1    3    3    0  502 -0.89031298129E+03 -0.43511950578E+03 -0.68511381355E+03  0.12047276619E+04  0.12699999809E+01 0.  1.
</event>
<event>
 5   0  0.2038882E-05  0.2007386E+04  0.7818609E-02  0.8603175E-01
        2   -1    0    0  501    0  0.00000000000E+00  0.00000000000E+00  0.27205444318E+04  0.27205444318E+04  0.25500000920E-02 0.  1.
       -2   -1    0    0    0  501  0.00000000000E+00  0.00000000000E+00 -0.37029335906E+03  0.37029335907E+03  0.25500000920E-02 0. -1.
    10030    2    1    2    0    0  0.00000000000E+00  0.00000000000E+00  0.23502510727E+04  0.30908377909E+04  0.20073858983E+04 0.  0.
        3    1    3    3  502    0  0.73364625869E+03 -0.21231072390E+03  0.17242153616E+03  0.78296990537E+03  0.10100000352E+00 0. -1.
       -3    1    3    3    0  502 -0.73364625869E+03  0.21231072390E+03  0.21778295366E+04  0.23078678855E+04  0.10100000352E+00 0.  1.
</event>
<event>
 5   0  0.9342635E-06  0.1983327E+04  0.7818609E-02  0.8614456E-01
       -1   -1    0    0    0  501  0.00000000000E+00  0.00000000000E+00  0.17765289672E+04  0.17765289672E+04  0.50400001928E-02 0. -1.
        1   -1    0    0  501    0  0.00000000000E+00  0.00000000000E+00 -0.55354957793E+03  0.55354957795E+03  0.50400001928E-02 0.  1.
    10030    2    1    2    0    0  0.00000000000E+00  0.00000000000E+00  0.12229793893E+04  0.23300785452E+04  0.19833273658E+04 0.  0.
        5    1    3    3  502    0 -0.59660981389E+03 -0.21084084572E+03  0.15085096504E+04  0.16358546964E+04  0.46999998093E+01 0. -1.
       -5    1    3    3    0  502  0.59660981389E+03  0.21084084572E+03 -0.28553026111E+03  0.69422384881E+03  0.46999998093E+01 0.  1.
</event>
<event>
 5   0  0.1999142E-05  0.1997541E+04  0.7818609E-02  0.8607771E-01
       -2   -1    0    0    0  501  0.00000000000E+00  0.00000000000E+00  0.86936107106E+03  0.86936107106E+03  0.25500000920E-02 0.  1.
        2   -1    0    0  501    0  0.00000000000E+00  0.00000000000E+00 -0.11474435995E+04  0.11474435995E+04  0.25500000920E-02 0. -1.
    10030    2    1    2    0    0  0.00000000000E+00  0.00000000000E+00 -0.27808252841E+03  0.20168046705E+04  0.19975412853E+04 0.  0.
        1    1    3    3  502    0 -0.20527874568E+03 -0.42641527185E+03  0.74897077132E+03  0.88596081393E+03  0.50400001928E-02 0.  1.
       -1    1    3    3    0  502  0.20527874568E+03  0.42641527185E+03 -0.10270532997E+04  0.11308438566E+04  0.50400001928E-02 0. -1.
</event>
<event>
 5   0  0.9140695E-06  0.1997696E+04  0.7818609E-02  0.8607699E-01
        1   -1    0    0  501    0  0.00000000000E+00  0.00000000000E+00  0.11296311750E+04  0.11296311751E+04  0.50400001928E-02 0.  1.
       -1   -1    0    0    0  501  0.00000000000E+00  0.00000000000E+00 -0.88320627176E+03  0.88320627177E+03  0.50400001928E-02 0. -1.
    10030    2    1    2    0    0  0.00000000000E+00  0.00000000000E+00  0.24642490328E+03  0.20128374468E+04  0.19976960115E+04 0.  0.
        1    1    3    3  502    0  0.27019058514E+03 -0.17546847275E+03  0.10758441604E+04  0.11230462122E+04  0.50400001928E-02 0.  1.
       -1    1    3    3    0  502 -0.27019058514E+03  0.17546847275E+03 -0.82941925709E+03  0.88979123466E+03  0.50400001928E-02 0. -1.
</event>
<event>
 5   0  0.1979765E-05  0.2001314E+04  0.7818609E-02  0.8606007E-01
        2   -1    0    0  501    0  0.00000000000E+00  0.00000000000E+00  0.13809577826E+04  0.13809577826E+04  0.25500000920E-02 0.  1.
       -2   -1    0    0    0  501  0.00000000000E+00  0.00000000000E+00 -0.72508666153E+03  0.72508666153E+03  0.25500000920E-02 0. -1.
    10030    2    1    2    0    0  0.00000000000E+00  0.00000000000E+00  0.65587112110E+03  0.21060444442E+04  0.20013136369E+04 0.  0.
        2    1    3    3  502    0  0.90826016702E+03 -0.35389017838E+03  0.89961469064E+02  0.97891156662E+03  0.25500000920E-02 0.  1.
       -2    1    3    3    0  502 -0.90826016702E+03  0.35389017838E+03  0.56590965203E+03  0.11271328775E+04  0.25500000920E-02 0. -1.
</event>
<event>
 5   0  0.9220260E-06  0.1994161E+04  0.7818609E-02  0.8609355E-01
        1   -1    0    0  501    0  0.00000000000E+00  0.00000000000E+00  0.25779498773E+04  0.25779498773E+04  0.50400001928E-02 0.  1.
       -1   -1    0    0    0  501  0.00000000000E+00  0.00000000000E+00 -0.38564357487E+03  0.38564357490E+03  0.50400001928E-02 0. -1.
    10030    2    1    2    0    0  0.00000000000E+00  0.00000000000E+00  0.21923063024E+04  0.29635934522E+04  0.19941612839E+04 0.  0.
        3    1    3    3  502    0 -0.26612427589E+03 -0.50244609707E+03 -0.12111375058E+03  0.58132844543E+03  0.10100000352E+00 0. -1.
       -3    1    3    3    0  502  0.26612427589E+03  0.50244609707E+03  0.23134200530E+04  0.23822650067E+04  0.10100000352E+00 0.  1.
</event>
<event>
 5   0  0.2003576E-05  0.1998688E+04  0.7818609E-02  0.8607234E-01
        2   -1    0    0  501    0  0.00000000000E+00  0.00000000000E+00  0.13935268073E+04  0.13935268073E+04  0.25500000920E-02 0. -1.
       -2   -1    0    0    0  501  0.00000000000E+00  0.00000000000E+00 -0.71666242768E+03  0.71666242768E+03  0.25500000920E-02 0.  1.
    10030    2    1    2    0    0  0.00000000000E+00  0.00000000000E+00  0.67686437960E+03  0.21101892350E+04  0.19986878743E+04 0.  0.
        4    1    3    3  502    0 -0.38544392343E+03 -0.10680697229E+03 -0.62847065830E+03  0.74495082300E+03  0.12699999809E+01 0.  1.
       -4    1    3    3    0  502  0.38544392343E+03  0.10680697229E+03  0.13053350379E+04  0.13652384120E+04  0.12699999809E+01 0. -1.
</event>
<event>
 5   0  0.1999142E-05  0.2000580E+04  0.7818609E-02  0.8606350E-01
        2   -1    0    0  501    0  0.00000000000E+00  0.00000000000E+00  0.11362092753E+04  0.11362092753E+04  0.25500000920E-02 0.  1.
       -2   -1    0    0    0  501  0.00000000000E+00  0.00000000000E+00 -0.88063003379E+03  0.88063003379E+03  0.25500000920E-02 0. -1.
    10030    2    1    2    0    0  0.00000000000E+00  0.00000000000E+00  0.25557924155E+03  0.20168393091E+04  0.20005799285E+04 0.  0.
        1    1    3    3  502    0  0.40321722732E+03 -0.68229904178E+03  0.74304792184E+03  0.10863868229E+04  0.50400001928E-02 0.  1.
       -1    1    3    3    0  502 -0.40321722732E+03  0.68229904178E+03 -0.48746868029E+03  0.93045248622E+03  0.50400001928E-02 0. -1.
</event>
<event>
 5   0  0.9220260E-06  0.1993961E+04  0.7818609E-02  0.8609449E-01
       -1   -1    0    0    0  501  0.00000000000E+00  0.00000000000E+00  0.98352398069E+03  0.98352398070E+03  0.50400001928E-02 0.  1.
        1   -1    0    0  501    0  0.00000000000E+00  0.00000000000E+00 -0.10106207129E+04  0.10106207129E+04  0.50400001928E-02 0. -1.
    10030    2    1    2    0    0  0.00000000000E+00  0.00000000000E+00 -0.27096732169E+02  0.19941446936E+04  0.19939605879E+04 0.  0.
        3    1    3    3  502    0 -0.24573418639E+03  0.37866518703E+03 -0.90256074464E+03  0.10091523781E+04  0.10100000352E+00 0. -1.
       -3    1    3    3    0  502  0.24573418639E+03 -0.37866518703E+03  0.87546401247E+03  0.98499231548E+03  0.10100000352E+00 0.  1.
</event>
<event>
 5   0  0.9342635E-06  0.2011349E+04  0.7818609E-02  0.8601333E-01
        1   -1    0    0  501    0  0.00000000000E+00  0.00000000000E+00  0.10055312642E+04  0.10055312642E+04  0.50400001928E-02 0.  1.
       -1   -1    0    0    0  501  0.00000000000E+00  0.00000000000E+00 -0.10058181079E+04  0.10058181080E+04  0.50400001928E-02 0. -1.
    10030    2    1    2    0    0  0.00000000000E+00  0.00000000000E+00 -0.28684371615E+00  0.20113493722E+04  0.20113493517E+04 0.  0.
        5    1    3    3  502    0 -0.96288313791E+03  0.25288818966E+03 -0.14249190401E+03  0.10056949868E+04  0.46999998093E+01 0. -1.
       -5    1    3    3    0  502  0.96288313791E+03 -0.25288818966E+03  0.14220506030E+03  0.10056543854E+04  0.46999998093E+01 0.  1.
</event>
<event>
 5   0  0.9220260E-06  0.2001051E+04  0.7818609E-02  0.8606129E-01
       -1   -1    0    0    0  501  0.00000000000E+00  0.00000000000E+00  0.70717051014E+03  0.70717051016E+03  0.50400001928E-02 0.  1.
        1   -1    0    0  501    0  0.00000000000E+00  0.00000000000E+00 -0.14155728925E+04  0.14155728925E+04  0.50400001928E-02 0. -1.
    10030    2    1    2    0    0  0.00000000000E+00  0.00000000000E+00 -0.70840238236E+03  0.21227434027E+04  0.20010511283E+04 0.  0.
        3    1    3    3  502    0 -0.74702391583E+02 -0.41838912845E+03 -0.13150561301E+04  0.13820284171E+04  0.10100000352E+00 0. -1.
       -3    1    3    3    0  502  0.74702391583E+02  0.41838912845E+03  0.60665374770E+03  0.74071498562E+03  0.10100000352E+00 0.  1.
</event>
<event>
 5   0  0.9342635E-06  0.1999849E+04  0.7818609E-02  0.8606691E-01
       -1   -1    0    0    0  501  0.00000000000E+00  0.00000000000E+00  0.45024961431E+03  0.45024961434E+03  0.50400001928E-02 0. -1.
        1   -1    0    0  501    0  0.00000000000E+00  0.00000000000E+00 -0.22206538570E+04  0.22206538570E+04  0.50400001928E-02 0.  1.
    10030    2    1    2    0    0  0.00000000000E+00  0.00000000000E+00 -0.17704042427E+04  0.26709034713E+04  0.19998485369E+04 0.  0.
        5    1    3    3  502    0 -0.60979855167E+03 -0.68492453628E+02 -0.19395963474E+04  0.20343553207E+04  0.46999998093E+01 0.  1.
       -5    1    3    3    0  502  0.60979855167E+03  0.68492453628E+02  0.16919210474E+03  0.63654815067E+03  0.46999998093E+01 0. -1.
</event>
<event>
 5   0  0.1979765E-05  0.1996946E+04  0.7818609E-02  0.8608050E-01
       -2   -1    0    0    0  501  0.00000000000E+00  0.00000000000E+00  0.11906831705E+04  0.11906831705E+04  0.25500000920E-02 0. -1.
        2   -1    0    0  501    0  0.00000000000E+00  0.00000000000E+00 -0.83729100880E+03  0.83729100881E+03  0.25500000920E-02 0.  1.
    10030    2    1    2    0    0  0.00000000000E+00  0.00000000000E+00  0.35339216171E+03  0.20279741793E+04  0.19969459813E+04 0.  0.
        2    1    3    3  502    0 -0.49450856190E+03 -0.73611612045E+02 -0.70101941779E+03  0.86103752029E+03  0.25500000920E-02 0.  1.
       -2    1    3    3    0  502  0.49450856190E+03  0.73611612045E+02  0.10544115795E+04  0.11669366590E+04  0.25500000920E-02 0. -1.
</event>
<event>
 5   0  0.9220260E-06  0.2018505E+04  0.7818609E-02  0.8598017E-01
        1   -1    0    0  501    0  0.00000000000E+00  0.00000000000E+00  0.19402502893E+04  0.19402502893E+04  0.50400001928E-02 0.  1.
       -1   -1    0    0    0  501  0.00000000000E+00  0.00000000000E+00 -0.52497912284E+03  0.52497912286E+03  0.50400001928E-02 0. -1.
    10030    2    1    2    0    0  0.00000000000E+00  0.00000000000E+00  0.14152711665E+04  0.24652294122E+04  0.20185052836E+04 0.  0.
        3    1    3    3  502    0 -0.12685385661E+03 -0.65664354914E+03  0.16307732935E+04  0.17625816850E+04  0.10100000352E+00 0.  1.
       -3    1    3    3    0  502  0.12685385661E+03  0.65664354914E+03 -0.21550212696E+03  0.70264772717E+03  0.10100000352E+00 0. -1.
</event>
<event>
 5   0  0.1999142E-05  0.2004670E+04  0.7818609E-02  0.8604441E-01
        2   -1    0    0  501    0  0.00000000000E+00  0.00000000000E+00  0.11125963964E+04  0.11125963964E+04  0.25500000920E-02 0. -1.
       -2   -1    0    0    0  501  0.00000000000E+00  0.00000000000E+00 -0.90300049891E+03  0.90300049891E+03  0.25500000920E-02 0.  1.
    10030    2    1    2    0    0  0.00000000000E+00  0.00000000000E+00  0.20959589745E+03  0.20155968953E+04  0.20046696496E+04 0.  0.
        1    1    3    3  502    0  0.33094541188E+03 -0.41554099494E+03  0.95941696639E+03  0.10966677252E+04  0.50400001928E-02 0. -1.
       -1    1    3    3    0  502 -0.33094541188E+03  0.41554099494E+03 -0.74982106894E+03  0.91892917005E+03  0.50400001928E-02 0.  1.
</event>
<event>
 5   0  0.2003576E-05  0.1994770E+04  0.7818609E-02  0.8609070E-01
        2   -1    0    0  501    0  0.00000000000E+00  0.00000000000E+00  0.15462453069E+04  0.15462453069E+04  0.25500000920E-02 0. -1.
       -2   -1    0    0    0  501  0.00000000000E+00  0.00000000000E+00 -0.64335014299E+03  0.64335014299E+03  0.25500000920E-02 0.  1.
    10030    2    1    2    0    0  0.00000000000E+00  0.00000000000E+00  0.90289516393E+03  0.21895954499E+04  0.19947703019E+04 0.  0.
        4    1    3    3  502    0  0.17118028752E+03 -0.66892909309E+03 -0.33857349554E+03  0.76902694830E+03  0.12699999809E+01 0.  1.
       -4    1    3    3    0  502 -0.17118028752E+03  0.66892909309E+03  0.12414686595E+04  0.14205685016E+04  0.12699999809E+01 0. -1.
</event>
<event>
 5   0  0.9220260E-06  0.2053365E+04  0.7818609E-02  0.8582069E-01
       -1   -1    0    0    0  501  0.00000000000E+00  0.00000000000E+00  0.10029134135E+04  0.10029134135E+04  0.50400001928E-02 0.  1.
        1   -1    0    0  501    0  0.00000000000E+00  0.00000000000E+00 -0.10510148072E+04  0.10510148072E+04  0.50400001928E-02 0. -1.
    10030    2    1    2    0    0  0.00000000000E+00  0.00000000000E+00 -0.48101393768E+02  0.20539282207E+04  0.20533648949E+04 0.  0.
        3    1    3    3  502    0 -0.92319634168E+03  0.39737801994E+03 -0.23357429740E+03  0.10318709893E+04  0.10100000352E+00 0.  1.
       -3    1    3    3    0  502  0.92319634168E+03 -0.39737801994E+03  0.18547290363E+03  0.10220572314E+04  0.10100000352E+00 0. -1.
</event>
<event>
 5   0  0.2038882E-05  0.2000640E+04  0.7818609E-02  0.8606321E-01
       -2   -1    0    0    0  501  0.00000000000E+00  0.00000000000E+00  0.12851130023E+04  0.12851130023E+04  0.25500000920E-02 0.  1.
        2   -1    0    0  501    0  0.00000000000E+00  0.00000000000E+00 -0.77864002584E+03  0.77864002585E+03  0.25500000920E-02 0. -1.
    10030    2    1    2    0    0  0.00000000000E+00  0.00000000000E+00  0.50647297645E+03  0.20637530281E+04  0.20006403188E+04 0.  0.
        3    1    3    3  502    0 -0.97760503501E+03 -0.59122726487E+02  0.46320952075E+03  0.10834067434E+04  0.10100000352E+00 0.  1.
       -3    1    3    3    0  502  0.97760503501E+03  0.59122726487E+02  0.43263455698E+02  0.98034628477E+03  0.10100000352E+00 0. -1.
</event>
<event>
 5   0  0.2038882E-05  0.2000957E+04  0.7818609E-02  0.8606173E-01
       -2   -1    0    0    0  501  0.00000000000E+00  0.00000000000E+00  0.61638045457E+03  0.61638045458E+03  0.25500000920E-02 0.  1.
        2   -1    0    0  501    0  0.00000000000E+00  0.00000000000E+00 -0.16239280984E+04  0.16239280984E+04  0.25500000920E-02 0. -1.
    10030    2    1    2    0    0  0.00000000000E+00  0.00000000000E+00 -0.10075476439E+04  0.22403085530E+04  0.20009573104E+04 0.  0.
        3    1    3    3  502    0 -0.60092449378E+03  0.29415514037E+03 -0.13366073714E+04  0.14947095936E+04  0.10100000352E+00 0. -1.
       -3    1    3    3    0  502  0.60092449378E+03 -0.29415514037E+03  0.32905972748E+03  0.74559895942E+03  0.10100000352E+00 0.  1.
</event>
<event>
 5   0  0.9333353E-06  0.2000319E+04  0.7818609E-02  0.8606472E-01
        1   -1    0    0  501    0  0.00000000000E+00  0.00000000000E+00  0.73880091159E+03  0.73880091161E+03  0.50400001928E-02 0.  1.
       -1   -1    0    0    0  501  0.00000000000E+00  0.00000000000E+00 -0.13539759277E+04  0.13539759277E+04  0.50400001928E-02 0. -1.
    10030    2    1    2    0    0  0.00000000000E+00  0.00000000000E+00 -0.61517501612E+03  0.20927768393E+04  0.20003186243E+04 0.  0.
        2    1    3    3  502    0  0.35692581119E+02 -0.39258252932E+03 -0.12692716935E+04  0.13290769860E+04  0.25500000920E-02 0. -1.
       -2    1    3    3    0  502 -0.35692581119E+02  0.39258252932E+03  0.65409667738E+03  0.76369985337E+03  0.25500000920E-02 0.  1.
</event>
<event>
 5   0  0.9342635E-06  0.2000143E+04  0.7818609E-02  0.8606554E-01
       -1   -1    0    0    0  501  0.00000000000E+00  0.00000000000E+00  0.93957269607E+03  0.93957269608E+03  0.50400001928E-02 0.  1.
        1   -1    0    0  501    0  0.00000000000E+00  0.00000000000E+00 -0.10644662969E+04  0.10644662969E+04  0.50400001928E-02 0. -1.
    10030    2    1    2    0    0  0.00000000000E+00  0.00000000000E+00 -0.12489360081E+03  0.20040389930E+04  0.20001434633E+04 0.  0.
        5    1    3    3  502    0  0.38160664543E+03 -0.14576855015E+02  0.86362887540E+03  0.94430558664E+03  0.46999998093E+01 0.  1.
       -5    1    3    3    0  502 -0.38160664543E+03  0.14576855015E+02 -0.98852247621E+03  0.10597334063E+04  0.46999998093E+01 0. -1.
</event>
<event>
 5   0  0.9140695E-06  0.2003585E+04  0.7818609E-02  0.8604946E-01
        1   -1    0    0  501    0  0.00000000000E+00  0.00000000000E+00  0.12274527763E+04  0.12274527763E+04  0.50400001928E-02 0.  1.
       -1   -1    0    0    0  501  0.00000000000E+00  0.00000000000E+00 -0.81761864974E+03  0.81761864975E+03  0.50400001928E-02 0. -1.
    10030    2    1    2    0    0  0.00000000000E+00  0.00000000000E+00  0.40983412653E+03  0.20450714260E+04  0.20035850684E+04 0.  0.
        1    1    3    3  502    0  0.31635036213E+03 -0.85345106355E+03 -0.22223593872E+03  0.93693387279E+03  0.50400001928E-02 0. -1.
       -1    1    3    3    0  502 -0.31635036213E+03  0.85345106355E+03  0.63207006524E+03  0.11081375532E+04  0.50400001928E-02 0.  1.
</event>
<event>
 5   0  0.2020029E-05  0.1999256E+04  0.7818609E-02  0.8606969E-01
        2   -1    0    0  501    0  0.00000000000E+00  0.00000000000E+00  0.93875091261E+03  0.93875091261E+03  0.25500000920E-02 0.  1.
       -2   -1    0    0    0  501  0.00000000000E+00  0.00000000000E+00 -0.10644528397E+04  0.10644528397E+04  0.25500000920E-02 0. -1.
    10030    2    1    2    0    0  0.00000000000E+00  0.00000000000E+00 -0.12570192705E+03  0.20032037523E+04  0.19992559363E+04 0.  0.
        5    1    3    3  502    0 -0.59132486675E+03  0.27197116511E+03  0.69733061165E+03  0.95390014395E+03  0.46999998093E+01 0.  1.
       -5    1    3    3    0  502  0.59132486675E+03 -0.27197116511E+03 -0.82303253870E+03  0.10493036083E+04  0.46999998093E+01 0. -1.
</event>
<event>
 5   0  0.2038882E-05  0.1998986E+04  0.7818609E-02  0.8607095E-01
       -2   -1    0    0    0  501  0.00000000000E+00  0.00000000000E+00  0.10055564938E+04  0.10055564938E+04  0.25500000920E-02 0. -1.
        2   -1    0    0  501    0  0.00000000000E+00  0.00000000000E+00 -0.99346564754E+03  0.99346564754E+03  0.25500000920E-02 0.  1.
    10030    2    1    2    0    0  0.00000000000E+00  0.00000000000E+00  0.12090846229E+02  0.19990221413E+04  0.19989855760E+04 0.  0.
        3    1    3    3  502    0  0.26285697990E+03 -0.52809626613E+03 -0.80081899016E+03  0.99463084780E+03  0.10100000352E+00 0.  1.
       -3    1    3    3    0  502 -0.26285697990E+03  0.52809626613E+03  0.81290983639E+03  0.10043912935E+04  0.10100000352E+00 0. -1.
</event>
<event>
 5   0  0.2003576E-05  0.2000722E+04  0.7818609E-02  0.8606283E-01
        2   -1    0    0  501    0  0.00000000000E+00  0.00000000000E+00  0.11851329169E+04  0.11851329169E+04  0.25500000920E-02 0. -1.
       -2   -1    0    0    0  501  0.00000000000E+00  0.00000000000E+00 -0.84439663569E+03  0.84439663569E+03  0.25500000920E-02 0.  1.
    10030    2    1    2    0    0  0.00000000000E+00  0.00000000000E+00  0.34073628125E+03  0.20295295526E+04  0.20007221176E+04 0.  0.
        4    1    3    3  502    0  0.62422375108E+03 -0.32016090501E+02  0.96266489019E+03  0.11477829173E+04  0.12699999809E+01 0. -1.
       -4    1    3    3    0  502 -0.62422375108E+03  0.32016090501E+02 -0.62192860894E+03  0.88174663537E+03  0.12699999809E+01 0.  1.
</event>
<event>
 5   0  0.2038882E-05  0.2001586E+04  0.7818609E-02  0.8605879E-01
        2   -1    0    0  501    0  0.00000000000E+00  0.00000000000E+00  0.12108928053E+04  0.12108928053E+04  0.25500000920E-02 0.  1.
       -2   -1    0    0    0  501  0.00000000000E+00  0.00000000000E+00 -0.82714742982E+03  0.82714742983E+03  0.25500000920E-02 0. -1.
    10030    2    1    2    0    0  0.00000000000E+00  0.00000000000E+00  0.38374537547E+03  0.20380402351E+04  0.20015862427E+04 0.  0.
        3    1    3    3  502    0  0.38308565993E+03 -0.75023472228E+03 -0.35832032774E+03  0.91542352429E+03  0.10100000352E+00 0. -1.
       -3    1    3    3    0  502 -0.38308565993E+03  0.75023472228E+03  0.74206570321E+03  0.11226167108E+04  0.10100000352E+00 0.  1.
</event>
<event>
 5   0  0.9342635E-06  0.2001493E+04  0.7818609E-02  0.8605923E-01
       -1   -1    0    0    0  501  0.00000000000E+00  0.00000000000E+00  0.64086836334E+03  0.64086836336E+03  0.50400001928E-02 0. -1.
        1   -1    0    0  501    0  0.00000000000E+00  0.00000000000E+00 -0.15627137417E+04  0.15627137417E+04  0.50400001928E-02 0.  1.
    10030    2    1    2    0    0  0.00000000000E+00  0.00000000000E+00 -0.92184537831E+03  0.22035821050E+04  0.20014932406E+04 0.  0.
        5    1    3    3  502    0  0.11843817757E+02 -0.88178594168E+03 -0.98174620040E+03  0.13196720862E+04  0.46999998093E+01 0.  1.
       -5    1    3    3    0  502 -0.11843817757E+02  0.88178594168E+03  0.59900822087E+02  0.88391001886E+03  0.46999998093E+01 0. -1.
</event>
<event>
 5   0  0.9370269E-06  0.2000168E+04  0.7818609E-02  0.8606542E-01
        1   -1    0    0  501    0  0.00000000000E+00  0.00000000000E+00  0.12421811886E+04  0.12421811887E+04  0.50400001928E-02 0.  1.
       -1   -1    0    0    0  501  0.00000000000E+00  0.00000000000E+00 -0.80517078783E+03  0.80517078785E+03  0.50400001928E-02 0. -1.
    10030    2    1    2    0    0  0.00000000000E+00  0.00000000000E+00  0.43701040081E+03  0.20473519765E+04  0.20001679993E+04 0.  0.
        4    1    3    3  502    0 -0.67702174715E+03 -0.61496110430E+03 -0.19555028984E+03  0.93529521258E+03  0.12699999809E+01 0. -1.
       -4    1    3    3    0  502  0.67702174715E+03  0.61496110430E+03  0.63256069065E+03  0.11120567639E+04  0.12699999809E+01 0.  1.
</event>
<event>
 5   0  0.9342635E-06  0.2000054E+04  0.7818609E-02  0.8606595E-01
        1   -1    0    0  501    0  0.00000000000E+00  0.00000000000E+00  0.12532995115E+04  0.12532995115E+04  0.50400001928E-02 0.  1.
       -1   -1    0    0    0  501  0.00000000000E+00  0.00000000000E+00 -0.79793704421E+03  0.79793704423E+03  0.50400001928E-02 0. -1.
    10030    2    1    2    0    0  0.00000000000E+00  0.00000000000E+00  0.45536246724E+03  0.20512365557E+04  0.20000541070E+04 0.  0.
        5    1    3    3  502    0  0.90216585477E+03  0.37616550755E+03  0.11021018215E+02  0.97752098260E+03  0.46999998093E+01 0. -1.
       -5    1    3    3    0  502 -0.90216585477E+03 -0.37616550755E+03  0.44434144903E+03  0.10737155731E+04  0.46999998093E+01 0.  1.
</event>
<event>
 5   0  0.9370269E-06  0.2003168E+04  0.7818609E-02  0.8605141E-01
       -1   -1    0    0    0  501  0.00000000000E+00  0.00000000000E+00  0.79296353410E+03  0.79296353412E+03  0.50400001928E-02 0.  1.
        1   -1    0    0  501    0  0.00000000000E+00  0.00000000000E+00 -0.12650905612E+04  0.12650905612E+04  0.50400001928E-02 0. -1.
    10030    2    1    2    0    0  0.00000000000E+00  0.00000000000E+00 -0.47212702709E+03  0.20580540953E+04  0.20031681731E+04 0.  0.
        4    1    3    3  502    0  0.83137853919E+03  0.54637248440E+03 -0.35524142980E+03  0.10563670070E+04  0.12699999809E+01 0. -1.
       -4    1    3    3    0  502 -0.83137853919E+03 -0.54637248440E+03 -0.11688559730E+03  0.10016870883E+04  0.12699999809E+01 0.  1.
</event>
<event>
 5   0  0.2038882E-05  0.1999681E+04  0.7818609E-02  0.8606770E-01
        2   -1    0    0  501    0  0.00000000000E+00  0.00000000000E+00  0.19539379178E+04  0.19539379178E+04  0.25500000920E-02 0.  1.
       -2   -1    0    0    0  501  0.00000000000E+00  0.00000000000E+00 -0.51162351853E+03  0.51162351854E+03  0.25500000920E-02 0. -1.
    10030    2    1    2    0    0  0.00000000000E+00  0.00000000000E+00  0.14423143992E+04  0.24655614363E+04  0.19996805670E+04 0.  0.
        3    1    3    3  502    0  0.43650805955E+03  0.24288460965E+03 -0.34673837149E+03  0.60807871869E+03  0.10100000352E+00 0. -1.
       -3    1    3    3    0  502 -0.43650805955E+03 -0.24288460965E+03  0.17890527707E+04  0.18574827176E+04  0.10100000352E+00 0.  1.
</event>
<event>
 5   0  0.9220260E-06  0.1998384E+04  0.7818609E-02  0.8607376E-01
       -1   -1    0    0    0  501  0.00000000000E+00  0.00000000000E+00  0.58700008809E+03  0.58700008811E+03  0.50400001928E-02 0.  1.
        1   -1    0    0  501    0  0.00000000000E+00  0.00000000000E+00 -0.17008260810E+04  0.17008260810E+04  0.50400001928E-02 0. -1.
    10030    2    1    2    0    0  0.00000000000E+00  0.00000000000E+00 -0.11138259929E+04  0.22878261691E+04  0.19983844069E+04 0.  0.
        3    1    3    3  502    0  0.58893022560E+03 -0.27599645499E+03  0.31148422764E+03  0.72113472254E+03  0.10100000352E+00 0.  1.
       -3    1    3    3    0  502 -0.58893022560E+03  0.27599645499E+03 -0.14253102205E+04  0.15666914466E+04  0.10100000352E+00 0. -1.
</event>
<event>
 5   0  0.7132000E-06  0.2000564E+04  0.7818609E-02  0.8606357E-01
        4   -1    0    0  501    0  0.00000000000E+00  0.00000000000E+00  0.10211840268E+04  0.10211848165E+04  0.12699999809E+01 0. -1.
       -4   -1    0    0    0  501  0.00000000000E+00  0.00000000000E+00 -0.97980631348E+03  0.97980713655E+03  0.12699999809E+01 0.  1.
    10030    2    1    2    0    0  0.00000000000E+00  0.00000000000E+00  0.41377713317E+02  0.20009919531E+04  0.20005640907E+04 0.  0.
        2    1    3    3  502    0  0.56120644919E+03 -0.89709989210E+02 -0.80262971030E+03  0.98347090076E+03  0.25500000920E-02 0.  1.
       -2    1    3    3    0  502 -0.56120644919E+03  0.89709989210E+02  0.84400742362E+03  0.10175210523E+04  0.25500000920E-02 0. -1.
</event>
<event>
 5   0  0.2038882E-05  0.2000809E+04  0.7818609E-02  0.8606242E-01
       -2   -1    0    0    0  501  0.00000000000E+00  0.00000000000E+00  0.44264577350E+03  0.44264577350E+03  0.25500000920E-02 0. -1.
        2   -1    0    0  501    0  0.00000000000E+00  0.00000000000E+00 -0.22609717277E+04  0.22609717277E+04  0.25500000920E-02 0.  1.
    10030    2    1    2    0    0  0.00000000000E+00  0.00000000000E+00 -0.18183259542E+04  0.27036175012E+04  0.20008094155E+04 0.  0.
        3    1    3    3  502    0  0.57280295615E+03 -0.81277968231E+03 -0.10577743299E+04  0.14517577558E+04  0.10100000352E+00 0. -1.
       -3    1    3    3    0  502 -0.57280295615E+03  0.81277968231E+03 -0.76055162434E+03  0.12518597454E+04  0.10100000352E+00 0.  1.
</event>
<event>
 5   0  0.9220260E-06  0.2000422E+04  0.7818609E-02  0.8606423E-01
       -1   -1    0    0    0  501  0.00000000000E+00  0.00000000000E+00  0.10773131412E+04  0.10773131413E+04  0.50400001928E-02 0.  1.
        1   -1    0    0  501    0  0.00000000000E+00  0.00000000000E+00 -0.92862679332E+03  0.92862679334E+03  0.50400001928E-02 0. -1.
    10030    2    1    2    0    0  0.00000000000E+00  0.00000000000E+00  0.14868634792E+03  0.20059399346E+04  0.20004218033E+04 0.  0.
        3    1    3    3  502    0  0.71239060687E+03  0.34519429566E+03 -0.53870432665E+03  0.95752902841E+03  0.10100000352E+00 0.  1.
       -3    1    3    3    0  502 -0.71239060687E+03 -0.34519429566E+03  0.68739067457E+03  0.10484109062E+04  0.10100000352E+00 0. -1.
</event>
<event>
 5   0  0.2003576E-05  0.2000165E+04  0.7818609E-02  0.8606544E-01
        2   -1    0    0  501    0  0.00000000000E+00  0.00000000000E+00  0.23344180111E+04  0.23344180111E+04  0.25500000920E-02 0.  1.
       -2   -1    0    0    0  501  0.00000000000E+00  0.00000000000E+00 -0.42844291640E+03  0.42844291641E+03  0.25500000920E-02 0. -1.
    10030    2    1    2    0    0  0.00000000000E+00  0.00000000000E+00  0.19059750947E+04  0.27628609275E+04  0.20001648540E+04 0.  0.
        4    1    3    3  502    0 -0.24469101054E+02 -0.98545990489E+03  0.11859075391E+04  0.15421116254E+04  0.12699999809E+01 0.  1.
       -4    1    3    3    0  502  0.24469101054E+02  0.98545990489E+03  0.72006755561E+03  0.12207493021E+04  0.12699999809E+01 0. -1.
</event>
<event>
 5   0  0.7132000E-06  0.1999098E+04  0.7818609E-02  0.8607042E-01
        4   -1    0    0  501    0  0.00000000000E+00  0.00000000000E+00  0.64008740442E+03  0.64008866433E+03  0.12699999809E+01 0.  1.
       -4   -1    0    0    0  501  0.00000000000E+00  0.00000000000E+00 -0.15608747224E+04  0.15608752391E+04  0.12699999809E+01 0. -1.
    10030    2    1    2    0    0  0.00000000000E+00  0.00000000000E+00 -0.92078731802E+03  0.22009639034E+04  0.19990980014E+04 0.  0.
        4    1    3    3  502    0  0.10550155171E+03 -0.36819127806E+03 -0.14768783929E+04  0.15257348377E+04  0.12699999809E+01 0. -1.
       -4    1    3    3    0  502 -0.10550155171E+03  0.36819127806E+03  0.55609107492E+03  0.67522906570E+03  0.12699999809E+01 0.  1.
</event>
<event>
 5   0  0.9333353E-06  0.1995440E+04  0.7818609E-02  0.8608755E-01
       -1   -1    0    0    0  501  0.00000000000E+00  0.00000000000E+00  0.96833827535E+03  0.96833827537E+03  0.50400001928E-02 0.  1.
        1   -1    0    0  501    0  0.00000000000E+00  0.00000000000E+00 -0.10279934871E+04  0.10279934871E+04  0.50400001928E-02 0. -1.
    10030    2    1    2    0    0  0.00000000000E+00  0.00000000000E+00 -0.59655211726E+02  0.19963317625E+04  0.19954402425E+04 0.  0.
        2    1    3    3  502    0 -0.80388872362E+03  0.11606341493E+03 -0.60951520441E+03  0.10154883459E+04  0.25500000920E-02 0. -1.
       -2    1    3    3    0  502  0.80388872362E+03 -0.11606341493E+03  0.54985999268E+03  0.98084341656E+03  0.25500000920E-02 0.  1.
</event>
<event>
 5   0  0.9370269E-06  0.2002810E+04  0.7818609E-02  0.8605308E-01
        1   -1    0    0  501    0  0.00000000000E+00  0.00000000000E+00  0.14933005129E+04  0.14933005129E+04  0.50400001928E-02 0. -1.
       -1   -1    0    0    0  501  0.00000000000E+00  0.00000000000E+00 -0.67154085858E+03  0.67154085860E+03  0.50400001928E-02 0.  1.
    10030    2    1    2    0    0  0.00000000000E+00  0.00000000000E+00  0.82175965433E+03  0.21648413715E+04  0.20028103341E+04 0.  0.
        4    1    3    3  502    0 -0.50308041076E+03  0.59989077381E+03 -0.26401493588E+03  0.82623503887E+03  0.12699999809E+01 0.  1.
       -4    1    3    3    0  502  0.50308041076E+03 -0.59989077381E+03  0.10857745902E+04  0.13386063327E+04  0.12699999809E+01 0. -1.
</event>
<event>
 5   0  0.9220260E-06  0.2004128E+04  0.7818609E-02  0.8604693E-01
        1   -1    0    0  501    0  0.00000000000E+00  0.00000000000E+00  0.11528973246E+04  0.11528973246E+04  0.50400001928E-02 0. -1.
       -1   -1    0    0    0  501  0.00000000000E+00  0.00000000000E+00 -0.87096426955E+03  0.87096426957E+03  0.50400001928E-02 0.  1.
    10030    2    1    2    0    0  0.00000000000E+00  0.00000000000E+00  0.28193305508E+03  0.20238615942E+04  0.20041281159E+04 0.  0.
        3    1    3    3  502    0  0.12711619345E+03 -0.37407562903E+03 -0.78899251231E+03  0.88238330534E+03  0.10100000352E+00 0.  1.
       -3    1    3    3    0  502 -0.12711619345E+03  0.37407562903E+03  0.10709255674E+04  0.11414782889E+04  0.10100000352E+00 0. -1.
</event>
<event>
 5   0  0.9342635E-06  0.1997823E+04  0.7818609E-02  0.8607639E-01
       -1   -1    0    0    0  501  0.00000000000E+00  0.00000000000E+00  0.63163707155E+03  0.63163707157E+03  0.50400001928E-02 0. -1.
        1   -1    0    0  501    0  0.00000000000E+00  0.00000000000E+00 -0.15797430262E+04  0.15797430263E+04  0.50400001928E-02 0.  1.
    10030    2    1    2    0    0  0.00000000000E+00  0.00000000000E+00 -0.94810595470E+03  0.22113800978E+04  0.19978230742E+04 0.  0.
        5    1    3    3  502    0  0.45814689599E+03 -0.80490224935E+03 -0.59837657053E+02  0.92809958761E+03  0.46999998093E+01 0.  1.
       -5    1    3    3    0  502 -0.45814689599E+03  0.80490224935E+03 -0.88826829764E+03  0.12832805102E+04  0.46999998093E+01 0. -1.
</event>
<event>
 5   0  0.2038882E-05  0.2000835E+04  0.7818609E-02  0.8606231E-01
        2   -1    0    0  501    0  0.00000000000E+00  0.00000000000E+00  0.17939339178E+04  0.17939339178E+04  0.25500000920E-02 0. -1.
       -2   -1    0    0    0  501  0.00000000000E+00  0.00000000000E+00 -0.55789945220E+03  0.55789945220E+03  0.25500000920E-02 0.  1.
    10030    2    1    2    0    0  0.00000000000E+00  0.00000000000E+00  0.12360344656E+04  0.23518333700E+04  0.20008345759E+04 0.  0.
        3    1    3    3  502    0 -0.19503647197E+03 -0.91628453139E+03  0.20541388711E+03  0.95906800754E+03  0.10100000352E+00 0.  1.
       -3    1    3    3    0  502  0.19503647197E+03  0.91628453139E+03  0.10306205785E+04  0.13927653624E+04  0.10100000352E+00 0. -1.
</event>
<event>
 5   0  0.9140695E-06  0.2001666E+04  0.7818609E-02  0.8605842E-01
        1   -1    0    0  501    0  0.00000000000E+00  0.00000000000E+00  0.83714880347E+03  0.83714880349E+03  0.50400001928E-02 0.  1.
       -1   -1    0    0    0  501  0.00000000000E+00  0.00000000000E+00 -0.11965220664E+04  0.11965220665E+04  0.50400001928E-02 0. -1.
    10030    2    1    2    0    0  0.00000000000E+00  0.00000000000E+00 -0.35937326297E+03  0.20336708699E+04  0.20016663221E+04 0.  0.
        1    1    3    3  502    0  0.16370881942E+03 -0.97834351557E+03 -0.44478371826E+02  0.99294256510E+03  0.50400001928E-02 0.  1.
       -1    1    3    3    0  502 -0.16370881942E+03  0.97834351557E+03 -0.31489489115E+03  0.10407283048E+04  0.50400001928E-02 0. -1.
</event>
<event>
 5   0  0.1999142E-05  0.2002155E+04  0.7818609E-02  0.8605614E-01
       -2   -1    0    0    0  501  0.00000000000E+00  0.00000000000E+00  0.24846005327E+04  0.24846005327E+04  0.25500000920E-02 0.  1.
        2   -1    0    0  501    0  0.00000000000E+00  0.00000000000E+00 -0.40334712720E+03  0.40334712720E+03  0.25500000920E-02 0. -1.
    10030    2    1    2    0    0  0.00000000000E+00  0.00000000000E+00  0.20812534055E+04  0.28879476599E+04  0.20021553258E+04 0.  0.
        1    1    3    3  502    0  0.29178123482E+02  0.65811946941E+03  0.21278932062E+04  0.22275327374E+04  0.50400001928E-02 0.  1.
       -1    1    3    3    0  502 -0.29178123482E+02 -0.65811946941E+03 -0.46639800700E+02  0.66041492256E+03  0.50400001928E-02 0. -1.
</event>
<event>
 5   0  0.9220260E-06  0.1996878E+04  0.7818609E-02  0.8608082E-01
        1   -1    0    0  501    0  0.00000000000E+00  0.00000000000E+00  0.14463889837E+04  0.14463889837E+04  0.50400001928E-02 0. -1.
       -1   -1    0    0    0  501  0.00000000000E+00  0.00000000000E+00 -0.68922014938E+03  0.68922014940E+03  0.50400001928E-02 0.  1.
    10030    2    1    2    0    0  0.00000000000E+00  0.00000000000E+00  0.75716883429E+03  0.21356091331E+04  0.19968779947E+04 0.  0.
        3    1    3    3  502    0  0.18010690342E+03  0.45972649185E+02  0.14277206808E+04  0.14397702364E+04  0.10100000352E+00 0. -1.
       -3    1    3    3    0  502 -0.18010690342E+03 -0.45972649185E+02 -0.67055184647E+03  0.69583889669E+03  0.10100000352E+00 0.  1.
</event>
<event>
 5   0  0.9333353E-06  0.2001678E+04  0.7818609E-02  0.8605836E-01
        1   -1    0    0  501    0  0.00000000000E+00  0.00000000000E+00  0.10546572208E+04  0.10546572208E+04  0.50400001928E-02 0. -1.
       -1   -1    0    0    0  501  0.00000000000E+00  0.00000000000E+00 -0.94976728378E+03  0.94976728379E+03  0.50400001928E-02 0.  1.
    10030    2    1    2    0    0  0.00000000000E+00  0.00000000000E+00  0.10488993703E+03  0.20044245046E+04  0.20016782198E+04 0.  0.
        2    1    3    3  502    0  0.10040826962E+03  0.32565437322E+02 -0.94417756536E+03  0.95005978930E+03  0.25500000920E-02 0.  1.
       -2    1    3    3    0  502 -0.10040826962E+03 -0.32565437322E+02  0.10490675024E+04  0.10543647153E+04  0.25500000920E-02 0. -1.
</event>
<event>
 5   0  0.9342635E-06  0.2000572E+04  0.7818609E-02  0.8606353E-01
        1   -1    0    0  501    0  0.00000000000E+00  0.00000000000E+00  0.23753795812E+04  0.23753795812E+04  0.50400001928E-02 0. -1.
       -1   -1    0    0    0  501  0.00000000000E+00  0.00000000000E+00 -0.42122608506E+03  0.42122608509E+03  0.50400001928E-02 0.  1.
    10030    2    1    2    0    0  0.00000000000E+00  0.00000000000E+00  0.19541534962E+04  0.27966056663E+04  0.20005717599E+04 0.  0.
        5    1    3    3  502    0 -0.71161934469E+03  0.61360655991E+03  0.14565283021E+04  0.17333239418E+04  0.46999998093E+01 0. -1.
       -5    1    3    3    0  502  0.71161934469E+03 -0.61360655991E+03  0.49762519403E+03  0.10632817246E+04  0.46999998093E+01 0.  1.
</event>
<event>
 5   0  0.2020029E-05  0.1992429E+04  0.7818609E-02  0.8610169E-01
       -2   -1    0    0    0  501  0.00000000000E+00  0.00000000000E+00  0.90867578353E+03  0.90867578353E+03  0.25500000920E-02 0. -1.
        2   -1    0    0  501    0  0.00000000000E+00  0.00000000000E+00 -0.10921860543E+04  0.10921860543E+04  0.25500000920E-02 0.  1.
    10030    2    1    2    0    0  0.00000000000E+00  0.00000000000E+00 -0.18351027078E+03  0.20008618378E+04  0.19924286875E+04 0.  0.
        5    1    3    3  502    0  0.64526975834E+02 -0.37396894251E+03  0.83323218211E+03  0.91559513971E+03  0.46999998093E+01 0. -1.
       -5    1    3    3    0  502 -0.64526975834E+02  0.37396894251E+03 -0.10167424529E+04  0.10852666981E+04  0.46999998093E+01 0.  1.
</event>
<event>
 5   0  0.2020029E-05  0.2004036E+04  0.7818609E-02  0.8604736E-01
        2   -1    0    0  501    0  0.00000000000E+00  0.00000000000E+00  0.21394816229E+04  0.21394816229E+04  0.25500000920E-02 0.  1.
       -2   -1    0    0    0  501  0.00000000000E+00  0.00000000000E+00 -0.46929113136E+03  0.46929113136E+03  0.25500000920E-02 0. -1.
    10030    2    1    2    0    0  0.00000000000E+00  0.00000000000E+00  0.16701904916E+04  0.26087727543E+04  0.20040356797E+04 0.  0.
        5    1    3    3  502    0  0.25152006152E+03 -0.54496774440E+03 -0.20937156067E+03  0.63569703806E+03  0.46999998093E+01 0. -1.
       -5    1    3    3    0  502 -0.25152006152E+03  0.54496774440E+03  0.18795620523E+04  0.19730757162E+04  0.46999998093E+01 0.  1.
</event>
<event>
 5   0  0.2020029E-05  0.2000038E+04  0.7818609E-02  0.8606603E-01
       -2   -1    0    0    0  501  0.00000000000E+00  0.00000000000E+00  0.35490807753E+03  0.35490807754E+03  0.25500000920E-02 0. -1.
        2   -1    0    0  501    0  0.00000000000E+00  0.00000000000E+00 -0.28177368077E+04  0.28177368077E+04  0.25500000920E-02 0.  1.
    10030    2    1    2    0    0  0.00000000000E+00  0.00000000000E+00 -0.24628287301E+04  0.31726448852E+04  0.20000375531E+04 0.  0.
        5    1    3    3  502    0  0.61541134904E+03  0.18300258347E+03 -0.24475892544E+04  0.25304024032E+04  0.46999998093E+01 0.  1.
       -5    1    3    3    0  502 -0.61541134904E+03 -0.18300258347E+03 -0.15239475790E+02  0.64224248201E+03  0.46999998093E+01 0. -1.
</event>
<event>
 5   0  0.9370269E-06  0.2001081E+04  0.7818609E-02  0.8606115E-01
       -1   -1    0    0    0  501  0.00000000000E+00  0.00000000000E+00  0.76760574267E+03  0.76760574269E+03  0.50400001928E-02 0.  1.
        1   -1    0    0  501    0  0.00000000000E+00  0.00000000000E+00 -0.13041612755E+04  0.13041612755E+04  0.50400001928E-02 0. -1.
    10030    2    1    2    0    0  0.00000000000E+00  0.00000000000E+00 -0.53655553279E+03  0.20717670182E+04  0.20010813921E+04 0.  0.
        4    1    3    3  502    0 -0.56657503436E+03 -0.90917271742E+02 -0.11168686774E+04  0.12556553967E+04  0.12699999809E+01 0. -1.
       -4    1    3    3    0  502  0.56657503436E+03  0.90917271742E+02  0.58031314463E+03  0.81611162141E+03  0.12699999809E+01 0.  1.
</event>
<event>
 5   0  0.1979765E-05  0.2000250E+04  0.7818609E-02  0.8606504E-01
        2   -1    0    0  501    0  0.00000000000E+00  0.00000000000E+00  0.14685754971E+04  0.14685754971E+04  0.25500000920E-02 0. -1.
       -2   -1    0    0    0  501  0.00000000000E+00  0.00000000000E+00 -0.68110217291E+03  0.68110217291E+03  0.25500000920E-02 0.  1.
    10030    2    1    2    0    0  0.00000000000E+00  0.00000000000E+00  0.78747332423E+03  0.21496776701E+04  0.20002499466E+04 0.  0.
        2    1    3    3  502    0 -0.49436916006E+03 -0.20241194006E+03 -0.51493125901E+03  0.74197416492E+03  0.25500000920E-02 0.  1.
       -2    1    3    3    0  502  0.49436916006E+03  0.20241194006E+03  0.13024045832E+04  0.14077035051E+04  0.25500000920E-02 0. -1.
</event>
<event>
 5   0  0.2038882E-05  0.1996049E+04  0.7818609E-02  0.8608470E-01
       -2   -1    0    0    0  501  0.00000000000E+00  0.00000000000E+00  0.64850423253E+03  0.64850423253E+03  0.25500000920E-02 0. -1.
        2   -1    0    0  501    0  0.00000000000E+00  0.00000000000E+00 -0.15359231469E+04  0.15359231469E+04  0.25500000920E-02 0.  1.
    10030    2    1    2    0    0  0.00000000000E+00  0.00000000000E+00 -0.88741891437E+03  0.21844273794E+04  0.19960487585E+04 0.  0.
        3    1    3    3  502    0 -0.41397093409E+03  0.52068501804E+02 -0.14358983027E+04  0.14952882695E+04  0.10100000352E+00 0.  1.
       -3    1    3    3    0  502  0.41397093409E+03 -0.52068501804E+02  0.54847938833E+03  0.68913910989E+03  0.10100000352E+00 0. -1.
</event>
<event>
 5   0  0.9140695E-06  0.2002201E+04  0.7818609E-02  0.8605592E-01
       -1   -1    0    0    0  501  0.00000000000E+00  0.00000000000E+00  0.11518997433E+04  0.11518997433E+04  0.50400001928E-02 0. -1.
        1   -1    0    0  501    0  0.00000000000E+00  0.00000000000E+00 -0.87004298397E+03  0.87004298399E+03  0.50400001928E-02 0.  1.
    10030    2    1    2    0    0  0.00000000000E+00  0.00000000000E+00  0.28185675933E+03  0.20219427273E+04  0.20022010787E+04 0.  0.
        1    1    3    3  502    0  0.94099180269E+03  0.31358089067E+03  0.39303790069E+01  0.99187398172E+03  0.50400001928E-02 0.  1.
       -1    1    3    3    0  502 -0.94099180269E+03 -0.31358089067E+03  0.27792638033E+03  0.10300687456E+04  0.50400001928E-02 0. -1.
</event>
<event>
 5   0  0.2038882E-05  0.1999167E+04  0.7818609E-02  0.8607010E-01
        2   -1    0    0  501    0  0.00000000000E+00  0.00000000000E+00  0.73203699950E+03  0.73203699951E+03  0.25500000920E-02 0.  1.
       -2   -1    0    0    0  501  0.00000000000E+00  0.00000000000E+00 -0.13649138740E+04  0.13649138740E+04  0.25500000920E-02 0. -1.
    10030    2    1    2    0    0  0.00000000000E+00  0.00000000000E+00 -0.63287687451E+03  0.20969508735E+04  0.19991672836E+04 0.  0.
        3    1    3    3  502    0  0.89075517574E+03 -0.27483052585E+03  0.62029718752E+02  0.93425066083E+03  0.10100000352E+00 0.  1.
       -3    1    3    3    0  502 -0.89075517574E+03  0.27483052585E+03 -0.69490659326E+03  0.11627002127E+04  0.10100000352E+00 0. -1.
</event>
<event>
 5   0  0.9370269E-06  0.2001428E+04  0.7818609E-02  0.8605953E-01
        1   -1    0    0  501    0  0.00000000000E+00  0.00000000000E+00  0.50223576167E+03  0.50223576170E+03  0.50400001928E-02 0.  1.
       -1   -1    0    0    0  501  0.00000000000E+00  0.00000000000E+00 -0.19939411896E+04  0.19939411896E+04  0.50400001928E-02 0. -1.
    10030    2    1    2    0    0  0.00000000000E+00  0.00000000000E+00 -0.14917054279E+04  0.24961769513E+04  0.20014280623E+04 0.  0.
        4    1    3    3  502    0 -0.52480016876E+03 -0.85109032178E+03 -0.69508384865E+03  0.12177492035E+04  0.12699999809E+01 0. -1.
       -4    1    3    3    0  502  0.52480016876E+03  0.85109032178E+03 -0.79662157925E+03  0.12784277478E+04  0.12699999809E+01 0.  1.
</event>
<event>
 5   0  0.2020029E-05  0.1998966E+04  0.7818609E-02  0.8607104E-01
       -2   -1    0    0    0  501  0.00000000000E+00  0.00000000000E+00  0.54831442201E+03  0.54831442201E+03  0.25500000920E-02 0.  1.
        2   -1    0    0  501    0  0.00000000000E+00  0.00000000000E+00 -0.18218862409E+04  0.18218862409E+04  0.25500000920E-02 0. -1.
    10030    2    1    2    0    0  0.00000000000E+00  0.00000000000E+00 -0.12735718189E+04  0.23702006629E+04  0.19989662340E+04 0.  0.
        5    1    3    3  502    0  0.95295466865E+03  0.23156901402E+03 -0.86547062075E+03  0.13079787055E+04  0.46999998093E+01 0.  1.
       -5    1    3    3    0  502 -0.95295466865E+03 -0.23156901402E+03 -0.40810119811E+03  0.10622219573E+04  0.46999998093E+01 0. -1.
</event>
<event>
 5   0  0.9220260E-06  0.2001161E+04  0.7818609E-02  0.8606078E-01
        1   -1    0    0  501    0  0.00000000000E+00  0.00000000000E+00  0.11290413553E+04  0.11290413553E+04  0.50400001928E-02 0.  1.
       -1   -1    0    0    0  501  0.00000000000E+00  0.00000000000E+00 -0.88673606290E+03  0.88673606291E+03  0.50400001928E-02 0. -1.
    10030    2    1    2    0    0  0.00000000000E+00  0.00000000000E+00  0.24230529237E+03  0.20157774182E+04  0.20011613491E+04 0.  0.
        3    1    3    3  502    0  0.64332575191E+03  0.71038367175E+03  0.41073924595E+03  0.10426982893E+04  0.10100000352E+00 0.  1.
       -3    1    3    3    0  502 -0.64332575191E+03 -0.71038367175E+03 -0.16843395357E+03  0.97307912889E+03  0.10100000352E+00 0. -1.
</event>
<event>
 5   0  0.1979765E-05  0.2031244E+04  0.7818609E-02  0.8592151E-01
        2   -1    0    0  501    0  0.00000000000E+00  0.00000000000E+00  0.19359032255E+04  0.19359032255E+04  0.25500000920E-02 0.  1.
       -2   -1    0    0    0  501  0.00000000000E+00  0.00000000000E+00 -0.53282012587E+03  0.53282012587E+03  0.25500000920E-02 0. -1.
    10030    2    1    2    0    0  0.00000000000E+00  0.00000000000E+00  0.14030830997E+04  0.24687233514E+04  0.20312441511E+04 0.  0.
        2    1    3    3  502    0  0.54710601197E+02 -0.95283042901E+03  0.27945610255E+03  0.99447211604E+03  0.25500000920E-02 0.  1.
       -2    1    3    3    0  502 -0.54710601197E+02  0.95283042901E+03  0.11236269971E+04  0.14742512354E+04  0.25500000920E-02 0. -1.
</event>
<event>
 5   0  0.9342635E-06  0.1999644E+04  0.7818609E-02  0.8606787E-01
        1   -1    0    0  501    0  0.00000000000E+00  0.00000000000E+00  0.15396506250E+04  0.15396506250E+04  0.50400001928E-02 0.  1.
       -1   -1    0    0    0  501  0.00000000000E+00  0.00000000000E+00 -0.64926672765E+03  0.64926672767E+03  0.50400001928E-02 0. -1.
    10030    2    1    2    0    0  0.00000000000E+00  0.00000000000E+00  0.89038389736E+03  0.21889173527E+04  0.19996438914E+04 0.  0.
        5    1    3    3  502    0 -0.60700012677E+03  0.50022728459E+03 -0.23043667049E+03  0.81963384462E+03  0.46999998093E+01 0. -1.
       -5    1    3    3    0  502  0.60700012677E+03 -0.50022728459E+03  0.11208205679E+04  0.13692835081E+04  0.46999998093E+01 0.  1.
</event>
<event>
 5   0  0.9333353E-06  0.2001464E+04  0.7818609E-02  0.8605936E-01
       -1   -1    0    0    0  501  0.00000000000E+00  0.00000000000E+00  0.16022392759E+04  0.16022392759E+04  0.50400001928E-02 0.  1.
        1   -1    0    0  501    0  0.00000000000E+00  0.00000000000E+00 -0.62504082093E+03  0.62504082096E+03  0.50400001928E-02 0. -1.
    10030    2    1    2    0    0  0.00000000000E+00  0.00000000000E+00  0.97719845496E+03  0.22272800969E+04  0.20014644162E+04 0.  0.
        2    1    3    3  502    0  0.58148201330E+02 -0.35969803597E+03  0.15257983464E+04  0.15687015281E+04  0.25500000920E-02 0.  1.
       -2    1    3    3    0  502 -0.58148201330E+02  0.35969803597E+03 -0.54859989141E+03  0.65857856878E+03  0.25500000920E-02 0. -1.
</event>
<event>
 5   0  0.9342635E-06  0.2002627E+04  0.7818609E-02  0.8605393E-01
        1   -1    0    0  501    0  0.00000000000E+00  0.00000000000E+00  0.15984499783E+04  0.15984499783E+04  0.50400001928E-02 0. -1.
       -1   -1    0    0    0  501  0.00000000000E+00  0.00000000000E+00 -0.62725058724E+03  0.62725058726E+03  0.50400001928E-02 0.  1.
    10030    2    1    2    0    0  0.00000000000E+00  0.00000000000E+00  0.97119939107E+03  0.22257005656E+04  0.20026269624E+04 0.  0.
        5    1    3    3  502    0 -0.44913098889E+03 -0.80526575781E+03  0.51680321449E+02  0.92350664941E+03  0.46999998093E+01 0. -1.
       -5    1    3    3    0  502  0.44913098889E+03  0.80526575781E+03  0.91951906962E+03  0.13021939162E+04  0.46999998093E+01 0.  1.
</event>
<event>
 5   0  0.2020029E-05  0.1998630E+04  0.7818609E-02  0.8607261E-01
        2   -1    0    0  501    0  0.00000000000E+00  0.00000000000E+00  0.89689941362E+03  0.89689941362E+03  0.25500000920E-02 0. -1.
       -2   -1    0    0    0  501  0.00000000000E+00  0.00000000000E+00 -0.11134253538E+04  0.11134253538E+04  0.25500000920E-02 0.  1.
    10030    2    1    2    0    0  0.00000000000E+00  0.00000000000E+00 -0.21652594019E+03  0.20103247674E+04  0.19986300778E+04 0.  0.
        5    1    3    3  502    0  0.45322334361E+03  0.66916790277E+03 -0.69941899822E+03  0.10688339938E+04  0.46999998093E+01 0.  1.
       -5    1    3    3    0  502 -0.45322334361E+03 -0.66916790277E+03  0.48289305803E+03  0.94149077360E+03  0.46999998093E+01 0. -1.
</event>
<event>
 5   0  0.9342635E-06  0.1999472E+04  0.7818609E-02  0.8606868E-01
        1   -1    0    0  501    0  0.00000000000E+00  0.00000000000E+00  0.14510377084E+04  0.14510377084E+04  0.50400001928E-02 0.  1.
       -1   -1    0    0    0  501  0.00000000000E+00  0.00000000000E+00 -0.68879786858E+03  0.68879786859E+03  0.50400001928E-02 0. -1.
    10030    2    1    2    0    0  0.00000000000E+00  0.00000000000E+00  0.76223983986E+03  0.21398355770E+04  0.19994716110E+04 0.  0.
        5    1    3    3  502    0 -0.96618079224E+02 -0.31644134953E+03  0.13907334014E+04  0.14295564574E+04  0.46999998093E+01 0.  1.
       -5    1    3    3    0  502  0.96618079224E+02  0.31644134953E+03 -0.62849356157E+03  0.71027911968E+03  0.46999998093E+01 0. -1.
</event>
<event>
 5   0  0.1999142E-05  0.1987569E+04  0.7818609E-02  0.8612454E-01
       -2   -1    0    0    0  501  0.00000000000E+00  0.00000000000E+00  0.72168113088E+03  0.72168113088E+03  0.25500000920E-02 0.  1.
        2   -1    0    0  501    0  0.00000000000E+00  0.00000000000E+00 -0.13684826596E+04  0.13684826596E+04  0.25500000920E-02 0. -1.
    10030    2    1    2    0    0  0.00000000000E+00  0.00000000000E+00 -0.64680152874E+03  0.20901637905E+04  0.19875694840E+04 0.  0.
        1    1    3    3  502    0 -0.89366450671E+03 -0.40038501453E+03 -0.50144345416E+03  0.11001772349E+04  0.50400001928E-02 0. -1.
       -1    1    3    3    0  502  0.89366450671E+03  0.40038501453E+03 -0.14535807458E+03  0.98998655561E+03  0.50400001928E-02 0.  1.
</event>
<event>
 5   0  0.2020029E-05  0.2001618E+04  0.7818609E-02  0.8605864E-01
       -2   -1    0    0    0  501  0.00000000000E+00  0.00000000000E+00  0.57189434813E+03  0.57189434814E+03  0.25500000920E-02 0. -1.
        2   -1    0    0  501    0  0.00000000000E+00  0.00000000000E+00 -0.17514057330E+04  0.17514057330E+04  0.25500000920E-02 0.  1.
    10030    2    1    2    0    0  0.00000000000E+00  0.00000000000E+00 -0.11795113848E+04  0.23233000811E+04  0.20016183852E+04 0.  0.
        5    1    3    3  502    0 -0.48983792457E+03 -0.12020051044E+03 -0.15930876952E+04  0.16710295777E+04  0.46999998093E+01 0.  1.
       -5    1    3    3    0  502  0.48983792457E+03  0.12020051044E+03  0.41357631038E+03  0.65227050336E+03  0.46999998093E+01 0. -1.
</event>
<event>
 5   0  0.2020029E-05  0.2001362E+04  0.7818609E-02  0.8605984E-01
       -2   -1    0    0    0  501  0.00000000000E+00  0.00000000000E+00  0.77008742065E+03  0.77008742066E+03  0.25500000920E-02 0.  1.
        2   -1    0    0  501    0  0.00000000000E+00  0.00000000000E+00 -0.13003228553E+04  0.13003228553E+04  0.25500000920E-02 0. -1.
    10030    2    1    2    0    0  0.00000000000E+00  0.00000000000E+00 -0.53023543464E+03  0.20704102759E+04  0.20013618100E+04 0.  0.
        5    1    3    3  502    0  0.47330417163E+03  0.55246447138E+03  0.44568769880E+03  0.85316671635E+03  0.46999998093E+01 0.  1.
       -5    1    3    3    0  502 -0.47330417163E+03 -0.55246447138E+03 -0.97592313343E+03  0.12172435596E+04  0.46999998093E+01 0. -1.
</event>
<event>
 5   0  0.9342635E-06  0.1998484E+04  0.7818609E-02  0.8607330E-01
       -1   -1    0    0    0  501  0.00000000000E+00  0.00000000000E+00  0.10191898139E+04  0.10191898139E+04  0.50400001928E-02 0.  1.
        1   -1    0    0  501    0  0.00000000000E+00  0.00000000000E+00 -0.97968472859E+03  0.97968472860E+03  0.50400001928E-02 0. -1.
    10030    2    1    2    0    0  0.00000000000E+00  0.00000000000E+00  0.39505085279E+02  0.19988745425E+04  0.19984841217E+04 0.  0.
        5    1    3    3  502    0 -0.23762216641E+03  0.35891921160E+03  0.92169104617E+03  0.10172628810E+04  0.46999998093E+01 0.  1.
       -5    1    3    3    0  502  0.23762216641E+03 -0.35891921160E+03 -0.88218596089E+03  0.98161166151E+03  0.46999998093E+01 0. -1.
</event>
<event>
 5   0  0.9342635E-06  0.2004075E+04  0.7818609E-02  0.8604718E-01
        1   -1    0    0  501    0  0.00000000000E+00  0.00000000000E+00  0.14547882108E+04  0.14547882108E+04  0.50400001928E-02 0. -1.
       -1   -1    0    0    0  501  0.00000000000E+00  0.00000000000E+00 -0.69018936022E+03  0.69018936024E+03  0.50400001928E-02 0.  1.
    10030    2    1    2    0    0  0.00000000000E+00  0.00000000000E+00  0.76459885060E+03  0.21449775711E+04  0.20040751927E+04 0.  0.
        5    1    3    3  502    0  0.78954616957E+03  0.43852707499E+03  0.84682799318E+03  0.12380746704E+04  0.46999998093E+01 0. -1.
       -5    1    3    3    0  502 -0.78954616957E+03 -0.43852707499E+03 -0.82229142578E+02  0.90690290069E+03  0.46999998093E+01 0.  1.
</event>
<event>
 5   0  0.2020029E-05  0.2001153E+04  0.7818609E-02  0.8606082E-01
       -2   -1    0    0    0  501  0.00000000000E+00  0.00000000000E+00  0.70575298906E+03  0.70575298906E+03  0.25500000920E-02 0.  1.
        2   -1    0    0  501    0  0.00000000000E+00  0.00000000000E+00 -0.14185603009E+04  0.14185603009E+04  0.25500000920E-02 0. -1.
    10030    2    1    2    0    0  0.00000000000E+00  0.00000000000E+00 -0.71280731185E+03  0.21243132900E+04  0.20011528403E+04 0.  0.
        5    1    3    3  502    0  0.68002708115E+03  0.72707667014E+03 -0.46284312952E+03  0.10978721091E+04  0.46999998093E+01 0. -1.
       -5    1    3    3    0  502 -0.68002708115E+03 -0.72707667014E+03 -0.24996418233E+03  0.10264411809E+04  0.46999998093E+01 0.  1.
</event>
<event>
 5   0  0.9370269E-06  0.2001868E+04  0.7818609E-02  0.8605748E-01
       -1   -1    0    0    0  501  0.00000000000E+00  0.00000000000E+00  0.95514300452E+03  0.95514300453E+03  0.50400001928E-02 0.  1.
        1   -1    0    0  501    0  0.00000000000E+00  0.00000000000E+00 -0.10489207562E+04  0.10489207562E+04  0.50400001928E-02 0. -1.
    10030    2    1    2    0    0  0.00000000000E+00  0.00000000000E+00 -0.93777751635E+02  0.20040637607E+04  0.20018684498E+04 0.  0.
        4    1    3    3  502    0  0.10095990016E+03 -0.41361145051E+01 -0.10438010376E+04  0.10486811851E+04  0.12699999809E+01 0. -1.
       -4    1    3    3    0  502 -0.10095990016E+03  0.41361145051E+01  0.95002328601E+03  0.95538257559E+03  0.12699999809E+01 0.  1.
</event>
<event>
 5   0  0.1999142E-05  0.2002060E+04  0.7818609E-02  0.8605658E-01
       -2   -1    0    0    0  501  0.00000000000E+00  0.00000000000E+00  0.10347061529E+04  0.10347061529E+04  0.25500000920E-02 0.  1.
        2   -1    0    0  501    0  0.00000000000E+00  0.00000000000E+00 -0.96844950335E+03  0.96844950336E+03  0.25500000920E-02 0. -1.
    10030    2    1    2    0    0  0.00000000000E+00  0.00000000000E+00  0.66256649529E+02  0.20031556562E+04  0.20020595994E+04 0.  0.
        1    1    3    3  502    0  0.33767320564E+03 -0.34476260526E+03  0.91063538238E+03  0.10306023712E+04  0.50400001928E-02 0.  1.
       -1    1    3    3    0  502 -0.33767320564E+03  0.34476260526E+03 -0.84437873285E+03  0.97255328507E+03  0.50400001928E-02 0. -1.
</event>
<event>
 5   0  0.9342635E-06  0.2001824E+04  0.7818609E-02  0.8605768E-01
        1   -1    0    0  501    0  0.00000000000E+00  0.00000000000E+00  0.22602204179E+04  0.22602204179E+04  0.50400001928E-02 0. -1.
       -1   -1    0    0    0  501  0.00000000000E+00  0.00000000000E+00 -0.44324206779E+03  0.44324206782E+03  0.50400001928E-02 0.  1.
    10030    2    1    2    0    0  0.00000000000E+00  0.00000000000E+00  0.18169783501E+04  0.27034624857E+04  0.20018239401E+04 0.  0.
        5    1    3    3  502    0 -0.21349281959E+03 -0.86213283576E+03  0.15316982540E+04  0.17705857341E+04  0.46999998093E+01 0. -1.
       -5    1    3    3    0  502  0.21349281959E+03  0.86213283576E+03  0.28528009614E+03  0.93287675165E+03  0.46999998093E+01 0.  1.
</event>
<event>
 5   0  0.9140695E-06  0.2000005E+04  0.7818609E-02  0.8606618E-01
        1   -1    0    0  501    0  0.00000000000E+00  0.00000000000E+00  0.93075418999E+03  0.93075419000E+03  0.50400001928E-02 0. -1.
       -1   -1    0    0    0  501  0.00000000000E+00  0.00000000000E+00 -0.10744032283E+04  0.10744032284E+04  0.50400001928E-02 0.  1.
    10030    2    1    2    0    0  0.00000000000E+00  0.00000000000E+00 -0.14364903835E+03  0.20051574184E+04  0.20000053065E+04 0.  0.
        1    1    3    3  502    0 -0.60336956713E+03  0.53147855571E+03 -0.66789878586E+03  0.10452813391E+04  0.50400001928E-02 0.  1.
       -1    1    3    3    0  502  0.60336956713E+03 -0.53147855571E+03  0.52424974750E+03  0.95987607924E+03  0.50400001928E-02 0. -1.
</event>
<event>
 5   0  0.9140695E-06  0.1994103E+04  0.7818609E-02  0.8609382E-01
       -1   -1    0    0    0  501  0.00000000000E+00  0.00000000000E+00  0.72009777119E+03  0.72009777121E+03  0.50400001928E-02 0.  1.
        1   -1    0    0  501    0  0.00000000000E+00  0.00000000000E+00 -0.13805238567E+04  0.13805238567E+04  0.50400001928E-02 0. -1.
    10030    2    1    2    0    0  0.00000000000E+00  0.00000000000E+00 -0.66042608549E+03  0.21006216279E+04  0.19941034600E+04 0.  0.
        1    1    3    3  502    0 -0.50505625551E+03 -0.57254942527E+03  0.34530341266E+03  0.83793144853E+03  0.50400001928E-02 0.  1.
       -1    1    3    3    0  502  0.50505625551E+03  0.57254942527E+03 -0.10057294981E+04  0.12626901794E+04  0.50400001928E-02 0. -1.
</event>
<event>
 5   0  0.9370269E-06  0.2000126E+04  0.7818609E-02  0.8606562E-01
        1   -1    0    0  501    0  0.00000000000E+00  0.00000000000E+00  0.10047101349E+04  0.10047101349E+04  0.50400001928E-02 0.  1.
       -1   -1    0    0    0  501  0.00000000000E+00  0.00000000000E+00 -0.99543705851E+03  0.99543705853E+03  0.50400001928E-02 0. -1.
    10030    2    1    2    0    0  0.00000000000E+00  0.00000000000E+00  0.92730763425E+01  0.20001471934E+04  0.20001256974E+04 0.  0.
        4    1    3    3  502    0 -0.69784230399E+03  0.25183532694E+03  0.67525479165E+03  0.10031827150E+04  0.12699999809E+01 0.  1.
       -4    1    3    3    0  502  0.69784230399E+03 -0.25183532694E+03 -0.66598171531E+03  0.99696447839E+03  0.12699999809E+01 0. -1.
</event>
<event>
 5   0  0.2003576E-05  0.2000473E+04  0.7818609E-02  0.8606399E-01
        2   -1    0    0  501    0  0.00000000000E+00  0.00000000000E+00  0.10525431471E+04  0.10525431471E+04  0.25500000920E-02 0.  1.
       -2   -1    0    0    0  501  0.00000000000E+00  0.00000000000E+00 -0.95052942365E+03  0.95052942366E+03  0.25500000920E-02 0. -1.
    10030    2    1    2    0    0  0.00000000000E+00  0.00000000000E+00  0.10201372347E+03  0.20030725708E+04  0.20004731750E+04 0.  0.
        4    1    3    3  502    0 -0.24478824299E+03 -0.68855517878E+03 -0.63284624263E+03  0.96670858993E+03  0.12699999809E+01 0. -1.
       -4    1    3    3    0  502  0.24478824299E+03  0.68855517878E+03  0.73485996610E+03  0.10363639808E+04  0.12699999809E+01 0.  1.
</event>
<event>
 5   0  0.2038882E-05  0.2013469E+04  0.7818609E-02  0.8600349E-01
       -2   -1    0    0    0  501  0.00000000000E+00  0.00000000000E+00  0.35888308442E+03  0.35888308443E+03  0.25500000920E-02 0.  1.
        2   -1    0    0  501    0  0.00000000000E+00  0.00000000000E+00 -0.28240800029E+04  0.28240800029E+04  0.25500000920E-02 0. -1.
    10030    2    1    2    0    0  0.00000000000E+00  0.00000000000E+00 -0.24651969185E+04  0.31829630874E+04  0.20134691874E+04 0.  0.
        3    1    3    3  502    0  0.52915057261E+03  0.42757111793E+03 -0.24057200445E+04  0.25000612656E+04  0.10100000352E+00 0. -1.
       -3    1    3    3    0  502 -0.52915057261E+03 -0.42757111793E+03 -0.59476874061E+02  0.68290182173E+03  0.10100000352E+00 0.  1.
</event>
<event>
 5   0  0.9370269E-06  0.1999154E+04  0.7818609E-02  0.8607016E-01
        1   -1    0    0  501    0  0.00000000000E+00  0.00000000000E+00  0.79271553304E+03  0.79271553306E+03  0.50400001928E-02 0.  1.
       -1   -1    0    0    0  501  0.00000000000E+00  0.00000000000E+00 -0.12604202001E+04  0.12604202001E+04  0.50400001928E-02 0. -1.
    10030    2    1    2    0    0  0.00000000000E+00  0.00000000000E+00 -0.46770466703E+03  0.20531357331E+04  0.19991544921E+04 0.  0.
        4    1    3    3  502    0  0.11576269386E+03 -0.95570505818E+03 -0.51015195435E+03  0.10895089669E+04  0.12699999809E+01 0. -1.
       -4    1    3    3    0  502 -0.11576269386E+03  0.95570505818E+03  0.42447287312E+02  0.96362676625E+03  0.12699999809E+01 0.  1.
</event>
<event>
 5   0  0.2020029E-05  0.1999277E+04  0.7818609E-02  0.8606959E-01
        2   -1    0    0  501    0  0.00000000000E+00  0.00000000000E+00  0.93100380883E+03  0.93100380883E+03  0.25500000920E-02 0.  1.
       -2   -1    0    0    0  501  0.00000000000E+00  0.00000000000E+00 -0.10733326216E+04  0.10733326216E+04  0.25500000920E-02 0. -1.
    10030    2    1    2    0    0  0.00000000000E+00  0.00000000000E+00 -0.14232881276E+03  0.20043364304E+04  0.19992766280E+04 0.  0.
        5    1    3    3  502    0  0.67077044042E+03  0.68450680134E+03 -0.35608804570E+03  0.10224007683E+04  0.46999998093E+01 0. -1.
       -5    1    3    3    0  502 -0.67077044042E+03 -0.68450680134E+03  0.21375923293E+03  0.98193566209E+03  0.46999998093E+01 0.  1.
</event>
<event>
 5   0  0.2038882E-05  0.2004098E+04  0.7818609E-02  0.8604707E-01
       -2   -1    0    0    0  501  0.00000000000E+00  0.00000000000E+00  0.15090838335E+04  0.15090838335E+04  0.25500000920E-02 0.  1.
        2   -1    0    0  501    0  0.00000000000E+00  0.00000000000E+00 -0.66537178821E+03  0.66537178821E+03  0.25500000920E-02 0. -1.
    10030    2    1    2    0    0  0.00000000000E+00  0.00000000000E+00  0.84371204532E+03  0.21744556217E+04  0.20040976113E+04 0.  0.
        3    1    3    3  502    0 -0.42835618390E+03 -0.37374052984E+03 -0.47347403750E+03  0.73983016856E+03  0.10100000352E+00 0. -1.
       -3    1    3    3    0  502  0.42835618390E+03  0.37374052984E+03  0.13171860828E+04  0.14346254532E+04  0.10100000352E+00 0.  1.
</event>
<event>
 5   0  0.2003576E-05  0.2001834E+04  0.7818609E-02  0.8605764E-01
        2   -1    0    0  501    0  0.00000000000E+00  0.00000000000E+00  0.23343509300E+04  0.23343509300E+04  0.25500000920E-02 0. -1.
       -2   -1    0    0    0  501  0.00000000000E+00  0.00000000000E+00 -0.42917066326E+03  0.42917066327E+03  0.25500000920E-02 0.  1.
    10030    2    1    2    0    0  0.00000000000E+00  0.00000000000E+00  0.19051802667E+04  0.27635215932E+04  0.20018340959E+04 0.  0.
        4    1    3    3  502    0 -0.42990692393E+03  0.66083582435E+03  0.18039306359E+04  0.19686775515E+04  0.12699999809E+01 0. -1.
       -4    1    3    3    0  502  0.42990692393E+03 -0.66083582435E+03  0.10124963083E+03  0.79484404170E+03  0.12699999809E+01 0.  1.
</event>
<event>
 5   0  0.1979765E-05  0.1999209E+04  0.7818609E-02  0.8606991E-01
       -2   -1    0    0    0  501  0.00000000000E+00  0.00000000000E+00  0.10100963532E+04  0.10100963532E+04  0.25500000920E-02 0.  1.
        2   -1    0    0  501    0  0.00000000000E+00  0.00000000000E+00 -0.98922145928E+03  0.98922145929E+03  0.25500000920E-02 0. -1.
    10030    2    1    2    0    0  0.00000000000E+00  0.00000000000E+00  0.20874893895E+02  0.19993178125E+04  0.19992088320E+04 0.  0.
        2    1    3    3  502    0 -0.18653722668E+02  0.45917020095E+03  0.89819285763E+03  0.10089279679E+04  0.25500000920E-02 0.  1.
       -2    1    3    3    0  502  0.18653722668E+02 -0.45917020095E+03 -0.87731796374E+03  0.99038984461E+03  0.25500000920E-02 0. -1.
</event>
<event>
 5   0  0.1979765E-05  0.1997712E+04  0.7818609E-02  0.8607691E-01
        2   -1    0    0  501    0  0.00000000000E+00  0.00000000000E+00  0.15634735049E+04  0.15634735049E+04  0.25500000920E-02 0.  1.
       -2   -1    0    0    0  501  0.00000000000E+00  0.00000000000E+00 -0.63813861439E+03  0.63813861440E+03  0.25500000920E-02 0. -1.
    10030    2    1    2    0    0  0.00000000000E+00  0.00000000000E+00  0.92533489047E+03  0.22016121193E+04  0.19977115067E+04 0.  0.
        2    1    3    3  502    0 -0.50288782416E+03 -0.40547830187E+03  0.13022690000E+04  0.14536895698E+04  0.25500000920E-02 0.  1.
       -2    1    3    3    0  502  0.50288782416E+03  0.40547830187E+03 -0.37693410957E+03  0.74792254942E+03  0.25500000920E-02 0. -1.
</event>
<event>
 5   0  0.1979765E-05  0.1997013E+04  0.7818609E-02  0.8608018E-01
       -2   -1    0    0    0  501  0.00000000000E+00  0.00000000000E+00  0.10008222515E+04  0.10008222515E+04  0.25500000920E-02 0. -1.
        2   -1    0    0  501    0  0.00000000000E+00  0.00000000000E+00 -0.99619654170E+03  0.99619654170E+03  0.25500000920E-02 0.  1.
    10030    2    1    2    0    0  0.00000000000E+00  0.00000000000E+00  0.46257097620E+01  0.19970187932E+04  0.19970134359E+04 0.  0.
        2    1    3    3  502    0 -0.46712539878E+03 -0.40830420179E+03  0.78468136810E+03  0.10003216027E+04  0.25500000920E-02 0. -1.
       -2    1    3    3    0  502  0.46712539878E+03  0.40830420179E+03 -0.78005565833E+03  0.99669719047E+03  0.25500000920E-02 0.  1.
</event>
<event>
 5   0  0.2038882E-05  0.2006527E+04  0.7818609E-02  0.8603575E-01
        2   -1    0    0  501    0  0.00000000000E+00  0.00000000000E+00  0.92404883112E+03  0.92404883112E+03  0.25500000920E-02 0.  1.
       -2   -1    0    0    0  501  0.00000000000E+00  0.00000000000E+00 -0.10892687703E+04  0.10892687703E+04  0.25500000920E-02 0. -1.
    10030    2    1    2    0    0  0.00000000000E+00  0.00000000000E+00 -0.16521993914E+03  0.20133176014E+04  0.20065268839E+04 0.  0.
        3    1    3    3  502    0 -0.35091036627E+03  0.30400173504E+03 -0.97499178759E+03  0.10798907982E+04  0.10100000352E+00 0. -1.
       -3    1    3    3    0  502  0.35091036627E+03 -0.30400173504E+03  0.80977184845E+03  0.93342680313E+03  0.10100000352E+00 0.  1.
</event>
<event>
 5   0  0.2003576E-05  0.2000409E+04  0.7818609E-02  0.8606429E-01
        2   -1    0    0  501    0  0.00000000000E+00  0.00000000000E+00  0.10476328686E+04  0.10476328686E+04  0.25500000920E-02 0.  1.
       -2   -1    0    0    0  501  0.00000000000E+00  0.00000000000E+00 -0.95492341712E+03  0.95492341713E+03  0.25500000920E-02 0. -1.
    10030    2    1    2    0    0  0.00000000000E+00  0.00000000000E+00  0.92709451459E+02  0.20025562857E+04  0.20004091169E+04 0.  0.
        4    1    3    3  502    0  0.49326737196E+02 -0.89012560464E+03  0.50032888852E+03  0.10222951280E+04  0.12699999809E+01 0.  1.
       -4    1    3    3    0  502 -0.49326737196E+02  0.89012560464E+03 -0.40761943706E+03  0.98026115776E+03  0.12699999809E+01 0. -1.
</event>
<event>
 5   0  0.1999142E-05  0.2000867E+04  0.7818609E-02  0.8606216E-01
       -2   -1    0    0    0  501  0.00000000000E+00  0.00000000000E+00  0.56345324041E+03  0.56345324042E+03  0.25500000920E-02 0.  1.
        2   -1    0    0  501    0  0.00000000000E+00  0.00000000000E+00 -0.17763084184E+04  0.17763084184E+04  0.25500000920E-02 0. -1.
    10030    2    1    2    0    0  0.00000000000E+00  0.00000000000E+00 -0.12128551779E+04  0.23397616588E+04  0.20008665466E+04 0.  0.
        1    1    3    3  502    0  0.78442091028E+03  0.16443287202E+03 -0.13066009570E+04  0.15328275815E+04  0.50400001928E-02 0. -1.
       -1    1    3    3    0  502 -0.78442091028E+03 -0.16443287202E+03  0.93745779050E+02  0.80693407724E+03  0.50400001928E-02 0.  1.
</event>
<event>
 5   0  0.9140695E-06  0.2000586E+04  0.7818609E-02  0.8606347E-01
        1   -1    0    0  501    0  0.00000000000E+00  0.00000000000E+00  0.15826030845E+04  0.15826030845E+04  0.50400001928E-02 0. -1.
       -1   -1    0    0    0  501  0.00000000000E+00  0.00000000000E+00 -0.63224071666E+03  0.63224071668E+03  0.50400001928E-02 0.  1.
    10030    2    1    2    0    0  0.00000000000E+00  0.00000000000E+00  0.95036236788E+03  0.22148438012E+04  0.20005860225E+04 0.  0.
        1    1    3    3  502    0  0.38790712624E+03 -0.84660449872E+03  0.70863182857E+02  0.93393399475E+03  0.50400001928E-02 0.  1.
       -1    1    3    3    0  502 -0.38790712624E+03  0.84660449872E+03  0.87949918502E+03  0.12809098065E+04  0.50400001928E-02 0. -1.
</event>
<event>
 5   0  0.9220260E-06  0.2000714E+04  0.7818609E-02  0.8606287E-01
        1   -1    0    0  501    0  0.00000000000E+00  0.00000000000E+00  0.14015764874E+04  0.14015764874E+04  0.50400001928E-02 0.  1.
       -1   -1    0    0    0  501  0.00000000000E+00  0.00000000000E+00 -0.71399168190E+03  0.71399168192E+03  0.50400001928E-02 0. -1.
    10030    2    1    2    0    0  0.00000000000E+00  0.00000000000E+00  0.68758480554E+03  0.21155681694E+04  0.20007138262E+04 0.  0.
        3    1    3    3  502    0  0.27662679407E+03  0.77177173768E+03 -0.26231468034E+03  0.86079207710E+03  0.10100000352E+00 0. -1.
       -3    1    3    3    0  502 -0.27662679407E+03 -0.77177173768E+03  0.94989948587E+03  0.12547760923E+04  0.10100000352E+00 0.  1.
</event>
<event>
 5   0  0.9140695E-06  0.2000801E+04  0.7818609E-02  0.8606246E-01
       -1   -1    0    0    0  501  0.00000000000E+00  0.00000000000E+00  0.14392063498E+04  0.14392063498E+04  0.50400001928E-02 0.  1.
        1   -1    0    0  501    0  0.00000000000E+00  0.00000000000E+00 -0.69538406724E+03  0.69538406725E+03  0.50400001928E-02 0. -1.
    10030    2    1    2    0    0  0.00000000000E+00  0.00000000000E+00  0.74382228253E+03  0.21345904170E+04  0.20008010047E+04 0.  0.
        1    1    3    3  502    0 -0.13127900058E+03  0.86962296811E+03  0.88057658607E+03  0.12445454619E+04  0.50400001928E-02 0.  1.
       -1    1    3    3    0  502  0.13127900058E+03 -0.86962296811E+03 -0.13675430354E+03  0.89004495517E+03  0.50400001928E-02 0. -1.
</event>
<event>
 5   0  0.2003576E-05  0.1998424E+04  0.7818609E-02  0.8607358E-01
        2   -1    0    0  501    0  0.00000000000E+00  0.00000000000E+00  0.15605461807E+04  0.15605461807E+04  0.25500000920E-02 0.  1.
       -2   -1    0    0    0  501  0.00000000000E+00  0.00000000000E+00 -0.63979164360E+03  0.63979164361E+03  0.25500000920E-02 0. -1.
    10030    2    1    2    0    0  0.00000000000E+00  0.00000000000E+00  0.92075453714E+03  0.22003378243E+04  0.19984237848E+04 0.  0.
        4    1    3    3  502    0  0.55911104807E+03  0.12766820141E+03 -0.44053614317E+03  0.72317220637E+03  0.12699999809E+01 0. -1.
       -4    1    3    3    0  502 -0.55911104807E+03 -0.12766820141E+03  0.13612906803E+04  0.14771656180E+04  0.12699999809E+01 0.  1.
</event>
<event>
 5   0  0.1979765E-05  0.1995519E+04  0.7818609E-02  0.8608719E-01
       -2   -1    0    0    0  501  0.00000000000E+00  0.00000000000E+00  0.53392143602E+03  0.53392143603E+03  0.25500000920E-02 0.  1.
        2   -1    0    0  501    0  0.00000000000E+00  0.00000000000E+00 -0.18645508898E+04  0.18645508898E+04  0.25500000920E-02 0. -1.
    10030    2    1    2    0    0  0.00000000000E+00  0.00000000000E+00 -0.13306294537E+04  0.23984723258E+04  0.19955186680E+04 0.  0.
        2    1    3    3  502    0 -0.59376276013E+03 -0.16032426724E+03  0.27899606959E+03  0.67534945979E+03  0.25500000920E-02 0.  1.
       -2    1    3    3    0  502  0.59376276013E+03  0.16032426724E+03 -0.16096255233E+04  0.17231228660E+04  0.25500000920E-02 0. -1.
</event>
<event>
 5   0  0.1979765E-05  0.1998485E+04  0.7818609E-02  0.8607329E-01
       -2   -1    0    0    0  501  0.00000000000E+00  0.00000000000E+00  0.11018033369E+04  0.11018033369E+04  0.25500000920E-02 0.  1.
        2   -1    0    0  501    0  0.00000000000E+00  0.00000000000E+00 -0.90622820673E+03  0.90622820674E+03  0.25500000920E-02 0. -1.
    10030    2    1    2    0    0  0.00000000000E+00  0.00000000000E+00  0.19557513017E+03  0.20080315436E+04  0.19984846881E+04 0.  0.
        2    1    3    3  502    0  0.12812231613E+03  0.86172050015E+03 -0.39394555235E+03  0.95612271518E+03  0.25500000920E-02 0. -1.
       -2    1    3    3    0  502 -0.12812231613E+03 -0.86172050015E+03  0.58952068252E+03  0.10519088285E+04  0.25500000920E-02 0.  1.
</event>
<event>
 5   0  0.1999142E-05  0.2004020E+04  0.7818609E-02  0.8604744E-01
       -2   -1    0    0    0  501  0.00000000000E+00  0.00000000000E+00  0.95882075043E+03  0.95882075043E+03  0.25500000920E-02 0. -1.
        2   -1    0    0  501    0  0.00000000000E+00  0.00000000000E+00 -0.10471446443E+04  0.10471446443E+04  0.25500000920E-02 0.  1.
    10030    2    1    2    0    0  0.00000000000E+00  0.00000000000E+00 -0.88323893864E+02  0.20059653947E+04  0.20040199736E+04 0.  0.
        1    1    3    3  502    0  0.12663893365E+03  0.89894527234E+03 -0.46870100179E+03  0.10216754139E+04  0.50400001928E-02 0.  1.
       -1    1    3    3    0  502 -0.12663893365E+03 -0.89894527234E+03  0.38037710792E+03  0.98428998087E+03  0.50400001928E-02 0. -1.
</event>
<event>
 5   0  0.2020029E-05  0.2000787E+04  0.7818609E-02  0.8606253E-01
       -2   -1    0    0    0  501  0.00000000000E+00  0.00000000000E+00  0.45329179199E+03  0.45329179200E+03  0.25500000920E-02 0. -1.
        2   -1    0    0  501    0  0.00000000000E+00  0.00000000000E+00 -0.22078220678E+04  0.22078220678E+04  0.25500000920E-02 0.  1.
    10030    2    1    2    0    0  0.00000000000E+00  0.00000000000E+00 -0.17545302758E+04  0.26611138598E+04  0.20007874665E+04 0.  0.
        5    1    3    3  502    0 -0.39966373159E+03 -0.89520037657E+03 -0.11421078532E+04  0.15051734953E+04  0.46999998093E+01 0.  1.
       -5    1    3    3    0  502  0.39966373159E+03  0.89520037657E+03 -0.61242242254E+03  0.11559403645E+04  0.46999998093E+01 0. -1.
</event>
<event>
 5   0  0.9333353E-06  0.1988770E+04  0.7818609E-02  0.8611889E-01
        1   -1    0    0  501    0  0.00000000000E+00  0.00000000000E+00  0.97203107025E+03  0.97203107026E+03  0.50400001928E-02 0. -1.
       -1   -1    0    0    0  501  0.00000000000E+00  0.00000000000E+00 -0.10172525680E+04  0.10172525680E+04  0.50400001928E-02 0.  1.
    10030    2    1    2    0    0  0.00000000000E+00  0.00000000000E+00 -0.45221497713E+02  0.19892836382E+04  0.19887695717E+04 0.  0.
        2    1    3    3  502    0  0.32907711259E+03  0.16483545974E+03 -0.94661282380E+03  0.10156467462E+04  0.25500000920E-02 0.  1.
       -2    1    3    3    0  502 -0.32907711259E+03 -0.16483545974E+03  0.90139132609E+03  0.97363689206E+03  0.25500000920E-02 0. -1.
</event>
<event>
 5   0  0.9220260E-06  0.2007930E+04  0.7818609E-02  0.8602922E-01
        1   -1    0    0  501    0  0.00000000000E+00  0.00000000000E+00  0.93149678210E+03  0.93149678212E+03  0.50400001928E-02 0. -1.
       -1   -1    0    0    0  501  0.00000000000E+00  0.00000000000E+00 -0.10820707950E+04  0.10820707950E+04  0.50400001928E-02 0.  1.
    10030    2    1    2    0    0  0.00000000000E+00  0.00000000000E+00 -0.15057401288E+03  0.20135675771E+04  0.20079297433E+04 0.  0.
        3    1    3    3  502    0  0.31911395036E+03 -0.36061144004E+03  0.80813550199E+03  0.94072170369E+03  0.10100000352E+00 0. -1.
       -3    1    3    3    0  502 -0.31911395036E+03  0.36061144004E+03 -0.95870951487E+03  0.10728458734E+04  0.10100000352E+00 0.  1.
</event>
<event>
 5   0  0.9140695E-06  0.1999924E+04  0.7818609E-02  0.8606656E-01
        1   -1    0    0  501    0  0.00000000000E+00  0.00000000000E+00  0.90402535093E+03  0.90402535095E+03  0.50400001928E-02 0. -1.
       -1   -1    0    0    0  501  0.00000000000E+00  0.00000000000E+00 -0.11060793087E+04  0.11060793088E+04  0.50400001928E-02 0.  1.
    10030    2    1    2    0    0  0.00000000000E+00  0.00000000000E+00 -0.20205395782E+03  0.20101046597E+04  0.19999237338E+04 0.  0.
        1    1    3    3  502    0 -0.78419218597E+03 -0.36297072321E+03 -0.60679695141E+03  0.10558918840E+04  0.50400001928E-02 0. -1.
       -1    1    3    3    0  502  0.78419218597E+03  0.36297072321E+03  0.40474299359E+03  0.95421277571E+03  0.50400001928E-02 0.  1.
</event>
<event>
 5   0  0.9333353E-06  0.1997679E+04  0.7818609E-02  0.8607706E-01
       -1   -1    0    0    0  501  0.00000000000E+00  0.00000000000E+00  0.95739433479E+03  0.95739433480E+03  0.50400001928E-02 0.  1.
        1   -1    0    0  501    0  0.00000000000E+00  0.00000000000E+00 -0.10420789992E+04  0.10420789992E+04  0.50400001928E-02 0. -1.
    10030    2    1    2    0    0  0.00000000000E+00  0.00000000000E+00 -0.84684664404E+02  0.19994733340E+04  0.19976791837E+04 0.  0.
        2    1    3    3  502    0  0.63264125374E+03 -0.57485891872E+03  0.47482550998E+03  0.97783280642E+03  0.25500000920E-02 0.  1.
       -2    1    3    3    0  502 -0.63264125374E+03  0.57485891872E+03 -0.55951017438E+03  0.10216405276E+04  0.25500000920E-02 0. -1.
</event>
<event>
 5   0  0.2038882E-05  0.2000141E+04  0.7818609E-02  0.8606555E-01
        2   -1    0    0  501    0  0.00000000000E+00  0.00000000000E+00  0.16819324270E+04  0.16819324271E+04  0.25500000920E-02 0. -1.
       -2   -1    0    0    0  501  0.00000000000E+00  0.00000000000E+00 -0.59463823167E+03  0.59463823168E+03  0.25500000920E-02 0.  1.
    10030    2    1    2    0    0  0.00000000000E+00  0.00000000000E+00  0.10872941954E+04  0.22765706587E+04  0.20001413192E+04 0.  0.
        3    1    3    3  502    0 -0.80849667725E+03 -0.56982066731E+03  0.37567472205E+03  0.10580614240E+04  0.10100000352E+00 0.  1.
       -3    1    3    3    0  502  0.80849667725E+03  0.56982066731E+03  0.71161947333E+03  0.12185092347E+04  0.10100000352E+00 0. -1.
</event>
<event>
 5   0  0.9333353E-06  0.1998458E+04  0.7818609E-02  0.8607342E-01
       -1   -1    0    0    0  501  0.00000000000E+00  0.00000000000E+00  0.73727555285E+03  0.73727555287E+03  0.50400001928E-02 0. -1.
        1   -1    0    0  501    0  0.00000000000E+00  0.00000000000E+00 -0.13542544043E+04  0.13542544043E+04  0.50400001928E-02 0.  1.
    10030    2    1    2    0    0  0.00000000000E+00  0.00000000000E+00 -0.61697885143E+03  0.20915299572E+04  0.19984580703E+04 0.  0.
        2    1    3    3  502    0  0.81571020748E+03 -0.54474719456E+03 -0.10901926664E+03  0.98692342615E+03  0.25500000920E-02 0.  1.
       -2    1    3    3    0  502 -0.81571020748E+03  0.54474719456E+03 -0.50795958479E+03  0.11046065310E+04  0.25500000920E-02 0. -1.
</event>
<event>
 5   0  0.2020029E-05  0.2004109E+04  0.7818609E-02  0.8604702E-01
       -2   -1    0    0    0  501  0.00000000000E+00  0.00000000000E+00  0.68865931988E+03  0.68865931988E+03  0.25500000920E-02 0. -1.
        2   -1    0    0  501    0  0.00000000000E+00  0.00000000000E+00 -0.14580693408E+04  0.14580693408E+04  0.25500000920E-02 0.  1.
    10030    2    1    2    0    0  0.00000000000E+00  0.00000000000E+00 -0.76941002091E+03  0.21467286607E+04  0.20041088200E+04 0.  0.
        5    1    3    3  502    0  0.54831864228E+03 -0.16531704495E+03 -0.12654777364E+04  0.13890424940E+04  0.46999998093E+01 0.  1.
       -5    1    3    3    0  502 -0.54831864228E+03  0.16531704495E+03  0.49606771548E+03  0.75768616668E+03  0.46999998093E+01 0. -1.
</event>
<event>
 5   0  0.1999142E-05  0.2002252E+04  0.7818609E-02  0.8605569E-01
       -2   -1    0    0    0  501  0.00000000000E+00  0.00000000000E+00  0.86139038526E+03  0.86139038526E+03  0.25500000920E-02 0. -1.
        2   -1    0    0  501    0  0.00000000000E+00  0.00000000000E+00 -0.11635294919E+04  0.11635294919E+04  0.25500000920E-02 0.  1.
    10030    2    1    2    0    0  0.00000000000E+00  0.00000000000E+00 -0.30213910660E+03  0.20249198771E+04  0.20022518495E+04 0.  0.
        1    1    3    3  502    0  0.83800590674E+03 -0.10899321528E+03 -0.69391426876E+03  0.10934580162E+04  0.50400001928E-02 0.  1.
       -1    1    3    3    0  502 -0.83800590674E+03  0.10899321528E+03  0.39177516216E+03  0.93146186095E+03  0.50400001928E-02 0. -1.
</event>
<event>
 5   0  0.9342635E-06  0.2001467E+04  0.7818609E-02  0.8605935E-01
        1   -1    0    0  501    0  0.00000000000E+00  0.00000000000E+00  0.13143263401E+04  0.13143263401E+04  0.50400001928E-02 0. -1.
       -1   -1    0    0    0  501  0.00000000000E+00  0.00000000000E+00 -0.76196265161E+03  0.76196265163E+03  0.50400001928E-02 0.  1.
    10030    2    1    2    0    0  0.00000000000E+00  0.00000000000E+00  0.55236368844E+03  0.20762889917E+04  0.20014670451E+04 0.  0.
        5    1    3    3  502    0  0.42734787550E+03  0.11890864896E+03 -0.65439226792E+03  0.79058004263E+03  0.46999998093E+01 0.  1.
       -5    1    3    3    0  502 -0.42734787550E+03 -0.11890864896E+03  0.12067559564E+04  0.12857089491E+04  0.46999998093E+01 0. -1.
</event>
<event>
 5   0  0.9220260E-06  0.1997987E+04  0.7818609E-02  0.8607562E-01
       -1   -1    0    0    0  501  0.00000000000E+00  0.00000000000E+00  0.32314423677E+03  0.32314423681E+03  0.50400001928E-02 0.  1.
        1   -1    0    0  501    0  0.00000000000E+00  0.00000000000E+00 -0.30883669086E+04  0.30883669086E+04  0.50400001928E-02 0. -1.
    10030    2    1    2    0    0  0.00000000000E+00  0.00000000000E+00 -0.27652226718E+04  0.34115111454E+04  0.19979869545E+04 0.  0.
        3    1    3    3  502    0 -0.16637257859E+03 -0.72783186853E+03 -0.24926913210E+03  0.78711763681E+03  0.10100000352E+00 0.  1.
       -3    1    3    3    0  502  0.16637257859E+03  0.72783186853E+03 -0.25159535397E+04  0.26243935086E+04  0.10100000352E+00 0. -1.
</event>
<event>
 5   0  0.9370269E-06  0.2001194E+04  0.7818609E-02  0.8606063E-01
        1   -1    0    0  501    0  0.00000000000E+00  0.00000000000E+00  0.98682035783E+03  0.98682035785E+03  0.50400001928E-02 0. -1.
       -1   -1    0    0    0  501  0.00000000000E+00  0.00000000000E+00 -0.10145656090E+04  0.10145656090E+04  0.50400001928E-02 0.  1.
    10030    2    1    2    0    0  0.00000000000E+00  0.00000000000E+00 -0.27745251203E+02  0.20013859669E+04  0.20011936412E+04 0.  0.
        4    1    3    3  502    0  0.19176112117E+03  0.29714182370E+03  0.92223378010E+03  0.98771572279E+03  0.12699999809E+01 0. -1.
       -4    1    3    3    0  502 -0.19176112117E+03 -0.29714182370E+03 -0.94997903130E+03  0.10136702441E+04  0.12699999809E+01 0.  1.
</event>
<event>
 5   0  0.9342635E-06  0.2004598E+04  0.7818609E-02  0.8604474E-01
        1   -1    0    0  501    0  0.00000000000E+00  0.00000000000E+00  0.13651270118E+04  0.13651270118E+04  0.50400001928E-02 0. -1.
       -1   -1    0    0    0  501  0.00000000000E+00  0.00000000000E+00 -0.73590493071E+03  0.73590493073E+03  0.50400001928E-02 0.  1.
    10030    2    1    2    0    0  0.00000000000E+00  0.00000000000E+00  0.62922208110E+03  0.21010319425E+04  0.20045984127E+04 0.  0.
        5    1    3    3  502    0 -0.71963143707E+03  0.36083686901E+03  0.94041815533E+03  0.12379341857E+04  0.46999998093E+01 0. -1.
       -5    1    3    3    0  502  0.71963143707E+03 -0.36083686901E+03 -0.31119607423E+03  0.86309775684E+03  0.46999998093E+01 0.  1.
</event>
<event>
 5   0  0.1979765E-05  0.1989849E+04  0.7818609E-02  0.8611381E-01
        2   -1    0    0  501    0  0.00000000000E+00  0.00000000000E+00  0.22961606008E+04  0.22961606008E+04  0.25500000920E-02 0.  1.
       -2   -1    0    0    0  501  0.00000000000E+00  0.00000000000E+00 -0.43109986158E+03  0.43109986159E+03  0.25500000920E-02 0. -1.
    10030    2    1    2    0    0  0.00000000000E+00  0.00000000000E+00  0.18650607392E+04  0.27272604624E+04  0.19898487552E+04 0.  0.
        2    1    3    3  502    0  0.75680347267E+03 -0.61344013967E+03  0.65563717758E+03  0.11742744185E+04  0.25500000920E-02 0.  1.
       -2    1    3    3    0  502 -0.75680347267E+03  0.61344013967E+03  0.12094235616E+04  0.15529860439E+04  0.25500000920E-02 0. -1.
</event>
<event>
 5   0  0.9333353E-06  0.2002778E+04  0.7818609E-02  0.8605323E-01
       -1   -1    0    0    0  501  0.00000000000E+00  0.00000000000E+00  0.92607546183E+03  0.92607546184E+03  0.50400001928E-02 0.  1.
        1   -1    0    0  501    0  0.00000000000E+00  0.00000000000E+00 -0.10828276104E+04  0.10828276104E+04  0.50400001928E-02 0. -1.
    10030    2    1    2    0    0  0.00000000000E+00  0.00000000000E+00 -0.15675214855E+03  0.20089030722E+04  0.20027781498E+04 0.  0.
        2    1    3    3  502    0 -0.95415963832E+03 -0.23795647438E+03 -0.26799435452E+03  0.10192472091E+04  0.25500000920E-02 0. -1.
       -2    1    3    3    0  502  0.95415963832E+03  0.23795647438E+03  0.11124220598E+03  0.98965586317E+03  0.25500000920E-02 0.  1.
</event>
<event>
 5   0  0.2020029E-05  0.1996310E+04  0.7818609E-02  0.8608348E-01
       -2   -1    0    0    0  501  0.00000000000E+00  0.00000000000E+00  0.64673201886E+03  0.64673201886E+03  0.25500000920E-02 0. -1.
        2   -1    0    0  501    0  0.00000000000E+00  0.00000000000E+00 -0.15405356885E+04  0.15405356885E+04  0.25500000920E-02 0.  1.
    10030    2    1    2    0    0  0.00000000000E+00  0.00000000000E+00 -0.89380366966E+03  0.21872677074E+04  0.19963103526E+04 0.  0.
        5    1    3    3  502    0  0.72072828377E+03 -0.27847185892E+03  0.24544110828E+03  0.81071527855E+03  0.46999998093E+01 0. -1.
       -5    1    3    3    0  502 -0.72072828377E+03  0.27847185892E+03 -0.11392447779E+04  0.13765524288E+04  0.46999998093E+01 0.  1.
</event>
<event>
 5   0  0.9140695E-06  0.2005392E+04  0.7818609E-02  0.8604104E-01
       -1   -1    0    0    0  501  0.00000000000E+00  0.00000000000E+00  0.97872764882E+03  0.97872764883E+03  0.50400001928E-02 0. -1.
        1   -1    0    0  501    0  0.00000000000E+00  0.00000000000E+00 -0.10272514876E+04  0.10272514876E+04  0.50400001928E-02 0.  1.
    10030    2    1    2    0    0  0.00000000000E+00  0.00000000000E+00 -0.48523838740E+02  0.20059791364E+04  0.20053921643E+04 0.  0.
        1    1    3    3  502    0 -0.65287666461E+03  0.29453535180E+03 -0.72617979979E+03  0.10199686830E+04  0.50400001928E-02 0.  1.
       -1    1    3    3    0  502  0.65287666461E+03 -0.29453535180E+03  0.67765596105E+03  0.98601045340E+03  0.50400001928E-02 0. -1.
</event>
<event>
 5   0  0.2038882E-05  0.1999264E+04  0.7818609E-02  0.8606965E-01
        2   -1    0    0  501    0  0.00000000000E+00  0.00000000000E+00  0.96936552792E+03  0.96936552792E+03  0.25500000920E-02 0.  1.
       -2   -1    0    0    0  501  0.00000000000E+00  0.00000000000E+00 -0.10308436485E+04  0.10308436485E+04  0.25500000920E-02 0. -1.
    10030    2    1    2    0    0  0.00000000000E+00  0.00000000000E+00 -0.61478120560E+02  0.20002091764E+04  0.19992641622E+04 0.  0.
        3    1    3    3  502    0 -0.49508679640E+03 -0.56636247849E+03  0.62789338552E+03  0.97986096299E+03  0.10100000352E+00 0.  1.
       -3    1    3    3    0  502  0.49508679640E+03  0.56636247849E+03 -0.68937150608E+03  0.10203482134E+04  0.10100000352E+00 0. -1.
</event>
<event>
 5   0  0.2020029E-05  0.1996803E+04  0.7818609E-02  0.8608117E-01
       -2   -1    0    0    0  501  0.00000000000E+00  0.00000000000E+00  0.59884164477E+03  0.59884164477E+03  0.25500000920E-02 0.  1.
        2   -1    0    0  501    0  0.00000000000E+00  0.00000000000E+00 -0.16645556687E+04  0.16645556687E+04  0.25500000920E-02 0. -1.
    10030    2    1    2    0    0  0.00000000000E+00  0.00000000000E+00 -0.10657140239E+04  0.22633973134E+04  0.19968026988E+04 0.  0.
        5    1    3    3  502    0  0.52943725723E+02 -0.63945350821E+03 -0.13998848094E+04  0.15399361665E+04  0.46999998093E+01 0. -1.
       -5    1    3    3    0  502 -0.52943725723E+02  0.63945350821E+03  0.33417078552E+03  0.72346114695E+03  0.46999998093E+01 0.  1.
</event>
<event>
 5   0  0.2020029E-05  0.2001901E+04  0.7818609E-02  0.8605732E-01
        2   -1    0    0  501    0  0.00000000000E+00  0.00000000000E+00  0.94265412594E+03  0.94265412594E+03  0.25500000920E-02 0.  1.
       -2   -1    0    0    0  501  0.00000000000E+00  0.00000000000E+00 -0.10628524023E+04  0.10628524023E+04  0.25500000920E-02 0. -1.
    10030    2    1    2    0    0  0.00000000000E+00  0.00000000000E+00 -0.12019827639E+03  0.20055065283E+04  0.20019012986E+04 0.  0.
        5    1    3    3  502    0 -0.55288780389E+03  0.67971386994E+03 -0.54489650749E+03  0.10318091696E+04  0.46999998093E+01 0. -1.
       -5    1    3    3    0  502  0.55288780389E+03 -0.67971386994E+03  0.42469823111E+03  0.97369735862E+03  0.46999998093E+01 0.  1.
</event>
<event>
 5   0  0.2038882E-05  0.2003313E+04  0.7818609E-02  0.8605073E-01
        2   -1    0    0  501    0  0.00000000000E+00  0.00000000000E+00  0.14070082712E+04  0.14070082712E+04  0.25500000920E-02 0. -1.
       -2   -1    0    0    0  501  0.00000000000E+00  0.00000000000E+00 -0.71308473954E+03  0.71308473955E+03  0.25500000920E-02 0.  1.
    10030    2    1    2    0    0  0.00000000000E+00  0.00000000000E+00  0.69392353164E+03  0.21200930107E+04  0.20033133820E+04 0.  0.
        3    1    3    3  502    0  0.64554151492E+03  0.61976365033E+03  0.82317642257E+03  0.12159154011E+04  0.10100000352E+00 0. -1.
       -3    1    3    3    0  502 -0.64554151492E+03 -0.61976365033E+03 -0.12925289093E+03  0.90417760964E+03  0.10100000352E+00 0.  1.
</event>
<event>
 5   0  0.9140695E-06  0.1999851E+04  0.7818609E-02  0.8606690E-01
       -1   -1    0    0    0  501  0.00000000000E+00  0.00000000000E+00  0.11312875338E+04  0.11312875338E+04  0.50400001928E-02 0.  1.
        1   -1    0    0  501    0  0.00000000000E+00  0.00000000000E+00 -0.88381694192E+03  0.88381694194E+03  0.50400001928E-02 0. -1.
    10030    2    1    2    0    0  0.00000000000E+00  0.00000000000E+00  0.24747059191E+03  0.20151044758E+04  0.19998510831E+04 0.  0.
        1    1    3    3  502    0  0.79944075191E+02  0.99482755032E+03  0.61799581790E+02  0.99994604773E+03  0.50400001928E-02 0.  1.
       -1    1    3    3    0  502 -0.79944075191E+02 -0.99482755032E+03  0.18567101012E+03  0.10151584281E+04  0.50400001928E-02 0. -1.
</event>
<event>
 5   0  0.9370269E-06  0.1999567E+04  0.7818609E-02  0.8606823E-01
        1   -1    0    0  501    0  0.00000000000E+00  0.00000000000E+00  0.15172671350E+04  0.15172671350E+04  0.50400001928E-02 0.  1.
       -1   -1    0    0    0  501  0.00000000000E+00  0.00000000000E+00 -0.65879408908E+03  0.65879408910E+03  0.50400001928E-02 0. -1.
    10030    2    1    2    0    0  0.00000000000E+00  0.00000000000E+00  0.85847304590E+03  0.21760612241E+04  0.19995665732E+04 0.  0.
        4    1    3    3  502    0 -0.76419683132E+03 -0.41156243906E+03  0.96920157984E+03  0.13010510188E+04  0.12699999809E+01 0.  1.
       -4    1    3    3    0  502  0.76419683132E+03  0.41156243906E+03 -0.11072853394E+03  0.87501020530E+03  0.12699999809E+01 0. -1.
</event>
<event>
 5   0  0.9342635E-06  0.1999686E+04  0.7818609E-02  0.8606767E-01
       -1   -1    0    0    0  501  0.00000000000E+00  0.00000000000E+00  0.72422448153E+03  0.72422448155E+03  0.50400001928E-02 0.  1.
        1   -1    0    0  501    0  0.00000000000E+00  0.00000000000E+00 -0.13803544433E+04  0.13803544433E+04  0.50400001928E-02 0. -1.
    10030    2    1    2    0    0  0.00000000000E+00  0.00000000000E+00 -0.65612996177E+03  0.21045789249E+04  0.19996864565E+04 0.  0.
        5    1    3    3  502    0 -0.16397857398E+03 -0.14149993954E+03 -0.13553560596E+04  0.13725608708E+04  0.46999998093E+01 0. -1.
       -5    1    3    3    0  502  0.16397857398E+03  0.14149993954E+03  0.69922609785E+03  0.73201805410E+03  0.46999998093E+01 0.  1.
</event>
<event>
 5   0  0.1979765E-05  0.1999288E+04  0.7818609E-02  0.8606954E-01
        2   -1    0    0  501    0  0.00000000000E+00  0.00000000000E+00  0.18733706988E+04  0.18733706988E+04  0.25500000920E-02 0. -1.
       -2   -1    0    0    0  501  0.00000000000E+00  0.00000000000E+00 -0.53341704170E+03  0.53341704170E+03  0.25500000920E-02 0.  1.
    10030    2    1    2    0    0  0.00000000000E+00  0.00000000000E+00  0.13399536571E+04  0.24067877405E+04  0.19992877293E+04 0.  0.
        2    1    3    3  502    0 -0.97894809422E+03 -0.35789880857E+02  0.90973879128E+03  0.13368788109E+04  0.25500000920E-02 0. -1.
       -2    1    3    3    0  502  0.97894809422E+03  0.35789880857E+02  0.43021486577E+03  0.10699089295E+04  0.25500000920E-02 0.  1.
</event>
<event>
 5   0  0.9220260E-06  0.1996904E+04  0.7818609E-02  0.8608070E-01
       -1   -1    0    0    0  501  0.00000000000E+00  0.00000000000E+00  0.82501752502E+03  0.82501752503E+03  0.50400001928E-02 0.  1.
        1   -1    0    0  501    0  0.00000000000E+00  0.00000000000E+00 -0.12083455259E+04  0.12083455260E+04  0.50400001928E-02 0. -1.
    10030    2    1    2    0    0  0.00000000000E+00  0.00000000000E+00 -0.38332800092E+03  0.20333630510E+04  0.19969038387E+04 0.  0.
        3    1    3    3  502    0 -0.58987808065E+03 -0.47454551508E+03  0.47118717128E+03  0.89172134465E+03  0.10100000352E+00 0.  1.
       -3    1    3    3    0  502  0.58987808065E+03  0.47454551508E+03 -0.85451517221E+03  0.11416417063E+04  0.10100000352E+00 0. -1.
</event>
<event>
 5   0  0.9370269E-06  0.1999209E+04  0.7818609E-02  0.8606990E-01
        1   -1    0    0  501    0  0.00000000000E+00  0.00000000000E+00  0.11078693233E+04  0.11078693233E+04  0.50400001928E-02 0.  1.
       -1   -1    0    0    0  501  0.00000000000E+00  0.00000000000E+00 -0.90192005214E+03  0.90192005216E+03  0.50400001928E-02 0. -1.
    10030    2    1    2    0    0  0.00000000000E+00  0.00000000000E+00  0.20594927116E+03  0.20097893755E+04  0.19992094016E+04 0.  0.
        4    1    3    3  502    0  0.73046288212E+03  0.30000397618E+03  0.71910431292E+03  0.10680313823E+04  0.12699999809E+01 0.  1.
       -4    1    3    3    0  502 -0.73046288212E+03 -0.30000397618E+03 -0.51315504176E+03  0.94175799315E+03  0.12699999809E+01 0. -1.
</event>
<event>
 5   0  0.2003576E-05  0.1987442E+04  0.7818609E-02  0.8612514E-01
        2   -1    0    0  501    0  0.00000000000E+00  0.00000000000E+00  0.14992249876E+04  0.14992249876E+04  0.25500000920E-02 0. -1.
       -2   -1    0    0    0  501  0.00000000000E+00  0.00000000000E+00 -0.65866152262E+03  0.65866152262E+03  0.25500000920E-02 0.  1.
    10030    2    1    2    0    0  0.00000000000E+00  0.00000000000E+00  0.84056346495E+03  0.21578865102E+04  0.19874423897E+04 0.  0.
        4    1    3    3  502    0 -0.17409335663E+03  0.82965206609E+03  0.98325579643E+03  0.12982390464E+04  0.12699999809E+01 0. -1.
       -4    1    3    3    0  502  0.17409335663E+03 -0.82965206609E+03 -0.14269233147E+03  0.85964746376E+03  0.12699999809E+01 0.  1.
</event>
<event>
 5   0  0.9370269E-06  0.2000246E+04  0.7818609E-02  0.8606506E-01
       -1   -1    0    0    0  501  0.00000000000E+00  0.00000000000E+00  0.10273368260E+04  0.10273368260E+04  0.50400001928E-02 0. -1.
        1   -1    0    0  501    0  0.00000000000E+00  0.00000000000E+00 -0.97363032832E+03  0.97363032833E+03  0.50400001928E-02 0.  1.
    10030    2    1    2    0    0  0.00000000000E+00  0.00000000000E+00  0.53706497676E+02  0.20009671543E+04  0.20002462761E+04 0.  0.
        4    1    3    3  502    0  0.37311640939E+03  0.88835200264E+03  0.29501616145E+03  0.10076811420E+04  0.12699999809E+01 0. -1.
       -4    1    3    3    0  502 -0.37311640939E+03 -0.88835200264E+03 -0.24130966377E+03  0.99328601233E+03  0.12699999809E+01 0.  1.
</event>
<event>
 5   0  0.9370269E-06  0.2001174E+04  0.7818609E-02  0.8606072E-01
        1   -1    0    0  501    0  0.00000000000E+00  0.00000000000E+00  0.20464434758E+04  0.20464434758E+04  0.50400001928E-02 0.  1.
       -1   -1    0    0    0  501  0.00000000000E+00  0.00000000000E+00 -0.48922634722E+03  0.48922634724E+03  0.50400001928E-02 0. -1.
    10030    2    1    2    0    0  0.00000000000E+00  0.00000000000E+00  0.15572171285E+04  0.25356698230E+04  0.20011737221E+04 0.  0.
        4    1    3    3  502    0 -0.48542264008E+03 -0.78637516784E+03  0.29254829419E+03  0.96933335929E+03  0.12699999809E+01 0. -1.
       -4    1    3    3    0  502  0.48542264008E+03  0.78637516784E+03  0.12646688344E+04  0.15663364637E+04  0.12699999809E+01 0.  1.
</event>
<event>
 5   0  0.9140695E-06  0.1997399E+04  0.7818609E-02  0.8607838E-01
       -1   -1    0    0    0  501  0.00000000000E+00  0.00000000000E+00  0.59145655795E+03  0.59145655797E+03  0.50400001928E-02 0. -1.
        1   -1    0    0  501    0  0.00000000000E+00  0.00000000000E+00 -0.16863463011E+04  0.16863463011E+04  0.50400001928E-02 0.  1.
    10030    2    1    2    0    0  0.00000000000E+00  0.00000000000E+00 -0.10948897431E+04  0.22778028590E+04  0.19973988873E+04 0.  0.
        1    1    3    3  502    0  0.50275404712E+02  0.99732768250E+03 -0.53090119075E+03  0.11309492460E+04  0.50400001928E-02 0.  1.
       -1    1    3    3    0  502 -0.50275404712E+02 -0.99732768250E+03 -0.56398855235E+03  0.11468536131E+04  0.50400001928E-02 0. -1.
</event>
<event>
 5   0  0.1999142E-05  0.2003063E+04  0.7818609E-02  0.8605190E-01
       -2   -1    0    0    0  501  0.00000000000E+00  0.00000000000E+00  0.66600763778E+03  0.66600763778E+03  0.25500000920E-02 0.  1.
        2   -1    0    0  501    0  0.00000000000E+00  0.00000000000E+00 -0.15060872978E+04  0.15060872978E+04  0.25500000920E-02 0. -1.
    10030    2    1    2    0    0  0.00000000000E+00  0.00000000000E+00 -0.84007965999E+03  0.21720949356E+04  0.20030632975E+04 0.  0.
        1    1    3    3  502    0 -0.37294038985E+03 -0.15534341989E+03  0.57372785783E+03  0.70169777494E+03  0.50400001928E-02 0.  1.
       -1    1    3    3    0  502  0.37294038985E+03  0.15534341989E+03 -0.14138075178E+04  0.14703971606E+04  0.50400001928E-02 0. -1.
</event>
<event>
 5   0  0.9220260E-06  0.2003617E+04  0.7818609E-02  0.8604932E-01
        1   -1    0    0  501    0  0.00000000000E+00  0.00000000000E+00  0.67952033046E+03  0.67952033048E+03  0.50400001928E-02 0.  1.
       -1   -1    0    0    0  501  0.00000000000E+00  0.00000000000E+00 -0.14769534535E+04  0.14769534535E+04  0.50400001928E-02 0. -1.
    10030    2    1    2    0    0  0.00000000000E+00  0.00000000000E+00 -0.79743312301E+03  0.21564737840E+04  0.20036166288E+04 0.  0.
        3    1    3    3  502    0  0.29243602879E+03 -0.84614976791E+03 -0.88260661183E+03  0.12571725029E+04  0.10100000352E+00 0. -1.
       -3    1    3    3    0  502 -0.29243602879E+03  0.84614976791E+03  0.85173488822E+02  0.89930128103E+03  0.10100000352E+00 0.  1.
</event>
<event>
 5   0  0.1979765E-05  0.1997734E+04  0.7818609E-02  0.8607681E-01
        2   -1    0    0  501    0  0.00000000000E+00  0.00000000000E+00  0.59605260281E+03  0.59605260282E+03  0.25500000920E-02 0. -1.
       -2   -1    0    0    0  501  0.00000000000E+00  0.00000000000E+00 -0.16739043404E+04  0.16739043404E+04  0.25500000920E-02 0.  1.
    10030    2    1    2    0    0  0.00000000000E+00  0.00000000000E+00 -0.10778517376E+04  0.22699569433E+04  0.19977337550E+04 0.  0.
        2    1    3    3  502    0 -0.89336123446E+03  0.10681230205E+03 -0.10319027999E+04  0.13690604631E+04  0.25500000920E-02 0.  1.
       -2    1    3    3    0  502  0.89336123446E+03 -0.10681230205E+03 -0.45948937703E+02  0.90089648017E+03  0.25500000920E-02 0. -1.
</event>
<event>
 5   0  0.2038882E-05  0.2001174E+04  0.7818609E-02  0.8606072E-01
       -2   -1    0    0    0  501  0.00000000000E+00  0.00000000000E+00  0.83510450266E+03  0.83510450266E+03  0.25500000920E-02 0. -1.
        2   -1    0    0  501    0  0.00000000000E+00  0.00000000000E+00 -0.11988613329E+04  0.11988613329E+04  0.25500000920E-02 0.  1.
    10030    2    1    2    0    0  0.00000000000E+00  0.00000000000E+00 -0.36375683024E+03  0.20339658356E+04  0.20011741525E+04 0.  0.
        3    1    3    3  502    0 -0.83765530478E+03 -0.52292889245E+03 -0.17822688052E+02  0.98764299956E+03  0.10100000352E+00 0. -1.
       -3    1    3    3    0  502  0.83765530478E+03  0.52292889245E+03 -0.34593414218E+03  0.10463228360E+04  0.10100000352E+00 0.  1.
</event>
<event>
 5   0  0.7132000E-06  0.2001258E+04  0.7818609E-02  0.8606033E-01
        3   -1    0    0  501    0  0.00000000000E+00  0.00000000000E+00  0.76118321509E+03  0.76118322179E+03  0.10100000352E+00 0.  1.
       -3   -1    0    0    0  501  0.00000000000E+00  0.00000000000E+00 -0.13153976732E+04  0.13153976771E+04  0.10100000352E+00 0. -1.
    10030    2    1    2    0    0  0.00000000000E+00  0.00000000000E+00 -0.55421445815E+03  0.20765808989E+04  0.20012582452E+04 0.  0.
        1    1    3    3  502    0 -0.50636153042E+03  0.86244483598E+03 -0.24355530895E+03  0.10293358456E+04  0.50400001928E-02 0. -1.
       -1    1    3    3    0  502  0.50636153042E+03 -0.86244483598E+03 -0.31065914920E+03  0.10472450533E+04  0.50400001928E-02 0.  1.
</event>
<event>
 5   0  0.9342635E-06  0.1994550E+04  0.7818609E-02  0.8609173E-01
       -1   -1    0    0    0  501  0.00000000000E+00  0.00000000000E+00  0.94258656631E+03  0.94258656633E+03  0.50400001928E-02 0.  1.
        1   -1    0    0  501    0  0.00000000000E+00  0.00000000000E+00 -0.10551362333E+04  0.10551362333E+04  0.50400001928E-02 0. -1.
    10030    2    1    2    0    0  0.00000000000E+00  0.00000000000E+00 -0.11254966699E+03  0.19977227996E+04  0.19945498130E+04 0.  0.
        5    1    3    3  502    0 -0.39193725344E+03 -0.84541347501E+03  0.29953161362E+03  0.97881562713E+03  0.46999998093E+01 0.  1.
       -5    1    3    3    0  502  0.39193725344E+03  0.84541347501E+03 -0.41208128062E+03  0.10189071725E+04  0.46999998093E+01 0. -1.
</event>
<event>
 5   0  0.2003576E-05  0.2002041E+04  0.7818609E-02  0.8605667E-01
       -2   -1    0    0    0  501  0.00000000000E+00  0.00000000000E+00  0.83373463235E+03  0.83373463236E+03  0.25500000920E-02 0. -1.
        2   -1    0    0  501    0  0.00000000000E+00  0.00000000000E+00 -0.12018716021E+04  0.12018716021E+04  0.25500000920E-02 0.  1.
    10030    2    1    2    0    0  0.00000000000E+00  0.00000000000E+00 -0.36813696978E+03  0.20356062345E+04  0.20020409370E+04 0.  0.
        4    1    3    3  502    0 -0.18817931588E+03  0.98293402251E+03 -0.20610247493E+03  0.10217879382E+04  0.12699999809E+01 0. -1.
       -4    1    3    3    0  502  0.18817931588E+03 -0.98293402251E+03 -0.16203449485E+03  0.10138182963E+04  0.12699999809E+01 0.  1.
</event>
<event>
 5   0  0.2003576E-05  0.2002908E+04  0.7818609E-02  0.8605262E-01
        2   -1    0    0  501    0  0.00000000000E+00  0.00000000000E+00  0.22447020576E+04  0.22447020576E+04  0.25500000920E-02 0. -1.
       -2   -1    0    0    0  501  0.00000000000E+00  0.00000000000E+00 -0.44678987520E+03  0.44678987521E+03  0.25500000920E-02 0.  1.
    10030    2    1    2    0    0  0.00000000000E+00  0.00000000000E+00  0.17979121824E+04  0.26914919329E+04  0.20029080380E+04 0.  0.
        4    1    3    3  502    0 -0.86599609448E+03 -0.23885550792E+03  0.30417461015E+03  0.94843291575E+03  0.12699999809E+01 0.  1.
       -4    1    3    3    0  502  0.86599609448E+03  0.23885550792E+03  0.14937375723E+04  0.17430590171E+04  0.12699999809E+01 0. -1.
</event>
<event>
 5   0  0.1979765E-05  0.1996870E+04  0.7818609E-02  0.8608086E-01
       -2   -1    0    0    0  501  0.00000000000E+00  0.00000000000E+00  0.89043752474E+03  0.89043752474E+03  0.25500000920E-02 0.  1.
        2   -1    0    0  501    0  0.00000000000E+00  0.00000000000E+00 -0.11195304887E+04  0.11195304887E+04  0.25500000920E-02 0. -1.
    10030    2    1    2    0    0  0.00000000000E+00  0.00000000000E+00 -0.22909296394E+03  0.20099680134E+04  0.19968695072E+04 0.  0.
        2    1    3    3  502    0 -0.91130061148E+03 -0.78668911885E+02 -0.51743990122E+03  0.10509051592E+04  0.25500000920E-02 0. -1.
       -2    1    3    3    0  502  0.91130061148E+03  0.78668911885E+02  0.28834693727E+03  0.95906285426E+03  0.25500000920E-02 0.  1.
</event>
<event>
 5   0  0.9342635E-06  0.2002911E+04  0.7818609E-02  0.8605261E-01
        1   -1    0    0  501    0  0.00000000000E+00  0.00000000000E+00  0.16526966350E+04  0.16526966350E+04  0.50400001928E-02 0.  1.
       -1   -1    0    0    0  501  0.00000000000E+00  0.00000000000E+00 -0.60683441697E+03  0.60683441699E+03  0.50400001928E-02 0. -1.
    10030    2    1    2    0    0  0.00000000000E+00  0.00000000000E+00  0.10458622180E+04  0.22595310520E+04  0.20029110803E+04 0.  0.
        5    1    3    3  502    0  0.17037369595E+03 -0.27849423182E+03  0.15909637466E+04  0.16241225220E+04  0.46999998093E+01 0.  1.
       -5    1    3    3    0  502 -0.17037369595E+03  0.27849423182E+03 -0.54510152863E+03  0.63540852996E+03  0.46999998093E+01 0. -1.
</event>
<event>
 5   0  0.2038882E-05  0.2000150E+04  0.7818609E-02  0.8606551E-01
        2   -1    0    0  501    0  0.00000000000E+00  0.00000000000E+00  0.11847727806E+04  0.11847727806E+04  0.25500000920E-02 0. -1.
       -2   -1    0    0    0  501  0.00000000000E+00  0.00000000000E+00 -0.84416998761E+03  0.84416998761E+03  0.25500000920E-02 0.  1.
    10030    2    1    2    0    0  0.00000000000E+00  0.00000000000E+00  0.34060279301E+03  0.20289427682E+04  0.20001496179E+04 0.  0.
        3    1    3    3  502    0 -0.93810798097E+02 -0.30907112651E+03 -0.78980354527E+03  0.85329659404E+03  0.10100000352E+00 0.  1.
       -3    1    3    3    0  502  0.93810798097E+02  0.30907112651E+03  0.11304063383E+04  0.11756461742E+04  0.10100000352E+00 0. -1.
</event>
<event>
 5   0  0.9342635E-06  0.1999473E+04  0.7818609E-02  0.8606867E-01
       -1   -1    0    0    0  501  0.00000000000E+00  0.00000000000E+00  0.11617223225E+04  0.11617223225E+04  0.50400001928E-02 0. -1.
        1   -1    0    0  501    0  0.00000000000E+00  0.00000000000E+00 -0.86033760777E+03  0.86033760778E+03  0.50400001928E-02 0.  1.
    10030    2    1    2    0    0  0.00000000000E+00  0.00000000000E+00  0.30138471473E+03  0.20220599303E+04  0.19994733345E+04 0.  0.
        5    1    3    3  502    0 -0.30542849849E+03 -0.78169153061E+03 -0.39869670191E+03  0.92914442732E+03  0.46999998093E+01 0.  1.
       -5    1    3    3    0  502  0.30542849849E+03  0.78169153061E+03  0.70008141664E+03  0.10929155030E+04  0.46999998093E+01 0. -1.
</event>
<event>
 5   0  0.9220260E-06  0.2002719E+04  0.7818609E-02  0.8605351E-01
       -1   -1    0    0    0  501  0.00000000000E+00  0.00000000000E+00  0.81899282503E+03  0.81899282505E+03  0.50400001928E-02 0. -1.
        1   -1    0    0  501    0  0.00000000000E+00  0.00000000000E+00 -0.12243335694E+04  0.12243335694E+04  0.50400001928E-02 0.  1.
    10030    2    1    2    0    0  0.00000000000E+00  0.00000000000E+00 -0.40534074434E+03  0.20433263944E+04  0.20027185611E+04 0.  0.
        3    1    3    3  502    0  0.86583868003E+03 -0.47823570805E+03 -0.36182820655E+03  0.10532358110E+04  0.10100000352E+00 0. -1.
       -3    1    3    3    0  502 -0.86583868003E+03  0.47823570805E+03 -0.43512537799E+02  0.99009058345E+03  0.10100000352E+00 0.  1.
</event>
<event>
 5   0  0.7132000E-06  0.2010284E+04  0.7818609E-02  0.8601828E-01
       -3   -1    0    0    0  501  0.00000000000E+00  0.00000000000E+00  0.50854681310E+03  0.50854682313E+03  0.10100000352E+00 0. -1.
        3   -1    0    0  501    0  0.00000000000E+00  0.00000000000E+00 -0.19866608590E+04  0.19866608616E+04  0.10100000352E+00 0.  1.
    10030    2    1    2    0    0  0.00000000000E+00  0.00000000000E+00 -0.14781140459E+04  0.24952076847E+04  0.20102836260E+04 0.  0.
        2    1    3    3  502    0  0.69801358361E+03  0.20432394155E+03 -0.16001991039E+04  0.17577281952E+04  0.25500000920E-02 0.  1.
       -2    1    3    3    0  502 -0.69801358361E+03 -0.20432394155E+03  0.12208505804E+03  0.73747948948E+03  0.25500000920E-02 0. -1.
</event>
<event>
 5   0  0.2003576E-05  0.1999523E+04  0.7818609E-02  0.8606844E-01
        2   -1    0    0  501    0  0.00000000000E+00  0.00000000000E+00  0.14047151978E+04  0.14047151978E+04  0.25500000920E-02 0.  1.
       -2   -1    0    0    0  501  0.00000000000E+00  0.00000000000E+00 -0.71154868975E+03  0.71154868975E+03  0.25500000920E-02 0. -1.
    10030    2    1    2    0    0  0.00000000000E+00  0.00000000000E+00  0.69316650803E+03  0.21162638875E+04  0.19995232016E+04 0.  0.
        4    1    3    3  502    0 -0.12153039880E+03 -0.52486178853E+03  0.12379364271E+04  0.13500880510E+04  0.12699999809E+01 0.  1.
       -4    1    3    3    0  502  0.12153039880E+03  0.52486178853E+03 -0.54476991909E+03  0.76617583656E+03  0.12699999809E+01 0. -1.
</event>
<event>
 5   0  0.9370269E-06  0.2004189E+04  0.7818609E-02  0.8604665E-01
        1   -1    0    0  501    0  0.00000000000E+00  0.00000000000E+00  0.85952508915E+03  0.85952508916E+03  0.50400001928E-02 0.  1.
       -1   -1    0    0    0  501  0.00000000000E+00  0.00000000000E+00 -0.11683117538E+04  0.11683117538E+04  0.50400001928E-02 0. -1.
    10030    2    1    2    0    0  0.00000000000E+00  0.00000000000E+00 -0.30878666466E+03  0.20278368430E+04  0.20041888777E+04 0.  0.
        4    1    3    3  502    0 -0.31164089526E+03  0.94442979136E+03 -0.29962699667E+02  0.99497088132E+03  0.12699999809E+01 0.  1.
       -4    1    3    3    0  502  0.31164089526E+03 -0.94442979136E+03 -0.27882396500E+03  0.10328659617E+04  0.12699999809E+01 0. -1.
</event>
<event>
 5   0  0.9220260E-06  0.1998092E+04  0.7818609E-02  0.8607513E-01
       -1   -1    0    0    0  501  0.00000000000E+00  0.00000000000E+00  0.53846083566E+03  0.53846083568E+03  0.50400001928E-02 0. -1.
        1   -1    0    0  501    0  0.00000000000E+00  0.00000000000E+00 -0.18536031322E+04  0.18536031323E+04  0.50400001928E-02 0.  1.
    10030    2    1    2    0    0  0.00000000000E+00  0.00000000000E+00 -0.13151422966E+04  0.23920639679E+04  0.19980917813E+04 0.  0.
        3    1    3    3  502    0 -0.95309407055E+03 -0.24191469246E+03 -0.44617019495E+03  0.10798050189E+04  0.10100000352E+00 0. -1.
       -3    1    3    3    0  502  0.95309407055E+03  0.24191469246E+03 -0.86897210164E+03  0.13122589491E+04  0.10100000352E+00 0.  1.
</event>
<event>
 5   0  0.1979765E-05  0.2000444E+04  0.7818609E-02  0.8606413E-01
        2   -1    0    0  501    0  0.00000000000E+00  0.00000000000E+00  0.15705857442E+04  0.15705857442E+04  0.25500000920E-02 0. -1.
       -2   -1    0    0    0  501  0.00000000000E+00  0.00000000000E+00 -0.63698816258E+03  0.63698816259E+03  0.25500000920E-02 0.  1.
    10030    2    1    2    0    0  0.00000000000E+00  0.00000000000E+00  0.93359758160E+03  0.22075739068E+04  0.20004444780E+04 0.  0.
        2    1    3    3  502    0  0.18997748094E+03 -0.60773108328E+03 -0.38444327569E+03  0.74379106279E+03  0.25500000920E-02 0.  1.
       -2    1    3    3    0  502 -0.18997748094E+03  0.60773108328E+03  0.13180408573E+04  0.14637828440E+04  0.25500000920E-02 0. -1.
</event>
<event>
 5   0  0.9220260E-06  0.1997967E+04  0.7818609E-02  0.8607572E-01
       -1   -1    0    0    0  501  0.00000000000E+00  0.00000000000E+00  0.97473401936E+03  0.97473401937E+03  0.50400001928E-02 0. -1.
        1   -1    0    0  501    0  0.00000000000E+00  0.00000000000E+00 -0.10238367036E+04  0.10238367036E+04  0.50400001928E-02 0.  1.
    10030    2    1    2    0    0  0.00000000000E+00  0.00000000000E+00 -0.49102684277E+02  0.19985707230E+04  0.19979674325E+04 0.  0.
        3    1    3    3  502    0 -0.28342031101E+03  0.76721258273E+03  0.54922994519E+03  0.98518818643E+03  0.10100000352E+00 0. -1.
       -3    1    3    3    0  502  0.28342031101E+03 -0.76721258273E+03 -0.59833262947E+03  0.10133825366E+04  0.10100000352E+00 0.  1.
</event>
<event>
 5   0  0.2003576E-05  0.1995495E+04  0.7818609E-02  0.8608730E-01
       -2   -1    0    0    0  501  0.00000000000E+00  0.00000000000E+00  0.53653872981E+03  0.53653872982E+03  0.25500000920E-02 0. -1.
        2   -1    0    0  501    0  0.00000000000E+00  0.00000000000E+00 -0.18554121240E+04  0.18554121240E+04  0.25500000920E-02 0.  1.
    10030    2    1    2    0    0  0.00000000000E+00  0.00000000000E+00 -0.13188733942E+04  0.23919508538E+04  0.19954953914E+04 0.  0.
        4    1    3    3  502    0 -0.97914667273E+03 -0.17132458358E+03 -0.55619372403E+03  0.11390493366E+04  0.12699999809E+01 0. -1.
       -4    1    3    3    0  502  0.97914667273E+03  0.17132458358E+03 -0.76267967012E+03  0.12529015172E+04  0.12699999809E+01 0.  1.
</event>
<event>
 5   0  0.1999142E-05  0.1999014E+04  0.7818609E-02  0.8607082E-01
       -2   -1    0    0    0  501  0.00000000000E+00  0.00000000000E+00  0.40542036342E+03  0.40542036343E+03  0.25500000920E-02 0. -1.
        2   -1    0    0  501    0  0.00000000000E+00  0.00000000000E+00 -0.24641435559E+04  0.24641435559E+04  0.25500000920E-02 0.  1.
    10030    2    1    2    0    0  0.00000000000E+00  0.00000000000E+00 -0.20587231925E+04  0.28695639193E+04  0.19990137328E+04 0.  0.
        1    1    3    3  502    0 -0.13555541741E+03  0.11889506588E+03  0.38188092703E+03  0.42230835930E+03  0.50400001928E-02 0. -1.
       -1    1    3    3    0  502  0.13555541741E+03 -0.11889506588E+03 -0.24406041195E+04  0.24472555600E+04  0.50400001928E-02 0.  1.
</event>
<event>
 5   0  0.1999142E-05  0.2001411E+04  0.7818609E-02  0.8605961E-01
       -2   -1    0    0    0  501  0.00000000000E+00  0.00000000000E+00  0.43352956163E+03  0.43352956164E+03  0.25500000920E-02 0.  1.
        2   -1    0    0  501    0  0.00000000000E+00  0.00000000000E+00 -0.23099045658E+04  0.23099045658E+04  0.25500000920E-02 0. -1.
    10030    2    1    2    0    0  0.00000000000E+00  0.00000000000E+00 -0.18763750041E+04  0.27434341274E+04  0.20014114158E+04 0.  0.
        1    1    3    3  502    0  0.44360365800E+03  0.77291817430E+03 -0.15621801208E+04  0.17984975505E+04  0.50400001928E-02 0. -1.
       -1    1    3    3    0  502 -0.44360365800E+03 -0.77291817430E+03 -0.31419488337E+03  0.94493657687E+03  0.50400001928E-02 0.  1.
</event>
<event>
 5   0  0.2038882E-05  0.1998085E+04  0.7818609E-02  0.8607516E-01
       -2   -1    0    0    0  501  0.00000000000E+00  0.00000000000E+00  0.67187946085E+03  0.67187946085E+03  0.25500000920E-02 0.  1.
        2   -1    0    0  501    0  0.00000000000E+00  0.00000000000E+00 -0.14855137350E+04  0.14855137350E+04  0.25500000920E-02 0. -1.
    10030    2    1    2    0    0  0.00000000000E+00  0.00000000000E+00 -0.81363427417E+03  0.21573931959E+04  0.19980852508E+04 0.  0.
        3    1    3    3  502    0  0.53915605891E+03  0.49873125245E+03  0.32442740288E+03  0.80291672542E+03  0.10100000352E+00 0.  1.
       -3    1    3    3    0  502 -0.53915605891E+03 -0.49873125245E+03 -0.11380616770E+04  0.13544764704E+04  0.10100000352E+00 0. -1.
</event>
<event>
 5   0  0.2020029E-05  0.2020370E+04  0.7818609E-02  0.8597156E-01
        2   -1    0    0  501    0  0.00000000000E+00  0.00000000000E+00  0.14337627921E+04  0.14337627921E+04  0.25500000920E-02 0. -1.
       -2   -1    0    0    0  501  0.00000000000E+00  0.00000000000E+00 -0.71174541920E+03  0.71174541921E+03  0.25500000920E-02 0.  1.
    10030    2    1    2    0    0  0.00000000000E+00  0.00000000000E+00  0.72201737287E+03  0.21455082113E+04  0.20203703616E+04 0.  0.
        5    1    3    3  502    0  0.64985933587E+03 -0.12349337252E+03 -0.44974764456E+03  0.79991424744E+03  0.46999998093E+01 0.  1.
       -5    1    3    3    0  502 -0.64985933587E+03  0.12349337252E+03  0.11717650174E+04  0.13455939638E+04  0.46999998093E+01 0. -1.
</event>
<event>
 5   0  0.9220260E-06  0.2000795E+04  0.7818609E-02  0.8606249E-01
       -1   -1    0    0    0  501  0.00000000000E+00  0.00000000000E+00  0.85328061287E+03  0.85328061288E+03  0.50400001928E-02 0.  1.
        1   -1    0    0  501    0  0.00000000000E+00  0.00000000000E+00 -0.11728794951E+04  0.11728794951E+04  0.50400001928E-02 0. -1.
    10030    2    1    2    0    0  0.00000000000E+00  0.00000000000E+00 -0.31959888225E+03  0.20261601080E+04  0.20007951764E+04 0.  0.
        3    1    3    3  502    0 -0.72690039543E+03 -0.55746720183E+03 -0.56694294392E+03  0.10773013403E+04  0.10100000352E+00 0. -1.
       -3    1    3    3    0  502  0.72690039543E+03  0.55746720183E+03  0.24734406167E+03  0.94885876769E+03  0.10100000352E+00 0.  1.
</event>
<event>
 5   0  0.9370269E-06  0.2001213E+04  0.7818609E-02  0.8606054E-01
       -1   -1    0    0    0  501  0.00000000000E+00  0.00000000000E+00  0.10244074544E+04  0.10244074544E+04  0.50400001928E-02 0.  1.
        1   -1    0    0  501    0  0.00000000000E+00  0.00000000000E+00 -0.97735840886E+03  0.97735840888E+03  0.50400001928E-02 0. -1.
    10030    2    1    2    0    0  0.00000000000E+00  0.00000000000E+00  0.47049045490E+02  0.20017658632E+04  0.20012128719E+04 0.  0.
        4    1    3    3  502    0 -0.21630383415E+03 -0.64385269209E+03  0.75849145881E+03  0.10181574258E+04  0.12699999809E+01 0.  1.
       -4    1    3    3    0  502  0.21630383415E+03  0.64385269209E+03 -0.71144241332E+03  0.98360843741E+03  0.12699999809E+01 0. -1.
</event>
<event>
 5   0  0.2003576E-05  0.2000200E+04  0.7818609E-02  0.8606527E-01
        2   -1    0    0  501    0  0.00000000000E+00  0.00000000000E+00  0.16469052451E+04  0.16469052451E+04  0.25500000920E-02 0. -1.
       -2   -1    0    0    0  501  0.00000000000E+00  0.00000000000E+00 -0.60732073082E+03  0.60732073082E+03  0.25500000920E-02 0.  1.
    10030    2    1    2    0    0  0.00000000000E+00  0.00000000000E+00  0.10395845143E+04  0.22542259759E+04  0.20001996871E+04 0.  0.
        4    1    3    3  502    0  0.77995780181E+03  0.28101855839E+03  0.11502001742E+04  0.14178390799E+04  0.12699999809E+01 0. -1.
       -4    1    3    3    0  502 -0.77995780181E+03 -0.28101855839E+03 -0.11061565993E+03  0.83638689605E+03  0.12699999809E+01 0.  1.
</event>
<event>
 5   0  0.9220260E-06  0.1995584E+04  0.7818609E-02  0.8608688E-01
       -1   -1    0    0    0  501  0.00000000000E+00  0.00000000000E+00  0.48118734243E+03  0.48118734245E+03  0.50400001928E-02 0.  1.
        1   -1    0    0  501    0  0.00000000000E+00  0.00000000000E+00 -0.20690264085E+04  0.20690264085E+04  0.50400001928E-02 0. -1.
    10030    2    1    2    0    0  0.00000000000E+00  0.00000000000E+00 -0.15878390661E+04  0.25502137509E+04  0.19955844447E+04 0.  0.
        3    1    3    3  502    0  0.44535820614E+02  0.53755732081E+02 -0.20659019366E+04  0.20670810192E+04  0.10100000352E+00 0. -1.
       -3    1    3    3    0  502 -0.44535820614E+02 -0.53755732081E+02  0.47806287057E+03  0.48313273173E+03  0.10100000352E+00 0.  1.
</event>
<event>
 5   0  0.9333353E-06  0.1999753E+04  0.7818609E-02  0.8606736E-01
        1   -1    0    0  501    0  0.00000000000E+00  0.00000000000E+00  0.12426902554E+04  0.12426902554E+04  0.50400001928E-02 0.  1.
       -1   -1    0    0    0  501  0.00000000000E+00  0.00000000000E+00 -0.80450730099E+03  0.80450730101E+03  0.50400001928E-02 0. -1.
    10030    2    1    2    0    0  0.00000000000E+00  0.00000000000E+00  0.43818295438E+03  0.20471975564E+04  0.19997533681E+04 0.  0.
        2    1    3    3  502    0  0.82744909726E+03  0.28170812219E+03  0.71612226589E+03  0.11299834399E+04  0.25500000920E-02 0.  1.
       -2    1    3    3    0  502 -0.82744909726E+03 -0.28170812219E+03 -0.27793931151E+03  0.91721411652E+03  0.25500000920E-02 0. -1.
</event>
<event>
 5   0  0.9220260E-06  0.1959796E+04  0.7818609E-02  0.8625652E-01
       -1   -1    0    0    0  501  0.00000000000E+00  0.00000000000E+00  0.57049569406E+03  0.57049569408E+03  0.50400001928E-02 0.  1.
        1   -1    0    0  501    0  0.00000000000E+00  0.00000000000E+00 -0.16830970251E+04  0.16830970252E+04  0.50400001928E-02 0. -1.
    10030    2    1    2    0    0  0.00000000000E+00  0.00000000000E+00 -0.11126013311E+04  0.22535927192E+04  0.19597955052E+04 0.  0.
        3    1    3    3  502    0  0.12726059219E+03  0.91152232591E+03 -0.94307373608E+03  0.13177466717E+04  0.10100000352E+00 0. -1.
       -3    1    3    3    0  502 -0.12726059219E+03 -0.91152232591E+03 -0.16952759500E+03  0.93584604750E+03  0.10100000352E+00 0.  1.
</event>
<event>
 5   0  0.9220260E-06  0.1999193E+04  0.7818609E-02  0.8606998E-01
       -1   -1    0    0    0  501  0.00000000000E+00  0.00000000000E+00  0.15269092795E+04  0.15269092795E+04  0.50400001928E-02 0. -1.
        1   -1    0    0  501    0  0.00000000000E+00  0.00000000000E+00 -0.65438925491E+03  0.65438925493E+03  0.50400001928E-02 0.  1.
    10030    2    1    2    0    0  0.00000000000E+00  0.00000000000E+00  0.87252002462E+03  0.21812985345E+04  0.19991928629E+04 0.  0.
        3    1    3    3  502    0  0.10113290598E+03 -0.30981733639E+03  0.14673127609E+04  0.15030706554E+04  0.10100000352E+00 0. -1.
       -3    1    3    3    0  502 -0.10113290598E+03  0.30981733639E+03 -0.59479273629E+03  0.67822787907E+03  0.10100000352E+00 0.  1.
</event>
<event>
 5   0  0.9342635E-06  0.1999317E+04  0.7818609E-02  0.8606940E-01
       -1   -1    0    0    0  501  0.00000000000E+00  0.00000000000E+00  0.48784992368E+03  0.48784992370E+03  0.50400001928E-02 0.  1.
        1   -1    0    0  501    0  0.00000000000E+00  0.00000000000E+00 -0.20484101156E+04  0.20484101156E+04  0.50400001928E-02 0. -1.
    10030    2    1    2    0    0  0.00000000000E+00  0.00000000000E+00 -0.15605601919E+04  0.25362600393E+04  0.19993166018E+04 0.  0.
        5    1    3    3  502    0  0.26128503398E+03  0.95314675476E+03 -0.97071688506E+03  0.13853057302E+04  0.46999998093E+01 0. -1.
       -5    1    3    3    0  502 -0.26128503398E+03 -0.95314675476E+03 -0.58984330688E+03  0.11509543092E+04  0.46999998093E+01 0.  1.
</event>
<event>
 5   0  0.9333353E-06  0.1960818E+04  0.7818609E-02  0.8625162E-01
       -1   -1    0    0    0  501  0.00000000000E+00  0.00000000000E+00  0.54643155339E+03  0.54643155341E+03  0.50400001928E-02 0. -1.
        1   -1    0    0  501    0  0.00000000000E+00  0.00000000000E+00 -0.17590518915E+04  0.17590518915E+04  0.50400001928E-02 0.  1.
    10030    2    1    2    0    0  0.00000000000E+00  0.00000000000E+00 -0.12126203381E+04  0.23054834449E+04  0.19608176433E+04 0.  0.
        2    1    3    3  502    0  0.71911341684E+03 -0.43012451717E+03 -0.12047680286E+04  0.14675139554E+04  0.25500000920E-02 0. -1.
       -2    1    3    3    0  502 -0.71911341684E+03  0.43012451717E+03 -0.78523094851E+01  0.83796948950E+03  0.25500000920E-02 0.  1.
</event>
<event>
 5   0  0.7132000E-06  0.1999248E+04  0.7818609E-02  0.8606972E-01
        3   -1    0    0  501    0  0.00000000000E+00  0.00000000000E+00  0.19232931518E+04  0.19232931544E+04  0.10100000352E+00 0. -1.
       -3   -1    0    0    0  501  0.00000000000E+00  0.00000000000E+00 -0.51955057803E+03  0.51955058785E+03  0.10100000352E+00 0.  1.
    10030    2    1    2    0    0  0.00000000000E+00  0.00000000000E+00  0.14037425737E+04  0.24428437423E+04  0.19992479426E+04 0.  0.
        3    1    3    3  502    0 -0.43445655021E+03  0.70076992895E+03  0.11300659479E+02  0.82459608443E+03  0.10100000352E+00 0.  1.
       -3    1    3    3    0  502  0.43445655021E+03 -0.70076992895E+03  0.13924419142E+04  0.16182476578E+04  0.10100000352E+00 0. -1.
</event>
<event>
 5   0  0.9333353E-06  0.2001969E+04  0.7818609E-02  0.8605701E-01
        1   -1    0    0  501    0  0.00000000000E+00  0.00000000000E+00  0.19715756802E+04  0.19715756802E+04  0.50400001928E-02 0. -1.
       -1   -1    0    0    0  501  0.00000000000E+00  0.00000000000E+00 -0.50820748535E+03  0.50820748538E+03  0.50400001928E-02 0.  1.
    10030    2    1    2    0    0  0.00000000000E+00  0.00000000000E+00  0.14633681948E+04  0.24797831655E+04  0.20019685498E+04 0.  0.
        2    1    3    3  502    0  0.68455812324E+03 -0.49641949879E+03  0.13951748615E+04  0.16314303653E+04  0.25500000920E-02 0. -1.
       -2    1    3    3    0  502 -0.68455812324E+03  0.49641949879E+03  0.68193333325E+02  0.84835280019E+03  0.25500000920E-02 0.  1.
</event>
<event>
 5   0  0.2020029E-05  0.2001405E+04  0.7818609E-02  0.8605964E-01
       -2   -1    0    0    0  501  0.00000000000E+00  0.00000000000E+00  0.66892117051E+03  0.66892117051E+03  0.25500000920E-02 0.  1.
        2   -1    0    0  501    0  0.00000000000E+00  0.00000000000E+00 -0.14970460635E+04  0.14970460635E+04  0.25500000920E-02 0. -1.
    10030    2    1    2    0    0  0.00000000000E+00  0.00000000000E+00 -0.82812489295E+03  0.21659672340E+04  0.20014053114E+04 0.  0.
        5    1    3    3  502    0 -0.71669451217E+03 -0.34893435156E+03  0.24064010474E+03  0.83266797433E+03  0.46999998093E+01 0.  1.
       -5    1    3    3    0  502  0.71669451217E+03  0.34893435156E+03 -0.10687649977E+04  0.13332992596E+04  0.46999998093E+01 0. -1.
</event>
<event>
 5   0  0.9220260E-06  0.2000083E+04  0.7818609E-02  0.8606582E-01
       -1   -1    0    0    0  501  0.00000000000E+00  0.00000000000E+00  0.13427679762E+04  0.13427679762E+04  0.50400001928E-02 0. -1.
        1   -1    0    0  501    0  0.00000000000E+00  0.00000000000E+00 -0.74479179387E+03  0.74479179389E+03  0.50400001928E-02 0.  1.
    10030    2    1    2    0    0  0.00000000000E+00  0.00000000000E+00  0.59797618236E+03  0.20875597701E+04  0.20000825681E+04 0.  0.
        3    1    3    3  502    0 -0.36422866911E+03  0.93063874164E+03  0.26090143978E+03  0.10328700607E+04  0.10100000352E+00 0. -1.
       -3    1    3    3    0  502  0.36422866911E+03 -0.93063874164E+03  0.33707474258E+03  0.10546897094E+04  0.10100000352E+00 0.  1.
</event>
<event>
 5   0  0.2020029E-05  0.2017100E+04  0.7818609E-02  0.8598667E-01
       -2   -1    0    0    0  501  0.00000000000E+00  0.00000000000E+00  0.73527649584E+03  0.73527649584E+03  0.25500000920E-02 0. -1.
        2   -1    0    0  501    0  0.00000000000E+00  0.00000000000E+00 -0.13833891345E+04  0.13833891345E+04  0.25500000920E-02 0.  1.
    10030    2    1    2    0    0  0.00000000000E+00  0.00000000000E+00 -0.64811263865E+03  0.21186656303E+04  0.20171004092E+04 0.  0.
        5    1    3    3  502    0 -0.68340306810E+03 -0.12987498795E+03  0.44294826110E+03  0.82470147204E+03  0.46999998093E+01 0. -1.
       -5    1    3    3    0  502  0.68340306810E+03  0.12987498795E+03 -0.10910608997E+04  0.12939641583E+04  0.46999998093E+01 0.  1.
</event>
<event>
 5   0  0.9220260E-06  0.1991447E+04  0.7818609E-02  0.8610630E-01
       -1   -1    0    0    0  501  0.00000000000E+00  0.00000000000E+00  0.53461925214E+03  0.53461925217E+03  0.50400001928E-02 0. -1.
        1   -1    0    0  501    0  0.00000000000E+00  0.00000000000E+00 -0.18545265586E+04  0.18545265586E+04  0.50400001928E-02 0.  1.
    10030    2    1    2    0    0  0.00000000000E+00  0.00000000000E+00 -0.13199073064E+04  0.23891458107E+04  0.19914473147E+04 0.  0.
        3    1    3    3  502    0 -0.30157780480E+03 -0.62175660304E+03 -0.15200121557E+04  0.16697207579E+04  0.10100000352E+00 0.  1.
       -3    1    3    3    0  502  0.30157780480E+03  0.62175660304E+03  0.20010484924E+03  0.71942505285E+03  0.10100000352E+00 0. -1.
</event>
<event>
 5   0  0.2003576E-05  0.2000325E+04  0.7818609E-02  0.8606469E-01
        2   -1    0    0  501    0  0.00000000000E+00  0.00000000000E+00  0.11839730896E+04  0.11839730896E+04  0.25500000920E-02 0. -1.
       -2   -1    0    0    0  501  0.00000000000E+00  0.00000000000E+00 -0.84488821659E+03  0.84488821660E+03  0.25500000920E-02 0.  1.
    10030    2    1    2    0    0  0.00000000000E+00  0.00000000000E+00  0.33908487300E+03  0.20288613062E+04  0.20003248858E+04 0.  0.
        4    1    3    3  502    0 -0.52142547258E+03 -0.26835015348E+03  0.99130249743E+03  0.11517719317E+04  0.12699999809E+01 0. -1.
       -4    1    3    3    0  502  0.52142547258E+03  0.26835015348E+03 -0.65221762443E+03  0.87708937449E+03  0.12699999809E+01 0.  1.
</event>
<event>
 5   0  0.9370269E-06  0.2001058E+04  0.7818609E-02  0.8606126E-01
       -1   -1    0    0    0  501  0.00000000000E+00  0.00000000000E+00  0.75250821807E+03  0.75250821809E+03  0.50400001928E-02 0. -1.
        1   -1    0    0  501    0  0.00000000000E+00  0.00000000000E+00 -0.13302949123E+04  0.13302949123E+04  0.50400001928E-02 0.  1.
    10030    2    1    2    0    0  0.00000000000E+00  0.00000000000E+00 -0.57778669424E+03  0.20828031304E+04  0.20010575744E+04 0.  0.
        4    1    3    3  502    0 -0.96269989637E+03 -0.88352051299E+02 -0.20565495749E+02  0.96696521548E+03  0.12699999809E+01 0. -1.
       -4    1    3    3    0  502  0.96269989637E+03  0.88352051299E+02 -0.55722119849E+03  0.11158379149E+04  0.12699999809E+01 0.  1.
</event>
<event>
 5   0  0.2003576E-05  0.2001050E+04  0.7818609E-02  0.8606130E-01
       -2   -1    0    0    0  501  0.00000000000E+00  0.00000000000E+00  0.11825462968E+04  0.11825462968E+04  0.25500000920E-02 0.  1.
        2   -1    0    0  501    0  0.00000000000E+00  0.00000000000E+00 -0.84652127184E+03  0.84652127184E+03  0.25500000920E-02 0. -1.
    10030    2    1    2    0    0  0.00000000000E+00  0.00000000000E+00  0.33602502493E+03  0.20290675686E+04  0.20010503194E+04 0.  0.
        4    1    3    3  502    0 -0.83282035682E+03 -0.19975373315E+03 -0.35648956383E+03  0.92767328444E+03  0.12699999809E+01 0. -1.
       -4    1    3    3    0  502  0.83282035682E+03  0.19975373315E+03  0.69251458876E+03  0.11013942842E+04  0.12699999809E+01 0.  1.
</event>
<event>
 5   0  0.1979765E-05  0.1994905E+04  0.7818609E-02  0.8609007E-01
       -2   -1    0    0    0  501  0.00000000000E+00  0.00000000000E+00  0.74180460401E+03  0.74180460401E+03  0.25500000920E-02 0. -1.
        2   -1    0    0  501    0  0.00000000000E+00  0.00000000000E+00 -0.13412038099E+04  0.13412038099E+04  0.25500000920E-02 0.  1.
    10030    2    1    2    0    0  0.00000000000E+00  0.00000000000E+00 -0.59939920590E+03  0.20830084139E+04  0.19949046705E+04 0.  0.
        2    1    3    3  502    0 -0.22041374797E+03 -0.82236968936E+02  0.71242161264E+03  0.75025975070E+03  0.25500000920E-02 0. -1.
       -2    1    3    3    0  502  0.22041374797E+03  0.82236968936E+02 -0.13118208185E+04  0.13327486632E+04  0.25500000920E-02 0.  1.
</event>
<event>
 5   0  0.9140695E-06  0.1973500E+04  0.7818609E-02  0.8619111E-01
        1   -1    0    0  501    0  0.00000000000E+00  0.00000000000E+00  0.76099722289E+03  0.76099722291E+03  0.50400001928E-02 0. -1.
       -1   -1    0    0    0  501  0.00000000000E+00  0.00000000000E+00 -0.12794735412E+04  0.12794735412E+04  0.50400001928E-02 0.  1.
    10030    2    1    2    0    0  0.00000000000E+00  0.00000000000E+00 -0.51847631829E+03  0.20404707641E+04  0.19735002525E+04 0.  0.
        1    1    3    3  502    0 -0.63751599549E+03  0.53442813664E+03  0.28946450500E+03  0.88081199891E+03  0.50400001928E-02 0. -1.
       -1    1    3    3    0  502  0.63751599549E+03 -0.53442813664E+03 -0.80794082329E+03  0.11596587652E+04  0.50400001928E-02 0.  1.
</event>
<event>
 5   0  0.7132000E-06  0.2002042E+04  0.7818609E-02  0.8605667E-01
        3   -1    0    0  501    0  0.00000000000E+00  0.00000000000E+00  0.22739209158E+04  0.22739209180E+04  0.10100000352E+00 0.  1.
       -3   -1    0    0    0  501  0.00000000000E+00  0.00000000000E+00 -0.44066744506E+03  0.44066745664E+03  0.10100000352E+00 0. -1.
    10030    2    1    2    0    0  0.00000000000E+00  0.00000000000E+00  0.18332534707E+04  0.27145883747E+04  0.20020418967E+04 0.  0.
        4    1    3    3  502    0  0.86501016351E+03  0.49265117491E+03  0.77381419324E+03  0.12608480407E+04  0.12699999809E+01 0. -1.
       -4    1    3    3    0  502 -0.86501016351E+03 -0.49265117491E+03  0.10594392775E+04  0.14537403340E+04  0.12699999809E+01 0.  1.
</event>
<event>
 5   0  0.9140695E-06  0.1996008E+04  0.7818609E-02  0.8608489E-01
        1   -1    0    0  501    0  0.00000000000E+00  0.00000000000E+00  0.13437237362E+04  0.13437237362E+04  0.50400001928E-02 0.  1.
       -1   -1    0    0    0  501  0.00000000000E+00  0.00000000000E+00 -0.74123258370E+03  0.74123258372E+03  0.50400001928E-02 0. -1.
    10030    2    1    2    0    0  0.00000000000E+00  0.00000000000E+00  0.60249115252E+03  0.20849563200E+04  0.19960078325E+04 0.  0.
        1    1    3    3  502    0  0.96363922085E+02 -0.91281837844E+03  0.71048034693E+03  0.11607349917E+04  0.50400001928E-02 0.  1.
       -1    1    3    3    0  502 -0.96363922085E+02  0.91281837844E+03 -0.10798919441E+03  0.92422132827E+03  0.50400001928E-02 0. -1.
</event>
<event>
 5   0  0.2020029E-05  0.1997697E+04  0.7818609E-02  0.8607698E-01
       -2   -1    0    0    0  501  0.00000000000E+00  0.00000000000E+00  0.48820290755E+03  0.48820290756E+03  0.25500000920E-02 0.  1.
        2   -1    0    0  501    0  0.00000000000E+00  0.00000000000E+00 -0.20436136536E+04  0.20436136536E+04  0.25500000920E-02 0. -1.
    10030    2    1    2    0    0  0.00000000000E+00  0.00000000000E+00 -0.15554107460E+04  0.25318165612E+04  0.19976968014E+04 0.  0.
        5    1    3    3  502    0 -0.84990479268E+03 -0.57747715820E+02 -0.14386872847E+04  0.16719797093E+04  0.46999998093E+01 0. -1.
       -5    1    3    3    0  502  0.84990479268E+03  0.57747715820E+02 -0.11672346134E+03  0.85983685181E+03  0.46999998093E+01 0.  1.
</event>
<event>
 5   0  0.2038882E-05  0.1962136E+04  0.7818609E-02  0.8624531E-01
       -2   -1    0    0    0  501  0.00000000000E+00  0.00000000000E+00  0.11450728850E+04  0.11450728850E+04  0.25500000920E-02 0.  1.
        2   -1    0    0  501    0  0.00000000000E+00  0.00000000000E+00 -0.84055264257E+03  0.84055264258E+03  0.25500000920E-02 0. -1.
    10030    2    1    2    0    0  0.00000000000E+00  0.00000000000E+00  0.30452024239E+03  0.19856255275E+04  0.19621356114E+04 0.  0.
        3    1    3    3  502    0 -0.71772380886E+03 -0.12907814438E+03 -0.51187811427E+03  0.89095894812E+03  0.10100000352E+00 0. -1.
       -3    1    3    3    0  502  0.71772380886E+03  0.12907814438E+03  0.81639835666E+03  0.10946665794E+04  0.10100000352E+00 0.  1.
</event>
<event>
 5   0  0.2020029E-05  0.1994346E+04  0.7818609E-02  0.8609269E-01
       -2   -1    0    0    0  501  0.00000000000E+00  0.00000000000E+00  0.62065643690E+03  0.62065643690E+03  0.25500000920E-02 0.  1.
        2   -1    0    0  501    0  0.00000000000E+00  0.00000000000E+00 -0.16020997295E+04  0.16020997295E+04  0.25500000920E-02 0. -1.
    10030    2    1    2    0    0  0.00000000000E+00  0.00000000000E+00 -0.98144329264E+03  0.22227561664E+04  0.19943455164E+04 0.  0.
        5    1    3    3  502    0 -0.76124158314E+03 -0.64109174670E+03 -0.55982284860E+03  0.11418892623E+04  0.46999998093E+01 0.  1.
       -5    1    3    3    0  502  0.76124158314E+03  0.64109174670E+03 -0.42162044404E+03  0.10808669041E+04  0.46999998093E+01 0. -1.
</event>
<event>
 5   0  0.9333353E-06  0.1998011E+04  0.7818609E-02  0.8607551E-01
        1   -1    0    0  501    0  0.00000000000E+00  0.00000000000E+00  0.14333329754E+04  0.14333329754E+04  0.50400001928E-02 0. -1.
       -1   -1    0    0    0  501  0.00000000000E+00  0.00000000000E+00 -0.69628759076E+03  0.69628759078E+03  0.50400001928E-02 0.  1.
    10030    2    1    2    0    0  0.00000000000E+00  0.00000000000E+00  0.73704538466E+03  0.21296205662E+04  0.19980109752E+04 0.  0.
        2    1    3    3  502    0  0.52421417758E+03  0.91793021944E+02 -0.53261722970E+03  0.75293265053E+03  0.25500000920E-02 0.  1.
       -2    1    3    3    0  502 -0.52421417758E+03 -0.91793021944E+02  0.12696626144E+04  0.13766879157E+04  0.25500000920E-02 0. -1.
</event>
<event>
 5   0  0.2003576E-05  0.2002616E+04  0.7818609E-02  0.8605398E-01
       -2   -1    0    0    0  501  0.00000000000E+00  0.00000000000E+00  0.16446633759E+04  0.16446633759E+04  0.25500000920E-02 0. -1.
        2   -1    0    0  501    0  0.00000000000E+00  0.00000000000E+00 -0.60961908420E+03  0.60961908420E+03  0.25500000920E-02 0.  1.
    10030    2    1    2    0    0  0.00000000000E+00  0.00000000000E+00  0.10350442917E+04  0.22542824601E+04  0.20026164696E+04 0.  0.
        4    1    3    3  502    0  0.63676586029E+03  0.43046235516E+03  0.12399242667E+04  0.14588291195E+04  0.12699999809E+01 0. -1.
       -4    1    3    3    0  502 -0.63676586029E+03 -0.43046235516E+03 -0.20487997493E+03  0.79545334060E+03  0.12699999809E+01 0.  1.
</event>
<event>
 5   0  0.9140695E-06  0.2000347E+04  0.7818609E-02  0.8606458E-01
       -1   -1    0    0    0  501  0.00000000000E+00  0.00000000000E+00  0.10115356283E+04  0.10115356283E+04  0.50400001928E-02 0. -1.
        1   -1    0    0  501    0  0.00000000000E+00  0.00000000000E+00 -0.98893910287E+03  0.98893910288E+03  0.50400001928E-02 0.  1.
    10030    2    1    2    0    0  0.00000000000E+00  0.00000000000E+00  0.22596525456E+02  0.20004747312E+04  0.20003471067E+04 0.  0.
        1    1    3    3  502    0 -0.26959777578E+03  0.90398421334E+03  0.34369985066E+03  0.10039920349E+04  0.50400001928E-02 0. -1.
       -1    1    3    3    0  502  0.26959777578E+03 -0.90398421334E+03 -0.32110332521E+03  0.99648269637E+03  0.50400001928E-02 0.  1.
</event>
<event>
 5   0  0.2038882E-05  0.2001590E+04  0.7818609E-02  0.8605878E-01
       -2   -1    0    0    0  501  0.00000000000E+00  0.00000000000E+00  0.12380568338E+04  0.12380568338E+04  0.25500000920E-02 0.  1.
        2   -1    0    0  501    0  0.00000000000E+00  0.00000000000E+00 -0.80900203125E+03  0.80900203125E+03  0.25500000920E-02 0. -1.
    10030    2    1    2    0    0  0.00000000000E+00  0.00000000000E+00  0.42905480253E+03  0.20470588650E+04  0.20015898614E+04 0.  0.
        3    1    3    3  502    0 -0.82129272124E+03  0.57113872169E+03  0.24468123361E+03  0.10298495471E+04  0.10100000352E+00 0. -1.
       -3    1    3    3    0  502  0.82129272124E+03 -0.57113872169E+03  0.18437356892E+03  0.10172093179E+04  0.10100000352E+00 0.  1.
</event>
<event>
 5   0  0.9140695E-06  0.2008579E+04  0.7818609E-02  0.8602620E-01
       -1   -1    0    0    0  501  0.00000000000E+00  0.00000000000E+00  0.75228132195E+03  0.75228132196E+03  0.50400001928E-02 0.  1.
        1   -1    0    0  501    0  0.00000000000E+00  0.00000000000E+00 -0.13407189623E+04  0.13407189623E+04  0.50400001928E-02 0. -1.
    10030    2    1    2    0    0  0.00000000000E+00  0.00000000000E+00 -0.58843764036E+03  0.20930002843E+04  0.20085794317E+04 0.  0.
        1    1    3    3  502    0 -0.77123741809E+03  0.60277256048E+03 -0.52828374304E+03  0.11123064451E+04  0.50400001928E-02 0. -1.
       -1    1    3    3    0  502  0.77123741809E+03 -0.60277256048E+03 -0.60153897321E+02  0.98069383913E+03  0.50400001928E-02 0.  1.
</event>
<event>
 5   0  0.2020029E-05  0.2001621E+04  0.7818609E-02  0.8605863E-01
       -2   -1    0    0    0  501  0.00000000000E+00  0.00000000000E+00  0.83139902243E+03  0.83139902243E+03  0.25500000920E-02 0.  1.
        2   -1    0    0  501    0  0.00000000000E+00  0.00000000000E+00 -0.12047429043E+04  0.12047429043E+04  0.25500000920E-02 0. -1.
    10030    2    1    2    0    0  0.00000000000E+00  0.00000000000E+00 -0.37334388188E+03  0.20361419267E+04  0.20016214157E+04 0.  0.
        5    1    3    3  502    0  0.15575653573E+03 -0.95433967893E+03  0.75800586704E+02  0.96994440055E+03  0.46999998093E+01 0.  1.
       -5    1    3    3    0  502 -0.15575653573E+03  0.95433967893E+03 -0.44914446859E+03  0.10661975262E+04  0.46999998093E+01 0. -1.
</event>
<event>
 5   0  0.7132000E-06  0.1999418E+04  0.7818609E-02  0.8606893E-01
        3   -1    0    0  501    0  0.00000000000E+00  0.00000000000E+00  0.10812469963E+04  0.10812470011E+04  0.10100000352E+00 0.  1.
       -3   -1    0    0    0  501  0.00000000000E+00  0.00000000000E+00 -0.92431995952E+03  0.92431996504E+03  0.10100000352E+00 0. -1.
    10030    2    1    2    0    0  0.00000000000E+00  0.00000000000E+00  0.15692703682E+03  0.20055669661E+04  0.19994181055E+04 0.  0.
        1    1    3    3  502    0 -0.74120770353E+03 -0.10940384596E+03  0.74236006640E+03  0.10547305483E+04  0.50400001928E-02 0.  1.
       -1    1    3    3    0  502  0.74120770353E+03  0.10940384596E+03 -0.58543302958E+03  0.95083641781E+03  0.50400001928E-02 0. -1.
</event>
<event>
 5   0  0.9370269E-06  0.1999849E+04  0.7818609E-02  0.8606691E-01
       -1   -1    0    0    0  501  0.00000000000E+00  0.00000000000E+00  0.90432932248E+03  0.90432932249E+03  0.50400001928E-02 0.  1.
        1   -1    0    0  501    0  0.00000000000E+00  0.00000000000E+00 -0.11056243872E+04  0.11056243872E+04  0.50400001928E-02 0. -1.
    10030    2    1    2    0    0  0.00000000000E+00  0.00000000000E+00 -0.20129506474E+03  0.20099537097E+04  0.19998485473E+04 0.  0.
        4    1    3    3  502    0 -0.22848199241E+03  0.96490131072E+03  0.28877164109E+02  0.99200507246E+03  0.12699999809E+01 0. -1.
       -4    1    3    3    0  502  0.22848199241E+03 -0.96490131072E+03 -0.23017222885E+03  0.10179486373E+04  0.12699999809E+01 0.  1.
</event>
<event>
 5   0  0.1979765E-05  0.2000760E+04  0.7818609E-02  0.8606265E-01
       -2   -1    0    0    0  501  0.00000000000E+00  0.00000000000E+00  0.36041140583E+03  0.36041140584E+03  0.25500000920E-02 0.  1.
        2   -1    0    0  501    0  0.00000000000E+00  0.00000000000E+00 -0.27767172602E+04  0.27767172602E+04  0.25500000920E-02 0. -1.
    10030    2    1    2    0    0  0.00000000000E+00  0.00000000000E+00 -0.24163058544E+04  0.31371286660E+04  0.20007604268E+04 0.  0.
        2    1    3    3  502    0  0.94395065490E+03 -0.58290893127E+02 -0.17194161234E+04  0.19623538092E+04  0.25500000920E-02 0. -1.
       -2    1    3    3    0  502 -0.94395065490E+03  0.58290893127E+02 -0.69688973099E+03  0.11747748568E+04  0.25500000920E-02 0.  1.
</event>
<event>
 5   0  0.2038882E-05  0.2002490E+04  0.7818609E-02  0.8605458E-01
       -2   -1    0    0    0  501  0.00000000000E+00  0.00000000000E+00  0.71422973097E+03  0.71422973097E+03  0.25500000920E-02 0.  1.
        2   -1    0    0  501    0  0.00000000000E+00  0.00000000000E+00 -0.14035976964E+04  0.14035976964E+04  0.25500000920E-02 0. -1.
    10030    2    1    2    0    0  0.00000000000E+00  0.00000000000E+00 -0.68936796547E+03  0.21178274274E+04  0.20024896555E+04 0.  0.
        3    1    3    3  502    0  0.27285141667E+03 -0.56606886780E+03 -0.11690735866E+04  0.13272584223E+04  0.10100000352E+00 0. -1.
       -3    1    3    3    0  502 -0.27285141667E+03  0.56606886780E+03  0.47970562109E+03  0.79056900507E+03  0.10100000352E+00 0.  1.
</event>
<event>
 5   0  0.9342635E-06  0.1996171E+04  0.7818609E-02  0.8608413E-01
        1   -1    0    0  501    0  0.00000000000E+00  0.00000000000E+00  0.17249901173E+04  0.17249901173E+04  0.50400001928E-02 0.  1.
       -1   -1    0    0    0  501  0.00000000000E+00  0.00000000000E+00 -0.57749585795E+03  0.57749585798E+03  0.50400001928E-02 0. -1.
    10030    2    1    2    0    0  0.00000000000E+00  0.00000000000E+00  0.11474942593E+04  0.23024859753E+04  0.19961709824E+04 0.  0.
        5    1    3    3  502    0 -0.31136369153E+03 -0.77677214966E+03 -0.53618231217E+02  0.83858173460E+03  0.46999998093E+01 0. -1.
       -5    1    3    3    0  502  0.31136369153E+03  0.77677214966E+03  0.12011124906E+04  0.14639042407E+04  0.46999998093E+01 0.  1.
</event>
<event>
 5   0  0.7132000E-06  0.2000233E+04  0.7818609E-02  0.8606512E-01
       -4   -1    0    0    0  501  0.00000000000E+00  0.00000000000E+00  0.11501913031E+04  0.11501920043E+04  0.12699999809E+01 0.  1.
        4   -1    0    0  501    0  0.00000000000E+00  0.00000000000E+00 -0.86962207931E+03  0.86962300666E+03  0.12699999809E+01 0. -1.
    10030    2    1    2    0    0  0.00000000000E+00  0.00000000000E+00  0.28056922382E+03  0.20198150109E+04  0.20002333836E+04 0.  0.
        3    1    3    3  502    0  0.73221922412E+03  0.23586807415E+03  0.78564580168E+03  0.10995535805E+04  0.10100000352E+00 0.  1.
       -3    1    3    3    0  502 -0.73221922412E+03 -0.23586807415E+03 -0.50507657787E+03  0.92026143040E+03  0.10100000352E+00 0. -1.
</event>
<event>
 5   0  0.2003576E-05  0.1998526E+04  0.7818609E-02  0.8607310E-01
        2   -1    0    0  501    0  0.00000000000E+00  0.00000000000E+00  0.19278932764E+04  0.19278932764E+04  0.25500000920E-02 0. -1.
       -2   -1    0    0    0  501  0.00000000000E+00  0.00000000000E+00 -0.51793685700E+03  0.51793685700E+03  0.25500000920E-02 0.  1.
    10030    2    1    2    0    0  0.00000000000E+00  0.00000000000E+00  0.14099564194E+04  0.24458301334E+04  0.19985264414E+04 0.  0.
        4    1    3    3  502    0  0.10502996052E+03 -0.82110579354E+02 -0.50700325723E+03  0.52423978825E+03  0.12699999809E+01 0.  1.
       -4    1    3    3    0  502 -0.10502996052E+03  0.82110579354E+02  0.19169596766E+04  0.19215903451E+04  0.12699999809E+01 0. -1.
</event>
<event>
 5   0  0.1979765E-05  0.1993902E+04  0.7818609E-02  0.8609477E-01
       -2   -1    0    0    0  501  0.00000000000E+00  0.00000000000E+00  0.73253603799E+03  0.73253603800E+03  0.25500000920E-02 0.  1.
        2   -1    0    0  501    0  0.00000000000E+00  0.00000000000E+00 -0.13568081168E+04  0.13568081168E+04  0.25500000920E-02 0. -1.
    10030    2    1    2    0    0  0.00000000000E+00  0.00000000000E+00 -0.62427207877E+03  0.20893441548E+04  0.19939015444E+04 0.  0.
        2    1    3    3  502    0  0.41027604925E+03  0.12117690621E+03  0.63146861339E+03  0.76273382572E+03  0.25500000920E-02 0.  1.
       -2    1    3    3    0  502 -0.41027604925E+03 -0.12117690621E+03 -0.12557406922E+04  0.13266103291E+04  0.25500000920E-02 0. -1.
</event>
<event>
 5   0  0.9333353E-06  0.2003595E+04  0.7818609E-02  0.8604942E-01
       -1   -1    0    0    0  501  0.00000000000E+00  0.00000000000E+00  0.10352535542E+04  0.10352535543E+04  0.50400001928E-02 0.  1.
        1   -1    0    0  501    0  0.00000000000E+00  0.00000000000E+00 -0.96942256925E+03  0.96942256926E+03  0.50400001928E-02 0. -1.
    10030    2    1    2    0    0  0.00000000000E+00  0.00000000000E+00  0.65830984995E+02  0.20046761235E+04  0.20035949295E+04 0.  0.
        2    1    3    3  502    0  0.54381724197E+03  0.81789357268E+03 -0.16444984837E+03  0.99585683787E+03  0.25500000920E-02 0. -1.
       -2    1    3    3    0  502 -0.54381724197E+03 -0.81789357268E+03  0.23028083336E+03  0.10088192857E+04  0.25500000920E-02 0.  1.
</event>
<event>
 5   0  0.1979765E-05  0.2000317E+04  0.7818609E-02  0.8606473E-01
        2   -1    0    0  501    0  0.00000000000E+00  0.00000000000E+00  0.19656609306E+04  0.19656609307E+04  0.25500000920E-02 0.  1.
       -2   -1    0    0    0  501  0.00000000000E+00  0.00000000000E+00 -0.50889580449E+03  0.50889580449E+03  0.25500000920E-02 0. -1.
    10030    2    1    2    0    0  0.00000000000E+00  0.00000000000E+00  0.14567651262E+04  0.24745567351E+04  0.20003165756E+04 0.  0.
        2    1    3    3  502    0 -0.15863464202E+03  0.79129502496E+03 -0.24430861227E+01  0.80704320507E+03  0.25500000920E-02 0. -1.
       -2    1    3    3    0  502  0.15863464202E+03 -0.79129502496E+03  0.14592082123E+04  0.16675135301E+04  0.25500000920E-02 0.  1.
</event>
<event>
 5   0  0.2020029E-05  0.2000246E+04  0.7818609E-02  0.8606506E-01
        2   -1    0    0  501    0  0.00000000000E+00  0.00000000000E+00  0.73817940846E+03  0.73817940847E+03  0.25500000920E-02 0. -1.
       -2   -1    0    0    0  501  0.00000000000E+00  0.00000000000E+00 -0.13550174034E+04  0.13550174034E+04  0.25500000920E-02 0.  1.
    10030    2    1    2    0    0  0.00000000000E+00  0.00000000000E+00 -0.61683799493E+03  0.20931968119E+04  0.20002459302E+04 0.  0.
        5    1    3    3  502    0 -0.48849522719E+03 -0.10105462782E+03  0.59868630841E+03  0.77928621871E+03  0.46999998093E+01 0. -1.
       -5    1    3    3    0  502  0.48849522719E+03  0.10105462782E+03 -0.12155243033E+04  0.13139105932E+04  0.46999998093E+01 0.  1.
</event>
<event>
 5   0  0.2003576E-05  0.2002713E+04  0.7818609E-02  0.8605353E-01
       -2   -1    0    0    0  501  0.00000000000E+00  0.00000000000E+00  0.12650280949E+04  0.12650280949E+04  0.25500000920E-02 0.  1.
        2   -1    0    0  501    0  0.00000000000E+00  0.00000000000E+00 -0.79264208549E+03  0.79264208550E+03  0.25500000920E-02 0. -1.
    10030    2    1    2    0    0  0.00000000000E+00  0.00000000000E+00  0.47238600942E+03  0.20576701804E+04  0.20027126677E+04 0.  0.
        4    1    3    3  502    0 -0.37140713251E+03  0.77895160718E+03 -0.28568664700E+03  0.90902548786E+03  0.12699999809E+01 0.  1.
       -4    1    3    3    0  502  0.37140713251E+03 -0.77895160718E+03  0.75807265642E+03  0.11486446925E+04  0.12699999809E+01 0. -1.
</event>
<event>
 5   0  0.1979765E-05  0.2002571E+04  0.7818609E-02  0.8605420E-01
       -2   -1    0    0    0  501  0.00000000000E+00  0.00000000000E+00  0.12176232684E+04  0.12176232684E+04  0.25500000920E-02 0.  1.
        2   -1    0    0  501    0  0.00000000000E+00  0.00000000000E+00 -0.82338482660E+03  0.82338482661E+03  0.25500000920E-02 0. -1.
    10030    2    1    2    0    0  0.00000000000E+00  0.00000000000E+00  0.39423844178E+03  0.20410080950E+04  0.20025708714E+04 0.  0.
        2    1    3    3  502    0 -0.12793955353E+03 -0.76906701101E+03 -0.44322332833E+03  0.89681632209E+03  0.25500000920E-02 0. -1.
       -2    1    3    3    0  502  0.12793955353E+03  0.76906701101E+03  0.83746177011E+03  0.11441917729E+04  0.25500000920E-02 0.  1.
</event>
<event>
 5   0  0.2020029E-05  0.2002754E+04  0.7818609E-02  0.8605334E-01
        2   -1    0    0  501    0  0.00000000000E+00  0.00000000000E+00  0.24128022639E+04  0.24128022639E+04  0.25500000920E-02 0.  1.
       -2   -1    0    0    0  501  0.00000000000E+00  0.00000000000E+00 -0.41559787361E+03  0.41559787362E+03  0.25500000920E-02 0. -1.
    10030    2    1    2    0    0  0.00000000000E+00  0.00000000000E+00  0.19972043903E+04  0.28284001375E+04  0.20027535947E+04 0.  0.
        5    1    3    3  502    0 -0.38598840479E+03  0.79284541109E+03  0.16687059901E+04  0.18873771923E+04  0.46999998093E+01 0.  1.
       -5    1    3    3    0  502  0.38598840479E+03 -0.79284541109E+03  0.32849840017E+03  0.94102294522E+03  0.46999998093E+01 0. -1.
</event>
<event>
 5   0  0.9140695E-06  0.2003521E+04  0.7818609E-02  0.8604976E-01
        1   -1    0    0  501    0  0.00000000000E+00  0.00000000000E+00  0.65901978517E+03  0.65901978519E+03  0.50400001928E-02 0.  1.
       -1   -1    0    0    0  501  0.00000000000E+00  0.00000000000E+00 -0.15227527530E+04  0.15227527530E+04  0.50400001928E-02 0. -1.
    10030    2    1    2    0    0  0.00000000000E+00  0.00000000000E+00 -0.86373296780E+03  0.21817725382E+04  0.20035210926E+04 0.  0.
        1    1    3    3  502    0  0.41473457727E+03  0.77173297975E+03  0.97094162050E+02  0.88147821184E+03  0.50400001928E-02 0. -1.
       -1    1    3    3    0  502 -0.41473457727E+03 -0.77173297975E+03 -0.96082712985E+03  0.13002943263E+04  0.50400001928E-02 0.  1.
</event>
<event>
 5   0  0.2038882E-05  0.1995505E+04  0.7818609E-02  0.8608725E-01
       -2   -1    0    0    0  501  0.00000000000E+00  0.00000000000E+00  0.74165370738E+03  0.74165370738E+03  0.25500000920E-02 0. -1.
        2   -1    0    0  501    0  0.00000000000E+00  0.00000000000E+00 -0.13422841438E+04  0.13422841438E+04  0.25500000920E-02 0.  1.
    10030    2    1    2    0    0  0.00000000000E+00  0.00000000000E+00 -0.60063043646E+03  0.20839378512E+04  0.19955049603E+04 0.  0.
        3    1    3    3  502    0  0.42034219121E+03  0.90265512650E+03 -0.36666148310E+03  0.10610911782E+04  0.10100000352E+00 0.  1.
       -3    1    3    3    0  502 -0.42034219121E+03 -0.90265512650E+03 -0.23396895336E+03  0.10228466730E+04  0.10100000352E+00 0. -1.
</event>
<event>
 5   0  0.9140695E-06  0.1999219E+04  0.7818609E-02  0.8606986E-01
       -1   -1    0    0    0  501  0.00000000000E+00  0.00000000000E+00  0.11993544067E+04  0.11993544067E+04  0.50400001928E-02 0. -1.
        1   -1    0    0  501    0  0.00000000000E+00  0.00000000000E+00 -0.83313075172E+03  0.83313075174E+03  0.50400001928E-02 0.  1.
    10030    2    1    2    0    0  0.00000000000E+00  0.00000000000E+00  0.36622365501E+03  0.20324851585E+04  0.19992188859E+04 0.  0.
        1    1    3    3  502    0 -0.54786179388E+02 -0.30794064738E+02  0.11973438719E+04  0.11989921382E+04  0.50400001928E-02 0. -1.
       -1    1    3    3    0  502  0.54786179388E+02  0.30794064738E+02 -0.83112021690E+03  0.83349302027E+03  0.50400001928E-02 0.  1.
</event>
<event>
 5   0  0.1979765E-05  0.1999059E+04  0.7818609E-02  0.8607061E-01
       -2   -1    0    0    0  501  0.00000000000E+00  0.00000000000E+00  0.81465109927E+03  0.81465109927E+03  0.25500000920E-02 0. -1.
        2   -1    0    0  501    0  0.00000000000E+00  0.00000000000E+00 -0.12263650524E+04  0.12263650524E+04  0.25500000920E-02 0.  1.
    10030    2    1    2    0    0  0.00000000000E+00  0.00000000000E+00 -0.41171395311E+03  0.20410161517E+04  0.19990594169E+04 0.  0.
        2    1    3    3  502    0 -0.21742438491E+03 -0.59510397365E+03 -0.99515255874E+03  0.11797248483E+04  0.25500000920E-02 0.  1.
       -2    1    3    3    0  502  0.21742438491E+03  0.59510397365E+03  0.58343860563E+03  0.86129130331E+03  0.25500000920E-02 0. -1.
</event>
<event>
 5   0  0.2020029E-05  0.1991954E+04  0.7818609E-02  0.8610392E-01
        2   -1    0    0  501    0  0.00000000000E+00  0.00000000000E+00  0.77560036618E+03  0.77560036619E+03  0.25500000920E-02 0. -1.
       -2   -1    0    0    0  501  0.00000000000E+00  0.00000000000E+00 -0.12789708979E+04  0.12789708979E+04  0.25500000920E-02 0.  1.
    10030    2    1    2    0    0  0.00000000000E+00  0.00000000000E+00 -0.50337053176E+03  0.20545712641E+04  0.19919541127E+04 0.  0.
        5    1    3    3  502    0  0.84257013030E+03  0.43532939992E+03  0.62033963842E+02  0.95042433344E+03  0.46999998093E+01 0. -1.
       -5    1    3    3    0  502 -0.84257013030E+03 -0.43532939992E+03 -0.56540449560E+03  0.11041469307E+04  0.46999998093E+01 0.  1.
</event>
<event>
 5   0  0.9140695E-06  0.1999798E+04  0.7818609E-02  0.8606715E-01
        1   -1    0    0  501    0  0.00000000000E+00  0.00000000000E+00  0.14035213168E+04  0.14035213168E+04  0.50400001928E-02 0. -1.
       -1   -1    0    0    0  501  0.00000000000E+00  0.00000000000E+00 -0.71234983157E+03  0.71234983159E+03  0.50400001928E-02 0.  1.
    10030    2    1    2    0    0  0.00000000000E+00  0.00000000000E+00  0.69117148521E+03  0.21158711484E+04  0.19997981635E+04 0.  0.
        1    1    3    3  502    0  0.94848550677E+03  0.24329935861E+03  0.13140378812E+03  0.98797079410E+03  0.50400001928E-02 0.  1.
       -1    1    3    3    0  502 -0.94848550677E+03 -0.24329935861E+03  0.55976769709E+03  0.11279003543E+04  0.50400001928E-02 0. -1.
</event>
<event>
 5   0  0.9370269E-06  0.1997234E+04  0.7818609E-02  0.8607915E-01
       -1   -1    0    0    0  501  0.00000000000E+00  0.00000000000E+00  0.75466443362E+03  0.75466443363E+03  0.50400001928E-02 0.  1.
        1   -1    0    0  501    0  0.00000000000E+00  0.00000000000E+00 -0.13214297383E+04  0.13214297383E+04  0.50400001928E-02 0. -1.
    10030    2    1    2    0    0  0.00000000000E+00  0.00000000000E+00 -0.56676530464E+03  0.20760941719E+04  0.19972341125E+04 0.  0.
        4    1    3    3  502    0  0.23691665641E+03  0.29564723006E+03 -0.12438223687E+04  0.13002432405E+04  0.12699999809E+01 0. -1.
       -4    1    3    3    0  502 -0.23691665641E+03 -0.29564723006E+03  0.67705706410E+03  0.77585093135E+03  0.12699999809E+01 0.  1.
</event>
<event>
 5   0  0.9220260E-06  0.1999451E+04  0.7818609E-02  0.8606877E-01
        1   -1    0    0  501    0  0.00000000000E+00  0.00000000000E+00  0.83516242058E+03  0.83516242059E+03  0.50400001928E-02 0.  1.
       -1   -1    0    0    0  501  0.00000000000E+00  0.00000000000E+00 -0.11967145931E+04  0.11967145931E+04  0.50400001928E-02 0. -1.
    10030    2    1    2    0    0  0.00000000000E+00  0.00000000000E+00 -0.36155217249E+03  0.20318770137E+04  0.19994509810E+04 0.  0.
        3    1    3    3  502    0 -0.45847653088E+03 -0.21910080506E+03  0.69414239312E+03  0.86025552266E+03  0.10100000352E+00 0.  1.
       -3    1    3    3    0  502  0.45847653088E+03  0.21910080506E+03 -0.10556945656E+04  0.11716214910E+04  0.10100000352E+00 0. -1.
</event>
<event>
 5   0  0.7132000E-06  0.2000377E+04  0.7818609E-02  0.8606445E-01
       -3   -1    0    0    0  501  0.00000000000E+00  0.00000000000E+00  0.10993247422E+04  0.10993247468E+04  0.10100000352E+00 0.  1.
        3   -1    0    0  501    0  0.00000000000E+00  0.00000000000E+00 -0.90999192716E+03  0.90999193276E+03  0.10100000352E+00 0. -1.
    10030    2    1    2    0    0  0.00000000000E+00  0.00000000000E+00  0.18933281504E+03  0.20093166796E+04  0.20003766156E+04 0.  0.
        1    1    3    3  502    0  0.20455886399E+03 -0.42166904162E+02 -0.88784324554E+03  0.91207894686E+03  0.50400001928E-02 0. -1.
       -1    1    3    3    0  502 -0.20455886399E+03  0.42166904162E+02  0.10771760606E+04  0.10972377327E+04  0.50400001928E-02 0.  1.
</event>
<event>
 5   0  0.9342635E-06  0.2057202E+04  0.7818609E-02  0.8580334E-01
       -1   -1    0    0    0  501  0.00000000000E+00  0.00000000000E+00  0.67694156998E+03  0.67694157000E+03  0.50400001928E-02 0.  1.
        1   -1    0    0  501    0  0.00000000000E+00  0.00000000000E+00 -0.15629411543E+04  0.15629411543E+04  0.50400001928E-02 0. -1.
    10030    2    1    2    0    0  0.00000000000E+00  0.00000000000E+00 -0.88599958436E+03  0.22398827243E+04  0.20572018266E+04 0.  0.
        5    1    3    3  502    0 -0.37758832363E+03 -0.73785975687E+03 -0.11061748511E+04  0.13822643937E+04  0.46999998093E+01 0. -1.
       -5    1    3    3    0  502  0.37758832363E+03  0.73785975687E+03  0.22017526673E+03  0.85761833063E+03  0.46999998093E+01 0.  1.
</event>
<event>
 5   0  0.9220260E-06  0.2006292E+04  0.7818609E-02  0.8603685E-01
       -1   -1    0    0    0  501  0.00000000000E+00  0.00000000000E+00  0.68583347381E+03  0.68583347383E+03  0.50400001928E-02 0.  1.
        1   -1    0    0  501    0  0.00000000000E+00  0.00000000000E+00 -0.14672681113E+04  0.14672681113E+04  0.50400001928E-02 0. -1.
    10030    2    1    2    0    0  0.00000000000E+00  0.00000000000E+00 -0.78143463746E+03  0.21531015851E+04  0.20062916895E+04 0.  0.
        3    1    3    3  502    0  0.22505628089E+03 -0.31343198937E+03 -0.13844398398E+04  0.14372068821E+04  0.10100000352E+00 0. -1.
       -3    1    3    3    0  502 -0.22505628089E+03  0.31343198937E+03  0.60300520238E+03  0.71589470303E+03  0.10100000352E+00 0.  1.
</event>
<event>
 5   0  0.2020029E-05  0.2000535E+04  0.7818609E-02  0.8606371E-01
        2   -1    0    0  501    0  0.00000000000E+00  0.00000000000E+00  0.18472934459E+04  0.18472934459E+04  0.25500000920E-02 0.  1.
       -2   -1    0    0    0  501  0.00000000000E+00  0.00000000000E+00 -0.54162221812E+03  0.54162221813E+03  0.25500000920E-02 0. -1.
    10030    2    1    2    0    0  0.00000000000E+00  0.00000000000E+00  0.13056712278E+04  0.23889156641E+04  0.20005351021E+04 0.  0.
        5    1    3    3  502    0  0.20101756209E+03 -0.81976728564E+03  0.12937738588E+04  0.15447651442E+04  0.46999998093E+01 0.  1.
       -5    1    3    3    0  502 -0.20101756209E+03  0.81976728564E+03  0.11897369010E+02  0.84415051991E+03  0.46999998093E+01 0. -1.
</event>
<event>
 5   0  0.9342635E-06  0.1988370E+04  0.7818609E-02  0.8612077E-01
       -1   -1    0    0    0  501  0.00000000000E+00  0.00000000000E+00  0.62587008994E+03  0.62587008996E+03  0.50400001928E-02 0.  1.
        1   -1    0    0  501    0  0.00000000000E+00  0.00000000000E+00 -0.15792474205E+04  0.15792474205E+04  0.50400001928E-02 0. -1.
    10030    2    1    2    0    0  0.00000000000E+00  0.00000000000E+00 -0.95337733053E+03  0.22051175104E+04  0.19883699104E+04 0.  0.
        5    1    3    3  502    0 -0.22372786451E+03 -0.48854927303E+03 -0.14043171374E+04  0.15036167271E+04  0.46999998093E+01 0. -1.
       -5    1    3    3    0  502  0.22372786451E+03  0.48854927303E+03  0.45093980692E+03  0.70150078332E+03  0.46999998093E+01 0.  1.
</event>
<event>
 5   0  0.2020029E-05  0.1998935E+04  0.7818609E-02  0.8607119E-01
       -2   -1    0    0    0  501  0.00000000000E+00  0.00000000000E+00  0.79307497696E+03  0.79307497696E+03  0.25500000920E-02 0.  1.
        2   -1    0    0  501    0  0.00000000000E+00  0.00000000000E+00 -0.12595723877E+04  0.12595723877E+04  0.25500000920E-02 0. -1.
    10030    2    1    2    0    0  0.00000000000E+00  0.00000000000E+00 -0.46649741074E+03  0.20526473647E+04  0.19989350588E+04 0.  0.
        5    1    3    3  502    0 -0.47264054670E+03 -0.83457802192E+03  0.55379887867E+02  0.96072815251E+03  0.46999998093E+01 0. -1.
       -5    1    3    3    0  502  0.47264054670E+03  0.83457802192E+03 -0.52187729860E+03  0.10919192121E+04  0.46999998093E+01 0.  1.
</event>
<event>
 5   0  0.9370269E-06  0.2001331E+04  0.7818609E-02  0.8605999E-01
        1   -1    0    0  501    0  0.00000000000E+00  0.00000000000E+00  0.10668883837E+04  0.10668883837E+04  0.50400001928E-02 0.  1.
       -1   -1    0    0    0  501  0.00000000000E+00  0.00000000000E+00 -0.93855297551E+03  0.93855297552E+03  0.50400001928E-02 0. -1.
    10030    2    1    2    0    0  0.00000000000E+00  0.00000000000E+00  0.12833540816E+03  0.20054413592E+04  0.20013308243E+04 0.  0.
        4    1    3    3  502    0  0.58474916391E+03 -0.55739655769E+03  0.65589486901E+03  0.10405874299E+04  0.12699999809E+01 0.  1.
       -4    1    3    3    0  502 -0.58474916391E+03  0.55739655769E+03 -0.52755946084E+03  0.96485392928E+03  0.12699999809E+01 0. -1.
</event>
<event>
 5   0  0.9342635E-06  0.2004827E+04  0.7818609E-02  0.8604367E-01
       -1   -1    0    0    0  501  0.00000000000E+00  0.00000000000E+00  0.79152880535E+03  0.79152880537E+03  0.50400001928E-02 0. -1.
        1   -1    0    0  501    0  0.00000000000E+00  0.00000000000E+00 -0.12694841100E+04  0.12694841100E+04  0.50400001928E-02 0.  1.
    10030    2    1    2    0    0  0.00000000000E+00  0.00000000000E+00 -0.47795530462E+03  0.20610129154E+04  0.20048274150E+04 0.  0.
        5    1    3    3  502    0  0.61000189049E+03  0.41320047242E+03 -0.93771279826E+03  0.11925453110E+04  0.46999998093E+01 0.  1.
       -5    1    3    3    0  502 -0.61000189049E+03 -0.41320047242E+03  0.45975749364E+03  0.86846760433E+03  0.46999998093E+01 0. -1.
</event>
<event>
 5   0  0.2038882E-05  0.2003598E+04  0.7818609E-02  0.8604940E-01
        2   -1    0    0  501    0  0.00000000000E+00  0.00000000000E+00  0.11260672058E+04  0.11260672058E+04  0.25500000920E-02 0.  1.
       -2   -1    0    0    0  501  0.00000000000E+00  0.00000000000E+00 -0.89124464145E+03  0.89124464145E+03  0.25500000920E-02 0. -1.
    10030    2    1    2    0    0  0.00000000000E+00  0.00000000000E+00  0.23482256434E+03  0.20173118472E+04  0.20035981264E+04 0.  0.
        3    1    3    3  502    0 -0.18810829503E+03 -0.15175736146E+03  0.10962725334E+04  0.11225989957E+04  0.10100000352E+00 0.  1.
       -3    1    3    3    0  502  0.18810829503E+03  0.15175736146E+03 -0.86144996904E+03  0.89471285158E+03  0.10100000352E+00 0. -1.
</event>
<event>
 5   0  0.2020029E-05  0.2003548E+04  0.7818609E-02  0.8604963E-01
        2   -1    0    0  501    0  0.00000000000E+00  0.00000000000E+00  0.72784052544E+03  0.72784052545E+03  0.25500000920E-02 0. -1.
       -2   -1    0    0    0  501  0.00000000000E+00  0.00000000000E+00 -0.13788068505E+04  0.13788068505E+04  0.25500000920E-02 0.  1.
    10030    2    1    2    0    0  0.00000000000E+00  0.00000000000E+00 -0.65096632503E+03  0.21066473759E+04  0.20035483548E+04 0.  0.
        5    1    3    3  502    0 -0.21398838176E+03  0.45956565556E+03 -0.12339684900E+04  0.13340509524E+04  0.46999998093E+01 0.  1.
       -5    1    3    3    0  502  0.21398838176E+03 -0.45956565556E+03  0.58300216496E+03  0.77259642353E+03  0.46999998093E+01 0. -1.
</event>
<event>
 5   0  0.7132000E-06  0.1998896E+04  0.7818609E-02  0.8607137E-01
       -3   -1    0    0    0  501  0.00000000000E+00  0.00000000000E+00  0.13752621917E+04  0.13752621954E+04  0.10100000352E+00 0. -1.
        3   -1    0    0  501    0  0.00000000000E+00  0.00000000000E+00 -0.72633178060E+03  0.72633178762E+03  0.10100000352E+00 0.  1.
    10030    2    1    2    0    0  0.00000000000E+00  0.00000000000E+00  0.64893041113E+03  0.21015939831E+04  0.19988963433E+04 0.  0.
        4    1    3    3  502    0  0.98213038814E+03 -0.63772743049E+02  0.50732013806E+03  0.11072589568E+04  0.12699999809E+01 0. -1.
       -4    1    3    3    0  502 -0.98213038814E+03  0.63772743049E+02  0.14161027307E+03  0.99433502624E+03  0.12699999809E+01 0.  1.
</event>
<event>
 5   0  0.2003576E-05  0.2003994E+04  0.7818609E-02  0.8604756E-01
       -2   -1    0    0    0  501  0.00000000000E+00  0.00000000000E+00  0.85701896940E+03  0.85701896940E+03  0.25500000920E-02 0.  1.
        2   -1    0    0  501    0  0.00000000000E+00  0.00000000000E+00 -0.11714997592E+04  0.11714997592E+04  0.25500000920E-02 0. -1.
    10030    2    1    2    0    0  0.00000000000E+00  0.00000000000E+00 -0.31448078981E+03  0.20285187286E+04  0.20039935292E+04 0.  0.
        4    1    3    3  502    0 -0.35011003207E+03 -0.72350074836E+03  0.44838393628E+03  0.92036956417E+03  0.12699999809E+01 0.  1.
       -4    1    3    3    0  502  0.35011003207E+03  0.72350074836E+03 -0.76286472609E+03  0.11081491644E+04  0.12699999809E+01 0. -1.
</event>
<event>
 5   0  0.9140695E-06  0.1999821E+04  0.7818609E-02  0.8606705E-01
       -1   -1    0    0    0  501  0.00000000000E+00  0.00000000000E+00  0.63525134923E+03  0.63525134925E+03  0.50400001928E-02 0. -1.
        1   -1    0    0  501    0  0.00000000000E+00  0.00000000000E+00 -0.15738975675E+04  0.15738975675E+04  0.50400001928E-02 0.  1.
    10030    2    1    2    0    0  0.00000000000E+00  0.00000000000E+00 -0.93864621822E+03  0.22091489167E+04  0.19998205453E+04 0.  0.
        1    1    3    3  502    0 -0.22880646849E+03 -0.12275058796E+03 -0.15360056895E+04  0.15577976714E+04  0.50400001928E-02 0.  1.
       -1    1    3    3    0  502  0.22880646849E+03  0.12275058796E+03  0.59735947125E+03  0.65135124533E+03  0.50400001928E-02 0. -1.
</event>
<event>
 5   0  0.9370269E-06  0.2000034E+04  0.7818609E-02  0.8606605E-01
        1   -1    0    0  501    0  0.00000000000E+00  0.00000000000E+00  0.96195492461E+03  0.96195492463E+03  0.50400001928E-02 0.  1.
       -1   -1    0    0    0  501  0.00000000000E+00  0.00000000000E+00 -0.10395851314E+04  0.10395851314E+04  0.50400001928E-02 0. -1.
    10030    2    1    2    0    0  0.00000000000E+00  0.00000000000E+00 -0.77630206787E+02  0.20015400560E+04  0.20000340364E+04 0.  0.
        4    1    3    3  502    0  0.59794979915E+03 -0.68288789321E+03  0.38120629064E+03  0.98447939842E+03  0.12699999809E+01 0.  1.
       -4    1    3    3    0  502 -0.59794979915E+03  0.68288789321E+03 -0.45883649743E+03  0.10170606576E+04  0.12699999809E+01 0. -1.
</event>
<event>
 5   0  0.9370269E-06  0.2004199E+04  0.7818609E-02  0.8604660E-01
        1   -1    0    0  501    0  0.00000000000E+00  0.00000000000E+00  0.15985397483E+04  0.15985397483E+04  0.50400001928E-02 0.  1.
       -1   -1    0    0    0  501  0.00000000000E+00  0.00000000000E+00 -0.62820064687E+03  0.62820064689E+03  0.50400001928E-02 0. -1.
    10030    2    1    2    0    0  0.00000000000E+00  0.00000000000E+00  0.97033910143E+03  0.22267403952E+04  0.20041992954E+04 0.  0.
        4    1    3    3  502    0  0.12467580439E+02  0.42562379061E+03 -0.52268961374E+03  0.67417883155E+03  0.12699999809E+01 0. -1.
       -4    1    3    3    0  502 -0.12467580439E+02 -0.42562379061E+03  0.14930287152E+04  0.15525615636E+04  0.12699999809E+01 0.  1.
</event>
<event>
 5   0  0.9370269E-06  0.1991950E+04  0.7818609E-02  0.8610393E-01
        1   -1    0    0  501    0  0.00000000000E+00  0.00000000000E+00  0.15872289329E+04  0.15872289329E+04  0.50400001928E-02 0.  1.
       -1   -1    0    0    0  501  0.00000000000E+00  0.00000000000E+00 -0.62496745085E+03  0.62496745088E+03  0.50400001928E-02 0. -1.
    10030    2    1    2    0    0  0.00000000000E+00  0.00000000000E+00  0.96226148201E+03  0.22121963838E+04  0.19919502204E+04 0.  0.
        4    1    3    3  502    0 -0.45370303933E+03  0.15593621711E+03  0.14504488449E+04  0.15277323117E+04  0.12699999809E+01 0.  1.
       -4    1    3    3    0  502  0.45370303933E+03 -0.15593621711E+03 -0.48818736289E+03  0.68446407202E+03  0.12699999809E+01 0. -1.
</event>
<event>
 5   0  0.9140695E-06  0.2002193E+04  0.7818609E-02  0.8605596E-01
       -1   -1    0    0    0  501  0.00000000000E+00  0.00000000000E+00  0.59631913447E+03  0.59631913449E+03  0.50400001928E-02 0. -1.
        1   -1    0    0  501    0  0.00000000000E+00  0.00000000000E+00 -0.16806334699E+04  0.16806334699E+04  0.50400001928E-02 0.  1.
    10030    2    1    2    0    0  0.00000000000E+00  0.00000000000E+00 -0.10843143354E+04  0.22769526044E+04  0.20021926942E+04 0.  0.
        1    1    3    3  502    0 -0.50722297628E+03  0.15393543523E+03  0.42363302522E+03  0.67855449742E+03  0.50400001928E-02 0. -1.
       -1    1    3    3    0  502  0.50722297628E+03 -0.15393543523E+03 -0.15079473606E+04  0.15983981070E+04  0.50400001928E-02 0.  1.
</event>
<event>
 5   0  0.9342635E-06  0.1996894E+04  0.7818609E-02  0.8608074E-01
        1   -1    0    0  501    0  0.00000000000E+00  0.00000000000E+00  0.10492521427E+04  0.10492521427E+04  0.50400001928E-02 0. -1.
       -1   -1    0    0    0  501  0.00000000000E+00  0.00000000000E+00 -0.95010181715E+03  0.95010181716E+03  0.50400001928E-02 0.  1.
    10030    2    1    2    0    0  0.00000000000E+00  0.00000000000E+00  0.99150325571E+02  0.19993539599E+04  0.19968939556E+04 0.  0.
        5    1    3    3  502    0  0.26253140857E+03 -0.95963145414E+03 -0.34546250243E+02  0.99550529966E+03  0.46999998093E+01 0. -1.
       -5    1    3    3    0  502 -0.26253140857E+03  0.95963145414E+03  0.13369657581E+03  0.10038486602E+04  0.46999998093E+01 0.  1.
</event>
<event>
 5   0  0.2003576E-05  0.2000729E+04  0.7818609E-02  0.8606280E-01
        2   -1    0    0  501    0  0.00000000000E+00  0.00000000000E+00  0.15978595011E+04  0.15978595011E+04  0.25500000920E-02 0. -1.
       -2   -1    0    0    0  501  0.00000000000E+00  0.00000000000E+00 -0.62629373658E+03  0.62629373658E+03  0.25500000920E-02 0.  1.
    10030    2    1    2    0    0  0.00000000000E+00  0.00000000000E+00  0.97156576448E+03  0.22241532376E+04  0.20007292645E+04 0.  0.
        4    1    3    3  502    0 -0.23519562881E+03 -0.73161062585E+03 -0.22617004885E+03  0.80107777123E+03  0.12699999809E+01 0.  1.
       -4    1    3    3    0  502  0.23519562881E+03  0.73161062585E+03  0.11977358133E+04  0.14230754664E+04  0.12699999809E+01 0. -1.
</event>
<event>
 5   0  0.9342635E-06  0.1998151E+04  0.7818609E-02  0.8607486E-01
       -1   -1    0    0    0  501  0.00000000000E+00  0.00000000000E+00  0.45026961199E+03  0.45026961202E+03  0.50400001928E-02 0. -1.
        1   -1    0    0  501    0  0.00000000000E+00  0.00000000000E+00 -0.22167860661E+04  0.22167860661E+04  0.50400001928E-02 0.  1.
    10030    2    1    2    0    0  0.00000000000E+00  0.00000000000E+00 -0.17665164541E+04  0.26670556781E+04  0.19981505468E+04 0.  0.
        5    1    3    3  502    0  0.56635088714E+03  0.42674129105E+03  0.56084217852E+02  0.71135714402E+03  0.46999998093E+01 0. -1.
       -5    1    3    3    0  502 -0.56635088714E+03 -0.42674129105E+03 -0.18226006720E+04  0.19556985341E+04  0.46999998093E+01 0.  1.
</event>
<event>
 5   0  0.2003576E-05  0.1999737E+04  0.7818609E-02  0.8606744E-01
       -2   -1    0    0    0  501  0.00000000000E+00  0.00000000000E+00  0.10443246604E+04  0.10443246604E+04  0.25500000920E-02 0.  1.
        2   -1    0    0  501    0  0.00000000000E+00  0.00000000000E+00 -0.95730502579E+03  0.95730502580E+03  0.25500000920E-02 0. -1.
    10030    2    1    2    0    0  0.00000000000E+00  0.00000000000E+00  0.87019634585E+02  0.20016296862E+04  0.19997372287E+04 0.  0.
        4    1    3    3  502    0 -0.30321431936E+03  0.71920437225E+02 -0.90745462525E+03  0.95947224167E+03  0.12699999809E+01 0. -1.
       -4    1    3    3    0  502  0.30321431936E+03 -0.71920437225E+02  0.99447425983E+03  0.10421574445E+04  0.12699999809E+01 0.  1.
</event>
<event>
 5   0  0.9140695E-06  0.1999936E+04  0.7818609E-02  0.8606651E-01
       -1   -1    0    0    0  501  0.00000000000E+00  0.00000000000E+00  0.83391200605E+03  0.83391200607E+03  0.50400001928E-02 0.  1.
        1   -1    0    0  501    0  0.00000000000E+00  0.00000000000E+00 -0.11990900569E+04  0.11990900569E+04  0.50400001928E-02 0. -1.
    10030    2    1    2    0    0  0.00000000000E+00  0.00000000000E+00 -0.36517805088E+03  0.20330020630E+04  0.19999355938E+04 0.  0.
        1    1    3    3  502    0 -0.13165774686E+03  0.65739980750E+03  0.57158540250E+03  0.88103242937E+03  0.50400001928E-02 0.  1.
       -1    1    3    3    0  502  0.13165774686E+03 -0.65739980750E+03 -0.93676345338E+03  0.11519696336E+04  0.50400001928E-02 0. -1.
</event>
<event>
 5   0  0.1999142E-05  0.1999218E+04  0.7818609E-02  0.8606987E-01
       -2   -1    0    0    0  501  0.00000000000E+00  0.00000000000E+00  0.64984173296E+03  0.64984173296E+03  0.25500000920E-02 0.  1.
        2   -1    0    0  501    0  0.00000000000E+00  0.00000000000E+00 -0.15376323680E+04  0.15376323680E+04  0.25500000920E-02 0. -1.
    10030    2    1    2    0    0  0.00000000000E+00  0.00000000000E+00 -0.88779063499E+03  0.21874741009E+04  0.19992175296E+04 0.  0.
        1    1    3    3  502    0 -0.14004948523E+03 -0.89956641599E+03  0.77498680318E+01  0.91043597006E+03  0.50400001928E-02 0.  1.
       -1    1    3    3    0  502  0.14004948523E+03  0.89956641599E+03 -0.89554050303E+03  0.12770381309E+04  0.50400001928E-02 0. -1.
</event>
<event>
 5   0  0.9220260E-06  0.1996992E+04  0.7818609E-02  0.8608028E-01
       -1   -1    0    0    0  501  0.00000000000E+00  0.00000000000E+00  0.10015030139E+04  0.10015030139E+04  0.50400001928E-02 0.  1.
        1   -1    0    0  501    0  0.00000000000E+00  0.00000000000E+00 -0.99549828866E+03  0.99549828868E+03  0.50400001928E-02 0. -1.
    10030    2    1    2    0    0  0.00000000000E+00  0.00000000000E+00  0.60047252148E+01  0.19970013026E+04  0.19969922748E+04 0.  0.
        3    1    3    3  502    0  0.59068933938E+02 -0.98100984018E+03  0.17942617663E+03  0.99903113493E+03  0.10100000352E+00 0. -1.
       -3    1    3    3    0  502 -0.59068933938E+02  0.98100984018E+03 -0.17342145141E+03  0.99797016764E+03  0.10100000352E+00 0.  1.
</event>
<event>
 5   0  0.1979765E-05  0.1997939E+04  0.7818609E-02  0.8607585E-01
       -2   -1    0    0    0  501  0.00000000000E+00  0.00000000000E+00  0.45082697739E+03  0.45082697739E+03  0.25500000920E-02 0. -1.
        2   -1    0    0  501    0  0.00000000000E+00  0.00000000000E+00 -0.22135773668E+04  0.22135773668E+04  0.25500000920E-02 0.  1.
    10030    2    1    2    0    0  0.00000000000E+00  0.00000000000E+00 -0.17627503894E+04  0.26644043442E+04  0.19979393319E+04 0.  0.
        2    1    3    3  502    0  0.71455065515E+03 -0.64847817160E+03 -0.53661591492E+03  0.11041119590E+04  0.25500000920E-02 0.  1.
       -2    1    3    3    0  502 -0.71455065515E+03  0.64847817160E+03 -0.12261344745E+04  0.15602923852E+04  0.25500000920E-02 0. -1.
</event>
<event>
 5   0  0.9140695E-06  0.1997708E+04  0.7818609E-02  0.8607693E-01
       -1   -1    0    0    0  501  0.00000000000E+00  0.00000000000E+00  0.54965933859E+03  0.54965933861E+03  0.50400001928E-02 0.  1.
        1   -1    0    0  501    0  0.00000000000E+00  0.00000000000E+00 -0.18151418275E+04  0.18151418275E+04  0.50400001928E-02 0. -1.
    10030    2    1    2    0    0  0.00000000000E+00  0.00000000000E+00 -0.12654824889E+04  0.23648011661E+04  0.19977083435E+04 0.  0.
        1    1    3    3  502    0 -0.70765728007E+03  0.78021277078E+02 -0.14620840360E+04  0.16262090500E+04  0.50400001928E-02 0. -1.
       -1    1    3    3    0  502  0.70765728007E+03 -0.78021277078E+02  0.19660154712E+03  0.73859211617E+03  0.50400001928E-02 0.  1.
</event>
<event>
 5   0  0.9220260E-06  0.2000477E+04  0.7818609E-02  0.8606398E-01
        1   -1    0    0  501    0  0.00000000000E+00  0.00000000000E+00  0.62178590503E+03  0.62178590505E+03  0.50400001928E-02 0.  1.
       -1   -1    0    0    0  501  0.00000000000E+00  0.00000000000E+00 -0.16090377518E+04  0.16090377518E+04  0.50400001928E-02 0. -1.
    10030    2    1    2    0    0  0.00000000000E+00  0.00000000000E+00 -0.98725184678E+03  0.22308236569E+04  0.20004769379E+04 0.  0.
        3    1    3    3  502    0 -0.43583950416E+02  0.47800358124E+02 -0.16067027306E+04  0.16080043873E+04  0.10100000352E+00 0. -1.
       -3    1    3    3    0  502  0.43583950416E+02 -0.47800358124E+02  0.61945088377E+03  0.62281926959E+03  0.10100000352E+00 0.  1.
</event>
<event>
 5   0  0.9140695E-06  0.1999810E+04  0.7818609E-02  0.8606709E-01
       -1   -1    0    0    0  501  0.00000000000E+00  0.00000000000E+00  0.49914739128E+03  0.49914739131E+03  0.50400001928E-02 0.  1.
        1   -1    0    0  501    0  0.00000000000E+00  0.00000000000E+00 -0.20030359532E+04  0.20030359533E+04  0.50400001928E-02 0. -1.
    10030    2    1    2    0    0  0.00000000000E+00  0.00000000000E+00 -0.15038885620E+04  0.25021833446E+04  0.19998101617E+04 0.  0.
        1    1    3    3  502    0 -0.67242530232E+03  0.46406826910E+03 -0.14732049955E+04  0.16845913761E+04  0.50400001928E-02 0. -1.
       -1    1    3    3    0  502  0.67242530232E+03 -0.46406826910E+03 -0.30683566422E+02  0.81759196844E+03  0.50400001928E-02 0.  1.
</event>
<event>
 5   0  0.2020029E-05  0.2014419E+04  0.7818609E-02  0.8599909E-01
       -2   -1    0    0    0  501  0.00000000000E+00  0.00000000000E+00  0.36681211021E+03  0.36681211022E+03  0.25500000920E-02 0. -1.
        2   -1    0    0  501    0  0.00000000000E+00  0.00000000000E+00 -0.27656422951E+04  0.27656422951E+04  0.25500000920E-02 0.  1.
    10030    2    1    2    0    0  0.00000000000E+00  0.00000000000E+00 -0.23988301849E+04  0.31324544053E+04  0.20144191087E+04 0.  0.
        5    1    3    3  502    0 -0.47330970199E+03  0.52412888812E+03 -0.82705729551E+02  0.71105238419E+03  0.46999998093E+01 0. -1.
       -5    1    3    3    0  502  0.47330970199E+03 -0.52412888812E+03 -0.23161244554E+04  0.24214020212E+04  0.46999998093E+01 0.  1.
</event>
<event>
 5   0  0.2038882E-05  0.1998506E+04  0.7818609E-02  0.8607319E-01
        2   -1    0    0  501    0  0.00000000000E+00  0.00000000000E+00  0.10327085725E+04  0.10327085725E+04  0.25500000920E-02 0. -1.
       -2   -1    0    0    0  501  0.00000000000E+00  0.00000000000E+00 -0.96688154222E+03  0.96688154223E+03  0.25500000920E-02 0.  1.
    10030    2    1    2    0    0  0.00000000000E+00  0.00000000000E+00  0.65827030305E+02  0.19995901148E+04  0.19985062995E+04 0.  0.
        3    1    3    3  502    0 -0.87862324052E+03  0.47399435367E+03  0.76034462603E+02  0.10012146103E+04  0.10100000352E+00 0. -1.
       -3    1    3    3    0  502  0.87862324052E+03 -0.47399435367E+03 -0.10207432298E+02  0.99837550449E+03  0.10100000352E+00 0.  1.
</event>
<event>
 5   0  0.1999142E-05  0.2002377E+04  0.7818609E-02  0.8605510E-01
       -2   -1    0    0    0  501  0.00000000000E+00  0.00000000000E+00  0.11030074699E+04  0.11030074699E+04  0.25500000920E-02 0. -1.
        2   -1    0    0  501    0  0.00000000000E+00  0.00000000000E+00 -0.90876809717E+03  0.90876809718E+03  0.25500000920E-02 0.  1.
    10030    2    1    2    0    0  0.00000000000E+00  0.00000000000E+00  0.19423937272E+03  0.20117755671E+04  0.20023765875E+04 0.  0.
        1    1    3    3  502    0  0.97392272601E+03 -0.20827961220E+03  0.19993343870E+03  0.10158145761E+04  0.50400001928E-02 0.  1.
       -1    1    3    3    0  502 -0.97392272601E+03  0.20827961220E+03 -0.56940659789E+01  0.99596099096E+03  0.50400001928E-02 0. -1.
</event>
<event>
 5   0  0.9333353E-06  0.2002705E+04  0.7818609E-02  0.8605357E-01
       -1   -1    0    0    0  501  0.00000000000E+00  0.00000000000E+00  0.10613820658E+04  0.10613820658E+04  0.50400001928E-02 0.  1.
        1   -1    0    0  501    0  0.00000000000E+00  0.00000000000E+00 -0.94471774929E+03  0.94471774930E+03  0.50400001928E-02 0. -1.
    10030    2    1    2    0    0  0.00000000000E+00  0.00000000000E+00  0.11666431649E+03  0.20060998151E+04  0.20027046476E+04 0.  0.
        2    1    3    3  502    0  0.90444437906E+03  0.12757507009E+03 -0.35274318754E+03  0.97914390652E+03  0.25500000920E-02 0. -1.
       -2    1    3    3    0  502 -0.90444437906E+03 -0.12757507009E+03  0.46940750403E+03  0.10269559086E+04  0.25500000920E-02 0.  1.
</event>
<event>
 5   0  0.9140695E-06  0.1998204E+04  0.7818609E-02  0.8607461E-01
        1   -1    0    0  501    0  0.00000000000E+00  0.00000000000E+00  0.14127835574E+04  0.14127835574E+04  0.50400001928E-02 0.  1.
       -1   -1    0    0    0  501  0.00000000000E+00  0.00000000000E+00 -0.70655163863E+03  0.70655163864E+03  0.50400001928E-02 0. -1.
    10030    2    1    2    0    0  0.00000000000E+00  0.00000000000E+00  0.70623191878E+03  0.21193351961E+04  0.19982037309E+04 0.  0.
        1    1    3    3  502    0  0.75289365696E+03 -0.13394693623E+03  0.10350657821E+04  0.12869156203E+04  0.50400001928E-02 0.  1.
       -1    1    3    3    0  502 -0.75289365696E+03  0.13394693623E+03 -0.32883386334E+03  0.83241957576E+03  0.50400001928E-02 0. -1.
</event>
<event>
 5   0  0.2020029E-05  0.2004007E+04  0.7818609E-02  0.8604749E-01
        2   -1    0    0  501    0  0.00000000000E+00  0.00000000000E+00  0.26659080564E+04  0.26659080564E+04  0.25500000920E-02 0. -1.
       -2   -1    0    0    0  501  0.00000000000E+00  0.00000000000E+00 -0.37661137936E+03  0.37661137937E+03  0.25500000920E-02 0.  1.
    10030    2    1    2    0    0  0.00000000000E+00  0.00000000000E+00  0.22892966770E+04  0.30425194358E+04  0.20040072958E+04 0.  0.
        5    1    3    3  502    0  0.52247910473E+03 -0.14816745201E+03  0.24230663027E+04  0.24831855360E+04  0.46999998093E+01 0. -1.
       -5    1    3    3    0  502 -0.52247910473E+03  0.14816745201E+03 -0.13376962568E+03  0.55933389980E+03  0.46999998093E+01 0.  1.
</event>
<event>
 5   0  0.9220260E-06  0.2009822E+04  0.7818609E-02  0.8602043E-01
       -1   -1    0    0    0  501  0.00000000000E+00  0.00000000000E+00  0.11798905058E+04  0.11798905058E+04  0.50400001928E-02 0. -1.
        1   -1    0    0  501    0  0.00000000000E+00  0.00000000000E+00 -0.85588079889E+03  0.85588079891E+03  0.50400001928E-02 0.  1.
    10030    2    1    2    0    0  0.00000000000E+00  0.00000000000E+00  0.32400970686E+03  0.20357713047E+04  0.20098215132E+04 0.  0.
        3    1    3    3  502    0  0.31922373344E+03 -0.89078108081E+03  0.50467880273E+03  0.10724250230E+04  0.10100000352E+00 0. -1.
       -3    1    3    3    0  502 -0.31922373344E+03  0.89078108081E+03 -0.18066909587E+03  0.96334628163E+03  0.10100000352E+00 0.  1.
</event>
<event>
 5   0  0.9370269E-06  0.2006826E+04  0.7818609E-02  0.8603436E-01
       -1   -1    0    0    0  501  0.00000000000E+00  0.00000000000E+00  0.12565012884E+04  0.12565012884E+04  0.50400001928E-02 0. -1.
        1   -1    0    0  501    0  0.00000000000E+00  0.00000000000E+00 -0.80130279584E+03  0.80130279585E+03  0.50400001928E-02 0.  1.
    10030    2    1    2    0    0  0.00000000000E+00  0.00000000000E+00  0.45519849258E+03  0.20578040843E+04  0.20068263457E+04 0.  0.
        4    1    3    3  502    0 -0.28872235522E+03  0.91923741962E+03 -0.59656790354E+02  0.96535929972E+03  0.12699999809E+01 0.  1.
       -4    1    3    3    0  502  0.28872235522E+03 -0.91923741962E+03  0.51485528293E+03  0.10924447846E+04  0.12699999809E+01 0. -1.
</event>
<event>
 5   0  0.2020029E-05  0.1998047E+04  0.7818609E-02  0.8607535E-01
        2   -1    0    0  501    0  0.00000000000E+00  0.00000000000E+00  0.70684205455E+03  0.70684205456E+03  0.25500000920E-02 0. -1.
       -2   -1    0    0    0  501  0.00000000000E+00  0.00000000000E+00 -0.14119809081E+04  0.14119809081E+04  0.25500000920E-02 0.  1.
    10030    2    1    2    0    0  0.00000000000E+00  0.00000000000E+00 -0.70513885358E+03  0.21188229627E+04  0.19980465321E+04 0.  0.
        5    1    3    3  502    0  0.23780836131E+03  0.71232079390E+03 -0.10512357206E+04  0.12919258340E+04  0.46999998093E+01 0.  1.
       -5    1    3    3    0  502 -0.23780836131E+03 -0.71232079390E+03  0.34609686705E+03  0.82689712873E+03  0.46999998093E+01 0. -1.
</event>
<event>
 5   0  0.9342635E-06  0.1999242E+04  0.7818609E-02  0.8606975E-01
       -1   -1    0    0    0  501  0.00000000000E+00  0.00000000000E+00  0.78441176839E+03  0.78441176840E+03  0.50400001928E-02 0.  1.
        1   -1    0    0  501    0  0.00000000000E+00  0.00000000000E+00 -0.12738742758E+04  0.12738742758E+04  0.50400001928E-02 0. -1.
    10030    2    1    2    0    0  0.00000000000E+00  0.00000000000E+00 -0.48946250740E+03  0.20582860442E+04  0.19992418297E+04 0.  0.
        5    1    3    3  502    0 -0.63762400359E+03 -0.73390621963E+03 -0.54069991990E+01  0.97223147182E+03  0.46999998093E+01 0. -1.
       -5    1    3    3    0  502  0.63762400359E+03  0.73390621963E+03 -0.48405550820E+03  0.10860545724E+04  0.46999998093E+01 0.  1.
</event>
<event>
 5   0  0.2020029E-05  0.2000379E+04  0.7818609E-02  0.8606443E-01
        2   -1    0    0  501    0  0.00000000000E+00  0.00000000000E+00  0.21846453154E+04  0.21846453154E+04  0.25500000920E-02 0. -1.
       -2   -1    0    0    0  501  0.00000000000E+00  0.00000000000E+00 -0.45791370195E+03  0.45791370195E+03  0.25500000920E-02 0.  1.
    10030    2    1    2    0    0  0.00000000000E+00  0.00000000000E+00  0.17267316135E+04  0.26425590174E+04  0.20003789879E+04 0.  0.
        5    1    3    3  502    0 -0.90743118172E+03 -0.25168900170E+03  0.13085707326E+04  0.16121904836E+04  0.46999998093E+01 0. -1.
       -5    1    3    3    0  502  0.90743118172E+03  0.25168900170E+03  0.41816088089E+03  0.10303685338E+04  0.46999998093E+01 0.  1.
</event>
<event>
 5   0  0.2003576E-05  0.1999336E+04  0.7818609E-02  0.8606931E-01
        2   -1    0    0  501    0  0.00000000000E+00  0.00000000000E+00  0.15947914007E+04  0.15947914007E+04  0.25500000920E-02 0.  1.
       -2   -1    0    0    0  501  0.00000000000E+00  0.00000000000E+00 -0.62662510921E+03  0.62662510922E+03  0.25500000920E-02 0. -1.
    10030    2    1    2    0    0  0.00000000000E+00  0.00000000000E+00  0.96816629150E+03  0.22214165099E+04  0.19993362255E+04 0.  0.
        4    1    3    3  502    0 -0.46175126842E+03 -0.37282972657E+03  0.13778743218E+04  0.15002518117E+04  0.12699999809E+01 0.  1.
       -4    1    3    3    0  502  0.46175126842E+03  0.37282972657E+03 -0.40970803035E+03  0.72116469820E+03  0.12699999809E+01 0. -1.
</event>
<event>
 5   0  0.1999142E-05  0.2012589E+04  0.7818609E-02  0.8600757E-01
       -2   -1    0    0    0  501  0.00000000000E+00  0.00000000000E+00  0.11044079045E+04  0.11044079045E+04  0.25500000920E-02 0.  1.
        2   -1    0    0  501    0  0.00000000000E+00  0.00000000000E+00 -0.91689758480E+03  0.91689758480E+03  0.25500000920E-02 0. -1.
    10030    2    1    2    0    0  0.00000000000E+00  0.00000000000E+00  0.18751031969E+03  0.20213054893E+04  0.20125893175E+04 0.  0.
        1    1    3    3  502    0  0.82939115851E+03 -0.53305420588E+03 -0.10859310194E+03  0.99188151612E+03  0.50400001928E-02 0. -1.
       -1    1    3    3    0  502 -0.82939115851E+03  0.53305420588E+03  0.29610342162E+03  0.10294239732E+04  0.50400001928E-02 0.  1.
</event>
<event>
 5   0  0.1999142E-05  0.1999564E+04  0.7818609E-02  0.8606824E-01
       -2   -1    0    0    0  501  0.00000000000E+00  0.00000000000E+00  0.85047965990E+03  0.85047965990E+03  0.25500000920E-02 0. -1.
        2   -1    0    0  501    0  0.00000000000E+00  0.00000000000E+00 -0.11752949098E+04  0.11752949098E+04  0.25500000920E-02 0.  1.
    10030    2    1    2    0    0  0.00000000000E+00  0.00000000000E+00 -0.32481524990E+03  0.20257745697E+04  0.19995643677E+04 0.  0.
        1    1    3    3  502    0 -0.88797175279E+03  0.29963867435E+03  0.19042057889E+03  0.95631436558E+03  0.50400001928E-02 0. -1.
       -1    1    3    3    0  502  0.88797175279E+03 -0.29963867435E+03 -0.51523582879E+03  0.10694602041E+04  0.50400001928E-02 0.  1.
</event>
<event>
 5   0  0.9333353E-06  0.2005339E+04  0.7818609E-02  0.8604129E-01
       -1   -1    0    0    0  501  0.00000000000E+00  0.00000000000E+00  0.13022911950E+04  0.13022911950E+04  0.50400001928E-02 0. -1.
        1   -1    0    0  501    0  0.00000000000E+00  0.00000000000E+00 -0.77198255832E+03  0.77198255834E+03  0.50400001928E-02 0.  1.
    10030    2    1    2    0    0  0.00000000000E+00  0.00000000000E+00  0.53030863671E+03  0.20742737534E+04  0.20053389623E+04 0.  0.
        2    1    3    3  502    0 -0.50915624482E+03  0.83462909522E+03  0.49528901928E+03  0.10959730931E+04  0.25500000920E-02 0.  1.
       -2    1    3    3    0  502  0.50915624482E+03 -0.83462909522E+03  0.35019617429E+02  0.97830066025E+03  0.25500000920E-02 0. -1.
</event>
<event>
 5   0  0.1999142E-05  0.1998253E+04  0.7818609E-02  0.8607438E-01
        2   -1    0    0  501    0  0.00000000000E+00  0.00000000000E+00  0.12813962198E+04  0.12813962198E+04  0.25500000920E-02 0.  1.
       -2   -1    0    0    0  501  0.00000000000E+00  0.00000000000E+00 -0.77903634358E+03  0.77903634358E+03  0.25500000920E-02 0. -1.
    10030    2    1    2    0    0  0.00000000000E+00  0.00000000000E+00  0.50235987619E+03  0.20604325634E+04  0.19982534631E+04 0.  0.
        1    1    3    3  502    0 -0.85031729933E+02 -0.70399500111E+03 -0.47457892652E+03  0.85326696538E+03  0.50400001928E-02 0. -1.
       -1    1    3    3    0  502  0.85031729933E+02  0.70399500111E+03  0.97693880271E+03  0.12071655980E+04  0.50400001928E-02 0.  1.
</event>
<event>
 5   0  0.9342635E-06  0.1999485E+04  0.7818609E-02  0.8606862E-01
       -1   -1    0    0    0  501  0.00000000000E+00  0.00000000000E+00  0.12138040012E+04  0.12138040013E+04  0.50400001928E-02 0. -1.
        1   -1    0    0  501    0  0.00000000000E+00  0.00000000000E+00 -0.82343189454E+03  0.82343189456E+03  0.50400001928E-02 0.  1.
    10030    2    1    2    0    0  0.00000000000E+00  0.00000000000E+00  0.39037210671E+03  0.20372358958E+04  0.19994848620E+04 0.  0.
        5    1    3    3  502    0 -0.15740066052E+03 -0.43985838868E+03  0.10957359534E+04  0.11911799779E+04  0.46999998093E+01 0. -1.
       -5    1    3    3    0  502  0.15740066052E+03  0.43985838868E+03 -0.70536384673E+03  0.84605591795E+03  0.46999998093E+01 0.  1.
</event>
<event>
 5   0  0.9220260E-06  0.2000519E+04  0.7818609E-02  0.8606378E-01
       -1   -1    0    0    0  501  0.00000000000E+00  0.00000000000E+00  0.41871692204E+03  0.41871692207E+03  0.50400001928E-02 0. -1.
        1   -1    0    0  501    0  0.00000000000E+00  0.00000000000E+00 -0.23894891911E+04  0.23894891912E+04  0.50400001928E-02 0.  1.
    10030    2    1    2    0    0  0.00000000000E+00  0.00000000000E+00 -0.19707722691E+04  0.28082061132E+04  0.20005194919E+04 0.  0.
        3    1    3    3  502    0 -0.44515096100E+03  0.68016447637E+03 -0.18035819789E+04  0.19783050972E+04  0.10100000352E+00 0.  1.
       -3    1    3    3    0  502  0.44515096100E+03 -0.68016447637E+03 -0.16719029023E+03  0.82990101599E+03  0.10100000352E+00 0. -1.
</event>
<event>
 5   0  0.2003576E-05  0.2001631E+04  0.7818609E-02  0.8605858E-01
        2   -1    0    0  501    0  0.00000000000E+00  0.00000000000E+00  0.13610230208E+04  0.13610230208E+04  0.25500000920E-02 0.  1.
       -2   -1    0    0    0  501  0.00000000000E+00  0.00000000000E+00 -0.73594048193E+03  0.73594048193E+03  0.25500000920E-02 0. -1.
    10030    2    1    2    0    0  0.00000000000E+00  0.00000000000E+00  0.62508253890E+03  0.20969635028E+04  0.20016312726E+04 0.  0.
        4    1    3    3  502    0 -0.15387200183E+03  0.83442057614E+03 -0.24348736880E+03  0.88273552240E+03  0.12699999809E+01 0. -1.
       -4    1    3    3    0  502  0.15387200183E+03 -0.83442057614E+03  0.86856990770E+03  0.12142279804E+04  0.12699999809E+01 0.  1.
</event>
<event>
 5   0  0.9370269E-06  0.2002613E+04  0.7818609E-02  0.8605400E-01
        1   -1    0    0  501    0  0.00000000000E+00  0.00000000000E+00  0.96544974303E+03  0.96544974304E+03  0.50400001928E-02 0. -1.
       -1   -1    0    0    0  501  0.00000000000E+00  0.00000000000E+00 -0.10384948049E+04  0.10384948049E+04  0.50400001928E-02 0.  1.
    10030    2    1    2    0    0  0.00000000000E+00  0.00000000000E+00 -0.73045061860E+02  0.20039445479E+04  0.20026128358E+04 0.  0.
        4    1    3    3  502    0 -0.13697495914E+03 -0.88516611222E+03 -0.48440451173E+03  0.10182978589E+04  0.12699999809E+01 0.  1.
       -4    1    3    3    0  502  0.13697495914E+03  0.88516611222E+03  0.41135944987E+03  0.98564668900E+03  0.12699999809E+01 0. -1.
</event>
<event>
 5   0  0.2038882E-05  0.1998395E+04  0.7818609E-02  0.8607371E-01
       -2   -1    0    0    0  501  0.00000000000E+00  0.00000000000E+00  0.98209698506E+03  0.98209698507E+03  0.25500000920E-02 0.  1.
        2   -1    0    0  501    0  0.00000000000E+00  0.00000000000E+00 -0.10165960964E+04  0.10165960964E+04  0.25500000920E-02 0. -1.
    10030    2    1    2    0    0  0.00000000000E+00  0.00000000000E+00 -0.34499111372E+02  0.19986930815E+04  0.19983953176E+04 0.  0.
        3    1    3    3  502    0 -0.74203373232E+03 -0.55734481921E+03 -0.38764058893E+03  0.10057397992E+04  0.10100000352E+00 0. -1.
       -3    1    3    3    0  502  0.74203373232E+03  0.55734481921E+03  0.35314147756E+03  0.99295328227E+03  0.10100000352E+00 0.  1.
</event>
<event>
 5   0  0.2038882E-05  0.1999081E+04  0.7818609E-02  0.8607050E-01
       -2   -1    0    0    0  501  0.00000000000E+00  0.00000000000E+00  0.13470883919E+04  0.13470883919E+04  0.25500000920E-02 0.  1.
        2   -1    0    0  501    0  0.00000000000E+00  0.00000000000E+00 -0.74165970506E+03  0.74165970507E+03  0.25500000920E-02 0. -1.
    10030    2    1    2    0    0  0.00000000000E+00  0.00000000000E+00  0.60542868687E+03  0.20887480970E+04  0.19990809683E+04 0.  0.
        3    1    3    3  502    0 -0.82234401204E+03  0.66968183823E+02  0.89224432662E+03  0.12152507397E+04  0.10100000352E+00 0.  1.
       -3    1    3    3    0  502  0.82234401204E+03 -0.66968183823E+02 -0.28681563975E+03  0.87349735729E+03  0.10100000352E+00 0. -1.
</event>
<event>
 5   0  0.2038882E-05  0.1998680E+04  0.7818609E-02  0.8607238E-01
       -2   -1    0    0    0  501  0.00000000000E+00  0.00000000000E+00  0.86991828435E+03  0.86991828436E+03  0.25500000920E-02 0.  1.
        2   -1    0    0  501    0  0.00000000000E+00  0.00000000000E+00 -0.11480166217E+04  0.11480166217E+04  0.25500000920E-02 0. -1.
    10030    2    1    2    0    0  0.00000000000E+00  0.00000000000E+00 -0.27809833730E+03  0.20179349060E+04  0.19986802145E+04 0.  0.
        3    1    3    3  502    0 -0.11518540921E+03  0.75512151744E+03  0.51152204369E+03  0.91931006520E+03  0.10100000352E+00 0.  1.
       -3    1    3    3    0  502  0.11518540921E+03 -0.75512151744E+03 -0.78962038100E+03  0.10986248408E+04  0.10100000352E+00 0. -1.
</event>
<event>
 5   0  0.9333353E-06  0.2002886E+04  0.7818609E-02  0.8605273E-01
        1   -1    0    0  501    0  0.00000000000E+00  0.00000000000E+00  0.12161470893E+04  0.12161470893E+04  0.50400001928E-02 0. -1.
       -1   -1    0    0    0  501  0.00000000000E+00  0.00000000000E+00 -0.82464362762E+03  0.82464362763E+03  0.50400001928E-02 0.  1.
    10030    2    1    2    0    0  0.00000000000E+00  0.00000000000E+00  0.39150346171E+03  0.20407907170E+04  0.20028858654E+04 0.  0.
        2    1    3    3  502    0 -0.41148911632E+03 -0.35853148998E+03  0.10512968800E+04  0.11845223730E+04  0.25500000920E-02 0. -1.
       -2    1    3    3    0  502  0.41148911632E+03  0.35853148998E+03 -0.65979341827E+03  0.85626834401E+03  0.25500000920E-02 0.  1.
</event>
<event>
 5   0  0.2020029E-05  0.1999089E+04  0.7818609E-02  0.8607047E-01
       -2   -1    0    0    0  501  0.00000000000E+00  0.00000000000E+00  0.51034595718E+03  0.51034595718E+03  0.25500000920E-02 0.  1.
        2   -1    0    0  501    0  0.00000000000E+00  0.00000000000E+00 -0.19576698375E+04  0.19576698375E+04  0.25500000920E-02 0. -1.
    10030    2    1    2    0    0  0.00000000000E+00  0.00000000000E+00 -0.14473238803E+04  0.24680157947E+04  0.19990886794E+04 0.  0.
        5    1    3    3  502    0 -0.41717654544E+03  0.49966009870E+02  0.39601513031E+03  0.57739323311E+03  0.46999998093E+01 0.  1.
       -5    1    3    3    0  502  0.41717654544E+03 -0.49966009870E+02 -0.18433390106E+04  0.18906225616E+04  0.46999998093E+01 0. -1.
</event>
<event>
 5   0  0.2020029E-05  0.1997294E+04  0.7818609E-02  0.8607887E-01
        2   -1    0    0  501    0  0.00000000000E+00  0.00000000000E+00  0.14192102355E+04  0.14192102355E+04  0.25500000920E-02 0. -1.
       -2   -1    0    0    0  501  0.00000000000E+00  0.00000000000E+00 -0.70271199177E+03  0.70271199178E+03  0.25500000920E-02 0.  1.
    10030    2    1    2    0    0  0.00000000000E+00  0.00000000000E+00  0.71649824375E+03  0.21219222273E+04  0.19972942210E+04 0.  0.
        5    1    3    3  502    0  0.59251402636E+03 -0.76636721998E+03  0.61604743579E+03  0.11480105054E+04  0.46999998093E+01 0. -1.
       -5    1    3    3    0  502 -0.59251402636E+03  0.76636721998E+03  0.10045080796E+03  0.97391172193E+03  0.46999998093E+01 0.  1.
</event>
<event>
 5   0  0.2003576E-05  0.1999801E+04  0.7818609E-02  0.8606714E-01
        2   -1    0    0  501    0  0.00000000000E+00  0.00000000000E+00  0.14353594838E+04  0.14353594838E+04  0.25500000920E-02 0.  1.
       -2   -1    0    0    0  501  0.00000000000E+00  0.00000000000E+00 -0.69655073221E+03  0.69655073221E+03  0.25500000920E-02 0. -1.
    10030    2    1    2    0    0  0.00000000000E+00  0.00000000000E+00  0.73880875155E+03  0.21319102160E+04  0.19998006895E+04 0.  0.
        4    1    3    3  502    0 -0.67642398150E+03 -0.28564443397E+03 -0.35414972066E+03  0.81520904248E+03  0.12699999809E+01 0. -1.
       -4    1    3    3    0  502  0.67642398150E+03  0.28564443397E+03  0.10929584722E+04  0.13167011735E+04  0.12699999809E+01 0.  1.
</event>
<event>
 5   0  0.2003576E-05  0.2001001E+04  0.7818609E-02  0.8606153E-01
       -2   -1    0    0    0  501  0.00000000000E+00  0.00000000000E+00  0.10241120040E+04  0.10241120040E+04  0.25500000920E-02 0. -1.
        2   -1    0    0  501    0  0.00000000000E+00  0.00000000000E+00 -0.97743369994E+03  0.97743369994E+03  0.25500000920E-02 0.  1.
    10030    2    1    2    0    0  0.00000000000E+00  0.00000000000E+00  0.46678304022E+02  0.20015457039E+04  0.20010013345E+04 0.  0.
        4    1    3    3  502    0 -0.51023880542E+03 -0.21163130102E+03 -0.81107513215E+03  0.98131336943E+03  0.12699999809E+01 0.  1.
       -4    1    3    3    0  502  0.51023880542E+03  0.21163130102E+03  0.85775343617E+03  0.10202323345E+04  0.12699999809E+01 0. -1.
</event>
<event>
 5   0  0.9333353E-06  0.2003897E+04  0.7818609E-02  0.8604801E-01
        1   -1    0    0  501    0  0.00000000000E+00  0.00000000000E+00  0.64812213184E+03  0.64812213186E+03  0.50400001928E-02 0.  1.
       -1   -1    0    0    0  501  0.00000000000E+00  0.00000000000E+00 -0.15489369543E+04  0.15489369543E+04  0.50400001928E-02 0. -1.
    10030    2    1    2    0    0  0.00000000000E+00  0.00000000000E+00 -0.90081482241E+03  0.21970590861E+04  0.20038965252E+04 0.  0.
        2    1    3    3  502    0 -0.72486983049E+03 -0.12952633254E+03  0.29456511648E+03  0.79308382270E+03  0.25500000920E-02 0.  1.
       -2    1    3    3    0  502  0.72486983049E+03  0.12952633254E+03 -0.11953799389E+04  0.14039752634E+04  0.25500000920E-02 0. -1.
</event>
<event>
 5   0  0.2038882E-05  0.1999655E+04  0.7818609E-02  0.8606782E-01
        2   -1    0    0  501    0  0.00000000000E+00  0.00000000000E+00  0.20070345840E+04  0.20070345840E+04  0.25500000920E-02 0. -1.
       -2   -1    0    0    0  501  0.00000000000E+00  0.00000000000E+00 -0.49807544056E+03  0.49807544057E+03  0.25500000920E-02 0.  1.
    10030    2    1    2    0    0  0.00000000000E+00  0.00000000000E+00  0.15089591434E+04  0.25051100245E+04  0.19996546048E+04 0.  0.
        3    1    3    3  502    0 -0.54815192225E+03 -0.78742914676E+03  0.40205329186E+03  0.10402701816E+04  0.10100000352E+00 0. -1.
       -3    1    3    3    0  502  0.54815192225E+03  0.78742914676E+03  0.11069058515E+04  0.14648398429E+04  0.10100000352E+00 0.  1.
</event>
<event>
 5   0  0.9370269E-06  0.1993905E+04  0.7818609E-02  0.8609476E-01
       -1   -1    0    0    0  501  0.00000000000E+00  0.00000000000E+00  0.92696553829E+03  0.92696553831E+03  0.50400001928E-02 0. -1.
        1   -1    0    0  501    0  0.00000000000E+00  0.00000000000E+00 -0.10722234432E+04  0.10722234432E+04  0.50400001928E-02 0.  1.
    10030    2    1    2    0    0  0.00000000000E+00  0.00000000000E+00 -0.14525790488E+03  0.19991889815E+04  0.19939048936E+04 0.  0.
        4    1    3    3  502    0 -0.59272165195E+03  0.56163908607E+02 -0.87439755972E+03  0.10578497278E+04  0.12699999809E+01 0.  1.
       -4    1    3    3    0  502  0.59272165195E+03 -0.56163908607E+02  0.72913965484E+03  0.94133925366E+03  0.12699999809E+01 0. -1.
</event>
<event>
 5   0  0.1999142E-05  0.2002193E+04  0.7818609E-02  0.8605596E-01
       -2   -1    0    0    0  501  0.00000000000E+00  0.00000000000E+00  0.14126621067E+04  0.14126621068E+04  0.25500000920E-02 0. -1.
        2   -1    0    0  501    0  0.00000000000E+00  0.00000000000E+00 -0.70943682852E+03  0.70943682853E+03  0.25500000920E-02 0.  1.
    10030    2    1    2    0    0  0.00000000000E+00  0.00000000000E+00  0.70322527823E+03  0.21220989353E+04  0.20021933221E+04 0.  0.
        1    1    3    3  502    0  0.13709847687E+02  0.34228436362E+03  0.13486098667E+04  0.13914363507E+04  0.50400001928E-02 0. -1.
       -1    1    3    3    0  502 -0.13709847687E+02 -0.34228436362E+03 -0.64538458844E+03  0.73066258459E+03  0.50400001928E-02 0.  1.
</event>
<event>
 5   0  0.1979765E-05  0.1997764E+04  0.7818609E-02  0.8607667E-01
        2   -1    0    0  501    0  0.00000000000E+00  0.00000000000E+00  0.21355448199E+04  0.21355448199E+04  0.25500000920E-02 0. -1.
       -2   -1    0    0    0  501  0.00000000000E+00  0.00000000000E+00 -0.46721819405E+03  0.46721819406E+03  0.25500000920E-02 0.  1.
    10030    2    1    2    0    0  0.00000000000E+00  0.00000000000E+00  0.16683266258E+04  0.26027630139E+04  0.19977641443E+04 0.  0.
        2    1    3    3  502    0  0.19484619756E+03 -0.63997605425E+03  0.18005767087E+04  0.19208359833E+04  0.25500000920E-02 0. -1.
       -2    1    3    3    0  502 -0.19484619756E+03  0.63997605425E+03 -0.13225008288E+03  0.68192703066E+03  0.25500000920E-02 0.  1.
</event>
<event>
 5   0  0.9370269E-06  0.2001987E+04  0.7818609E-02  0.8605692E-01
       -1   -1    0    0    0  501  0.00000000000E+00  0.00000000000E+00  0.73072501848E+03  0.73072501849E+03  0.50400001928E-02 0.  1.
        1   -1    0    0  501    0  0.00000000000E+00  0.00000000000E+00 -0.13712244195E+04  0.13712244195E+04  0.50400001928E-02 0. -1.
    10030    2    1    2    0    0  0.00000000000E+00  0.00000000000E+00 -0.64049940105E+03  0.21019494380E+04  0.20019870023E+04 0.  0.
        4    1    3    3  502    0  0.92321851848E+03  0.35976488429E+03 -0.46955858293E+03  0.10964716506E+04  0.12699999809E+01 0.  1.
       -4    1    3    3    0  502 -0.92321851848E+03 -0.35976488429E+03 -0.17094081812E+03  0.10054777874E+04  0.12699999809E+01 0. -1.
</event>
<event>
 5   0  0.9333353E-06  0.1999334E+04  0.7818609E-02  0.8606932E-01
        1   -1    0    0  501    0  0.00000000000E+00  0.00000000000E+00  0.81362303462E+03  0.81362303463E+03  0.50400001928E-02 0. -1.
       -1   -1    0    0    0  501  0.00000000000E+00  0.00000000000E+00 -0.12282523009E+04  0.12282523010E+04  0.50400001928E-02 0.  1.
    10030    2    1    2    0    0  0.00000000000E+00  0.00000000000E+00 -0.41462926633E+03  0.20418753356E+04  0.19993342536E+04 0.  0.
        2    1    3    3  502    0 -0.69951739887E+03 -0.71363848555E+03 -0.17972340452E+03  0.10153349110E+04  0.25500000920E-02 0.  1.
       -2    1    3    3    0  502  0.69951739887E+03  0.71363848555E+03 -0.23490586180E+03  0.10265404246E+04  0.25500000920E-02 0. -1.
</event>
<event>
 5   0  0.2003576E-05  0.1999642E+04  0.7818609E-02  0.8606788E-01
        2   -1    0    0  501    0  0.00000000000E+00  0.00000000000E+00  0.15274612177E+04  0.15274612177E+04  0.25500000920E-02 0. -1.
       -2   -1    0    0    0  501  0.00000000000E+00  0.00000000000E+00 -0.65444674436E+03  0.65444674437E+03  0.25500000920E-02 0.  1.
    10030    2    1    2    0    0  0.00000000000E+00  0.00000000000E+00  0.87301447331E+03  0.21819079620E+04  0.19996419890E+04 0.  0.
        4    1    3    3  502    0 -0.26871152767E+03 -0.39843080749E+03 -0.52015595574E+03  0.70817852597E+03  0.12699999809E+01 0.  1.
       -4    1    3    3    0  502  0.26871152767E+03  0.39843080749E+03  0.13931704290E+04  0.14737294361E+04  0.12699999809E+01 0. -1.
</event>
<event>
 5   0  0.2003576E-05  0.1998448E+04  0.7818609E-02  0.8607346E-01
       -2   -1    0    0    0  501  0.00000000000E+00  0.00000000000E+00  0.52160752455E+03  0.52160752456E+03  0.25500000920E-02 0.  1.
        2   -1    0    0  501    0  0.00000000000E+00  0.00000000000E+00 -0.19141766810E+04  0.19141766810E+04  0.25500000920E-02 0. -1.
    10030    2    1    2    0    0  0.00000000000E+00  0.00000000000E+00 -0.13925691564E+04  0.24357842055E+04  0.19984483582E+04 0.  0.
        4    1    3    3  502    0  0.37405205785E+03  0.90988707804E+03 -0.90962613070E+03  0.13398622121E+04  0.12699999809E+01 0. -1.
       -4    1    3    3    0  502 -0.37405205785E+03 -0.90988707804E+03 -0.48294302573E+03  0.10959219935E+04  0.12699999809E+01 0.  1.
</event>
<event>
 5   0  0.9370269E-06  0.1998709E+04  0.7818609E-02  0.8607225E-01
        1   -1    0    0  501    0  0.00000000000E+00  0.00000000000E+00  0.20565137421E+04  0.20565137421E+04  0.50400001928E-02 0. -1.
       -1   -1    0    0    0  501  0.00000000000E+00  0.00000000000E+00 -0.48563209031E+03  0.48563209034E+03  0.50400001928E-02 0.  1.
    10030    2    1    2    0    0  0.00000000000E+00  0.00000000000E+00  0.15708816518E+04  0.25421458324E+04  0.19987086505E+04 0.  0.
        4    1    3    3  502    0  0.40596143390E+03 -0.70209402410E+03  0.42751839742E+02  0.81213917353E+03  0.12699999809E+01 0.  1.
       -4    1    3    3    0  502 -0.40596143390E+03  0.70209402410E+03  0.15281298120E+04  0.17300066589E+04  0.12699999809E+01 0. -1.
</event>
<event>
 5   0  0.9333353E-06  0.1999936E+04  0.7818609E-02  0.8606651E-01
       -1   -1    0    0    0  501  0.00000000000E+00  0.00000000000E+00  0.85787480964E+03  0.85787480965E+03  0.50400001928E-02 0.  1.
        1   -1    0    0  501    0  0.00000000000E+00  0.00000000000E+00 -0.11655961020E+04  0.11655961020E+04  0.50400001928E-02 0. -1.
    10030    2    1    2    0    0  0.00000000000E+00  0.00000000000E+00 -0.30772129236E+03  0.20234709117E+04  0.19999355331E+04 0.  0.
        2    1    3    3  502    0  0.68381606170E+03  0.40303743962E+03  0.46148397535E+03  0.91815632845E+03  0.25500000920E-02 0.  1.
       -2    1    3    3    0  502 -0.68381606170E+03 -0.40303743962E+03 -0.76920526771E+03  0.11053145832E+04  0.25500000920E-02 0. -1.
</event>
<event>
 5   0  0.2020029E-05  0.2004357E+04  0.7818609E-02  0.8604586E-01
        2   -1    0    0  501    0  0.00000000000E+00  0.00000000000E+00  0.56525138351E+03  0.56525138352E+03  0.25500000920E-02 0. -1.
       -2   -1    0    0    0  501  0.00000000000E+00  0.00000000000E+00 -0.17768413257E+04  0.17768413257E+04  0.25500000920E-02 0.  1.
    10030    2    1    2    0    0  0.00000000000E+00  0.00000000000E+00 -0.12115899422E+04  0.23420927093E+04  0.20043572712E+04 0.  0.
        5    1    3    3  502    0  0.42122898000E+03  0.79379779960E+03 -0.87434706153E+02  0.90289297155E+03  0.46999998093E+01 0. -1.
       -5    1    3    3    0  502 -0.42122898000E+03 -0.79379779960E+03 -0.11241552361E+04  0.14391997377E+04  0.46999998093E+01 0.  1.
</event>
<event>
 5   0  0.2020029E-05  0.2040969E+04  0.7818609E-02  0.8587702E-01
        2   -1    0    0  501    0  0.00000000000E+00  0.00000000000E+00  0.12440280716E+04  0.12440280716E+04  0.25500000920E-02 0. -1.
       -2   -1    0    0    0  501  0.00000000000E+00  0.00000000000E+00 -0.83711000193E+03  0.83711000193E+03  0.25500000920E-02 0.  1.
    10030    2    1    2    0    0  0.00000000000E+00  0.00000000000E+00  0.40691806968E+03  0.20811380735E+04  0.20409687322E+04 0.  0.
        5    1    3    3  502    0 -0.40278136805E+03 -0.29907681381E+03  0.11095919255E+04  0.12177422150E+04  0.46999998093E+01 0. -1.
       -5    1    3    3    0  502  0.40278136805E+03  0.29907681381E+03 -0.70267385580E+03  0.86339585859E+03  0.46999998093E+01 0.  1.
</event>
<event>
 5   0  0.9342635E-06  0.2011666E+04  0.7818609E-02  0.8601186E-01
       -1   -1    0    0    0  501  0.00000000000E+00  0.00000000000E+00  0.57593249538E+03  0.57593249540E+03  0.50400001928E-02 0. -1.
        1   -1    0    0  501    0  0.00000000000E+00  0.00000000000E+00 -0.17566303323E+04  0.17566303323E+04  0.50400001928E-02 0.  1.
    10030    2    1    2    0    0  0.00000000000E+00  0.00000000000E+00 -0.11806978369E+04  0.23325628277E+04  0.20116664642E+04 0.  0.
        5    1    3    3  502    0 -0.12909857838E+03 -0.51685822366E+03  0.39889672270E+03  0.66554455274E+03  0.46999998093E+01 0. -1.
       -5    1    3    3    0  502  0.12909857838E+03  0.51685822366E+03 -0.15795945596E+04  0.16670182749E+04  0.46999998093E+01 0.  1.
</event>
<event>
 5   0  0.1979765E-05  0.2001508E+04  0.7818609E-02  0.8605916E-01
       -2   -1    0    0    0  501  0.00000000000E+00  0.00000000000E+00  0.68299008121E+03  0.68299008121E+03  0.25500000920E-02 0.  1.
        2   -1    0    0  501    0  0.00000000000E+00  0.00000000000E+00 -0.14663592545E+04  0.14663592545E+04  0.25500000920E-02 0. -1.
    10030    2    1    2    0    0  0.00000000000E+00  0.00000000000E+00 -0.78336917328E+03  0.21493493357E+04  0.20015082576E+04 0.  0.
        2    1    3    3  502    0 -0.39055588546E+03  0.83011974934E+03  0.37695038637E+02  0.91817951070E+03  0.25500000920E-02 0.  1.
       -2    1    3    3    0  502  0.39055588546E+03 -0.83011974934E+03 -0.82106421192E+03  0.12311698250E+04  0.25500000920E-02 0. -1.
</event>
<event>
 5   0  0.9370269E-06  0.2000652E+04  0.7818609E-02  0.8606316E-01
        1   -1    0    0  501    0  0.00000000000E+00  0.00000000000E+00  0.14336343590E+04  0.14336343590E+04  0.50400001928E-02 0.  1.
       -1   -1    0    0    0  501  0.00000000000E+00  0.00000000000E+00 -0.69798247345E+03  0.69798247347E+03  0.50400001928E-02 0. -1.
    10030    2    1    2    0    0  0.00000000000E+00  0.00000000000E+00  0.73565188551E+03  0.21316168324E+04  0.20006515498E+04 0.  0.
        4    1    3    3  502    0  0.97276402871E+01 -0.81971874219E+03  0.97860260589E+03  0.12765963013E+04  0.12699999809E+01 0.  1.
       -4    1    3    3    0  502 -0.97276402871E+01  0.81971874219E+03 -0.24295072039E+03  0.85502053116E+03  0.12699999809E+01 0. -1.
</event>
<event>
 5   0  0.2038882E-05  0.2001737E+04  0.7818609E-02  0.8605809E-01
       -2   -1    0    0    0  501  0.00000000000E+00  0.00000000000E+00  0.96454778219E+03  0.96454778220E+03  0.25500000920E-02 0. -1.
        2   -1    0    0  501    0  0.00000000000E+00  0.00000000000E+00 -0.10385572897E+04  0.10385572897E+04  0.25500000920E-02 0.  1.
    10030    2    1    2    0    0  0.00000000000E+00  0.00000000000E+00 -0.74009507481E+02  0.20031050719E+04  0.20017373758E+04 0.  0.
        3    1    3    3  502    0 -0.48621754473E+03 -0.66075331203E+02  0.83592416109E+03  0.96930008949E+03  0.10100000352E+00 0. -1.
       -3    1    3    3    0  502  0.48621754473E+03  0.66075331203E+02 -0.90993366857E+03  0.10338049824E+04  0.10100000352E+00 0.  1.
</event>
<event>
 5   0  0.7132000E-06  0.1971209E+04  0.7818609E-02  0.8620201E-01
       -4   -1    0    0    0  501  0.00000000000E+00  0.00000000000E+00  0.89371086937E+03  0.89371177173E+03  0.12699999809E+01 0. -1.
        4   -1    0    0  501    0  0.00000000000E+00  0.00000000000E+00 -0.10869447662E+04  0.10869455081E+04  0.12699999809E+01 0.  1.
    10030    2    1    2    0    0  0.00000000000E+00  0.00000000000E+00 -0.19323389678E+03  0.19806572798E+04  0.19712087462E+04 0.  0.
        1    1    3    3  502    0 -0.15471396755E+03 -0.69993014974E+03 -0.77630397171E+03  0.10566392397E+04  0.50400001928E-02 0.  1.
       -1    1    3    3    0  502  0.15471396755E+03  0.69993014974E+03  0.58307007492E+03  0.92401804017E+03  0.50400001928E-02 0. -1.
</event>
<event>
 5   0  0.1979765E-05  0.1989865E+04  0.7818609E-02  0.8611374E-01
       -2   -1    0    0    0  501  0.00000000000E+00  0.00000000000E+00  0.67153993692E+03  0.67153993692E+03  0.25500000920E-02 0.  1.
        2   -1    0    0  501    0  0.00000000000E+00  0.00000000000E+00 -0.14740614732E+04  0.14740614732E+04  0.25500000920E-02 0. -1.
    10030    2    1    2    0    0  0.00000000000E+00  0.00000000000E+00 -0.80252153630E+03  0.21456014101E+04  0.19898654716E+04 0.  0.
        2    1    3    3  502    0  0.26577259980E+03 -0.78313762984E+03  0.19515846788E+03  0.84972139532E+03  0.25500000920E-02 0. -1.
       -2    1    3    3    0  502 -0.26577259980E+03  0.78313762984E+03 -0.99768000418E+03  0.12958800148E+04  0.25500000920E-02 0.  1.
</event>
<event>
 5   0  0.9220260E-06  0.2000920E+04  0.7818609E-02  0.8606191E-01
        1   -1    0    0  501    0  0.00000000000E+00  0.00000000000E+00  0.10259799154E+04  0.10259799154E+04  0.50400001928E-02 0. -1.
       -1   -1    0    0    0  501  0.00000000000E+00  0.00000000000E+00 -0.97557465104E+03  0.97557465105E+03  0.50400001928E-02 0.  1.
    10030    2    1    2    0    0  0.00000000000E+00  0.00000000000E+00  0.50405264350E+02  0.20015545665E+04  0.20009197865E+04 0.  0.
        3    1    3    3  502    0 -0.81567029293E+03  0.32749638281E+03 -0.45280676875E+03  0.98873954485E+03  0.10100000352E+00 0.  1.
       -3    1    3    3    0  502  0.81567029293E+03 -0.32749638281E+03  0.50321203310E+03  0.10128150216E+04  0.10100000352E+00 0. -1.
</event>
<event>
 5   0  0.1979765E-05  0.2001766E+04  0.7818609E-02  0.8605795E-01
       -2   -1    0    0    0  501  0.00000000000E+00  0.00000000000E+00  0.10675100242E+04  0.10675100242E+04  0.25500000920E-02 0.  1.
        2   -1    0    0  501    0  0.00000000000E+00  0.00000000000E+00 -0.93841483557E+03  0.93841483557E+03  0.25500000920E-02 0. -1.
    10030    2    1    2    0    0  0.00000000000E+00  0.00000000000E+00  0.12909518866E+03  0.20059248598E+04  0.20017664638E+04 0.  0.
        2    1    3    3  502    0 -0.89361754124E+03 -0.19847440974E+03 -0.34104356507E+03  0.97685982342E+03  0.25500000920E-02 0. -1.
       -2    1    3    3    0  502  0.89361754124E+03  0.19847440974E+03  0.47013875373E+03  0.10290650364E+04  0.25500000920E-02 0.  1.
</event>
<event>
 5   0  0.9342635E-06  0.2008831E+04  0.7818609E-02  0.8602503E-01
       -1   -1    0    0    0  501  0.00000000000E+00  0.00000000000E+00  0.54500293981E+03  0.54500293984E+03  0.50400001928E-02 0.  1.
        1   -1    0    0  501    0  0.00000000000E+00  0.00000000000E+00 -0.18510913954E+04  0.18510913954E+04  0.50400001928E-02 0. -1.
    10030    2    1    2    0    0  0.00000000000E+00  0.00000000000E+00 -0.13060884556E+04  0.23960943352E+04  0.20088307568E+04 0.  0.
        5    1    3    3  502    0  0.28895315542E+03  0.46241561508E+03  0.35307594657E+03  0.64962053627E+03  0.46999998093E+01 0.  1.
       -5    1    3    3    0  502 -0.28895315542E+03 -0.46241561508E+03 -0.16591644022E+04  0.17464737990E+04  0.46999998093E+01 0. -1.
</event>
<event>
 5   0  0.9370269E-06  0.2010702E+04  0.7818609E-02  0.8601633E-01
        1   -1    0    0  501    0  0.00000000000E+00  0.00000000000E+00  0.16738055602E+04  0.16738055602E+04  0.50400001928E-02 0. -1.
       -1   -1    0    0    0  501  0.00000000000E+00  0.00000000000E+00 -0.60385182323E+03  0.60385182325E+03  0.50400001928E-02 0.  1.
    10030    2    1    2    0    0  0.00000000000E+00  0.00000000000E+00  0.10699537369E+04  0.22776573834E+04  0.20107019066E+04 0.  0.
        4    1    3    3  502    0  0.18803535481E+03 -0.93075849547E+03  0.16088871076E+03  0.96309680806E+03  0.12699999809E+01 0.  1.
       -4    1    3    3    0  502 -0.18803535481E+03  0.93075849547E+03  0.90906502617E+03  0.13145605753E+04  0.12699999809E+01 0. -1.
</event>
<event>
 5   0  0.2038882E-05  0.1998855E+04  0.7818609E-02  0.8607156E-01
        2   -1    0    0  501    0  0.00000000000E+00  0.00000000000E+00  0.91321672238E+03  0.91321672238E+03  0.25500000920E-02 0.  1.
       -2   -1    0    0    0  501  0.00000000000E+00  0.00000000000E+00 -0.10937766455E+04  0.10937766455E+04  0.25500000920E-02 0. -1.
    10030    2    1    2    0    0  0.00000000000E+00  0.00000000000E+00 -0.18055992309E+03  0.20069933679E+04  0.19988547953E+04 0.  0.
        3    1    3    3  502    0 -0.16456058954E+03  0.37764507304E+02  0.89879366173E+03  0.91451429853E+03  0.10100000352E+00 0.  1.
       -3    1    3    3    0  502  0.16456058954E+03 -0.37764507304E+02 -0.10793535848E+04  0.10924790693E+04  0.10100000352E+00 0. -1.
</event>
<event>
 5   0  0.9220260E-06  0.1996763E+04  0.7818609E-02  0.8608135E-01
        1   -1    0    0  501    0  0.00000000000E+00  0.00000000000E+00  0.66860909676E+03  0.66860909678E+03  0.50400001928E-02 0. -1.
       -1   -1    0    0    0  501  0.00000000000E+00  0.00000000000E+00 -0.14908053817E+04  0.14908053817E+04  0.50400001928E-02 0.  1.
    10030    2    1    2    0    0  0.00000000000E+00  0.00000000000E+00 -0.82219628492E+03  0.21594144785E+04  0.19967634209E+04 0.  0.
        3    1    3    3  502    0 -0.89598429936E+03 -0.31784137479E+02  0.63965691860E+02  0.89882685542E+03  0.10100000352E+00 0. -1.
       -3    1    3    3    0  502  0.89598429936E+03  0.31784137479E+02 -0.88616197678E+03  0.12605876230E+04  0.10100000352E+00 0.  1.
</event>
<event>
 5   0  0.9333353E-06  0.1998126E+04  0.7818609E-02  0.8607497E-01
        1   -1    0    0  501    0  0.00000000000E+00  0.00000000000E+00  0.11223594146E+04  0.11223594146E+04  0.50400001928E-02 0.  1.
       -1   -1    0    0    0  501  0.00000000000E+00  0.00000000000E+00 -0.88931144686E+03  0.88931144687E+03  0.50400001928E-02 0. -1.
    10030    2    1    2    0    0  0.00000000000E+00  0.00000000000E+00  0.23304796775E+03  0.20116708615E+04  0.19981261971E+04 0.  0.
        2    1    3    3  502    0 -0.66732554326E+03  0.63326215850E+03 -0.27570997876E+03  0.96039592589E+03  0.25500000920E-02 0. -1.
       -2    1    3    3    0  502  0.66732554326E+03 -0.63326215850E+03  0.50875794651E+03  0.10512749356E+04  0.25500000920E-02 0.  1.
</event>
<event>
 5   0  0.9333353E-06  0.1997301E+04  0.7818609E-02  0.8607884E-01
        1   -1    0    0  501    0  0.00000000000E+00  0.00000000000E+00  0.97386185962E+03  0.97386185964E+03  0.50400001928E-02 0. -1.
       -1   -1    0    0    0  501  0.00000000000E+00  0.00000000000E+00 -0.10240700325E+04  0.10240700325E+04  0.50400001928E-02 0.  1.
    10030    2    1    2    0    0  0.00000000000E+00  0.00000000000E+00 -0.50208172846E+02  0.19979318921E+04  0.19973009250E+04 0.  0.
        2    1    3    3  502    0  0.51406354854E+03 -0.61952711155E+03 -0.61624557210E+03  0.10138213743E+04  0.25500000920E-02 0.  1.
       -2    1    3    3    0  502 -0.51406354854E+03  0.61952711155E+03  0.56603739926E+03  0.98411051780E+03  0.25500000920E-02 0. -1.
</event>
<event>
 5   0  0.2003576E-05  0.1998623E+04  0.7818609E-02  0.8607265E-01
        2   -1    0    0  501    0  0.00000000000E+00  0.00000000000E+00  0.12180125342E+04  0.12180125342E+04  0.25500000920E-02 0.  1.
       -2   -1    0    0    0  501  0.00000000000E+00  0.00000000000E+00 -0.81987947101E+03  0.81987947102E+03  0.25500000920E-02 0. -1.
    10030    2    1    2    0    0  0.00000000000E+00  0.00000000000E+00  0.39813306316E+03  0.20378920052E+04  0.19986229982E+04 0.  0.
        4    1    3    3  502    0 -0.63404139191E+03 -0.33752463210E+03  0.90747649164E+03  0.11573446158E+04  0.12699999809E+01 0.  1.
       -4    1    3    3    0  502  0.63404139191E+03  0.33752463210E+03 -0.50934342848E+03  0.88054738939E+03  0.12699999809E+01 0. -1.
</event>
<event>
 5   0  0.9140695E-06  0.1986842E+04  0.7818609E-02  0.8612797E-01
        1   -1    0    0  501    0  0.00000000000E+00  0.00000000000E+00  0.16176993162E+04  0.16176993163E+04  0.50400001928E-02 0. -1.
       -1   -1    0    0    0  501  0.00000000000E+00  0.00000000000E+00 -0.61005454747E+03  0.61005454749E+03  0.50400001928E-02 0.  1.
    10030    2    1    2    0    0  0.00000000000E+00  0.00000000000E+00  0.10076447688E+04  0.22277538637E+04  0.19868415381E+04 0.  0.
        1    1    3    3  502    0 -0.77868634978E+03 -0.22403567447E+03  0.11482658522E+04  0.14053678814E+04  0.50400001928E-02 0. -1.
       -1    1    3    3    0  502  0.77868634978E+03  0.22403567447E+03 -0.14062108345E+03  0.82238598231E+03  0.50400001928E-02 0.  1.
</event>
<event>
 5   0  0.9140695E-06  0.2008668E+04  0.7818609E-02  0.8602579E-01
       -1   -1    0    0    0  501  0.00000000000E+00  0.00000000000E+00  0.15942794389E+04  0.15942794390E+04  0.50400001928E-02 0.  1.
        1   -1    0    0  501    0  0.00000000000E+00  0.00000000000E+00 -0.63269120057E+03  0.63269120059E+03  0.50400001928E-02 0. -1.
    10030    2    1    2    0    0  0.00000000000E+00  0.00000000000E+00  0.96158823838E+03  0.22269706395E+04  0.20086677897E+04 0.  0.
        1    1    3    3  502    0  0.57620729939E+03 -0.42309786773E+03  0.12629128850E+04  0.14511979923E+04  0.50400001928E-02 0.  1.
       -1    1    3    3    0  502 -0.57620729939E+03  0.42309786773E+03 -0.30132464665E+03  0.77577264728E+03  0.50400001928E-02 0. -1.
</event>
<event>
 5   0  0.2020029E-05  0.2014706E+04  0.7818609E-02  0.8599776E-01
        2   -1    0    0  501    0  0.00000000000E+00  0.00000000000E+00  0.33897493266E+03  0.33897493267E+03  0.25500000920E-02 0. -1.
       -2   -1    0    0    0  501  0.00000000000E+00  0.00000000000E+00 -0.29936125405E+04  0.29936125405E+04  0.25500000920E-02 0.  1.
    10030    2    1    2    0    0  0.00000000000E+00  0.00000000000E+00 -0.26546376078E+04  0.33325874732E+04  0.20147055461E+04 0.  0.
        5    1    3    3  502    0  0.70761915247E+03 -0.47064115728E+03 -0.22219416909E+04  0.23789230613E+04  0.46999998093E+01 0.  1.
       -5    1    3    3    0  502 -0.70761915247E+03  0.47064115728E+03 -0.43269591691E+03  0.95366441183E+03  0.46999998093E+01 0. -1.
</event>
<event>
 5   0  0.1999142E-05  0.2002726E+04  0.7818609E-02  0.8605347E-01
        2   -1    0    0  501    0  0.00000000000E+00  0.00000000000E+00  0.95998011887E+03  0.95998011887E+03  0.25500000920E-02 0.  1.
       -2   -1    0    0    0  501  0.00000000000E+00  0.00000000000E+00 -0.10445298409E+04  0.10445298409E+04  0.25500000920E-02 0. -1.
    10030    2    1    2    0    0  0.00000000000E+00  0.00000000000E+00 -0.84549722054E+02  0.20045099598E+04  0.20027260231E+04 0.  0.
        1    1    3    3  502    0  0.48164964158E+03 -0.25661980497E+03 -0.88259866895E+03  0.10376996251E+04  0.50400001928E-02 0. -1.
       -1    1    3    3    0  502 -0.48164964158E+03  0.25661980497E+03  0.79804894690E+03  0.96681033466E+03  0.50400001928E-02 0.  1.
</event>
<event>
 5   0  0.1999142E-05  0.1994829E+04  0.7818609E-02  0.8609042E-01
        2   -1    0    0  501    0  0.00000000000E+00  0.00000000000E+00  0.10725554346E+04  0.10725554346E+04  0.25500000920E-02 0. -1.
       -2   -1    0    0    0  501  0.00000000000E+00  0.00000000000E+00 -0.92753752041E+03  0.92753752041E+03  0.25500000920E-02 0.  1.
    10030    2    1    2    0    0  0.00000000000E+00  0.00000000000E+00  0.14501791421E+03  0.20000929550E+04  0.19948287228E+04 0.  0.
        1    1    3    3  502    0 -0.71571869244E+03 -0.40878227684E+03  0.63566654589E+03  0.10408785492E+04  0.50400001928E-02 0. -1.
       -1    1    3    3    0  502  0.71571869244E+03  0.40878227684E+03 -0.49064863168E+03  0.95921440584E+03  0.50400001928E-02 0.  1.
</event>
<event>
 5   0  0.9220260E-06  0.2004819E+04  0.7818609E-02  0.8604371E-01
        1   -1    0    0  501    0  0.00000000000E+00  0.00000000000E+00  0.62801283201E+03  0.62801283203E+03  0.50400001928E-02 0.  1.
       -1   -1    0    0    0  501  0.00000000000E+00  0.00000000000E+00 -0.16000066921E+04  0.16000066921E+04  0.50400001928E-02 0. -1.
    10030    2    1    2    0    0  0.00000000000E+00  0.00000000000E+00 -0.97199386012E+03  0.22280195242E+04  0.20048189285E+04 0.  0.
        3    1    3    3  502    0  0.39630819455E+03 -0.91749291655E+03 -0.57187411577E+03  0.11514744684E+04  0.10100000352E+00 0. -1.
       -3    1    3    3    0  502 -0.39630819455E+03  0.91749291655E+03 -0.40011974435E+03  0.10765450557E+04  0.10100000352E+00 0.  1.
</event>
<event>
 5   0  0.2020029E-05  0.1995346E+04  0.7818609E-02  0.8608800E-01
        2   -1    0    0  501    0  0.00000000000E+00  0.00000000000E+00  0.78336229193E+03  0.78336229193E+03  0.25500000920E-02 0. -1.
       -2   -1    0    0    0  501  0.00000000000E+00  0.00000000000E+00 -0.12706139675E+04  0.12706139675E+04  0.25500000920E-02 0.  1.
    10030    2    1    2    0    0  0.00000000000E+00  0.00000000000E+00 -0.48725167559E+03  0.20539762594E+04  0.19953456540E+04 0.  0.
        5    1    3    3  502    0 -0.76988070608E+03 -0.27776395143E+03 -0.83087986054E+03  0.11662986526E+04  0.46999998093E+01 0.  1.
       -5    1    3    3    0  502  0.76988070608E+03  0.27776395143E+03  0.34362818494E+03  0.88767760690E+03  0.46999998093E+01 0. -1.
</event>
<event>
 5   0  0.1979765E-05  0.2000271E+04  0.7818609E-02  0.8606494E-01
        2   -1    0    0  501    0  0.00000000000E+00  0.00000000000E+00  0.14644948892E+04  0.14644948892E+04  0.25500000920E-02 0.  1.
       -2   -1    0    0    0  501  0.00000000000E+00  0.00000000000E+00 -0.68301432871E+03  0.68301432871E+03  0.25500000920E-02 0. -1.
    10030    2    1    2    0    0  0.00000000000E+00  0.00000000000E+00  0.78148056048E+03  0.21475092179E+04  0.20002709753E+04 0.  0.
        2    1    3    3  502    0  0.55591026403E+03 -0.37959478642E+03  0.11848791556E+04  0.13627424691E+04  0.25500000920E-02 0.  1.
       -2    1    3    3    0  502 -0.55591026403E+03  0.37959478642E+03 -0.40339859514E+03  0.78476674885E+03  0.25500000920E-02 0. -1.
</event>
<event>
 5   0  0.9342635E-06  0.2000521E+04  0.7818609E-02  0.8606377E-01
       -1   -1    0    0    0  501  0.00000000000E+00  0.00000000000E+00  0.74406206952E+03  0.74406206954E+03  0.50400001928E-02 0. -1.
        1   -1    0    0  501    0  0.00000000000E+00  0.00000000000E+00 -0.13446743305E+04  0.13446743305E+04  0.50400001928E-02 0.  1.
    10030    2    1    2    0    0  0.00000000000E+00  0.00000000000E+00 -0.60061226096E+03  0.20887364000E+04  0.20005210973E+04 0.  0.
        5    1    3    3  502    0  0.40500326864E+03  0.46613693983E+03  0.52127733059E+03  0.80812340621E+03  0.46999998093E+01 0. -1.
       -5    1    3    3    0  502 -0.40500326864E+03 -0.46613693983E+03 -0.11218895916E+04  0.12806129938E+04  0.46999998093E+01 0.  1.
</event>
<event>
 5   0  0.1999142E-05  0.1998064E+04  0.7818609E-02  0.8607526E-01
       -2   -1    0    0    0  501  0.00000000000E+00  0.00000000000E+00  0.60046987960E+03  0.60046987961E+03  0.25500000920E-02 0. -1.
        2   -1    0    0  501    0  0.00000000000E+00  0.00000000000E+00 -0.16621402114E+04  0.16621402114E+04  0.25500000920E-02 0.  1.
    10030    2    1    2    0    0  0.00000000000E+00  0.00000000000E+00 -0.10616703318E+04  0.22626100910E+04  0.19980641958E+04 0.  0.
        1    1    3    3  502    0 -0.99734908913E+03  0.53217123577E+02 -0.50481790236E+03  0.11190971282E+04  0.50400001928E-02 0.  1.
       -1    1    3    3    0  502  0.99734908913E+03 -0.53217123577E+02 -0.55685242941E+03  0.11435129628E+04  0.50400001928E-02 0. -1.
</event>
<event>
 5   0  0.2003576E-05  0.2006125E+04  0.7818609E-02  0.8603762E-01
        2   -1    0    0  501    0  0.00000000000E+00  0.00000000000E+00  0.12715697554E+04  0.12715697554E+04  0.25500000920E-02 0. -1.
       -2   -1    0    0    0  501  0.00000000000E+00  0.00000000000E+00 -0.79125393616E+03  0.79125393616E+03  0.25500000920E-02 0.  1.
    10030    2    1    2    0    0  0.00000000000E+00  0.00000000000E+00  0.48031581922E+03  0.20628236915E+04  0.20061251945E+04 0.  0.
        4    1    3    3  502    0  0.81065616225E+03  0.25014329982E+03 -0.31012873906E+03  0.90328098149E+03  0.12699999809E+01 0.  1.
       -4    1    3    3    0  502 -0.81065616225E+03 -0.25014329982E+03  0.79044455827E+03  0.11595427101E+04  0.12699999809E+01 0. -1.
</event>
<event>
 5   0  0.1999142E-05  0.1991797E+04  0.7818609E-02  0.8610466E-01
       -2   -1    0    0    0  501  0.00000000000E+00  0.00000000000E+00  0.10454319493E+04  0.10454319493E+04  0.25500000920E-02 0.  1.
        2   -1    0    0  501    0  0.00000000000E+00  0.00000000000E+00 -0.94871169341E+03  0.94871169341E+03  0.25500000920E-02 0. -1.
    10030    2    1    2    0    0  0.00000000000E+00  0.00000000000E+00  0.96720255921E+02  0.19941436427E+04  0.19917966914E+04 0.  0.
        1    1    3    3  502    0 -0.50569394537E+03 -0.46640091422E+03 -0.67259763571E+03  0.96210381911E+03  0.50400001928E-02 0. -1.
       -1    1    3    3    0  502  0.50569394537E+03  0.46640091422E+03  0.76931789163E+03  0.10320398236E+04  0.50400001928E-02 0.  1.
</event>
<event>
 5   0  0.1979765E-05  0.1999947E+04  0.7818609E-02  0.8606645E-01
        2   -1    0    0  501    0  0.00000000000E+00  0.00000000000E+00  0.11737957224E+04  0.11737957224E+04  0.25500000920E-02 0. -1.
       -2   -1    0    0    0  501  0.00000000000E+00  0.00000000000E+00 -0.85189215203E+03  0.85189215203E+03  0.25500000920E-02 0.  1.
    10030    2    1    2    0    0  0.00000000000E+00  0.00000000000E+00  0.32190357040E+03  0.20256878745E+04  0.19999473633E+04 0.  0.
        2    1    3    3  502    0  0.29061354242E+03  0.14592733419E+03 -0.79683845723E+03  0.86064077572E+03  0.25500000920E-02 0.  1.
       -2    1    3    3    0  502 -0.29061354242E+03 -0.14592733419E+03  0.11187420276E+04  0.11650470987E+04  0.25500000920E-02 0. -1.
</event>
<event>
 5   0  0.9333353E-06  0.1974648E+04  0.7818609E-02  0.8618566E-01
       -1   -1    0    0    0  501  0.00000000000E+00  0.00000000000E+00  0.62237646509E+03  0.62237646511E+03  0.50400001928E-02 0.  1.
        1   -1    0    0  501    0  0.00000000000E+00  0.00000000000E+00 -0.15662683350E+04  0.15662683351E+04  0.50400001928E-02 0. -1.
    10030    2    1    2    0    0  0.00000000000E+00  0.00000000000E+00 -0.94389186996E+03  0.21886448002E+04  0.19746478671E+04 0.  0.
        2    1    3    3  502    0 -0.45924742195E+03 -0.41234869848E+03  0.38219771736E+03  0.72595780792E+03  0.25500000920E-02 0.  1.
       -2    1    3    3    0  502  0.45924742195E+03  0.41234869848E+03 -0.13260895873E+04  0.14626869923E+04  0.25500000920E-02 0. -1.
</event>
<event>
 5   0  0.9333353E-06  0.1999553E+04  0.7818609E-02  0.8606830E-01
        1   -1    0    0  501    0  0.00000000000E+00  0.00000000000E+00  0.16003044645E+04  0.16003044645E+04  0.50400001928E-02 0.  1.
       -1   -1    0    0    0  501  0.00000000000E+00  0.00000000000E+00 -0.62460202899E+03  0.62460202901E+03  0.50400001928E-02 0. -1.
    10030    2    1    2    0    0  0.00000000000E+00  0.00000000000E+00  0.97570243547E+03  0.22249064935E+04  0.19995533657E+04 0.  0.
        2    1    3    3  502    0  0.98739657949E+03 -0.18625274990E+01  0.31333807292E+03  0.10359228843E+04  0.25500000920E-02 0. -1.
       -2    1    3    3    0  502 -0.98739657949E+03  0.18625274990E+01  0.66236436255E+03  0.11889836092E+04  0.25500000920E-02 0.  1.
</event>
<event>
 5   0  0.1999142E-05  0.2003219E+04  0.7818609E-02  0.8605117E-01
        2   -1    0    0  501    0  0.00000000000E+00  0.00000000000E+00  0.13002662356E+04  0.13002662356E+04  0.25500000920E-02 0.  1.
       -2   -1    0    0    0  501  0.00000000000E+00  0.00000000000E+00 -0.77155068547E+03  0.77155068547E+03  0.25500000920E-02 0. -1.
    10030    2    1    2    0    0  0.00000000000E+00  0.00000000000E+00  0.52871555011E+03  0.20718169211E+04  0.20032187153E+04 0.  0.
        1    1    3    3  502    0 -0.23019987067E+03 -0.66112669774E+03  0.10052265417E+04  0.12249738328E+04  0.50400001928E-02 0.  1.
       -1    1    3    3    0  502  0.23019987067E+03  0.66112669774E+03 -0.47651099160E+03  0.84684308822E+03  0.50400001928E-02 0. -1.
</event>
<event>
 5   0  0.9140695E-06  0.1996560E+04  0.7818609E-02  0.8608230E-01
        1   -1    0    0  501    0  0.00000000000E+00  0.00000000000E+00  0.12057449306E+04  0.12057449306E+04  0.50400001928E-02 0.  1.
       -1   -1    0    0    0  501  0.00000000000E+00  0.00000000000E+00 -0.82651256694E+03  0.82651256695E+03  0.50400001928E-02 0. -1.
    10030    2    1    2    0    0  0.00000000000E+00  0.00000000000E+00  0.37923236369E+03  0.20322574976E+04  0.19965603800E+04 0.  0.
        1    1    3    3  502    0  0.57038526370E+03 -0.78944533025E+03 -0.33390138732E+02  0.97451433026E+03  0.50400001928E-02 0.  1.
       -1    1    3    3    0  502 -0.57038526370E+03  0.78944533025E+03  0.41262250242E+03  0.10577431673E+04  0.50400001928E-02 0. -1.
</event>
<event>
 5   0  0.9342635E-06  0.1999650E+04  0.7818609E-02  0.8606784E-01
       -1   -1    0    0    0  501  0.00000000000E+00  0.00000000000E+00  0.17559117564E+04  0.17559117564E+04  0.50400001928E-02 0. -1.
        1   -1    0    0  501    0  0.00000000000E+00  0.00000000000E+00 -0.56930555596E+03  0.56930555598E+03  0.50400001928E-02 0.  1.
    10030    2    1    2    0    0  0.00000000000E+00  0.00000000000E+00  0.11866062004E+04  0.23252173123E+04  0.19996502881E+04 0.  0.
        5    1    3    3  502    0  0.54940318565E+03  0.47124824290E+03 -0.20870802478E+03  0.75332588994E+03  0.46999998093E+01 0.  1.
       -5    1    3    3    0  502 -0.54940318565E+03 -0.47124824290E+03  0.13953142252E+04  0.15718914224E+04  0.46999998093E+01 0. -1.
</event>
<event>
 5   0  0.1999142E-05  0.2017336E+04  0.7818609E-02  0.8598558E-01
       -2   -1    0    0    0  501  0.00000000000E+00  0.00000000000E+00  0.12847481725E+04  0.12847481725E+04  0.25500000920E-02 0. -1.
        2   -1    0    0  501    0  0.00000000000E+00  0.00000000000E+00 -0.79191477193E+03  0.79191477194E+03  0.25500000920E-02 0.  1.
    10030    2    1    2    0    0  0.00000000000E+00  0.00000000000E+00  0.49283340061E+03  0.20766629445E+04  0.20173359225E+04 0.  0.
        1    1    3    3  502    0  0.41536309508E+03  0.17732719454E+03 -0.68201605205E+03  0.81799592294E+03  0.50400001928E-02 0.  1.
       -1    1    3    3    0  502 -0.41536309508E+03 -0.17732719454E+03  0.11748494527E+04  0.12586670215E+04  0.50400001928E-02 0. -1.
</event>
<event>
 5   0  0.9370269E-06  0.1993718E+04  0.7818609E-02  0.8609563E-01
       -1   -1    0    0    0  501  0.00000000000E+00  0.00000000000E+00  0.77326770323E+03  0.77326770324E+03  0.50400001928E-02 0.  1.
        1   -1    0    0  501    0  0.00000000000E+00  0.00000000000E+00 -0.12851026027E+04  0.12851026027E+04  0.50400001928E-02 0. -1.
    10030    2    1    2    0    0  0.00000000000E+00  0.00000000000E+00 -0.51183489951E+03  0.20583703060E+04  0.19937184737E+04 0.  0.
        4    1    3    3  502    0 -0.34468080065E+03  0.86731667126E+03 -0.61753794906E+03  0.11191058011E+04  0.12699999809E+01 0. -1.
       -4    1    3    3    0  502  0.34468080065E+03 -0.86731667126E+03  0.10570304956E+03  0.93926450490E+03  0.12699999809E+01 0.  1.
</event>
<event>
 5   0  0.1979765E-05  0.2001042E+04  0.7818609E-02  0.8606134E-01
       -2   -1    0    0    0  501  0.00000000000E+00  0.00000000000E+00  0.68749469912E+03  0.68749469913E+03  0.25500000920E-02 0.  1.
        2   -1    0    0  501    0  0.00000000000E+00  0.00000000000E+00 -0.14560728967E+04  0.14560728967E+04  0.25500000920E-02 0. -1.
    10030    2    1    2    0    0  0.00000000000E+00  0.00000000000E+00 -0.76857819757E+03  0.21435675958E+04  0.20010421265E+04 0.  0.
        2    1    3    3  502    0  0.49146202605E+03  0.64841412506E+03  0.23947942462E+03  0.84813100135E+03  0.25500000920E-02 0.  1.
       -2    1    3    3    0  502 -0.49146202605E+03 -0.64841412506E+03 -0.10080576222E+04  0.12954365945E+04  0.25500000920E-02 0. -1.
</event>
<event>
 5   0  0.9370269E-06  0.1979821E+04  0.7818609E-02  0.8616114E-01
       -1   -1    0    0    0  501  0.00000000000E+00  0.00000000000E+00  0.59233029279E+03  0.59233029281E+03  0.50400001928E-02 0. -1.
        1   -1    0    0  501    0  0.00000000000E+00  0.00000000000E+00 -0.16543518510E+04  0.16543518510E+04  0.50400001928E-02 0.  1.
    10030    2    1    2    0    0  0.00000000000E+00  0.00000000000E+00 -0.10620215582E+04  0.22466821438E+04  0.19798209174E+04 0.  0.
        4    1    3    3  502    0 -0.87115987070E+03  0.38460994608E+03 -0.83777549393E+03  0.12683507883E+04  0.12699999809E+01 0. -1.
       -4    1    3    3    0  502  0.87115987070E+03 -0.38460994608E+03 -0.22424606424E+03  0.97833135551E+03  0.12699999809E+01 0.  1.
</event>
<event>
 5   0  0.9140695E-06  0.2002850E+04  0.7818609E-02  0.8605289E-01
        1   -1    0    0  501    0  0.00000000000E+00  0.00000000000E+00  0.11348303478E+04  0.11348303478E+04  0.50400001928E-02 0. -1.
       -1   -1    0    0    0  501  0.00000000000E+00  0.00000000000E+00 -0.88370258420E+03  0.88370258422E+03  0.50400001928E-02 0.  1.
    10030    2    1    2    0    0  0.00000000000E+00  0.00000000000E+00  0.25112776359E+03  0.20185329320E+04  0.20028504797E+04 0.  0.
        1    1    3    3  502    0  0.60838536639E+02 -0.45710355936E+03  0.10214604840E+04  0.11207258861E+04  0.50400001928E-02 0. -1.
       -1    1    3    3    0  502 -0.60838536639E+02  0.45710355936E+03 -0.77033272038E+03  0.89780704588E+03  0.50400001928E-02 0.  1.
</event>
<event>
 5   0  0.2020029E-05  0.2001204E+04  0.7818609E-02  0.8606058E-01
        2   -1    0    0  501    0  0.00000000000E+00  0.00000000000E+00  0.11074042294E+04  0.11074042294E+04  0.25500000920E-02 0.  1.
       -2   -1    0    0    0  501  0.00000000000E+00  0.00000000000E+00 -0.90410008315E+03  0.90410008315E+03  0.25500000920E-02 0. -1.
    10030    2    1    2    0    0  0.00000000000E+00  0.00000000000E+00  0.20330414623E+03  0.20115043125E+04  0.20012038935E+04 0.  0.
        5    1    3    3  502    0  0.25353849284E+02 -0.73734476953E+03  0.78104679051E+03  0.10744190550E+04  0.46999998093E+01 0.  1.
       -5    1    3    3    0  502 -0.25353849284E+02  0.73734476953E+03 -0.57774264427E+03  0.93708525751E+03  0.46999998093E+01 0. -1.
</event>
<event>
 5   0  0.9220260E-06  0.1998529E+04  0.7818609E-02  0.8607309E-01
       -1   -1    0    0    0  501  0.00000000000E+00  0.00000000000E+00  0.69184811806E+03  0.69184811808E+03  0.50400001928E-02 0.  1.
        1   -1    0    0  501    0  0.00000000000E+00  0.00000000000E+00 -0.14432783817E+04  0.14432783817E+04  0.50400001928E-02 0. -1.
    10030    2    1    2    0    0  0.00000000000E+00  0.00000000000E+00 -0.75143026366E+03  0.21351264998E+04  0.19985288912E+04 0.  0.
        3    1    3    3  502    0 -0.77739116525E+03 -0.23511670345E+03  0.24623704928E+03  0.84867519269E+03  0.10100000352E+00 0.  1.
       -3    1    3    3    0  502  0.77739116525E+03  0.23511670345E+03 -0.99766731294E+03  0.12864513071E+04  0.10100000352E+00 0. -1.
</event>
<event>
 5   0  0.9220260E-06  0.1999763E+04  0.7818609E-02  0.8606732E-01
       -1   -1    0    0    0  501  0.00000000000E+00  0.00000000000E+00  0.94084462088E+03  0.94084462090E+03  0.50400001928E-02 0. -1.
        1   -1    0    0  501    0  0.00000000000E+00  0.00000000000E+00 -0.10626226141E+04  0.10626226142E+04  0.50400001928E-02 0.  1.
    10030    2    1    2    0    0  0.00000000000E+00  0.00000000000E+00 -0.12177799326E+03  0.20034672351E+04  0.19997627565E+04 0.  0.
        3    1    3    3  502    0 -0.75533122804E+03  0.52731039908E+03 -0.45042958789E+03  0.10254113052E+04  0.10100000352E+00 0.  1.
       -3    1    3    3    0  502  0.75533122804E+03 -0.52731039908E+03  0.32865159464E+03  0.97805592983E+03  0.10100000352E+00 0. -1.
</event>
<event>
 5   0  0.1979765E-05  0.2002315E+04  0.7818609E-02  0.8605539E-01
        2   -1    0    0  501    0  0.00000000000E+00  0.00000000000E+00  0.90818486559E+03  0.90818486560E+03  0.25500000920E-02 0. -1.
       -2   -1    0    0    0  501  0.00000000000E+00  0.00000000000E+00 -0.11036479779E+04  0.11036479779E+04  0.25500000920E-02 0.  1.
    10030    2    1    2    0    0  0.00000000000E+00  0.00000000000E+00 -0.19546311232E+03  0.20118328435E+04  0.20023150506E+04 0.  0.
        2    1    3    3  502    0  0.46382540530E+03  0.31037556321E+03 -0.93285595548E+03  0.10870543825E+04  0.25500000920E-02 0.  1.
       -2    1    3    3    0  502 -0.46382540530E+03 -0.31037556321E+03  0.73739284315E+03  0.92477846102E+03  0.25500000920E-02 0. -1.
</event>
<event>
 5   0  0.2003576E-05  0.1996391E+04  0.7818609E-02  0.8608310E-01
        2   -1    0    0  501    0  0.00000000000E+00  0.00000000000E+00  0.15785840059E+04  0.15785840059E+04  0.25500000920E-02 0.  1.
       -2   -1    0    0    0  501  0.00000000000E+00  0.00000000000E+00 -0.63119517872E+03  0.63119517872E+03  0.25500000920E-02 0. -1.
    10030    2    1    2    0    0  0.00000000000E+00  0.00000000000E+00  0.94738882718E+03  0.22097791846E+04  0.19963913582E+04 0.  0.
        4    1    3    3  502    0  0.18237597485E+03 -0.94296767951E+03  0.17270269289E+03  0.97584674710E+03  0.12699999809E+01 0. -1.
       -4    1    3    3    0  502 -0.18237597485E+03  0.94296767951E+03  0.77468613430E+03  0.12339324375E+04  0.12699999809E+01 0.  1.
</event>
<event>
 5   0  0.9220260E-06  0.2006678E+04  0.7818609E-02  0.8603505E-01
        1   -1    0    0  501    0  0.00000000000E+00  0.00000000000E+00  0.10327625225E+04  0.10327625226E+04  0.50400001928E-02 0.  1.
       -1   -1    0    0    0  501  0.00000000000E+00  0.00000000000E+00 -0.97475355977E+03  0.97475355979E+03  0.50400001928E-02 0. -1.
    10030    2    1    2    0    0  0.00000000000E+00  0.00000000000E+00  0.58008962767E+02  0.20075160823E+04  0.20066777970E+04 0.  0.
        3    1    3    3  502    0  0.11919716726E+03 -0.78446360748E+03  0.64334392203E+03  0.10215099257E+04  0.10100000352E+00 0.  1.
       -3    1    3    3    0  502 -0.11919716726E+03  0.78446360748E+03 -0.58533495926E+03  0.98600615661E+03  0.10100000352E+00 0. -1.
</event>
<event>
 5   0  0.1979765E-05  0.1996860E+04  0.7818609E-02  0.8608090E-01
        2   -1    0    0  501    0  0.00000000000E+00  0.00000000000E+00  0.90352662654E+03  0.90352662654E+03  0.25500000920E-02 0. -1.
       -2   -1    0    0    0  501  0.00000000000E+00  0.00000000000E+00 -0.11033016259E+04  0.11033016259E+04  0.25500000920E-02 0.  1.
    10030    2    1    2    0    0  0.00000000000E+00  0.00000000000E+00 -0.19977499935E+03  0.20068282524E+04  0.19968599311E+04 0.  0.
        2    1    3    3  502    0  0.74859758198E+03  0.19599381940E+03  0.53417443196E+03  0.94029476270E+03  0.25500000920E-02 0. -1.
       -2    1    3    3    0  502 -0.74859758198E+03 -0.19599381940E+03 -0.73394943131E+03  0.10665334897E+04  0.25500000920E-02 0.  1.
</event>
<event>
 5   0  0.2003576E-05  0.2002561E+04  0.7818609E-02  0.8605424E-01
       -2   -1    0    0    0  501  0.00000000000E+00  0.00000000000E+00  0.89450407124E+03  0.89450407124E+03  0.25500000920E-02 0. -1.
        2   -1    0    0  501    0  0.00000000000E+00  0.00000000000E+00 -0.11208031864E+04  0.11208031864E+04  0.25500000920E-02 0.  1.
    10030    2    1    2    0    0  0.00000000000E+00  0.00000000000E+00 -0.22629911518E+03  0.20153072577E+04  0.20025613732E+04 0.  0.
        4    1    3    3  502    0 -0.79341246758E+03  0.59040424917E+03  0.44309968518E+02  0.98997247808E+03  0.12699999809E+01 0. -1.
       -4    1    3    3    0  502  0.79341246758E+03 -0.59040424917E+03 -0.27060908370E+03  0.10253347796E+04  0.12699999809E+01 0.  1.
</event>
<event>
 5   0  0.2038882E-05  0.2010110E+04  0.7818609E-02  0.8601908E-01
       -2   -1    0    0    0  501  0.00000000000E+00  0.00000000000E+00  0.46151449434E+03  0.46151449434E+03  0.25500000920E-02 0.  1.
        2   -1    0    0  501    0  0.00000000000E+00  0.00000000000E+00 -0.21887411587E+04  0.21887411587E+04  0.25500000920E-02 0. -1.
    10030    2    1    2    0    0  0.00000000000E+00  0.00000000000E+00 -0.17272266643E+04  0.26502556530E+04  0.20101102150E+04 0.  0.
        3    1    3    3  502    0 -0.56788040355E+03  0.29841399718E+03  0.15646860003E+03  0.66031924056E+03  0.10100000352E+00 0.  1.
       -3    1    3    3    0  502  0.56788040355E+03 -0.29841399718E+03 -0.18836952644E+04  0.19899364124E+04  0.10100000352E+00 0. -1.
</event>
<event>
 5   0  0.9220260E-06  0.2001472E+04  0.7818609E-02  0.8605933E-01
       -1   -1    0    0    0  501  0.00000000000E+00  0.00000000000E+00  0.77158400659E+03  0.77158400661E+03  0.50400001928E-02 0.  1.
        1   -1    0    0  501    0  0.00000000000E+00  0.00000000000E+00 -0.12979432912E+04  0.12979432912E+04  0.50400001928E-02 0. -1.
    10030    2    1    2    0    0  0.00000000000E+00  0.00000000000E+00 -0.52635928460E+03  0.20695272978E+04  0.20014717435E+04 0.  0.
        3    1    3    3  502    0  0.32753171255E+03  0.28971335001E+02 -0.12404932696E+04  0.12833315717E+04  0.10100000352E+00 0. -1.
       -3    1    3    3    0  502 -0.32753171255E+03 -0.28971335001E+02  0.71413398498E+03  0.78619572606E+03  0.10100000352E+00 0.  1.
</event>
<event>
 5   0  0.1979765E-05  0.2005652E+04  0.7818609E-02  0.8603983E-01
       -2   -1    0    0    0  501  0.00000000000E+00  0.00000000000E+00  0.99521456395E+03  0.99521456396E+03  0.25500000920E-02 0.  1.
        2   -1    0    0  501    0  0.00000000000E+00  0.00000000000E+00 -0.10104955493E+04  0.10104955493E+04  0.25500000920E-02 0. -1.
    10030    2    1    2    0    0  0.00000000000E+00  0.00000000000E+00 -0.15280985366E+02  0.20057101133E+04  0.20056519015E+04 0.  0.
        2    1    3    3  502    0 -0.52375988022E+03 -0.16698049894E+03 -0.84638587883E+03  0.10092452403E+04  0.25500000920E-02 0. -1.
       -2    1    3    3    0  502  0.52375988022E+03  0.16698049894E+03  0.83110489346E+03  0.99646487299E+03  0.25500000920E-02 0.  1.
</event>
<event>
 5   0  0.9342635E-06  0.1969917E+04  0.7818609E-02  0.8620816E-01
        1   -1    0    0  501    0  0.00000000000E+00  0.00000000000E+00  0.89966808186E+03  0.89966808187E+03  0.50400001928E-02 0. -1.
       -1   -1    0    0    0  501  0.00000000000E+00  0.00000000000E+00 -0.10783342853E+04  0.10783342853E+04  0.50400001928E-02 0.  1.
    10030    2    1    2    0    0  0.00000000000E+00  0.00000000000E+00 -0.17866620340E+03  0.19780023671E+04  0.19699166866E+04 0.  0.
        5    1    3    3  502    0 -0.60537636485E+03 -0.41076851668E+03  0.57285048287E+03  0.92918840024E+03  0.46999998093E+01 0. -1.
       -5    1    3    3    0  502  0.60537636485E+03  0.41076851668E+03 -0.75151668627E+03  0.10488139669E+04  0.46999998093E+01 0.  1.
</event>
<event>
 5   0  0.9370269E-06  0.2011501E+04  0.7818609E-02  0.8601262E-01
        1   -1    0    0  501    0  0.00000000000E+00  0.00000000000E+00  0.15864393094E+04  0.15864393095E+04  0.50400001928E-02 0.  1.
       -1   -1    0    0    0  501  0.00000000000E+00  0.00000000000E+00 -0.63761312690E+03  0.63761312692E+03  0.50400001928E-02 0. -1.
    10030    2    1    2    0    0  0.00000000000E+00  0.00000000000E+00  0.94882618255E+03  0.22240524364E+04  0.20115014579E+04 0.  0.
        4    1    3    3  502    0  0.50478506604E+03  0.85855836853E+03  0.31960980028E+03  0.10459839733E+04  0.12699999809E+01 0.  1.
       -4    1    3    3    0  502 -0.50478506604E+03 -0.85855836853E+03  0.62921638226E+03  0.11780684631E+04  0.12699999809E+01 0. -1.
</event>
<event>
 5   0  0.1979765E-05  0.1997710E+04  0.7818609E-02  0.8607692E-01
        2   -1    0    0  501    0  0.00000000000E+00  0.00000000000E+00  0.12029488666E+04  0.12029488666E+04  0.25500000920E-02 0. -1.
       -2   -1    0    0    0  501  0.00000000000E+00  0.00000000000E+00 -0.82938760034E+03  0.82938760035E+03  0.25500000920E-02 0.  1.
    10030    2    1    2    0    0  0.00000000000E+00  0.00000000000E+00  0.37356126621E+03  0.20323364669E+04  0.19977095622E+04 0.  0.
        2    1    3    3  502    0  0.96566400959E+01 -0.82438438558E+03  0.76047725105E+03  0.11216187031E+04  0.25500000920E-02 0. -1.
       -2    1    3    3    0  502 -0.96566400959E+01  0.82438438558E+03 -0.38691598484E+03  0.91071776375E+03  0.25500000920E-02 0.  1.
</event>
<event>
 5   0  0.9342635E-06  0.1998992E+04  0.7818609E-02  0.8607092E-01
        1   -1    0    0  501    0  0.00000000000E+00  0.00000000000E+00  0.64920314665E+03  0.64920314667E+03  0.50400001928E-02 0. -1.
       -1   -1    0    0    0  501  0.00000000000E+00  0.00000000000E+00 -0.15387969815E+04  0.15387969815E+04  0.50400001928E-02 0.  1.
    10030    2    1    2    0    0  0.00000000000E+00  0.00000000000E+00 -0.88959383481E+03  0.21880001281E+04  0.19989915882E+04 0.  0.
        5    1    3    3  502    0  0.41155965297E+02  0.28446909144E+03 -0.14925714656E+04  0.15200026800E+04  0.46999998093E+01 0.  1.
       -5    1    3    3    0  502 -0.41155965297E+02 -0.28446909144E+03  0.60297763077E+03  0.66799744810E+03  0.46999998093E+01 0. -1.
</event>
<event>
 5   0  0.9220260E-06  0.1996624E+04  0.7818609E-02  0.8608201E-01
        1   -1    0    0  501    0  0.00000000000E+00  0.00000000000E+00  0.14921588726E+04  0.14921588726E+04  0.50400001928E-02 0. -1.
       -1   -1    0    0    0  501  0.00000000000E+00  0.00000000000E+00 -0.66790945886E+03  0.66790945888E+03  0.50400001928E-02 0.  1.
    10030    2    1    2    0    0  0.00000000000E+00  0.00000000000E+00  0.82424941374E+03  0.21600683315E+04  0.19966241761E+04 0.  0.
        3    1    3    3  502    0  0.93472879783E+02  0.43561738172E+03  0.13786367197E+04  0.14488405356E+04  0.10100000352E+00 0. -1.
       -3    1    3    3    0  502 -0.93472879783E+02 -0.43561738172E+03 -0.55438730593E+03  0.71122779592E+03  0.10100000352E+00 0.  1.
</event>
<event>
 5   0  0.9220260E-06  0.2000756E+04  0.7818609E-02  0.8606267E-01
        1   -1    0    0  501    0  0.00000000000E+00  0.00000000000E+00  0.13893780289E+04  0.13893780289E+04  0.50400001928E-02 0. -1.
       -1   -1    0    0    0  501  0.00000000000E+00  0.00000000000E+00 -0.72029070521E+03  0.72029070523E+03  0.50400001928E-02 0.  1.
    10030    2    1    2    0    0  0.00000000000E+00  0.00000000000E+00  0.66908732371E+03  0.21096687342E+04  0.20007559374E+04 0.  0.
        3    1    3    3  502    0  0.73622129191E+03  0.67552426442E+03  0.38621368114E+03  0.10712216578E+04  0.10100000352E+00 0.  1.
       -3    1    3    3    0  502 -0.73622129191E+03 -0.67552426442E+03  0.28287364257E+03  0.10384470763E+04  0.10100000352E+00 0. -1.
</event>
<event>
 5   0  0.9333353E-06  0.1996850E+04  0.7818609E-02  0.8608095E-01
        1   -1    0    0  501    0  0.00000000000E+00  0.00000000000E+00  0.14565542695E+04  0.14565542695E+04  0.50400001928E-02 0.  1.
       -1   -1    0    0    0  501  0.00000000000E+00  0.00000000000E+00 -0.68439092654E+03  0.68439092656E+03  0.50400001928E-02 0. -1.
    10030    2    1    2    0    0  0.00000000000E+00  0.00000000000E+00  0.77216334297E+03  0.21409451961E+04  0.19968500455E+04 0.  0.
        2    1    3    3  502    0  0.39563263368E+03  0.42152078864E+03 -0.48669152983E+03  0.75569411888E+03  0.25500000920E-02 0. -1.
       -2    1    3    3    0  502 -0.39563263368E+03 -0.42152078864E+03  0.12588548728E+04  0.13852510772E+04  0.25500000920E-02 0.  1.
</event>
<event>
 5   0  0.2020029E-05  0.2000021E+04  0.7818609E-02  0.8606611E-01
        2   -1    0    0  501    0  0.00000000000E+00  0.00000000000E+00  0.11461196756E+04  0.11461196756E+04  0.25500000920E-02 0. -1.
       -2   -1    0    0    0  501  0.00000000000E+00  0.00000000000E+00 -0.87252754723E+03  0.87252754724E+03  0.25500000920E-02 0.  1.
    10030    2    1    2    0    0  0.00000000000E+00  0.00000000000E+00  0.27359212833E+03  0.20186472228E+04  0.20000209893E+04 0.  0.
        5    1    3    3  502    0  0.49190803985E+03  0.32565829135E+03 -0.67817157960E+03  0.89886908044E+03  0.46999998093E+01 0.  1.
       -5    1    3    3    0  502 -0.49190803985E+03 -0.32565829135E+03  0.95176370792E+03  0.11197781424E+04  0.46999998093E+01 0. -1.
</event>
<event>
 5   0  0.9370269E-06  0.2008816E+04  0.7818609E-02  0.8602510E-01
        1   -1    0    0  501    0  0.00000000000E+00  0.00000000000E+00  0.95705502368E+03  0.95705502369E+03  0.50400001928E-02 0. -1.
       -1   -1    0    0    0  501  0.00000000000E+00  0.00000000000E+00 -0.10541042885E+04  0.10541042885E+04  0.50400001928E-02 0.  1.
    10030    2    1    2    0    0  0.00000000000E+00  0.00000000000E+00 -0.97049264852E+02  0.20111593122E+04  0.20088163727E+04 0.  0.
        4    1    3    3  502    0 -0.27313008510E+03  0.58268705633E+03 -0.82059846703E+03  0.10428363755E+04  0.12699999809E+01 0.  1.
       -4    1    3    3    0  502  0.27313008510E+03 -0.58268705633E+03  0.72354920218E+03  0.96832293677E+03  0.12699999809E+01 0. -1.
</event>
<event>
 5   0  0.9220260E-06  0.1999218E+04  0.7818609E-02  0.8606987E-01
       -1   -1    0    0    0  501  0.00000000000E+00  0.00000000000E+00  0.10016706456E+04  0.10016706456E+04  0.50400001928E-02 0. -1.
        1   -1    0    0  501    0  0.00000000000E+00  0.00000000000E+00 -0.99755129434E+03  0.99755129435E+03  0.50400001928E-02 0.  1.
    10030    2    1    2    0    0  0.00000000000E+00  0.00000000000E+00  0.41193512879E+01  0.19992219400E+04  0.19992176961E+04 0.  0.
        3    1    3    3  502    0 -0.32256363370E+03 -0.63228270196E+03  0.70590001912E+03  0.10010612170E+04  0.10100000352E+00 0. -1.
       -3    1    3    3    0  502  0.32256363370E+03  0.63228270196E+03 -0.70178066784E+03  0.99816072299E+03  0.10100000352E+00 0.  1.
</event>
<event>
 5   0  0.1979765E-05  0.1995500E+04  0.7818609E-02  0.8608727E-01
        2   -1    0    0  501    0  0.00000000000E+00  0.00000000000E+00  0.10395145175E+04  0.10395145175E+04  0.25500000920E-02 0.  1.
       -2   -1    0    0    0  501  0.00000000000E+00  0.00000000000E+00 -0.95766364314E+03  0.95766364314E+03  0.25500000920E-02 0. -1.
    10030    2    1    2    0    0  0.00000000000E+00  0.00000000000E+00  0.81850874342E+02  0.19971781606E+04  0.19955001979E+04 0.  0.
        2    1    3    3  502    0 -0.80642191807E+02 -0.26936488605E+03 -0.91719069910E+03  0.95932235638E+03  0.25500000920E-02 0. -1.
       -2    1    3    3    0  502  0.80642191807E+02  0.26936488605E+03  0.99904157344E+03  0.10378558042E+04  0.25500000920E-02 0.  1.
</event>
<event>
 5   0  0.9333353E-06  0.2000095E+04  0.7818609E-02  0.8606576E-01
        1   -1    0    0  501    0  0.00000000000E+00  0.00000000000E+00  0.11220210445E+04  0.11220210445E+04  0.50400001928E-02 0. -1.
       -1   -1    0    0    0  501  0.00000000000E+00  0.00000000000E+00 -0.89133386854E+03  0.89133386855E+03  0.50400001928E-02 0.  1.
    10030    2    1    2    0    0  0.00000000000E+00  0.00000000000E+00  0.23068717598E+03  0.20133549131E+04  0.20000953559E+04 0.  0.
        2    1    3    3  502    0 -0.51717436296E+03 -0.80109161331E+03  0.41880232613E+03  0.10414473021E+04  0.25500000920E-02 0. -1.
       -2    1    3    3    0  502  0.51717436296E+03  0.80109161331E+03 -0.18811515015E+03  0.97190761101E+03  0.25500000920E-02 0.  1.
</event>
<event>
 5   0  0.2020029E-05  0.2001672E+04  0.7818609E-02  0.8605839E-01
       -2   -1    0    0    0  501  0.00000000000E+00  0.00000000000E+00  0.18337334054E+04  0.18337334054E+04  0.25500000920E-02 0. -1.
        2   -1    0    0  501    0  0.00000000000E+00  0.00000000000E+00 -0.54624769143E+03  0.54624769144E+03  0.25500000920E-02 0.  1.
    10030    2    1    2    0    0  0.00000000000E+00  0.00000000000E+00  0.12874857139E+04  0.23799810968E+04  0.20016719405E+04 0.  0.
        5    1    3    3  502    0 -0.79526111779E+03 -0.32973476772E+03  0.12505800702E+04  0.15182680477E+04  0.46999998093E+01 0. -1.
       -5    1    3    3    0  502  0.79526111779E+03  0.32973476772E+03  0.36905643707E+02  0.86171304913E+03  0.46999998093E+01 0.  1.
</event>
<event>
 5   0  0.9140695E-06  0.2002234E+04  0.7818609E-02  0.8605577E-01
        1   -1    0    0  501    0  0.00000000000E+00  0.00000000000E+00  0.12934865046E+04  0.12934865046E+04  0.50400001928E-02 0.  1.
       -1   -1    0    0    0  501  0.00000000000E+00  0.00000000000E+00 -0.77483274390E+03  0.77483274391E+03  0.50400001928E-02 0. -1.
    10030    2    1    2    0    0  0.00000000000E+00  0.00000000000E+00  0.51865376067E+03  0.20683192485E+04  0.20022344494E+04 0.  0.
        1    1    3    3  502    0  0.69611926237E+03 -0.42904838110E+03  0.85594561930E+03  0.11837683236E+04  0.50400001928E-02 0.  1.
       -1    1    3    3    0  502 -0.69611926237E+03  0.42904838110E+03 -0.33729185863E+03  0.88455092487E+03  0.50400001928E-02 0. -1.
</event>
<event>
 5   0  0.2038882E-05  0.2003080E+04  0.7818609E-02  0.8605182E-01
        2   -1    0    0  501    0  0.00000000000E+00  0.00000000000E+00  0.82959969586E+03  0.82959969586E+03  0.25500000920E-02 0.  1.
       -2   -1    0    0    0  501  0.00000000000E+00  0.00000000000E+00 -0.12091161724E+04  0.12091161724E+04  0.25500000920E-02 0. -1.
    10030    2    1    2    0    0  0.00000000000E+00  0.00000000000E+00 -0.37951647657E+03  0.20387158683E+04  0.20030800373E+04 0.  0.
        3    1    3    3  502    0 -0.46362531942E+02  0.20661234774E+03 -0.11860728782E+04  0.12048265556E+04  0.10100000352E+00 0. -1.
       -3    1    3    3    0  502  0.46362531942E+02 -0.20661234774E+03  0.80655640161E+03  0.83388931267E+03  0.10100000352E+00 0.  1.
</event>
<event>
 5   0  0.2020029E-05  0.1996905E+04  0.7818609E-02  0.8608069E-01
        2   -1    0    0  501    0  0.00000000000E+00  0.00000000000E+00  0.10552346233E+04  0.10552346233E+04  0.25500000920E-02 0. -1.
       -2   -1    0    0    0  501  0.00000000000E+00  0.00000000000E+00 -0.94472593694E+03  0.94472593695E+03  0.25500000920E-02 0.  1.
    10030    2    1    2    0    0  0.00000000000E+00  0.00000000000E+00  0.11050868637E+03  0.19999605603E+04  0.19969051237E+04 0.  0.
        5    1    3    3  502    0 -0.47229030396E+03 -0.96145749913E+02  0.93099679289E+03  0.10483698082E+04  0.46999998093E+01 0. -1.
       -5    1    3    3    0  502  0.47229030396E+03  0.96145749913E+02 -0.82048810651E+03  0.95159075204E+03  0.46999998093E+01 0.  1.
</event>
<event>
 5   0  0.9140695E-06  0.1999696E+04  0.7818609E-02  0.8606763E-01
        1   -1    0    0  501    0  0.00000000000E+00  0.00000000000E+00  0.16052893910E+04  0.16052893910E+04  0.50400001928E-02 0. -1.
       -1   -1    0    0    0  501  0.00000000000E+00  0.00000000000E+00 -0.62275140999E+03  0.62275141001E+03  0.50400001928E-02 0.  1.
    10030    2    1    2    0    0  0.00000000000E+00  0.00000000000E+00  0.98253798101E+03  0.22280408010E+04  0.19996962086E+04 0.  0.
        1    1    3    3  502    0 -0.26495463009E+03 -0.70544466791E+03 -0.24091816662E+03  0.79113506971E+03  0.50400001928E-02 0.  1.
       -1    1    3    3    0  502  0.26495463009E+03  0.70544466791E+03  0.12234561476E+04  0.14369057313E+04  0.50400001928E-02 0. -1.
</event>
<event>
 5   0  0.1979765E-05  0.1997468E+04  0.7818609E-02  0.8607805E-01
        2   -1    0    0  501    0  0.00000000000E+00  0.00000000000E+00  0.12484337095E+04  0.12484337095E+04  0.25500000920E-02 0. -1.
       -2   -1    0    0    0  501  0.00000000000E+00  0.00000000000E+00 -0.79897709959E+03  0.79897709959E+03  0.25500000920E-02 0.  1.
    10030    2    1    2    0    0  0.00000000000E+00  0.00000000000E+00  0.44945660994E+03  0.20474108091E+04  0.19974683419E+04 0.  0.
        2    1    3    3  502    0 -0.96572494461E+03 -0.21509614475E+03  0.85015771634E+02  0.99303509584E+03  0.25500000920E-02 0.  1.
       -2    1    3    3    0  502  0.96572494461E+03  0.21509614475E+03  0.36444083830E+03  0.10543757133E+04  0.25500000920E-02 0. -1.
</event>
<event>
 5   0  0.2020029E-05  0.2002727E+04  0.7818609E-02  0.8605347E-01
       -2   -1    0    0    0  501  0.00000000000E+00  0.00000000000E+00  0.53044709098E+03  0.53044709099E+03  0.25500000920E-02 0. -1.
        2   -1    0    0  501    0  0.00000000000E+00  0.00000000000E+00 -0.18903461759E+04  0.18903461759E+04  0.25500000920E-02 0.  1.
    10030    2    1    2    0    0  0.00000000000E+00  0.00000000000E+00 -0.13598990849E+04  0.24207932669E+04  0.20027267711E+04 0.  0.
        5    1    3    3  502    0 -0.63344311367E+03  0.35298497012E+03  0.15475066899E+03  0.74149742207E+03  0.46999998093E+01 0. -1.
       -5    1    3    3    0  502  0.63344311367E+03 -0.35298497012E+03 -0.15146497539E+04  0.16792958448E+04  0.46999998093E+01 0.  1.
</event>
<event>
 5   0  0.9333353E-06  0.1999790E+04  0.7818609E-02  0.8606719E-01
       -1   -1    0    0    0  501  0.00000000000E+00  0.00000000000E+00  0.66313452494E+03  0.66313452496E+03  0.50400001928E-02 0. -1.
        1   -1    0    0  501    0  0.00000000000E+00  0.00000000000E+00 -0.15076729638E+04  0.15076729638E+04  0.50400001928E-02 0.  1.
    10030    2    1    2    0    0  0.00000000000E+00  0.00000000000E+00 -0.84453843886E+03  0.21708074888E+04  0.19997899836E+04 0.  0.
        2    1    3    3  502    0 -0.21545842733E+02 -0.10625458094E+03 -0.15012737012E+04  0.15051833726E+04  0.25500000920E-02 0.  1.
       -2    1    3    3    0  502  0.21545842733E+02  0.10625458094E+03  0.65673526229E+03  0.66562411619E+03  0.25500000920E-02 0. -1.
</event>
<event>
 5   0  0.2020029E-05  0.2000971E+04  0.7818609E-02  0.8606167E-01
       -2   -1    0    0    0  501  0.00000000000E+00  0.00000000000E+00  0.76934958480E+03  0.76934958480E+03  0.25500000920E-02 0.  1.
        2   -1    0    0  501    0  0.00000000000E+00  0.00000000000E+00 -0.13010619911E+04  0.13010619911E+04  0.25500000920E-02 0. -1.
    10030    2    1    2    0    0  0.00000000000E+00  0.00000000000E+00 -0.53171240626E+03  0.20704115759E+04  0.20009712668E+04 0.  0.
        5    1    3    3  502    0  0.88543228832E+03 -0.45571250280E+03 -0.36555989440E+03  0.10608111749E+04  0.46999998093E+01 0.  1.
       -5    1    3    3    0  502 -0.88543228832E+03  0.45571250280E+03 -0.16615251186E+03  0.10096004010E+04  0.46999998093E+01 0. -1.
</event>
<event>
 5   0  0.9370269E-06  0.1998927E+04  0.7818609E-02  0.8607123E-01
       -1   -1    0    0    0  501  0.00000000000E+00  0.00000000000E+00  0.10549982493E+04  0.10549982493E+04  0.50400001928E-02 0.  1.
        1   -1    0    0  501    0  0.00000000000E+00  0.00000000000E+00 -0.94685166424E+03  0.94685166425E+03  0.50400001928E-02 0. -1.
    10030    2    1    2    0    0  0.00000000000E+00  0.00000000000E+00  0.10814658508E+03  0.20018499136E+04  0.19989265601E+04 0.  0.
        4    1    3    3  502    0  0.43342874535E+03  0.34469882060E+03  0.88730419238E+03  0.10459388591E+04  0.12699999809E+01 0.  1.
       -4    1    3    3    0  502 -0.43342874535E+03 -0.34469882060E+03 -0.77915760730E+03  0.95591105451E+03  0.12699999809E+01 0. -1.
</event>
<event>
 5   0  0.9342635E-06  0.2002630E+04  0.7818609E-02  0.8605392E-01
        1   -1    0    0  501    0  0.00000000000E+00  0.00000000000E+00  0.97038071342E+03  0.97038071343E+03  0.50400001928E-02 0.  1.
       -1   -1    0    0    0  501  0.00000000000E+00  0.00000000000E+00 -0.10332357271E+04  0.10332357271E+04  0.50400001928E-02 0. -1.
    10030    2    1    2    0    0  0.00000000000E+00  0.00000000000E+00 -0.62855013645E+02  0.20036164405E+04  0.20026302924E+04 0.  0.
        5    1    3    3  502    0 -0.76397916608E+03 -0.13005371702E+03 -0.66579950820E+03  0.10217089657E+04  0.46999998093E+01 0.  1.
       -5    1    3    3    0  502  0.76397916608E+03  0.13005371702E+03  0.60294449455E+03  0.98190747478E+03  0.46999998093E+01 0. -1.
</event>
<event>
 5   0  0.9342635E-06  0.1999125E+04  0.7818609E-02  0.8607030E-01
       -1   -1    0    0    0  501  0.00000000000E+00  0.00000000000E+00  0.10686159906E+04  0.10686159907E+04  0.50400001928E-02 0.  1.
        1   -1    0    0  501    0  0.00000000000E+00  0.00000000000E+00 -0.93497106554E+03  0.93497106556E+03  0.50400001928E-02 0. -1.
    10030    2    1    2    0    0  0.00000000000E+00  0.00000000000E+00  0.13364492510E+03  0.20035870562E+04  0.19991248400E+04 0.  0.
        5    1    3    3  502    0 -0.75791482346E+03 -0.44293161492E+03  0.54588483489E+03  0.10337483437E+04  0.46999998093E+01 0. -1.
       -5    1    3    3    0  502  0.75791482346E+03  0.44293161492E+03 -0.41223990979E+03  0.96983871253E+03  0.46999998093E+01 0.  1.
</event>
<event>
 5   0  0.9342635E-06  0.2002077E+04  0.7818609E-02  0.8605650E-01
       -1   -1    0    0    0  501  0.00000000000E+00  0.00000000000E+00  0.47133721791E+03  0.47133721794E+03  0.50400001928E-02 0.  1.
        1   -1    0    0  501    0  0.00000000000E+00  0.00000000000E+00 -0.21260318625E+04  0.21260318625E+04  0.50400001928E-02 0. -1.
    10030    2    1    2    0    0  0.00000000000E+00  0.00000000000E+00 -0.16546946446E+04  0.25973690804E+04  0.20020768650E+04 0.  0.
        5    1    3    3  502    0 -0.61580297896E+00  0.76671693710E+03 -0.16622931282E+04  0.18305998402E+04  0.46999998093E+01 0. -1.
       -5    1    3    3    0  502  0.61580297896E+00 -0.76671693710E+03  0.75984836063E+01  0.76676924026E+03  0.46999998093E+01 0.  1.
</event>
<event>
 5   0  0.2038882E-05  0.2000548E+04  0.7818609E-02  0.8606364E-01
        2   -1    0    0  501    0  0.00000000000E+00  0.00000000000E+00  0.59189886444E+03  0.59189886445E+03  0.25500000920E-02 0. -1.
       -2   -1    0    0    0  501  0.00000000000E+00  0.00000000000E+00 -0.16904039569E+04  0.16904039569E+04  0.25500000920E-02 0.  1.
    10030    2    1    2    0    0  0.00000000000E+00  0.00000000000E+00 -0.10985050924E+04  0.22823028213E+04  0.20005481074E+04 0.  0.
        3    1    3    3  502    0 -0.62178400047E+02  0.93692130051E+03 -0.15593525814E+03  0.95184215694E+03  0.10100000352E+00 0.  1.
       -3    1    3    3    0  502  0.62178400047E+02 -0.93692130051E+03 -0.94256983431E+03  0.13304606644E+04  0.10100000352E+00 0. -1.
</event>
<event>
 5   0  0.9342635E-06  0.2000144E+04  0.7818609E-02  0.8606553E-01
       -1   -1    0    0    0  501  0.00000000000E+00  0.00000000000E+00  0.16543697892E+04  0.16543697893E+04  0.50400001928E-02 0. -1.
        1   -1    0    0  501    0  0.00000000000E+00  0.00000000000E+00 -0.60454699165E+03  0.60454699168E+03  0.50400001928E-02 0.  1.
    10030    2    1    2    0    0  0.00000000000E+00  0.00000000000E+00  0.10498227976E+04  0.22589167809E+04  0.20001442740E+04 0.  0.
        5    1    3    3  502    0 -0.52566619725E+03 -0.54573042432E+03 -0.21219679801E+03  0.78689021981E+03  0.46999998093E+01 0.  1.
       -5    1    3    3    0  502  0.52566619725E+03  0.54573042432E+03  0.12620195956E+04  0.14720265611E+04  0.46999998093E+01 0. -1.
</event>
<event>
 5   0  0.9342635E-06  0.2000040E+04  0.7818609E-02  0.8606602E-01
        1   -1    0    0  501    0  0.00000000000E+00  0.00000000000E+00  0.95581712188E+03  0.95581712190E+03  0.50400001928E-02 0. -1.
       -1   -1    0    0    0  501  0.00000000000E+00  0.00000000000E+00 -0.10462669130E+04  0.10462669130E+04  0.50400001928E-02 0.  1.
    10030    2    1    2    0    0  0.00000000000E+00  0.00000000000E+00 -0.90449791137E+02  0.20020840349E+04  0.20000398292E+04 0.  0.
        5    1    3    3  502    0  0.27574771728E+03 -0.94606219219E+03  0.12508795688E+03  0.99334765416E+03  0.46999998093E+01 0.  1.
       -5    1    3    3    0  502 -0.27574771728E+03  0.94606219219E+03 -0.21553774802E+03  0.10087363808E+04  0.46999998093E+01 0. -1.
</event>
<event>
 5   0  0.2038882E-05  0.2007731E+04  0.7818609E-02  0.8603015E-01
        2   -1    0    0  501    0  0.00000000000E+00  0.00000000000E+00  0.13871821506E+04  0.13871821506E+04  0.25500000920E-02 0.  1.
       -2   -1    0    0    0  501  0.00000000000E+00  0.00000000000E+00 -0.72646952931E+03  0.72646952932E+03  0.25500000920E-02 0. -1.
    10030    2    1    2    0    0  0.00000000000E+00  0.00000000000E+00  0.66071262125E+03  0.21136516799E+04  0.20077306234E+04 0.  0.
        3    1    3    3  502    0  0.16816816699E+03  0.72332253247E+03 -0.38075684326E+03  0.83453687891E+03  0.10100000352E+00 0. -1.
       -3    1    3    3    0  502 -0.16816816699E+03 -0.72332253247E+03  0.10414694645E+04  0.12791148010E+04  0.10100000352E+00 0.  1.
</event>
<event>
 5   0  0.1999142E-05  0.2001008E+04  0.7818609E-02  0.8606150E-01
        2   -1    0    0  501    0  0.00000000000E+00  0.00000000000E+00  0.80301477196E+03  0.80301477197E+03  0.25500000920E-02 0. -1.
       -2   -1    0    0    0  501  0.00000000000E+00  0.00000000000E+00 -0.12465626955E+04  0.12465626955E+04  0.25500000920E-02 0.  1.
    10030    2    1    2    0    0  0.00000000000E+00  0.00000000000E+00 -0.44354792358E+03  0.20495774675E+04  0.20010080047E+04 0.  0.
        1    1    3    3  502    0  0.78626185143E+03  0.36868441031E+03  0.28714865426E+03  0.91465307253E+03  0.50400001928E-02 0. -1.
       -1    1    3    3    0  502 -0.78626185143E+03 -0.36868441031E+03 -0.73069657784E+03  0.11349243950E+04  0.50400001928E-02 0.  1.
</event>
<event>
 5   0  0.2003576E-05  0.2029094E+04  0.7818609E-02  0.8593138E-01
        2   -1    0    0  501    0  0.00000000000E+00  0.00000000000E+00  0.12308944807E+04  0.12308944807E+04  0.25500000920E-02 0. -1.
       -2   -1    0    0    0  501  0.00000000000E+00  0.00000000000E+00 -0.83622586985E+03  0.83622586986E+03  0.25500000920E-02 0.  1.
    10030    2    1    2    0    0  0.00000000000E+00  0.00000000000E+00  0.39466861081E+03  0.20671203505E+04  0.20290941898E+04 0.  0.
        4    1    3    3  502    0  0.23711436792E+03 -0.21927495267E+03 -0.78245861347E+03  0.84649147842E+03  0.12699999809E+01 0.  1.
       -4    1    3    3    0  502 -0.23711436792E+03  0.21927495267E+03  0.11771272243E+04  0.12206288721E+04  0.12699999809E+01 0. -1.
</event>
<event>
 5   0  0.9333353E-06  0.1998855E+04  0.7818609E-02  0.8607156E-01
        1   -1    0    0  501    0  0.00000000000E+00  0.00000000000E+00  0.98339113307E+03  0.98339113308E+03  0.50400001928E-02 0.  1.
       -1   -1    0    0    0  501  0.00000000000E+00  0.00000000000E+00 -0.10157257310E+04  0.10157257310E+04  0.50400001928E-02 0. -1.
    10030    2    1    2    0    0  0.00000000000E+00  0.00000000000E+00 -0.32334597958E+02  0.19991168641E+04  0.19988553500E+04 0.  0.
        2    1    3    3  502    0  0.45811853497E+03  0.67575915574E+03 -0.59272572102E+03  0.10088839423E+04  0.25500000920E-02 0. -1.
       -2    1    3    3    0  502 -0.45811853497E+03 -0.67575915574E+03  0.56039112306E+03  0.99023292182E+03  0.25500000920E-02 0.  1.
</event>
<event>
 5   0  0.2020029E-05  0.1997512E+04  0.7818609E-02  0.8607785E-01
        2   -1    0    0  501    0  0.00000000000E+00  0.00000000000E+00  0.65009108410E+03  0.65009108410E+03  0.25500000920E-02 0.  1.
       -2   -1    0    0    0  501  0.00000000000E+00  0.00000000000E+00 -0.15344204577E+04  0.15344204577E+04  0.25500000920E-02 0. -1.
    10030    2    1    2    0    0  0.00000000000E+00  0.00000000000E+00 -0.88432937360E+03  0.21845115418E+04  0.19975115107E+04 0.  0.
        5    1    3    3  502    0 -0.81391068039E+03 -0.29767024258E+03  0.10072839660E+03  0.87248293327E+03  0.46999998093E+01 0. -1.
       -5    1    3    3    0  502  0.81391068039E+03  0.29767024258E+03 -0.98505777020E+03  0.13120286085E+04  0.46999998093E+01 0.  1.
</event>
<event>
 5   0  0.9370269E-06  0.2000616E+04  0.7818609E-02  0.8606333E-01
       -1   -1    0    0    0  501  0.00000000000E+00  0.00000000000E+00  0.56995967233E+03  0.56995967235E+03  0.50400001928E-02 0.  1.
        1   -1    0    0  501    0  0.00000000000E+00  0.00000000000E+00 -0.17555904631E+04  0.17555904631E+04  0.50400001928E-02 0. -1.
    10030    2    1    2    0    0  0.00000000000E+00  0.00000000000E+00 -0.11856307907E+04  0.23255501354E+04  0.20006156704E+04 0.  0.
        4    1    3    3  502    0  0.83806884529E+03  0.51495346432E+03 -0.80422739905E+03  0.12705588464E+04  0.12699999809E+01 0.  1.
       -4    1    3    3    0  502 -0.83806884529E+03 -0.51495346432E+03 -0.38140339169E+03  0.10549912890E+04  0.12699999809E+01 0. -1.
</event>
<event>
 5   0  0.1999142E-05  0.1992011E+04  0.7818609E-02  0.8610365E-01
       -2   -1    0    0    0  501  0.00000000000E+00  0.00000000000E+00  0.65048280229E+03  0.65048280229E+03  0.25500000920E-02 0.  1.
        2   -1    0    0  501    0  0.00000000000E+00  0.00000000000E+00 -0.15250626011E+04  0.15250626011E+04  0.25500000920E-02 0. -1.
    10030    2    1    2    0    0  0.00000000000E+00  0.00000000000E+00 -0.87457979886E+03  0.21755454034E+04  0.19920110386E+04 0.  0.
        1    1    3    3  502    0 -0.75063600154E+03  0.21014076124E+02  0.27731295466E+03  0.80049889010E+03  0.50400001928E-02 0.  1.
       -1    1    3    3    0  502  0.75063600154E+03 -0.21014076124E+02 -0.11518927535E+04  0.13750465133E+04  0.50400001928E-02 0. -1.
</event>
<event>
 5   0  0.2020029E-05  0.2000956E+04  0.7818609E-02  0.8606174E-01
        2   -1    0    0  501    0  0.00000000000E+00  0.00000000000E+00  0.18730238088E+04  0.18730238088E+04  0.25500000920E-02 0. -1.
       -2   -1    0    0    0  501  0.00000000000E+00  0.00000000000E+00 -0.53440641117E+03  0.53440641118E+03  0.25500000920E-02 0.  1.
    10030    2    1    2    0    0  0.00000000000E+00  0.00000000000E+00  0.13386173976E+04  0.24074302200E+04  0.20009557034E+04 0.  0.
        5    1    3    3  502    0 -0.21818261634E+03  0.38324747999E+03  0.17497604449E+04  0.18044849652E+04  0.46999998093E+01 0. -1.
       -5    1    3    3    0  502  0.21818261634E+03 -0.38324747999E+03 -0.41114304726E+03  0.60294525481E+03  0.46999998093E+01 0.  1.
</event>
<event>
 5   0  0.1979765E-05  0.1999117E+04  0.7818609E-02  0.8607033E-01
       -2   -1    0    0    0  501  0.00000000000E+00  0.00000000000E+00  0.59357194624E+03  0.59357194625E+03  0.25500000920E-02 0.  1.
        2   -1    0    0  501    0  0.00000000000E+00  0.00000000000E+00 -0.16832293016E+04  0.16832293016E+04  0.25500000920E-02 0. -1.
    10030    2    1    2    0    0  0.00000000000E+00  0.00000000000E+00 -0.10896573554E+04  0.22768012478E+04  0.19991174978E+04 0.  0.
        2    1    3    3  502    0  0.80297759774E+03  0.63248732536E+02  0.12928681517E+03  0.81577478830E+03  0.25500000920E-02 0.  1.
       -2    1    3    3    0  502 -0.80297759774E+03 -0.63248732536E+02 -0.12189441705E+04  0.14610264595E+04  0.25500000920E-02 0. -1.
</event>
<event>
 5   0  0.9140695E-06  0.2003880E+04  0.7818609E-02  0.8604809E-01
        1   -1    0    0  501    0  0.00000000000E+00  0.00000000000E+00  0.12087419204E+04  0.12087419204E+04  0.50400001928E-02 0.  1.
       -1   -1    0    0    0  501  0.00000000000E+00  0.00000000000E+00 -0.83051926215E+03  0.83051926217E+03  0.50400001928E-02 0. -1.
    10030    2    1    2    0    0  0.00000000000E+00  0.00000000000E+00  0.37822265826E+03  0.20392611826E+04  0.20038796849E+04 0.  0.
        1    1    3    3  502    0  0.61108326721E+03 -0.78617288880E+03  0.30240020969E+03  0.10406423292E+04  0.50400001928E-02 0.  1.
       -1    1    3    3    0  502 -0.61108326721E+03  0.78617288880E+03  0.75822448571E+02  0.99861885336E+03  0.50400001928E-02 0. -1.
</event>
<event>
 5   0  0.9370269E-06  0.1999159E+04  0.7818609E-02  0.8607014E-01
        1   -1    0    0  501    0  0.00000000000E+00  0.00000000000E+00  0.59549890738E+03  0.59549890740E+03  0.50400001928E-02 0. -1.
       -1   -1    0    0    0  501  0.00000000000E+00  0.00000000000E+00 -0.16778517493E+04  0.16778517493E+04  0.50400001928E-02 0.  1.
    10030    2    1    2    0    0  0.00000000000E+00  0.00000000000E+00 -0.10823528419E+04  0.22733506567E+04  0.19991587066E+04 0.  0.
        4    1    3    3  502    0  0.63038547173E+03 -0.48304894392E+03 -0.12314157199E+04  0.14653014752E+04  0.12699999809E+01 0.  1.
       -4    1    3    3    0  502 -0.63038547173E+03  0.48304894392E+03  0.14906287798E+03  0.80804918148E+03  0.12699999809E+01 0. -1.
</event>
<event>
 5   0  0.1979765E-05  0.1996933E+04  0.7818609E-02  0.8608056E-01
       -2   -1    0    0    0  501  0.00000000000E+00  0.00000000000E+00  0.70979554687E+03  0.70979554688E+03  0.25500000920E-02 0. -1.
        2   -1    0    0  501    0  0.00000000000E+00  0.00000000000E+00 -0.14045386329E+04  0.14045386329E+04  0.25500000920E-02 0.  1.
    10030    2    1    2    0    0  0.00000000000E+00  0.00000000000E+00 -0.69474308606E+03  0.21143341798E+04  0.19969329153E+04 0.  0.
        2    1    3    3  502    0  0.18088973137E+03  0.29870335753E+03 -0.13377742486E+04  0.13826007128E+04  0.25500000920E-02 0.  1.
       -2    1    3    3    0  502 -0.18088973137E+03 -0.29870335753E+03  0.64303116257E+03  0.73173346702E+03  0.25500000920E-02 0. -1.
</event>
<event>
 5   0  0.2020029E-05  0.1994807E+04  0.7818609E-02  0.8609052E-01
        2   -1    0    0  501    0  0.00000000000E+00  0.00000000000E+00  0.95519105002E+03  0.95519105003E+03  0.25500000920E-02 0. -1.
       -2   -1    0    0    0  501  0.00000000000E+00  0.00000000000E+00 -0.10414813501E+04  0.10414813501E+04  0.25500000920E-02 0.  1.
    10030    2    1    2    0    0  0.00000000000E+00  0.00000000000E+00 -0.86290300028E+02  0.19966724001E+04  0.19948069223E+04 0.  0.
        5    1    3    3  502    0  0.31234062508E+03  0.75183912241E+02 -0.98826452032E+03  0.10391814754E+04  0.46999998093E+01 0.  1.
       -5    1    3    3    0  502 -0.31234062508E+03 -0.75183912241E+02  0.90197422029E+03  0.95749092466E+03  0.46999998093E+01 0. -1.
</event>
<event>
 5   0  0.9370269E-06  0.1996414E+04  0.7818609E-02  0.8608299E-01
        1   -1    0    0  501    0  0.00000000000E+00  0.00000000000E+00  0.68377350670E+03  0.68377350672E+03  0.50400001928E-02 0. -1.
       -1   -1    0    0    0  501  0.00000000000E+00  0.00000000000E+00 -0.14572325579E+04  0.14572325580E+04  0.50400001928E-02 0.  1.
    10030    2    1    2    0    0  0.00000000000E+00  0.00000000000E+00 -0.77345905125E+03  0.21410060647E+04  0.19964138010E+04 0.  0.
        4    1    3    3  502    0  0.18046866093E+02  0.87750555793E+03 -0.89663815826E+03  0.12547124345E+04  0.12699999809E+01 0.  1.
       -4    1    3    3    0  502 -0.18046866093E+02 -0.87750555793E+03  0.12317910701E+03  0.88629363016E+03  0.12699999809E+01 0. -1.
</event>
<event>
 5   0  0.9333353E-06  0.2044155E+04  0.7818609E-02  0.8586251E-01
        1   -1    0    0  501    0  0.00000000000E+00  0.00000000000E+00  0.15720518138E+04  0.15720518139E+04  0.50400001928E-02 0. -1.
       -1   -1    0    0    0  501  0.00000000000E+00  0.00000000000E+00 -0.66450858514E+03  0.66450858516E+03  0.50400001928E-02 0.  1.
    10030    2    1    2    0    0  0.00000000000E+00  0.00000000000E+00  0.90754322871E+03  0.22365603990E+04  0.20441545212E+04 0.  0.
        2    1    3    3  502    0 -0.31751384077E+03  0.17805450351E+03  0.14987173241E+04  0.15422944151E+04  0.25500000920E-02 0. -1.
       -2    1    3    3    0  502  0.31751384077E+03 -0.17805450351E+03 -0.59117409541E+03  0.69426598389E+03  0.25500000920E-02 0.  1.
</event>
<event>
 5   0  0.2003576E-05  0.2001334E+04  0.7818609E-02  0.8605997E-01
       -2   -1    0    0    0  501  0.00000000000E+00  0.00000000000E+00  0.49522642312E+03  0.49522642313E+03  0.25500000920E-02 0.  1.
        2   -1    0    0  501    0  0.00000000000E+00  0.00000000000E+00 -0.20219735388E+04  0.20219735388E+04  0.25500000920E-02 0. -1.
    10030    2    1    2    0    0  0.00000000000E+00  0.00000000000E+00 -0.15267471157E+04  0.25171999619E+04  0.20013342782E+04 0.  0.
        4    1    3    3  502    0 -0.43836651409E+03 -0.30153888498E+03 -0.18293154853E+04  0.19051214285E+04  0.12699999809E+01 0. -1.
       -4    1    3    3    0  502  0.43836651409E+03  0.30153888498E+03  0.30256836963E+03  0.61207853338E+03  0.12699999809E+01 0.  1.
</event>
<event>
 5   0  0.9342635E-06  0.2001780E+04  0.7818609E-02  0.8605789E-01
        1   -1    0    0  501    0  0.00000000000E+00  0.00000000000E+00  0.69763647714E+03  0.69763647716E+03  0.50400001928E-02 0. -1.
       -1   -1    0    0    0  501  0.00000000000E+00  0.00000000000E+00 -0.14359636034E+04  0.14359636034E+04  0.50400001928E-02 0.  1.
    10030    2    1    2    0    0  0.00000000000E+00  0.00000000000E+00 -0.73832712621E+03  0.21336000805E+04  0.20017797977E+04 0.  0.
        5    1    3    3  502    0 -0.30448295557E+03 -0.53477611587E+03  0.47215940476E+03  0.77566227047E+03  0.46999998093E+01 0. -1.
       -5    1    3    3    0  502  0.30448295557E+03  0.53477611587E+03 -0.12104865310E+04  0.13579378101E+04  0.46999998093E+01 0.  1.
</event>
<event>
 5   0  0.2003576E-05  0.2000315E+04  0.7818609E-02  0.8606473E-01
        2   -1    0    0  501    0  0.00000000000E+00  0.00000000000E+00  0.11433156133E+04  0.11433156133E+04  0.25500000920E-02 0.  1.
       -2   -1    0    0    0  501  0.00000000000E+00  0.00000000000E+00 -0.87492496667E+03  0.87492496668E+03  0.25500000920E-02 0. -1.
    10030    2    1    2    0    0  0.00000000000E+00  0.00000000000E+00  0.26839064665E+03  0.20182405800E+04  0.20003153500E+04 0.  0.
        4    1    3    3  502    0 -0.69396000183E+03 -0.17909010283E+03 -0.56966631836E+03  0.91551902014E+03  0.12699999809E+01 0. -1.
       -4    1    3    3    0  502  0.69396000183E+03  0.17909010283E+03  0.83805696500E+03  0.11027215599E+04  0.12699999809E+01 0.  1.
</event>
<event>
 5   0  0.2003576E-05  0.1965934E+04  0.7818609E-02  0.8622716E-01
       -2   -1    0    0    0  501  0.00000000000E+00  0.00000000000E+00  0.18451862203E+04  0.18451862203E+04  0.25500000920E-02 0. -1.
        2   -1    0    0  501    0  0.00000000000E+00  0.00000000000E+00 -0.52364561176E+03  0.52364561177E+03  0.25500000920E-02 0.  1.
    10030    2    1    2    0    0  0.00000000000E+00  0.00000000000E+00  0.13215406085E+04  0.23688318320E+04  0.19659335362E+04 0.  0.
        4    1    3    3  502    0  0.66928213934E+03  0.11985704796E+03  0.15161230065E+04  0.16616061139E+04  0.12699999809E+01 0. -1.
       -4    1    3    3    0  502 -0.66928213934E+03 -0.11985704796E+03 -0.19458239794E+03  0.70722571819E+03  0.12699999809E+01 0.  1.
</event>
<event>
 5   0  0.2038882E-05  0.2001216E+04  0.7818609E-02  0.8606052E-01
        2   -1    0    0  501    0  0.00000000000E+00  0.00000000000E+00  0.88095260728E+03  0.88095260729E+03  0.25500000920E-02 0. -1.
       -2   -1    0    0    0  501  0.00000000000E+00  0.00000000000E+00 -0.11365161418E+04  0.11365161418E+04  0.25500000920E-02 0.  1.
    10030    2    1    2    0    0  0.00000000000E+00  0.00000000000E+00 -0.25556353448E+03  0.20174687490E+04  0.20012164883E+04 0.  0.
        3    1    3    3  502    0 -0.46488249266E+03 -0.60867015411E+03 -0.77692239162E+03  0.10909644821E+04  0.10100000352E+00 0.  1.
       -3    1    3    3    0  502  0.46488249266E+03  0.60867015411E+03  0.52135885715E+03  0.92650426691E+03  0.10100000352E+00 0. -1.
</event>
<event>
 5   0  0.9333353E-06  0.1987913E+04  0.7818609E-02  0.8612293E-01
        1   -1    0    0  501    0  0.00000000000E+00  0.00000000000E+00  0.30775724830E+04  0.30775724830E+04  0.50400001928E-02 0. -1.
       -1   -1    0    0    0  501  0.00000000000E+00  0.00000000000E+00 -0.32101572436E+03  0.32101572440E+03  0.50400001928E-02 0.  1.
    10030    2    1    2    0    0  0.00000000000E+00  0.00000000000E+00  0.27565567586E+04  0.33985882074E+04  0.19879126339E+04 0.  0.
        2    1    3    3  502    0  0.18854471489E+03 -0.97581707568E+03  0.14012844685E+04  0.17179540845E+04  0.25500000920E-02 0. -1.
       -2    1    3    3    0  502 -0.18854471489E+03  0.97581707568E+03  0.13552722902E+04  0.16806341230E+04  0.25500000920E-02 0.  1.
</event>
<event>
 5   0  0.9140695E-06  0.2056886E+04  0.7818609E-02  0.8580477E-01
       -1   -1    0    0    0  501  0.00000000000E+00  0.00000000000E+00  0.14056554717E+04  0.14056554718E+04  0.50400001928E-02 0.  1.
        1   -1    0    0  501    0  0.00000000000E+00  0.00000000000E+00 -0.75245685741E+03  0.75245685743E+03  0.50400001928E-02 0. -1.
    10030    2    1    2    0    0  0.00000000000E+00  0.00000000000E+00  0.65319861433E+03  0.21581123292E+04  0.20568860920E+04 0.  0.
        1    1    3    3  502    0  0.30820759965E+03 -0.94410598490E+02 -0.69808513912E+03  0.76891361483E+03  0.50400001928E-02 0. -1.
       -1    1    3    3    0  502 -0.30820759965E+03  0.94410598490E+02  0.13512837535E+04  0.13891987144E+04  0.50400001928E-02 0.  1.
</event>
<event>
 5   0  0.9342635E-06  0.1997731E+04  0.7818609E-02  0.8607682E-01
       -1   -1    0    0    0  501  0.00000000000E+00  0.00000000000E+00  0.50007635845E+03  0.50007635847E+03  0.50400001928E-02 0. -1.
        1   -1    0    0  501    0  0.00000000000E+00  0.00000000000E+00 -0.19951590508E+04  0.19951590508E+04  0.50400001928E-02 0.  1.
    10030    2    1    2    0    0  0.00000000000E+00  0.00000000000E+00 -0.14950826924E+04  0.24952354093E+04  0.19977305851E+04 0.  0.
        5    1    3    3  502    0  0.16298537558E+03 -0.67607863014E+02 -0.19755242592E+04  0.19833943745E+04  0.46999998093E+01 0.  1.
       -5    1    3    3    0  502 -0.16298537558E+03  0.67607863014E+02  0.48044156686E+03  0.51184103485E+03  0.46999998093E+01 0. -1.
</event>
<event>
 5   0  0.1999142E-05  0.2002341E+04  0.7818609E-02  0.8605527E-01
       -2   -1    0    0    0  501  0.00000000000E+00  0.00000000000E+00  0.11259387321E+04  0.11259387321E+04  0.25500000920E-02 0.  1.
        2   -1    0    0  501    0  0.00000000000E+00  0.00000000000E+00 -0.89022845453E+03  0.89022845454E+03  0.25500000920E-02 0. -1.
    10030    2    1    2    0    0  0.00000000000E+00  0.00000000000E+00  0.23571027753E+03  0.20161671866E+04  0.20023413269E+04 0.  0.
        1    1    3    3  502    0 -0.79687969697E+03 -0.15296498140E+03  0.70835754037E+03  0.10771192794E+04  0.50400001928E-02 0.  1.
       -1    1    3    3    0  502  0.79687969697E+03  0.15296498140E+03 -0.47264726284E+03  0.93904790723E+03  0.50400001928E-02 0. -1.
</event>
<event>
 5   0  0.2020029E-05  0.1981312E+04  0.7818609E-02  0.8615408E-01
       -2   -1    0    0    0  501  0.00000000000E+00  0.00000000000E+00  0.17186816665E+04  0.17186816665E+04  0.25500000920E-02 0. -1.
        2   -1    0    0  501    0  0.00000000000E+00  0.00000000000E+00 -0.57101880195E+03  0.57101880196E+03  0.25500000920E-02 0.  1.
    10030    2    1    2    0    0  0.00000000000E+00  0.00000000000E+00  0.11476628645E+04  0.22897004684E+04  0.19813122380E+04 0.  0.
        5    1    3    3  502    0 -0.81129343616E+03  0.51488493548E+03  0.29533712560E+03  0.10052609831E+04  0.46999998093E+01 0. -1.
       -5    1    3    3    0  502  0.81129343616E+03 -0.51488493548E+03  0.85232573891E+03  0.12844394854E+04  0.46999998093E+01 0.  1.
</event>
<event>
 5   0  0.2003576E-05  0.2001615E+04  0.7818609E-02  0.8605866E-01
        2   -1    0    0  501    0  0.00000000000E+00  0.00000000000E+00  0.19540404043E+04  0.19540404043E+04  0.25500000920E-02 0. -1.
       -2   -1    0    0    0  501  0.00000000000E+00  0.00000000000E+00 -0.51258710726E+03  0.51258710727E+03  0.25500000920E-02 0.  1.
    10030    2    1    2    0    0  0.00000000000E+00  0.00000000000E+00  0.14414532970E+04  0.24666275116E+04  0.20016152661E+04 0.  0.
        4    1    3    3  502    0 -0.74872069401E+02 -0.70949473809E+03  0.15856577160E+04  0.17387641058E+04  0.12699999809E+01 0.  1.
       -4    1    3    3    0  502  0.74872069401E+02  0.70949473809E+03 -0.14420441900E+03  0.72786340581E+03  0.12699999809E+01 0. -1.
</event>
<event>
 5   0  0.9342635E-06  0.2004083E+04  0.7818609E-02  0.8604714E-01
        1   -1    0    0  501    0  0.00000000000E+00  0.00000000000E+00  0.11093967559E+04  0.11093967560E+04  0.50400001928E-02 0. -1.
       -1   -1    0    0    0  501  0.00000000000E+00  0.00000000000E+00 -0.90507533588E+03  0.90507533589E+03  0.50400001928E-02 0.  1.
    10030    2    1    2    0    0  0.00000000000E+00  0.00000000000E+00  0.20432142007E+03  0.20144720918E+04  0.20040834728E+04 0.  0.
        5    1    3    3  502    0  0.80101840195E+03  0.56986601781E+03 -0.92979065775E+02  0.98744364658E+03  0.46999998093E+01 0. -1.
       -5    1    3    3    0  502 -0.80101840195E+03 -0.56986601781E+03  0.29730048585E+03  0.10270284453E+04  0.46999998093E+01 0.  1.
</event>
<event>
 5   0  0.9140695E-06  0.2003566E+04  0.7818609E-02  0.8604955E-01
        1   -1    0    0  501    0  0.00000000000E+00  0.00000000000E+00  0.22949015708E+04  0.22949015708E+04  0.50400001928E-02 0. -1.
       -1   -1    0    0    0  501  0.00000000000E+00  0.00000000000E+00 -0.43730401014E+03  0.43730401017E+03  0.50400001928E-02 0.  1.
    10030    2    1    2    0    0  0.00000000000E+00  0.00000000000E+00  0.18575975607E+04  0.27322055810E+04  0.20035664799E+04 0.  0.
        1    1    3    3  502    0  0.32677284894E+02 -0.71717433999E+03 -0.23979759976E+02  0.71831877868E+03  0.50400001928E-02 0.  1.
       -1    1    3    3    0  502 -0.32677284894E+02  0.71717433999E+03  0.18815773206E+04  0.20138868023E+04  0.50400001928E-02 0. -1.
</event>
<event>
 5   0  0.9333353E-06  0.2007013E+04  0.7818609E-02  0.8603349E-01
       -1   -1    0    0    0  501  0.00000000000E+00  0.00000000000E+00  0.56493223382E+03  0.56493223384E+03  0.50400001928E-02 0. -1.
        1   -1    0    0  501    0  0.00000000000E+00  0.00000000000E+00 -0.17825587189E+04  0.17825587189E+04  0.50400001928E-02 0.  1.
    10030    2    1    2    0    0  0.00000000000E+00  0.00000000000E+00 -0.12176264851E+04  0.23474909528E+04  0.20070125850E+04 0.  0.
        2    1    3    3  502    0 -0.37989849753E+03  0.48566292196E+03 -0.15348536630E+04  0.16540759078E+04  0.25500000920E-02 0.  1.
       -2    1    3    3    0  502  0.37989849753E+03 -0.48566292196E+03  0.31722717784E+03  0.69341504495E+03  0.25500000920E-02 0. -1.
</event>
<event>
 5   0  0.9333353E-06  0.1999855E+04  0.7818609E-02  0.8606689E-01
       -1   -1    0    0    0  501  0.00000000000E+00  0.00000000000E+00  0.15331247776E+04  0.15331247776E+04  0.50400001928E-02 0. -1.
        1   -1    0    0  501    0  0.00000000000E+00  0.00000000000E+00 -0.65216781007E+03  0.65216781009E+03  0.50400001928E-02 0.  1.
    10030    2    1    2    0    0  0.00000000000E+00  0.00000000000E+00  0.88095696751E+03  0.21852925877E+04  0.19998546235E+04 0.  0.
        2    1    3    3  502    0 -0.56041137292E+03 -0.43236324258E+03  0.12122676122E+04  0.14037776334E+04  0.25500000920E-02 0. -1.
       -2    1    3    3    0  502  0.56041137292E+03  0.43236324258E+03 -0.33131064471E+03  0.78151495426E+03  0.25500000920E-02 0.  1.
</event>
<event>
 5   0  0.9342635E-06  0.2001464E+04  0.7818609E-02  0.8605937E-01
        1   -1    0    0  501    0  0.00000000000E+00  0.00000000000E+00  0.76358958474E+03  0.76358958476E+03  0.50400001928E-02 0. -1.
       -1   -1    0    0    0  501  0.00000000000E+00  0.00000000000E+00 -0.13115214222E+04  0.13115214222E+04  0.50400001928E-02 0.  1.
    10030    2    1    2    0    0  0.00000000000E+00  0.00000000000E+00 -0.54793183746E+03  0.20751110070E+04  0.20014635627E+04 0.  0.
        5    1    3    3  502    0  0.75763352656E+03 -0.50308212329E+03  0.15894091321E+03  0.92324670985E+03  0.46999998093E+01 0.  1.
       -5    1    3    3    0  502 -0.75763352656E+03  0.50308212329E+03 -0.70687275068E+03  0.11518642971E+04  0.46999998093E+01 0. -1.
</event>
<event>
 5   0  0.1999142E-05  0.1998539E+04  0.7818609E-02  0.8607304E-01
       -2   -1    0    0    0  501  0.00000000000E+00  0.00000000000E+00  0.78796002846E+03  0.78796002847E+03  0.25500000920E-02 0.  1.
        2   -1    0    0  501    0  0.00000000000E+00  0.00000000000E+00 -0.12672461440E+04  0.12672461440E+04  0.25500000920E-02 0. -1.
    10030    2    1    2    0    0  0.00000000000E+00  0.00000000000E+00 -0.47928611550E+03  0.20552061724E+04  0.19985387739E+04 0.  0.
        1    1    3    3  502    0 -0.27046737117E+03  0.95677182285E+03 -0.13693939285E+03  0.10036519901E+04  0.50400001928E-02 0. -1.
       -1    1    3    3    0  502  0.27046737117E+03 -0.95677182285E+03 -0.34234672264E+03  0.10515541823E+04  0.50400001928E-02 0.  1.
</event>
<event>
 5   0  0.9333353E-06  0.1999895E+04  0.7818609E-02  0.8606670E-01
       -1   -1    0    0    0  501  0.00000000000E+00  0.00000000000E+00  0.13009883700E+04  0.13009883700E+04  0.50400001928E-02 0.  1.
        1   -1    0    0  501    0  0.00000000000E+00  0.00000000000E+00 -0.76856538177E+03  0.76856538178E+03  0.50400001928E-02 0. -1.
    10030    2    1    2    0    0  0.00000000000E+00  0.00000000000E+00  0.53242298825E+03  0.20695537518E+04  0.19998946205E+04 0.  0.
        2    1    3    3  502    0 -0.94408830150E+03  0.30466732124E+03  0.39616310498E+03  0.10682088295E+04  0.25500000920E-02 0. -1.
       -2    1    3    3    0  502  0.94408830150E+03 -0.30466732124E+03  0.13625988327E+03  0.10013449223E+04  0.25500000920E-02 0.  1.
</event>
<event>
 5   0  0.9140695E-06  0.2000110E+04  0.7818609E-02  0.8606569E-01
        1   -1    0    0  501    0  0.00000000000E+00  0.00000000000E+00  0.14340668012E+04  0.14340668012E+04  0.50400001928E-02 0. -1.
       -1   -1    0    0    0  501  0.00000000000E+00  0.00000000000E+00 -0.69739399032E+03  0.69739399034E+03  0.50400001928E-02 0.  1.
    10030    2    1    2    0    0  0.00000000000E+00  0.00000000000E+00  0.73667281089E+03  0.21314607916E+04  0.20001095659E+04 0.  0.
        1    1    3    3  502    0 -0.22356099773E+03 -0.79642636355E+03 -0.23056282564E+03  0.85873959315E+03  0.50400001928E-02 0.  1.
       -1    1    3    3    0  502  0.22356099773E+03  0.79642636355E+03  0.96723563653E+03  0.12727211984E+04  0.50400001928E-02 0. -1.
</event>
<event>
 5   0  0.2003576E-05  0.2003937E+04  0.7818609E-02  0.8604782E-01
        2   -1    0    0  501    0  0.00000000000E+00  0.00000000000E+00  0.12078922442E+04  0.12078922442E+04  0.25500000920E-02 0.  1.
       -2   -1    0    0    0  501  0.00000000000E+00  0.00000000000E+00 -0.83115128697E+03  0.83115128697E+03  0.25500000920E-02 0. -1.
    10030    2    1    2    0    0  0.00000000000E+00  0.00000000000E+00  0.37674095720E+03  0.20390435311E+04  0.20039373176E+04 0.  0.
        4    1    3    3  502    0 -0.16219797203E+03 -0.44677461135E+03 -0.70913853411E+03  0.85369479847E+03  0.12699999809E+01 0. -1.
       -4    1    3    3    0  502  0.16219797203E+03  0.44677461135E+03  0.10858794913E+04  0.11853487327E+04  0.12699999809E+01 0.  1.
</event>
<event>
 5   0  0.9342635E-06  0.2000219E+04  0.7818609E-02  0.8606518E-01
       -1   -1    0    0    0  501  0.00000000000E+00  0.00000000000E+00  0.12449549995E+04  0.12449549995E+04  0.50400001928E-02 0. -1.
        1   -1    0    0  501    0  0.00000000000E+00  0.00000000000E+00 -0.80341760502E+03  0.80341760503E+03  0.50400001928E-02 0.  1.
    10030    2    1    2    0    0  0.00000000000E+00  0.00000000000E+00  0.44153739451E+03  0.20483726046E+04  0.20002187521E+04 0.  0.
        5    1    3    3  502    0 -0.69156919735E+03 -0.46594968277E+03  0.78616493943E+03  0.11460604101E+04  0.46999998093E+01 0. -1.
       -5    1    3    3    0  502  0.69156919735E+03  0.46594968277E+03 -0.34462754492E+03  0.90231219448E+03  0.46999998093E+01 0.  1.
</event>
<event>
 5   0  0.9342635E-06  0.2000659E+04  0.7818609E-02  0.8606313E-01
        1   -1    0    0  501    0  0.00000000000E+00  0.00000000000E+00  0.93465365593E+03  0.93465365595E+03  0.50400001928E-02 0. -1.
       -1   -1    0    0    0  501  0.00000000000E+00  0.00000000000E+00 -0.10706204981E+04  0.10706204981E+04  0.50400001928E-02 0.  1.
    10030    2    1    2    0    0  0.00000000000E+00  0.00000000000E+00 -0.13596684213E+03  0.20052741540E+04  0.20006592540E+04 0.  0.
        5    1    3    3  502    0 -0.16884776338E+03 -0.18242814704E+03  0.90319315017E+03  0.93678682343E+03  0.46999998093E+01 0. -1.
       -5    1    3    3    0  502  0.16884776338E+03  0.18242814704E+03 -0.10391599923E+04  0.10684873306E+04  0.46999998093E+01 0.  1.
</event>
<event>
 5   0  0.9333353E-06  0.2000599E+04  0.7818609E-02  0.8606341E-01
        1   -1    0    0  501    0  0.00000000000E+00  0.00000000000E+00  0.67015134929E+03  0.67015134931E+03  0.50400001928E-02 0.  1.
       -1   -1    0    0    0  501  0.00000000000E+00  0.00000000000E+00 -0.14930942043E+04  0.14930942043E+04  0.50400001928E-02 0. -1.
    10030    2    1    2    0    0  0.00000000000E+00  0.00000000000E+00 -0.82294285501E+03  0.21632455536E+04  0.20005990059E+04 0.  0.
        2    1    3    3  502    0  0.38380562944E+03  0.60511116728E+03  0.34322007798E+03  0.79452269187E+03  0.25500000920E-02 0.  1.
       -2    1    3    3    0  502 -0.38380562944E+03 -0.60511116728E+03 -0.11661629330E+04  0.13687228617E+04  0.25500000920E-02 0. -1.
</event>
<event>
 5   0  0.1999142E-05  0.2005154E+04  0.7818609E-02  0.8604215E-01
       -2   -1    0    0    0  501  0.00000000000E+00  0.00000000000E+00  0.78573337866E+03  0.78573337866E+03  0.25500000920E-02 0. -1.
        2   -1    0    0  501    0  0.00000000000E+00  0.00000000000E+00 -0.12792641697E+04  0.12792641697E+04  0.25500000920E-02 0.  1.
    10030    2    1    2    0    0  0.00000000000E+00  0.00000000000E+00 -0.49353079102E+03  0.20649975483E+04  0.20051539175E+04 0.  0.
        1    1    3    3  502    0 -0.88178102521E+03 -0.26278694214E+03  0.16332216281E+03  0.93448856723E+03  0.50400001928E-02 0. -1.
       -1    1    3    3    0  502  0.88178102521E+03  0.26278694214E+03 -0.65685295383E+03  0.11305089811E+04  0.50400001928E-02 0.  1.
</event>
<event>
 5   0  0.9370269E-06  0.2014465E+04  0.7818609E-02  0.8599887E-01
       -1   -1    0    0    0  501  0.00000000000E+00  0.00000000000E+00  0.71024114827E+03  0.71024114829E+03  0.50400001928E-02 0.  1.
        1   -1    0    0  501    0  0.00000000000E+00  0.00000000000E+00 -0.14284128362E+04  0.14284128362E+04  0.50400001928E-02 0. -1.
    10030    2    1    2    0    0  0.00000000000E+00  0.00000000000E+00 -0.71817168789E+03  0.21386539845E+04  0.20144652620E+04 0.  0.
        4    1    3    3  502    0 -0.19840671164E+03  0.34543584559E+03  0.62305365958E+03  0.73951918315E+03  0.12699999809E+01 0.  1.
       -4    1    3    3    0  502  0.19840671164E+03 -0.34543584559E+03 -0.13412253475E+04  0.13991348013E+04  0.12699999809E+01 0. -1.
</event>
<event>
 5   0  0.1999142E-05  0.1992953E+04  0.7818609E-02  0.8609922E-01
        2   -1    0    0  501    0  0.00000000000E+00  0.00000000000E+00  0.96068463442E+03  0.96068463442E+03  0.25500000920E-02 0. -1.
       -2   -1    0    0    0  501  0.00000000000E+00  0.00000000000E+00 -0.10336022350E+04  0.10336022350E+04  0.25500000920E-02 0.  1.
    10030    2    1    2    0    0  0.00000000000E+00  0.00000000000E+00 -0.72917600559E+02  0.19942868694E+04  0.19929533715E+04 0.  0.
        1    1    3    3  502    0 -0.30054484171E+03  0.94486898829E+03 -0.13582871068E+03  0.10007767211E+04  0.50400001928E-02 0.  1.
       -1    1    3    3    0  502  0.30054484171E+03 -0.94486898829E+03  0.62911110118E+02  0.99351014826E+03  0.50400001928E-02 0. -1.
</event>
<event>
 5   0  0.2038882E-05  0.1999778E+04  0.7818609E-02  0.8606724E-01
        2   -1    0    0  501    0  0.00000000000E+00  0.00000000000E+00  0.17525655672E+04  0.17525655672E+04  0.25500000920E-02 0.  1.
       -2   -1    0    0    0  501  0.00000000000E+00  0.00000000000E+00 -0.57046563056E+03  0.57046563056E+03  0.25500000920E-02 0. -1.
    10030    2    1    2    0    0  0.00000000000E+00  0.00000000000E+00  0.11820999366E+04  0.23230311977E+04  0.19997784091E+04 0.  0.
        3    1    3    3  502    0  0.91744213006E+03  0.39622760764E+03  0.62926139382E+03  0.11809599024E+04  0.10100000352E+00 0. -1.
       -3    1    3    3    0  502 -0.91744213006E+03 -0.39622760764E+03  0.55283854278E+03  0.11420712953E+04  0.10100000352E+00 0.  1.
</event>
<event>
 5   0  0.2038882E-05  0.1986048E+04  0.7818609E-02  0.8613171E-01
        2   -1    0    0  501    0  0.00000000000E+00  0.00000000000E+00  0.12100955609E+04  0.12100955609E+04  0.25500000920E-02 0.  1.
       -2   -1    0    0    0  501  0.00000000000E+00  0.00000000000E+00 -0.81489196350E+03  0.81489196350E+03  0.25500000920E-02 0. -1.
    10030    2    1    2    0    0  0.00000000000E+00  0.00000000000E+00  0.39520359739E+03  0.20249875244E+04  0.19860484865E+04 0.  0.
        3    1    3    3  502    0 -0.23493684998E+03 -0.16840705327E+03 -0.77104611109E+03  0.82344907232E+03  0.10100000352E+00 0. -1.
       -3    1    3    3    0  502  0.23493684998E+03  0.16840705327E+03  0.11662497085E+04  0.12015384521E+04  0.10100000352E+00 0.  1.
</event>
<event>
 5   0  0.9140695E-06  0.1985512E+04  0.7818609E-02  0.8613424E-01
       -1   -1    0    0    0  501  0.00000000000E+00  0.00000000000E+00  0.61591509496E+03  0.61591509498E+03  0.50400001928E-02 0. -1.
        1   -1    0    0  501    0  0.00000000000E+00  0.00000000000E+00 -0.16001633147E+04  0.16001633147E+04  0.50400001928E-02 0.  1.
    10030    2    1    2    0    0  0.00000000000E+00  0.00000000000E+00 -0.98424821976E+03  0.22160784097E+04  0.19855122664E+04 0.  0.
        1    1    3    3  502    0 -0.81396807459E+03  0.13687010061E+03 -0.11078032701E+04  0.13814867123E+04  0.50400001928E-02 0.  1.
       -1    1    3    3    0  502  0.81396807459E+03 -0.13687010061E+03  0.12355505038E+03  0.83459169742E+03  0.50400001928E-02 0. -1.
</event>
<event>
 5   0  0.9342635E-06  0.2008761E+04  0.7818609E-02  0.8602536E-01
       -1   -1    0    0    0  501  0.00000000000E+00  0.00000000000E+00  0.10128203537E+04  0.10128203537E+04  0.50400001928E-02 0. -1.
        1   -1    0    0  501    0  0.00000000000E+00  0.00000000000E+00 -0.99601071723E+03  0.99601071725E+03  0.50400001928E-02 0.  1.
    10030    2    1    2    0    0  0.00000000000E+00  0.00000000000E+00  0.16809636445E+02  0.20088310709E+04  0.20087607393E+04 0.  0.
        5    1    3    3  502    0  0.47945362899E+03  0.77392906639E+02 -0.87076895030E+03  0.99705872402E+03  0.46999998093E+01 0.  1.
       -5    1    3    3    0  502 -0.47945362899E+03 -0.77392906639E+02  0.88757858674E+03  0.10117723469E+04  0.46999998093E+01 0. -1.
</event>
<event>
 5   0  0.2038882E-05  0.2003574E+04  0.7818609E-02  0.8604952E-01
        2   -1    0    0  501    0  0.00000000000E+00  0.00000000000E+00  0.14981426307E+04  0.14981426307E+04  0.25500000920E-02 0.  1.
       -2   -1    0    0    0  501  0.00000000000E+00  0.00000000000E+00 -0.66988068438E+03  0.66988068438E+03  0.25500000920E-02 0. -1.
    10030    2    1    2    0    0  0.00000000000E+00  0.00000000000E+00  0.82826194634E+03  0.21680233151E+04  0.20035736181E+04 0.  0.
        3    1    3    3  502    0 -0.52340315651E+03  0.19833523217E+03 -0.48489894153E+03  0.74055028341E+03  0.10100000352E+00 0. -1.
       -3    1    3    3    0  502  0.52340315651E+03 -0.19833523217E+03  0.13131608879E+04  0.14274730317E+04  0.10100000352E+00 0.  1.
</event>
<event>
 5   0  0.9342635E-06  0.2008922E+04  0.7818609E-02  0.8602461E-01
       -1   -1    0    0    0  501  0.00000000000E+00  0.00000000000E+00  0.45276523792E+03  0.45276523795E+03  0.50400001928E-02 0.  1.
        1   -1    0    0  501    0  0.00000000000E+00  0.00000000000E+00 -0.22283989600E+04  0.22283989600E+04  0.50400001928E-02 0. -1.
    10030    2    1    2    0    0  0.00000000000E+00  0.00000000000E+00 -0.17756337221E+04  0.26811641979E+04  0.20089216862E+04 0.  0.
        5    1    3    3  502    0 -0.29192024163E+03 -0.45254715606E+03 -0.20194237812E+04  0.20900025966E+04  0.46999998093E+01 0. -1.
       -5    1    3    3    0  502  0.29192024163E+03  0.45254715606E+03  0.24379005912E+03  0.59116160130E+03  0.46999998093E+01 0.  1.
</event>
<event>
 5   0  0.1979765E-05  0.2000615E+04  0.7818609E-02  0.8606333E-01
        2   -1    0    0  501    0  0.00000000000E+00  0.00000000000E+00  0.15546457949E+04  0.15546457949E+04  0.25500000920E-02 0.  1.
       -2   -1    0    0    0  501  0.00000000000E+00  0.00000000000E+00 -0.64362895492E+03  0.64362895492E+03  0.25500000920E-02 0. -1.
    10030    2    1    2    0    0  0.00000000000E+00  0.00000000000E+00  0.91101683998E+03  0.21982747498E+04  0.20006149537E+04 0.  0.
        2    1    3    3  502    0  0.62122673895E+03  0.76736159966E+03  0.27884905781E+03  0.10259255738E+04  0.25500000920E-02 0.  1.
       -2    1    3    3    0  502 -0.62122673895E+03 -0.76736159966E+03  0.63216778217E+03  0.11723491761E+04  0.25500000920E-02 0. -1.
</event>
<event>
 5   0  0.9140695E-06  0.2000676E+04  0.7818609E-02  0.8606305E-01
       -1   -1    0    0    0  501  0.00000000000E+00  0.00000000000E+00  0.97090282693E+03  0.97090282695E+03  0.50400001928E-02 0.  1.
        1   -1    0    0  501    0  0.00000000000E+00  0.00000000000E+00 -0.10306659286E+04  0.10306659286E+04  0.50400001928E-02 0. -1.
    10030    2    1    2    0    0  0.00000000000E+00  0.00000000000E+00 -0.59763101637E+02  0.20015687555E+04  0.20006763493E+04 0.  0.
        1    1    3    3  502    0  0.54227535879E+03  0.82500937543E+03 -0.19111617973E+03  0.10055985424E+04  0.50400001928E-02 0.  1.
       -1    1    3    3    0  502 -0.54227535879E+03 -0.82500937543E+03  0.13135307809E+03  0.99597021313E+03  0.50400001928E-02 0. -1.
</event>
<event>
 5   0  0.9140695E-06  0.1988786E+04  0.7818609E-02  0.8611881E-01
        1   -1    0    0  501    0  0.00000000000E+00  0.00000000000E+00  0.54084751046E+03  0.54084751048E+03  0.50400001928E-02 0. -1.
       -1   -1    0    0    0  501  0.00000000000E+00  0.00000000000E+00 -0.18282745341E+04  0.18282745341E+04  0.50400001928E-02 0.  1.
    10030    2    1    2    0    0  0.00000000000E+00  0.00000000000E+00 -0.12874270236E+04  0.23691220446E+04  0.19887862934E+04 0.  0.
        1    1    3    3  502    0 -0.40191789412E+03  0.58372367026E+03 -0.14746377994E+04  0.16361014505E+04  0.50400001928E-02 0.  1.
       -1    1    3    3    0  502  0.40191789412E+03 -0.58372367026E+03  0.18721077573E+03  0.73302059413E+03  0.50400001928E-02 0. -1.
</event>
<event>
 5   0  0.9370269E-06  0.2001611E+04  0.7818609E-02  0.8605868E-01
       -1   -1    0    0    0  501  0.00000000000E+00  0.00000000000E+00  0.84523806636E+03  0.84523806638E+03  0.50400001928E-02 0.  1.
        1   -1    0    0  501    0  0.00000000000E+00  0.00000000000E+00 -0.11850056995E+04  0.11850056995E+04  0.50400001928E-02 0. -1.
    10030    2    1    2    0    0  0.00000000000E+00  0.00000000000E+00 -0.33976763317E+03  0.20302437659E+04  0.20016112771E+04 0.  0.
        4    1    3    3  502    0  0.24667473356E+03  0.42878085638E+03 -0.10523340914E+04  0.11628026917E+04  0.12699999809E+01 0. -1.
       -4    1    3    3    0  502 -0.24667473356E+03 -0.42878085638E+03  0.71256645823E+03  0.86744107424E+03  0.12699999809E+01 0.  1.
</event>
<event>
 5   0  0.2003576E-05  0.2000391E+04  0.7818609E-02  0.8606438E-01
       -2   -1    0    0    0  501  0.00000000000E+00  0.00000000000E+00  0.77461701434E+03  0.77461701434E+03  0.25500000920E-02 0.  1.
        2   -1    0    0  501    0  0.00000000000E+00  0.00000000000E+00 -0.12914657945E+04  0.12914657945E+04  0.25500000920E-02 0. -1.
    10030    2    1    2    0    0  0.00000000000E+00  0.00000000000E+00 -0.51684878018E+03  0.20660828089E+04  0.20003913396E+04 0.  0.
        4    1    3    3  502    0 -0.46752802212E+03  0.37207729428E+03 -0.10868656951E+04  0.12402832808E+04  0.12699999809E+01 0. -1.
       -4    1    3    3    0  502  0.46752802212E+03 -0.37207729428E+03  0.57001691495E+03  0.82579952811E+03  0.12699999809E+01 0.  1.
</event>
<event>
 5   0  0.9220260E-06  0.2001453E+04  0.7818609E-02  0.8605942E-01
        1   -1    0    0  501    0  0.00000000000E+00  0.00000000000E+00  0.16861830294E+04  0.16861830294E+04  0.50400001928E-02 0. -1.
       -1   -1    0    0    0  501  0.00000000000E+00  0.00000000000E+00 -0.59391758148E+03  0.59391758150E+03  0.50400001928E-02 0.  1.
    10030    2    1    2    0    0  0.00000000000E+00  0.00000000000E+00  0.10922654479E+04  0.22801006109E+04  0.20014532188E+04 0.  0.
        3    1    3    3  502    0 -0.22368982003E+03 -0.24814005020E+03  0.16207783862E+04  0.16548514155E+04  0.10100000352E+00 0. -1.
       -3    1    3    3    0  502  0.22368982003E+03  0.24814005020E+03 -0.52851293832E+03  0.62524919534E+03  0.10100000352E+00 0.  1.
</event>
<event>
 5   0  0.9342635E-06  0.2000387E+04  0.7818609E-02  0.8606440E-01
       -1   -1    0    0    0  501  0.00000000000E+00  0.00000000000E+00  0.62588671471E+03  0.62588671473E+03  0.50400001928E-02 0.  1.
        1   -1    0    0  501    0  0.00000000000E+00  0.00000000000E+00 -0.15983508438E+04  0.15983508438E+04  0.50400001928E-02 0. -1.
    10030    2    1    2    0    0  0.00000000000E+00  0.00000000000E+00 -0.97246412906E+03  0.22242375585E+04  0.20003865212E+04 0.  0.
        5    1    3    3  502    0 -0.11614413576E+03 -0.94943670476E+03 -0.16121178805E+03  0.97001590050E+03  0.46999998093E+01 0.  1.
       -5    1    3    3    0  502  0.11614413576E+03  0.94943670476E+03 -0.81125234101E+03  0.12542216580E+04  0.46999998093E+01 0. -1.
</event>
<event>
 5   0  0.9370269E-06  0.1970956E+04  0.7818609E-02  0.8620321E-01
       -1   -1    0    0    0  501  0.00000000000E+00  0.00000000000E+00  0.87163073454E+03  0.87163073456E+03  0.50400001928E-02 0.  1.
        1   -1    0    0  501    0  0.00000000000E+00  0.00000000000E+00 -0.11141949843E+04  0.11141949843E+04  0.50400001928E-02 0. -1.
    10030    2    1    2    0    0  0.00000000000E+00  0.00000000000E+00 -0.24256424979E+03  0.19858257189E+04  0.19709556998E+04 0.  0.
        4    1    3    3  502    0  0.91474954889E+03  0.12420619860E+03  0.22624198422E+03  0.95046355284E+03  0.12699999809E+01 0.  1.
       -4    1    3    3    0  502 -0.91474954889E+03 -0.12420619860E+03 -0.46880623401E+03  0.10353621661E+04  0.12699999809E+01 0. -1.
</event>
<event>
 5   0  0.1979765E-05  0.2012535E+04  0.7818609E-02  0.8600782E-01
       -2   -1    0    0    0  501  0.00000000000E+00  0.00000000000E+00  0.63627266688E+03  0.63627266689E+03  0.25500000920E-02 0. -1.
        2   -1    0    0  501    0  0.00000000000E+00  0.00000000000E+00 -0.15914157023E+04  0.15914157023E+04  0.25500000920E-02 0.  1.
    10030    2    1    2    0    0  0.00000000000E+00  0.00000000000E+00 -0.95514303543E+03  0.22276883692E+04  0.20125350313E+04 0.  0.
        2    1    3    3  502    0  0.70128432575E+03 -0.29712477388E+03 -0.12055185252E+04  0.14259585377E+04  0.25500000920E-02 0.  1.
       -2    1    3    3    0  502 -0.70128432575E+03  0.29712477388E+03  0.25037548974E+03  0.80172983147E+03  0.25500000920E-02 0. -1.
</event>
<event>
 5   0  0.2003576E-05  0.1999996E+04  0.7818609E-02  0.8606623E-01
        2   -1    0    0  501    0  0.00000000000E+00  0.00000000000E+00  0.10495601174E+04  0.10495601174E+04  0.25500000920E-02 0.  1.
       -2   -1    0    0    0  501  0.00000000000E+00  0.00000000000E+00 -0.95277618655E+03  0.95277618655E+03  0.25500000920E-02 0. -1.
    10030    2    1    2    0    0  0.00000000000E+00  0.00000000000E+00  0.96783930839E+02  0.20023363039E+04  0.19999958862E+04 0.  0.
        4    1    3    3  502    0 -0.22274694264E+03  0.87458913162E+03  0.47956044800E+03  0.10220088971E+04  0.12699999809E+01 0.  1.
       -4    1    3    3    0  502  0.22274694264E+03 -0.87458913162E+03 -0.38277651716E+03  0.98032740683E+03  0.12699999809E+01 0. -1.
</event>
<event>
 5   0  0.2003576E-05  0.2001415E+04  0.7818609E-02  0.8605959E-01
        2   -1    0    0  501    0  0.00000000000E+00  0.00000000000E+00  0.15223048778E+04  0.15223048779E+04  0.25500000920E-02 0.  1.
       -2   -1    0    0    0  501  0.00000000000E+00  0.00000000000E+00 -0.65782851611E+03  0.65782851612E+03  0.25500000920E-02 0. -1.
    10030    2    1    2    0    0  0.00000000000E+00  0.00000000000E+00  0.86447636174E+03  0.21801333940E+04  0.20014150583E+04 0.  0.
        4    1    3    3  502    0  0.51399466257E+03  0.69270897825E+03  0.98486424681E+03  0.13091964861E+04  0.12699999809E+01 0.  1.
       -4    1    3    3    0  502 -0.51399466257E+03 -0.69270897825E+03 -0.12038788507E+03  0.87093690786E+03  0.12699999809E+01 0. -1.
</event>
<event>
 5   0  0.9370269E-06  0.2000525E+04  0.7818609E-02  0.8606375E-01
        1   -1    0    0  501    0  0.00000000000E+00  0.00000000000E+00  0.10531570157E+04  0.10531570157E+04  0.50400001928E-02 0.  1.
       -1   -1    0    0    0  501  0.00000000000E+00  0.00000000000E+00 -0.95002448670E+03  0.95002448671E+03  0.50400001928E-02 0. -1.
    10030    2    1    2    0    0  0.00000000000E+00  0.00000000000E+00  0.10313252898E+03  0.20031815024E+04  0.20005248844E+04 0.  0.
        4    1    3    3  502    0 -0.34358798656E+03  0.71321696498E+03 -0.56063110436E+03  0.97007215800E+03  0.12699999809E+01 0. -1.
       -4    1    3    3    0  502  0.34358798656E+03 -0.71321696498E+03  0.66376363334E+03  0.10331093444E+04  0.12699999809E+01 0.  1.
</event>
<event>
 5   0  0.1979765E-05  0.1999409E+04  0.7818609E-02  0.8606897E-01
       -2   -1    0    0    0  501  0.00000000000E+00  0.00000000000E+00  0.41152258740E+03  0.41152258741E+03  0.25500000920E-02 0. -1.
        2   -1    0    0  501    0  0.00000000000E+00  0.00000000000E+00 -0.24285652490E+04  0.24285652490E+04  0.25500000920E-02 0.  1.
    10030    2    1    2    0    0  0.00000000000E+00  0.00000000000E+00 -0.20170426616E+04  0.28400878365E+04  0.19994093678E+04 0.  0.
        2    1    3    3  502    0  0.36571405379E+03  0.97455698630E+02  0.30582192995E+03  0.48659165137E+03  0.25500000920E-02 0. -1.
       -2    1    3    3    0  502 -0.36571405379E+03 -0.97455698630E+02 -0.23228645916E+04  0.23534961851E+04  0.25500000920E-02 0.  1.
</event>
<event>
 5   0  0.2003576E-05  0.2000105E+04  0.7818609E-02  0.8606572E-01
        2   -1    0    0  501    0  0.00000000000E+00  0.00000000000E+00  0.88320850919E+03  0.88320850919E+03  0.25500000920E-02 0. -1.
       -2   -1    0    0    0  501  0.00000000000E+00  0.00000000000E+00 -0.11323544465E+04  0.11323544465E+04  0.25500000920E-02 0.  1.
    10030    2    1    2    0    0  0.00000000000E+00  0.00000000000E+00 -0.24914593733E+03  0.20155629557E+04  0.20001050798E+04 0.  0.
        4    1    3    3  502    0  0.79994998628E+03  0.51249041312E+03  0.19014997005E+03  0.96887823182E+03  0.12699999809E+01 0. -1.
       -4    1    3    3    0  502 -0.79994998628E+03 -0.51249041312E+03 -0.43929590737E+03  0.10466847239E+04  0.12699999809E+01 0.  1.
</event>
<event>
 5   0  0.2020029E-05  0.1939368E+04  0.7818609E-02  0.8635505E-01
        2   -1    0    0  501    0  0.00000000000E+00  0.00000000000E+00  0.10922541719E+04  0.10922541719E+04  0.25500000920E-02 0.  1.
       -2   -1    0    0    0  501  0.00000000000E+00  0.00000000000E+00 -0.86086834704E+03  0.86086834704E+03  0.25500000920E-02 0. -1.
    10030    2    1    2    0    0  0.00000000000E+00  0.00000000000E+00  0.23138582485E+03  0.19531225189E+04  0.19393679831E+04 0.  0.
        5    1    3    3  502    0 -0.21747892985E+03  0.68178536112E+03  0.77465501477E+03  0.10546282973E+04  0.46999998093E+01 0. -1.
       -5    1    3    3    0  502  0.21747892985E+03 -0.68178536112E+03 -0.54326918992E+03  0.89849422162E+03  0.46999998093E+01 0.  1.
</event>
<event>
 5   0  0.9333353E-06  0.2001289E+04  0.7818609E-02  0.8606018E-01
       -1   -1    0    0    0  501  0.00000000000E+00  0.00000000000E+00  0.94811529808E+03  0.94811529809E+03  0.50400001928E-02 0.  1.
        1   -1    0    0  501    0  0.00000000000E+00  0.00000000000E+00 -0.10560838855E+04  0.10560838855E+04  0.50400001928E-02 0. -1.
    10030    2    1    2    0    0  0.00000000000E+00  0.00000000000E+00 -0.10796858738E+03  0.20041991836E+04  0.20012888726E+04 0.  0.
        2    1    3    3  502    0 -0.27374481877E+03 -0.40323080386E+03 -0.92918766307E+03  0.10492478354E+04  0.25500000920E-02 0. -1.
       -2    1    3    3    0  502  0.27374481877E+03  0.40323080386E+03  0.82121907569E+03  0.95495134812E+03  0.25500000920E-02 0.  1.
</event>
<event>
 5   0  0.2020029E-05  0.1999762E+04  0.7818609E-02  0.8606732E-01
        2   -1    0    0  501    0  0.00000000000E+00  0.00000000000E+00  0.92099312150E+03  0.92099312150E+03  0.25500000920E-02 0. -1.
       -2   -1    0    0    0  501  0.00000000000E+00  0.00000000000E+00 -0.10855259548E+04  0.10855259548E+04  0.25500000920E-02 0.  1.
    10030    2    1    2    0    0  0.00000000000E+00  0.00000000000E+00 -0.16453283333E+03  0.20065190763E+04  0.19997619234E+04 0.  0.
        5    1    3    3  502    0 -0.50488349041E+03 -0.26978693801E+02 -0.94779618632E+03  0.10742322326E+04  0.46999998093E+01 0.  1.
       -5    1    3    3    0  502  0.50488349041E+03  0.26978693801E+02  0.78326335299E+03  0.93228684371E+03  0.46999998093E+01 0. -1.
</event>
<event>
 5   0  0.9342635E-06  0.1996179E+04  0.7818609E-02  0.8608409E-01
       -1   -1    0    0    0  501  0.00000000000E+00  0.00000000000E+00  0.81201887571E+03  0.81201887573E+03  0.50400001928E-02 0. -1.
        1   -1    0    0  501    0  0.00000000000E+00  0.00000000000E+00 -0.12267970733E+04  0.12267970733E+04  0.50400001928E-02 0.  1.
    10030    2    1    2    0    0  0.00000000000E+00  0.00000000000E+00 -0.41477819756E+03  0.20388159490E+04  0.19961787297E+04 0.  0.
        5    1    3    3  502    0  0.94638894050E+03  0.74949195301E+01  0.11632237012E+03  0.95355187814E+03  0.46999998093E+01 0. -1.
       -5    1    3    3    0  502 -0.94638894050E+03 -0.74949195301E+01 -0.53110056768E+03  0.10852640709E+04  0.46999998093E+01 0.  1.
</event>
<event>
 5   0  0.9333353E-06  0.2001769E+04  0.7818609E-02  0.8605794E-01
        1   -1    0    0  501    0  0.00000000000E+00  0.00000000000E+00  0.64656141461E+03  0.64656141463E+03  0.50400001928E-02 0.  1.
       -1   -1    0    0    0  501  0.00000000000E+00  0.00000000000E+00 -0.15493800055E+04  0.15493800055E+04  0.50400001928E-02 0. -1.
    10030    2    1    2    0    0  0.00000000000E+00  0.00000000000E+00 -0.90281859087E+03  0.21959414201E+04  0.20017685462E+04 0.  0.
        2    1    3    3  502    0 -0.31843983250E+03  0.82611693591E+03 -0.96348211830E+03  0.13084994883E+04  0.25500000920E-02 0. -1.
       -2    1    3    3    0  502  0.31843983250E+03 -0.82611693591E+03  0.60663527424E+02  0.88744193178E+03  0.25500000920E-02 0.  1.
</event>
<event>
 5   0  0.1999142E-05  0.2009711E+04  0.7818609E-02  0.8602094E-01
       -2   -1    0    0    0  501  0.00000000000E+00  0.00000000000E+00  0.92613063686E+03  0.92613063687E+03  0.25500000920E-02 0. -1.
        2   -1    0    0  501    0  0.00000000000E+00  0.00000000000E+00 -0.10902724220E+04  0.10902724221E+04  0.25500000920E-02 0.  1.
    10030    2    1    2    0    0  0.00000000000E+00  0.00000000000E+00 -0.16414178519E+03  0.20164030589E+04  0.20097111161E+04 0.  0.
        1    1    3    3  502    0 -0.41058487099E+03  0.39145128283E+03 -0.91424248414E+03  0.10759430110E+04  0.50400001928E-02 0.  1.
       -1    1    3    3    0  502  0.41058487099E+03 -0.39145128283E+03  0.75010069895E+03  0.94046004791E+03  0.50400001928E-02 0. -1.
</event>
<event>
 5   0  0.9370269E-06  0.1981442E+04  0.7818609E-02  0.8615347E-01
       -1   -1    0    0    0  501  0.00000000000E+00  0.00000000000E+00  0.48602701621E+03  0.48602701624E+03  0.50400001928E-02 0.  1.
        1   -1    0    0  501    0  0.00000000000E+00  0.00000000000E+00 -0.20194922399E+04  0.20194922399E+04  0.50400001928E-02 0. -1.
    10030    2    1    2    0    0  0.00000000000E+00  0.00000000000E+00 -0.15334652236E+04  0.25055192561E+04  0.19814416849E+04 0.  0.
        4    1    3    3  502    0 -0.36987849335E+02  0.85208412137E+03 -0.14041559292E+04  0.16428849434E+04  0.12699999809E+01 0. -1.
       -4    1    3    3    0  502  0.36987849335E+02 -0.85208412137E+03 -0.12930929445E+03  0.86263431269E+03  0.12699999809E+01 0.  1.
</event>
<event>
 5   0  0.2038882E-05  0.2005728E+04  0.7818609E-02  0.8603947E-01
        2   -1    0    0  501    0  0.00000000000E+00  0.00000000000E+00  0.17883187407E+04  0.17883187407E+04  0.25500000920E-02 0. -1.
       -2   -1    0    0    0  501  0.00000000000E+00  0.00000000000E+00 -0.56239229118E+03  0.56239229119E+03  0.25500000920E-02 0.  1.
    10030    2    1    2    0    0  0.00000000000E+00  0.00000000000E+00  0.12259264495E+04  0.23507110319E+04  0.20057284701E+04 0.  0.
        3    1    3    3  502    0 -0.89398953797E+03 -0.29336871400E+03  0.20620342828E+03  0.96322497911E+03  0.10100000352E+00 0. -1.
       -3    1    3    3    0  502  0.89398953797E+03  0.29336871400E+03  0.10197230212E+04  0.13874860527E+04  0.10100000352E+00 0.  1.
</event>
<event>
 5   0  0.9342635E-06  0.2009235E+04  0.7818609E-02  0.8602315E-01
       -1   -1    0    0    0  501  0.00000000000E+00  0.00000000000E+00  0.74233828402E+03  0.74233828404E+03  0.50400001928E-02 0. -1.
        1   -1    0    0  501    0  0.00000000000E+00  0.00000000000E+00 -0.13595641256E+04  0.13595641256E+04  0.50400001928E-02 0.  1.
    10030    2    1    2    0    0  0.00000000000E+00  0.00000000000E+00 -0.61722584160E+03  0.21019024097E+04  0.20092351779E+04 0.  0.
        5    1    3    3  502    0  0.35220323413E+03  0.52062249949E+03  0.51120100675E+03  0.81021198732E+03  0.46999998093E+01 0. -1.
       -5    1    3    3    0  502 -0.35220323413E+03 -0.52062249949E+03 -0.11284268484E+04  0.12916904223E+04  0.46999998093E+01 0.  1.
</event>
<event>
 5   0  0.9220260E-06  0.1999452E+04  0.7818609E-02  0.8606877E-01
       -1   -1    0    0    0  501  0.00000000000E+00  0.00000000000E+00  0.62363458948E+03  0.62363458950E+03  0.50400001928E-02 0. -1.
        1   -1    0    0  501    0  0.00000000000E+00  0.00000000000E+00 -0.16026245690E+04  0.16026245691E+04  0.50400001928E-02 0.  1.
    10030    2    1    2    0    0  0.00000000000E+00  0.00000000000E+00 -0.97898997956E+03  0.22262591586E+04  0.19994520402E+04 0.  0.
        3    1    3    3  502    0  0.39624376517E+03 -0.68599218904E+03  0.18947896812E+03  0.81455306422E+03  0.10100000352E+00 0. -1.
       -3    1    3    3    0  502 -0.39624376517E+03  0.68599218904E+03 -0.11684689477E+04  0.14117060943E+04  0.10100000352E+00 0.  1.
</event>
<event>
 5   0  0.7132000E-06  0.2002055E+04  0.7818609E-02  0.8605660E-01
        3   -1    0    0  501    0  0.00000000000E+00  0.00000000000E+00  0.57862515805E+03  0.57862516686E+03  0.10100000352E+00 0.  1.
       -3   -1    0    0    0  501  0.00000000000E+00  0.00000000000E+00 -0.17317880329E+04  0.17317880359E+04  0.10100000352E+00 0. -1.
    10030    2    1    2    0    0  0.00000000000E+00  0.00000000000E+00 -0.11531628749E+04  0.23104132027E+04  0.20020550820E+04 0.  0.
        2    1    3    3  502    0  0.95108005356E+03 -0.13844106900E+03 -0.25358559126E+03  0.99399439131E+03  0.25500000920E-02 0.  1.
       -2    1    3    3    0  502 -0.95108005356E+03  0.13844106900E+03 -0.89957728363E+03  0.13164188114E+04  0.25500000920E-02 0. -1.
</event>
<event>
 5   0  0.1979765E-05  0.2002284E+04  0.7818609E-02  0.8605554E-01
        2   -1    0    0  501    0  0.00000000000E+00  0.00000000000E+00  0.14879665724E+04  0.14879665724E+04  0.25500000920E-02 0. -1.
       -2   -1    0    0    0  501  0.00000000000E+00  0.00000000000E+00 -0.67359365729E+03  0.67359365729E+03  0.25500000920E-02 0.  1.
    10030    2    1    2    0    0  0.00000000000E+00  0.00000000000E+00  0.81437291515E+03  0.21615602297E+04  0.20022835418E+04 0.  0.
        2    1    3    3  502    0 -0.17186989497E+03  0.71647676897E+03  0.11388988158E+04  0.13564544718E+04  0.25500000920E-02 0. -1.
       -2    1    3    3    0  502  0.17186989497E+03 -0.71647676897E+03 -0.32452590069E+03  0.80510575796E+03  0.25500000920E-02 0.  1.
</event>
<event>
 5   0  0.2020029E-05  0.2003534E+04  0.7818609E-02  0.8604970E-01
        2   -1    0    0  501    0  0.00000000000E+00  0.00000000000E+00  0.18173827585E+04  0.18173827585E+04  0.25500000920E-02 0.  1.
       -2   -1    0    0    0  501  0.00000000000E+00  0.00000000000E+00 -0.55218809799E+03  0.55218809800E+03  0.25500000920E-02 0. -1.
    10030    2    1    2    0    0  0.00000000000E+00  0.00000000000E+00  0.12651946605E+04  0.23695708565E+04  0.20035340065E+04 0.  0.
        5    1    3    3  502    0  0.86615232394E+03  0.10452960307E+02  0.37493477416E+02  0.86703919375E+03  0.46999998093E+01 0. -1.
       -5    1    3    3    0  502 -0.86615232394E+03 -0.10452960307E+02  0.12277011831E+04  0.15025316628E+04  0.46999998093E+01 0.  1.
</event>
<event>
 5   0  0.9370269E-06  0.1999464E+04  0.7818609E-02  0.8606871E-01
       -1   -1    0    0    0  501  0.00000000000E+00  0.00000000000E+00  0.82376799120E+03  0.82376799121E+03  0.50400001928E-02 0.  1.
        1   -1    0    0  501    0  0.00000000000E+00  0.00000000000E+00 -0.12132834338E+04  0.12132834338E+04  0.50400001928E-02 0. -1.
    10030    2    1    2    0    0  0.00000000000E+00  0.00000000000E+00 -0.38951544259E+03  0.20370514250E+04  0.19994639852E+04 0.  0.
        4    1    3    3  502    0  0.23413210315E+03 -0.94915443273E+03 -0.40785590331E+03  0.10592733498E+04  0.12699999809E+01 0. -1.
       -4    1    3    3    0  502 -0.23413210315E+03  0.94915443273E+03  0.18340460726E+02  0.97777807518E+03  0.12699999809E+01 0.  1.
</event>
<event>
 5   0  0.2003576E-05  0.2000013E+04  0.7818609E-02  0.8606615E-01
        2   -1    0    0  501    0  0.00000000000E+00  0.00000000000E+00  0.16061032709E+04  0.16061032709E+04  0.25500000920E-02 0.  1.
       -2   -1    0    0    0  501  0.00000000000E+00  0.00000000000E+00 -0.62263289375E+03  0.62263289376E+03  0.25500000920E-02 0. -1.
    10030    2    1    2    0    0  0.00000000000E+00  0.00000000000E+00  0.98347037712E+03  0.22287361646E+04  0.20000127272E+04 0.  0.
        4    1    3    3  502    0  0.42817106115E+03 -0.79358264518E+02 -0.51142673862E+03  0.67170463273E+03  0.12699999809E+01 0. -1.
       -4    1    3    3    0  502 -0.42817106115E+03  0.79358264518E+02  0.14948971157E+04  0.15570315319E+04  0.12699999809E+01 0.  1.
</event>
<event>
 5   0  0.9342635E-06  0.2000871E+04  0.7818609E-02  0.8606213E-01
       -1   -1    0    0    0  501  0.00000000000E+00  0.00000000000E+00  0.75781538430E+03  0.75781538431E+03  0.50400001928E-02 0. -1.
        1   -1    0    0  501    0  0.00000000000E+00  0.00000000000E+00 -0.13207327231E+04  0.13207327231E+04  0.50400001928E-02 0.  1.
    10030    2    1    2    0    0  0.00000000000E+00  0.00000000000E+00 -0.56291733882E+03  0.20785481074E+04  0.20008713863E+04 0.  0.
        5    1    3    3  502    0 -0.25954069208E+03 -0.17410009928E+03 -0.12687092705E+04  0.13066436080E+04  0.46999998093E+01 0.  1.
       -5    1    3    3    0  502  0.25954069208E+03  0.17410009928E+03  0.70579193166E+03  0.77190449941E+03  0.46999998093E+01 0. -1.
</event>
<event>
 5   0  0.1979765E-05  0.2001581E+04  0.7818609E-02  0.8605882E-01
       -2   -1    0    0    0  501  0.00000000000E+00  0.00000000000E+00  0.46832908951E+03  0.46832908952E+03  0.25500000920E-02 0.  1.
        2   -1    0    0  501    0  0.00000000000E+00  0.00000000000E+00 -0.21386273992E+04  0.21386273992E+04  0.25500000920E-02 0. -1.
    10030    2    1    2    0    0  0.00000000000E+00  0.00000000000E+00 -0.16702983097E+04  0.26069564887E+04  0.20015807980E+04 0.  0.
        2    1    3    3  502    0 -0.14313351798E+03  0.15439173215E+03 -0.21094589620E+04  0.21199389433E+04  0.25500000920E-02 0. -1.
       -2    1    3    3    0  502  0.14313351798E+03 -0.15439173215E+03  0.43916065236E+03  0.48701754538E+03  0.25500000920E-02 0.  1.
</event>
<event>
 5   0  0.2038882E-05  0.1991851E+04  0.7818609E-02  0.8610440E-01
        2   -1    0    0  501    0  0.00000000000E+00  0.00000000000E+00  0.18351156490E+04  0.18351156490E+04  0.25500000920E-02 0. -1.
       -2   -1    0    0    0  501  0.00000000000E+00  0.00000000000E+00 -0.54049335039E+03  0.54049335040E+03  0.25500000920E-02 0.  1.
    10030    2    1    2    0    0  0.00000000000E+00  0.00000000000E+00  0.12946222986E+04  0.23756089994E+04  0.19918512048E+04 0.  0.
        3    1    3    3  502    0  0.61498697554E+03 -0.77739959303E+03  0.76238120041E+03  0.12505135794E+04  0.10100000352E+00 0.  1.
       -3    1    3    3    0  502 -0.61498697554E+03  0.77739959303E+03  0.53224109822E+03  0.11250954200E+04  0.10100000352E+00 0. -1.
</event>
<event>
 5   0  0.9333353E-06  0.1994763E+04  0.7818609E-02  0.8609073E-01
       -1   -1    0    0    0  501  0.00000000000E+00  0.00000000000E+00  0.10830160096E+04  0.10830160096E+04  0.50400001928E-02 0.  1.
        1   -1    0    0  501    0  0.00000000000E+00  0.00000000000E+00 -0.91851804407E+03  0.91851804408E+03  0.50400001928E-02 0. -1.
    10030    2    1    2    0    0  0.00000000000E+00  0.00000000000E+00  0.16449796553E+03  0.20015340537E+04  0.19947628900E+04 0.  0.
        2    1    3    3  502    0 -0.57861745245E+03 -0.71913349438E+03  0.46144529146E+03  0.10319316334E+04  0.25500000920E-02 0.  1.
       -2    1    3    3    0  502  0.57861745245E+03  0.71913349438E+03 -0.29694732594E+03  0.96960242027E+03  0.25500000920E-02 0. -1.
</event>
<event>
 5   0  0.9342635E-06  0.2003360E+04  0.7818609E-02  0.8605052E-01
       -1   -1    0    0    0  501  0.00000000000E+00  0.00000000000E+00  0.85498229299E+03  0.85498229300E+03  0.50400001928E-02 0. -1.
        1   -1    0    0  501    0  0.00000000000E+00  0.00000000000E+00 -0.11735474995E+04  0.11735474995E+04  0.50400001928E-02 0.  1.
    10030    2    1    2    0    0  0.00000000000E+00  0.00000000000E+00 -0.31856520652E+03  0.20285297925E+04  0.20033595105E+04 0.  0.
        5    1    3    3  502    0  0.20388262288E+03 -0.84185006220E+03 -0.66865423854E+03  0.10942578452E+04  0.46999998093E+01 0.  1.
       -5    1    3    3    0  502 -0.20388262288E+03  0.84185006220E+03  0.35008903203E+03  0.93427194728E+03  0.46999998093E+01 0. -1.
</event>
<event>
 5   0  0.2038882E-05  0.2008500E+04  0.7818609E-02  0.8602657E-01
        2   -1    0    0  501    0  0.00000000000E+00  0.00000000000E+00  0.12864910523E+04  0.12864910523E+04  0.25500000920E-02 0. -1.
       -2   -1    0    0    0  501  0.00000000000E+00  0.00000000000E+00 -0.78392917049E+03  0.78392917050E+03  0.25500000920E-02 0.  1.
    10030    2    1    2    0    0  0.00000000000E+00  0.00000000000E+00  0.50256188183E+03  0.20704202228E+04  0.20084998018E+04 0.  0.
        3    1    3    3  502    0  0.30622982064E+03  0.92767422355E+03  0.49118234629E+03  0.10934423970E+04  0.10100000352E+00 0. -1.
       -3    1    3    3    0  502 -0.30622982064E+03 -0.92767422355E+03  0.11379535543E+02  0.97697782580E+03  0.10100000352E+00 0.  1.
</event>
<event>
 5   0  0.2038882E-05  0.1998437E+04  0.7818609E-02  0.8607352E-01
        2   -1    0    0  501    0  0.00000000000E+00  0.00000000000E+00  0.13345450372E+04  0.13345450372E+04  0.25500000920E-02 0.  1.
       -2   -1    0    0    0  501  0.00000000000E+00  0.00000000000E+00 -0.74814839837E+03  0.74814839838E+03  0.25500000920E-02 0. -1.
    10030    2    1    2    0    0  0.00000000000E+00  0.00000000000E+00  0.58639663881E+03  0.20826934356E+04  0.19984371215E+04 0.  0.
        3    1    3    3  502    0 -0.84777545191E+03 -0.20831808563E+03  0.79981949103E+03  0.11839893877E+04  0.10100000352E+00 0. -1.
       -3    1    3    3    0  502  0.84777545191E+03  0.20831808563E+03 -0.21342285222E+03  0.89870404790E+03  0.10100000352E+00 0.  1.
</event>
<event>
 5   0  0.1979765E-05  0.2029917E+04  0.7818609E-02  0.8592760E-01
        2   -1    0    0  501    0  0.00000000000E+00  0.00000000000E+00  0.24729807065E+04  0.24729807065E+04  0.25500000920E-02 0.  1.
       -2   -1    0    0    0  501  0.00000000000E+00  0.00000000000E+00 -0.41655837898E+03  0.41655837899E+03  0.25500000920E-02 0. -1.
    10030    2    1    2    0    0  0.00000000000E+00  0.00000000000E+00  0.20564223275E+04  0.28895390854E+04  0.20299170765E+04 0.  0.
        2    1    3    3  502    0  0.54615039383E+03 -0.84659677895E+03  0.85309188333E+03  0.13201409471E+04  0.25500000920E-02 0. -1.
       -2    1    3    3    0  502 -0.54615039383E+03  0.84659677895E+03  0.12033304441E+04  0.15693981383E+04  0.25500000920E-02 0.  1.
</event>
<event>
 5   0  0.9140695E-06  0.1998973E+04  0.7818609E-02  0.8607101E-01
       -1   -1    0    0    0  501  0.00000000000E+00  0.00000000000E+00  0.79463082893E+03  0.79463082895E+03  0.50400001928E-02 0.  1.
        1   -1    0    0  501    0  0.00000000000E+00  0.00000000000E+00 -0.12571545216E+04  0.12571545216E+04  0.50400001928E-02 0. -1.
    10030    2    1    2    0    0  0.00000000000E+00  0.00000000000E+00 -0.46252369266E+03  0.20517853506E+04  0.19989734762E+04 0.  0.
        1    1    3    3  502    0 -0.24546484816E+03 -0.13514202738E+03 -0.12160135373E+04  0.12478803156E+04  0.50400001928E-02 0. -1.
       -1    1    3    3    0  502  0.24546484816E+03  0.13514202738E+03  0.75348984461E+03  0.80390503494E+03  0.50400001928E-02 0.  1.
</event>
<event>
 5   0  0.2003576E-05  0.2007610E+04  0.7818609E-02  0.8603071E-01
       -2   -1    0    0    0  501  0.00000000000E+00  0.00000000000E+00  0.14753792512E+04  0.14753792512E+04  0.25500000920E-02 0. -1.
        2   -1    0    0  501    0  0.00000000000E+00  0.00000000000E+00 -0.68295946950E+03  0.68295946950E+03  0.25500000920E-02 0.  1.
    10030    2    1    2    0    0  0.00000000000E+00  0.00000000000E+00  0.79241978174E+03  0.21583387207E+04  0.20076097536E+04 0.  0.
        4    1    3    3  502    0  0.49336369337E+03  0.74902182458E+03 -0.88388597528E+02  0.90125223146E+03  0.12699999809E+01 0.  1.
       -4    1    3    3    0  502 -0.49336369337E+03 -0.74902182458E+03  0.88080837927E+03  0.12570864893E+04  0.12699999809E+01 0. -1.
</event>
<event>
 5   0  0.2038882E-05  0.1991654E+04  0.7818609E-02  0.8610533E-01
        2   -1    0    0  501    0  0.00000000000E+00  0.00000000000E+00  0.89888663243E+03  0.89888663244E+03  0.25500000920E-02 0.  1.
       -2   -1    0    0    0  501  0.00000000000E+00  0.00000000000E+00 -0.11032216815E+04  0.11032216815E+04  0.25500000920E-02 0. -1.
    10030    2    1    2    0    0  0.00000000000E+00  0.00000000000E+00 -0.20433504906E+03  0.20021083139E+04  0.19916538074E+04 0.  0.
        3    1    3    3  502    0  0.41551043483E+03 -0.66849121749E+03  0.51106888900E+03  0.93846728703E+03  0.10100000352E+00 0.  1.
       -3    1    3    3    0  502 -0.41551043483E+03  0.66849121749E+03 -0.71540393806E+03  0.10636410269E+04  0.10100000352E+00 0. -1.
</event>
<event>
 5   0  0.9333353E-06  0.2001974E+04  0.7818609E-02  0.8605698E-01
       -1   -1    0    0    0  501  0.00000000000E+00  0.00000000000E+00  0.11230867699E+04  0.11230867699E+04  0.50400001928E-02 0. -1.
        1   -1    0    0  501    0  0.00000000000E+00  0.00000000000E+00 -0.89216205333E+03  0.89216205334E+03  0.50400001928E-02 0.  1.
    10030    2    1    2    0    0  0.00000000000E+00  0.00000000000E+00  0.23092471653E+03  0.20152488232E+04  0.20019744241E+04 0.  0.
        2    1    3    3  502    0  0.48381917779E+02  0.88620178868E+03 -0.35051193863E+03  0.95422902877E+03  0.25500000920E-02 0.  1.
       -2    1    3    3    0  502 -0.48381917779E+02 -0.88620178868E+03  0.58143665516E+03  0.10610197944E+04  0.25500000920E-02 0. -1.
</event>
<event>
 5   0  0.9140695E-06  0.1990184E+04  0.7818609E-02  0.8611224E-01
       -1   -1    0    0    0  501  0.00000000000E+00  0.00000000000E+00  0.84224651362E+03  0.84224651363E+03  0.50400001928E-02 0.  1.
        1   -1    0    0  501    0  0.00000000000E+00  0.00000000000E+00 -0.11756754346E+04  0.11756754346E+04  0.50400001928E-02 0. -1.
    10030    2    1    2    0    0  0.00000000000E+00  0.00000000000E+00 -0.33342892096E+03  0.20179219482E+04  0.19901844497E+04 0.  0.
        1    1    3    3  502    0  0.36433631232E+03  0.38767479359E+03  0.68594328898E+03  0.86807309011E+03  0.50400001928E-02 0.  1.
       -1    1    3    3    0  502 -0.36433631232E+03 -0.38767479359E+03 -0.10193722099E+04  0.11498488581E+04  0.50400001928E-02 0. -1.
</event>
<event>
 5   0  0.1999142E-05  0.2001555E+04  0.7818609E-02  0.8605894E-01
       -2   -1    0    0    0  501  0.00000000000E+00  0.00000000000E+00  0.50514214679E+03  0.50514214680E+03  0.25500000920E-02 0. -1.
        2   -1    0    0  501    0  0.00000000000E+00  0.00000000000E+00 -0.19827199553E+04  0.19827199553E+04  0.25500000920E-02 0.  1.
    10030    2    1    2    0    0  0.00000000000E+00  0.00000000000E+00 -0.14775778085E+04  0.24878621021E+04  0.20015548103E+04 0.  0.
        1    1    3    3  502    0  0.99576925058E+03  0.80298426183E+02 -0.81285935350E+03  0.12879225777E+04  0.50400001928E-02 0.  1.
       -1    1    3    3    0  502 -0.99576925058E+03 -0.80298426183E+02 -0.66471845498E+03  0.11999395243E+04  0.50400001928E-02 0. -1.
</event>
<event>
 5   0  0.9342635E-06  0.2003689E+04  0.7818609E-02  0.8604898E-01
        1   -1    0    0  501    0  0.00000000000E+00  0.00000000000E+00  0.72285517405E+03  0.72285517407E+03  0.50400001928E-02 0. -1.
       -1   -1    0    0    0  501  0.00000000000E+00  0.00000000000E+00 -0.13885106274E+04  0.13885106274E+04  0.50400001928E-02 0.  1.
    10030    2    1    2    0    0  0.00000000000E+00  0.00000000000E+00 -0.66565545331E+03  0.21113658014E+04  0.20036886896E+04 0.  0.
        5    1    3    3  502    0  0.33001168508E+03  0.44319730599E+03 -0.12134024386E+04  0.13333038410E+04  0.46999998093E+01 0.  1.
       -5    1    3    3    0  502 -0.33001168508E+03 -0.44319730599E+03  0.54774698533E+03  0.77806196043E+03  0.46999998093E+01 0. -1.
</event>
<event>
 5   0  0.9140695E-06  0.1996672E+04  0.7818609E-02  0.8608178E-01
       -1   -1    0    0    0  501  0.00000000000E+00  0.00000000000E+00  0.74403212514E+03  0.74403212516E+03  0.50400001928E-02 0.  1.
        1   -1    0    0  501    0  0.00000000000E+00  0.00000000000E+00 -0.13395585696E+04  0.13395585696E+04  0.50400001928E-02 0. -1.
    10030    2    1    2    0    0  0.00000000000E+00  0.00000000000E+00 -0.59552644448E+03  0.20835906948E+04  0.19966718402E+04 0.  0.
        1    1    3    3  502    0  0.19748505464E+03 -0.54320496420E+03  0.55167596752E+03  0.79901085919E+03  0.50400001928E-02 0.  1.
       -1    1    3    3    0  502 -0.19748505464E+03  0.54320496420E+03 -0.11472024120E+04  0.12845798356E+04  0.50400001928E-02 0. -1.
</event>
<event>
 5   0  0.2038882E-05  0.1996789E+04  0.7818609E-02  0.8608124E-01
        2   -1    0    0  501    0  0.00000000000E+00  0.00000000000E+00  0.85352340317E+03  0.85352340318E+03  0.25500000920E-02 0.  1.
       -2   -1    0    0    0  501  0.00000000000E+00  0.00000000000E+00 -0.11678545823E+04  0.11678545823E+04  0.25500000920E-02 0. -1.
    10030    2    1    2    0    0  0.00000000000E+00  0.00000000000E+00 -0.31433117911E+03  0.20213779855E+04  0.19967886393E+04 0.  0.
        3    1    3    3  502    0 -0.70820096718E+03  0.68767522820E+03 -0.58410761238E+01  0.98715751417E+03  0.10100000352E+00 0. -1.
       -3    1    3    3    0  502  0.70820096718E+03 -0.68767522820E+03 -0.30849010298E+03  0.10342204713E+04  0.10100000352E+00 0.  1.
</event>
<event>
 5   0  0.9140695E-06  0.1999462E+04  0.7818609E-02  0.8606872E-01
       -1   -1    0    0    0  501  0.00000000000E+00  0.00000000000E+00  0.54618463733E+03  0.54618463735E+03  0.50400001928E-02 0.  1.
        1   -1    0    0  501    0  0.00000000000E+00  0.00000000000E+00 -0.18298969533E+04  0.18298969533E+04  0.50400001928E-02 0. -1.
    10030    2    1    2    0    0  0.00000000000E+00  0.00000000000E+00 -0.12837123160E+04  0.23760815907E+04  0.19994615313E+04 0.  0.
        1    1    3    3  502    0 -0.20465775852E+03  0.31457081109E+03  0.45930099741E+03  0.59312477571E+03  0.50400001928E-02 0.  1.
       -1    1    3    3    0  502  0.20465775852E+03 -0.31457081109E+03 -0.17430133134E+04  0.17829568150E+04  0.50400001928E-02 0. -1.
</event>
<event>
 5   0  0.9140695E-06  0.1999550E+04  0.7818609E-02  0.8606831E-01
        1   -1    0    0  501    0  0.00000000000E+00  0.00000000000E+00  0.98899655421E+03  0.98899655423E+03  0.50400001928E-02 0. -1.
       -1   -1    0    0    0  501  0.00000000000E+00  0.00000000000E+00 -0.10106713255E+04  0.10106713255E+04  0.50400001928E-02 0.  1.
    10030    2    1    2    0    0  0.00000000000E+00  0.00000000000E+00 -0.21674771312E+02  0.19996678798E+04  0.19995504079E+04 0.  0.
        1    1    3    3  502    0  0.57363379691E+01 -0.39930000162E+03  0.90577363983E+03  0.98989862284E+03  0.50400001928E-02 0. -1.
       -1    1    3    3    0  502 -0.57363379691E+01  0.39930000162E+03 -0.92744841114E+03  0.10097692569E+04  0.50400001928E-02 0.  1.
</event>
<event>
 5   0  0.9333353E-06  0.2013921E+04  0.7818609E-02  0.8600140E-01
        1   -1    0    0  501    0  0.00000000000E+00  0.00000000000E+00  0.11422971541E+04  0.11422971541E+04  0.50400001928E-02 0. -1.
       -1   -1    0    0    0  501  0.00000000000E+00  0.00000000000E+00 -0.88765785062E+03  0.88765785064E+03  0.50400001928E-02 0.  1.
    10030    2    1    2    0    0  0.00000000000E+00  0.00000000000E+00  0.25463930349E+03  0.20299550048E+04  0.20139205909E+04 0.  0.
        2    1    3    3  502    0  0.60946491369E+03  0.13526055157E+03  0.92368993249E+03  0.11148748760E+04  0.25500000920E-02 0. -1.
       -2    1    3    3    0  502 -0.60946491369E+03 -0.13526055157E+03 -0.66905062899E+03  0.91508012873E+03  0.25500000920E-02 0.  1.
</event>
<event>
 5   0  0.1999142E-05  0.2000617E+04  0.7818609E-02  0.8606332E-01
        2   -1    0    0  501    0  0.00000000000E+00  0.00000000000E+00  0.10241143137E+04  0.10241143137E+04  0.25500000920E-02 0. -1.
       -2   -1    0    0    0  501  0.00000000000E+00  0.00000000000E+00 -0.97705649427E+03  0.97705649428E+03  0.25500000920E-02 0.  1.
    10030    2    1    2    0    0  0.00000000000E+00  0.00000000000E+00  0.47057819409E+02  0.20011708080E+04  0.20006174458E+04 0.  0.
        1    1    3    3  502    0  0.61248946393E+03  0.64652443420E+03  0.47915501280E+03  0.10112995173E+04  0.50400001928E-02 0. -1.
       -1    1    3    3    0  502 -0.61248946393E+03 -0.64652443420E+03 -0.43209719339E+03  0.98987129063E+03  0.50400001928E-02 0.  1.
</event>
<event>
 5   0  0.7132000E-06  0.1997507E+04  0.7818609E-02  0.8607787E-01
       -3   -1    0    0    0  501  0.00000000000E+00  0.00000000000E+00  0.43080324137E+03  0.43080325321E+03  0.10100000352E+00 0.  1.
        3   -1    0    0  501    0  0.00000000000E+00  0.00000000000E+00 -0.23154629715E+04  0.23154629737E+04  0.10100000352E+00 0. -1.
    10030    2    1    2    0    0  0.00000000000E+00  0.00000000000E+00 -0.18846597301E+04  0.27462662269E+04  0.19975074194E+04 0.  0.
        2    1    3    3  502    0  0.98729153406E+03  0.78770687702E+02 -0.76540907496E+03  0.12517189966E+04  0.25500000920E-02 0.  1.
       -2    1    3    3    0  502 -0.98729153406E+03 -0.78770687702E+02 -0.11192506552E+04  0.14945472303E+04  0.25500000920E-02 0. -1.
</event>
<event>
 5   0  0.2038882E-05  0.1999571E+04  0.7818609E-02  0.8606821E-01
       -2   -1    0    0    0  501  0.00000000000E+00  0.00000000000E+00  0.66296853364E+03  0.66296853365E+03  0.25500000920E-02 0.  1.
        2   -1    0    0  501    0  0.00000000000E+00  0.00000000000E+00 -0.15077203624E+04  0.15077203624E+04  0.25500000920E-02 0. -1.
    10030    2    1    2    0    0  0.00000000000E+00  0.00000000000E+00 -0.84475182878E+03  0.21706888961E+04  0.19995711118E+04 0.  0.
        3    1    3    3  502    0  0.76679880513E+02  0.34369356665E+03 -0.14381688637E+04  0.14806534917E+04  0.10100000352E+00 0. -1.
       -3    1    3    3    0  502 -0.76679880513E+02 -0.34369356665E+03  0.59341703488E+03  0.69003540439E+03  0.10100000352E+00 0.  1.
</event>
<event>
 5   0  0.1979765E-05  0.2005814E+04  0.7818609E-02  0.8603907E-01
        2   -1    0    0  501    0  0.00000000000E+00  0.00000000000E+00  0.16926055800E+04  0.16926055800E+04  0.25500000920E-02 0.  1.
       -2   -1    0    0    0  501  0.00000000000E+00  0.00000000000E+00 -0.59424511413E+03  0.59424511414E+03  0.25500000920E-02 0. -1.
    10030    2    1    2    0    0  0.00000000000E+00  0.00000000000E+00  0.10983604659E+04  0.22868506942E+04  0.20058141450E+04 0.  0.
        2    1    3    3  502    0  0.48097140164E+03  0.64853606683E+03 -0.12905651041E+03  0.81767236840E+03  0.25500000920E-02 0. -1.
       -2    1    3    3    0  502 -0.48097140164E+03 -0.64853606683E+03  0.12274169763E+04  0.14691783258E+04  0.25500000920E-02 0.  1.
</event>
<event>
 5   0  0.2003576E-05  0.1996918E+04  0.7818609E-02  0.8608063E-01
        2   -1    0    0  501    0  0.00000000000E+00  0.00000000000E+00  0.22191657201E+04  0.22191657201E+04  0.25500000920E-02 0.  1.
       -2   -1    0    0    0  501  0.00000000000E+00  0.00000000000E+00 -0.44923212381E+03  0.44923212381E+03  0.25500000920E-02 0. -1.
    10030    2    1    2    0    0  0.00000000000E+00  0.00000000000E+00  0.17699335963E+04  0.26683978439E+04  0.19969181551E+04 0.  0.
        4    1    3    3  502    0 -0.74701716789E+03 -0.53438869675E+03  0.14081813208E+04  0.16812442337E+04  0.12699999809E+01 0. -1.
       -4    1    3    3    0  502  0.74701716789E+03  0.53438869675E+03  0.36175227549E+03  0.98715361016E+03  0.12699999809E+01 0.  1.
</event>
<event>
 5   0  0.2038882E-05  0.2001031E+04  0.7818609E-02  0.8606139E-01
        2   -1    0    0  501    0  0.00000000000E+00  0.00000000000E+00  0.16667475953E+04  0.16667475953E+04  0.25500000920E-02 0.  1.
       -2   -1    0    0    0  501  0.00000000000E+00  0.00000000000E+00 -0.60058986220E+03  0.60058986220E+03  0.25500000920E-02 0. -1.
    10030    2    1    2    0    0  0.00000000000E+00  0.00000000000E+00  0.10661577331E+04  0.22673374575E+04  0.20010314426E+04 0.  0.
        3    1    3    3  502    0 -0.96909244806E+03  0.17467300620E+03  0.73380074595E+03  0.12280530839E+04  0.10100000352E+00 0.  1.
       -3    1    3    3    0  502  0.96909244806E+03 -0.17467300620E+03  0.33235698711E+03  0.10392843735E+04  0.10100000352E+00 0. -1.
</event>
<event>
 5   0  0.9140695E-06  0.2002703E+04  0.7818609E-02  0.8605358E-01
       -1   -1    0    0    0  501  0.00000000000E+00  0.00000000000E+00  0.52579811502E+03  0.52579811505E+03  0.50400001928E-02 0. -1.
        1   -1    0    0  501    0  0.00000000000E+00  0.00000000000E+00 -0.19070141484E+04  0.19070141484E+04  0.50400001928E-02 0.  1.
    10030    2    1    2    0    0  0.00000000000E+00  0.00000000000E+00 -0.13812160334E+04  0.24328122634E+04  0.20027026185E+04 0.  0.
        1    1    3    3  502    0 -0.46873385250E+02  0.83191609003E+03 -0.15978290295E+02  0.83338874535E+03  0.50400001928E-02 0. -1.
       -1    1    3    3    0  502  0.46873385250E+02 -0.83191609003E+03 -0.13652377431E+04  0.15994235181E+04  0.50400001928E-02 0.  1.
</event>
<event>
 5   0  0.9342635E-06  0.2000280E+04  0.7818609E-02  0.8606490E-01
        1   -1    0    0  501    0  0.00000000000E+00  0.00000000000E+00  0.12804384397E+04  0.12804384397E+04  0.50400001928E-02 0. -1.
       -1   -1    0    0    0  501  0.00000000000E+00  0.00000000000E+00 -0.78120096320E+03  0.78120096322E+03  0.50400001928E-02 0.  1.
    10030    2    1    2    0    0  0.00000000000E+00  0.00000000000E+00  0.49923747648E+03  0.20616394029E+04  0.20002797229E+04 0.  0.
        5    1    3    3  502    0 -0.29448823574E+03 -0.14099961721E+03 -0.72471230342E+03  0.79488000715E+03  0.46999998093E+01 0.  1.
       -5    1    3    3    0  502  0.29448823574E+03  0.14099961721E+03  0.12239497799E+04  0.12667593958E+04  0.46999998093E+01 0. -1.
</event>
<event>
 5   0  0.7132000E-06  0.1988049E+04  0.7818609E-02  0.8612229E-01
       -3   -1    0    0    0  501  0.00000000000E+00  0.00000000000E+00  0.92561219969E+03  0.92561220520E+03  0.10100000352E+00 0. -1.
        3   -1    0    0  501    0  0.00000000000E+00  0.00000000000E+00 -0.10674928243E+04  0.10674928291E+04  0.10100000352E+00 0.  1.
    10030    2    1    2    0    0  0.00000000000E+00  0.00000000000E+00 -0.14188062460E+03  0.19931050343E+04  0.19880486830E+04 0.  0.
        1    1    3    3  502    0 -0.92590734234E+03 -0.16110782469E+03  0.25364888399E+03  0.97344640024E+03  0.50400001928E-02 0. -1.
       -1    1    3    3    0  502  0.92590734234E+03  0.16110782469E+03 -0.39552950859E+03  0.10196586340E+04  0.50400001928E-02 0.  1.
</event>
<event>
 5   0  0.2003576E-05  0.1999470E+04  0.7818609E-02  0.8606868E-01
       -2   -1    0    0    0  501  0.00000000000E+00  0.00000000000E+00  0.98658053813E+03  0.98658053813E+03  0.25500000920E-02 0.  1.
        2   -1    0    0  501    0  0.00000000000E+00  0.00000000000E+00 -0.10130650852E+04  0.10130650852E+04  0.25500000920E-02 0. -1.
    10030    2    1    2    0    0  0.00000000000E+00  0.00000000000E+00 -0.26484547094E+02  0.19996456234E+04  0.19994702268E+04 0.  0.
        4    1    3    3  502    0 -0.73439250318E+03 -0.22805169983E+03 -0.65214787222E+03  0.10082848738E+04  0.12699999809E+01 0. -1.
       -4    1    3    3    0  502  0.73439250318E+03  0.22805169983E+03  0.62566332513E+03  0.99136074959E+03  0.12699999809E+01 0.  1.
</event>
<event>
 5   0  0.1979765E-05  0.1998864E+04  0.7818609E-02  0.8607152E-01
        2   -1    0    0  501    0  0.00000000000E+00  0.00000000000E+00  0.11042276824E+04  0.11042276824E+04  0.25500000920E-02 0. -1.
       -2   -1    0    0    0  501  0.00000000000E+00  0.00000000000E+00 -0.90458202216E+03  0.90458202216E+03  0.25500000920E-02 0.  1.
    10030    2    1    2    0    0  0.00000000000E+00  0.00000000000E+00  0.19964566022E+03  0.20088097045E+04  0.19988641873E+04 0.  0.
        2    1    3    3  502    0  0.49749391008E+03 -0.80828560878E+03 -0.21484639395E+03  0.97313143456E+03  0.25500000920E-02 0.  1.
       -2    1    3    3    0  502 -0.49749391008E+03  0.80828560878E+03  0.41449205418E+03  0.10356782700E+04  0.25500000920E-02 0. -1.
</event>
<event>
 5   0  0.9333353E-06  0.1993008E+04  0.7818609E-02  0.8609897E-01
       -1   -1    0    0    0  501  0.00000000000E+00  0.00000000000E+00  0.50186849519E+03  0.50186849521E+03  0.50400001928E-02 0. -1.
        1   -1    0    0  501    0  0.00000000000E+00  0.00000000000E+00 -0.19786455637E+04  0.19786455637E+04  0.50400001928E-02 0.  1.
    10030    2    1    2    0    0  0.00000000000E+00  0.00000000000E+00 -0.14767770685E+04  0.24805140589E+04  0.19930076484E+04 0.  0.
        2    1    3    3  502    0  0.36393879011E+03  0.60919836598E+03  0.13234450050E+03  0.72186505587E+03  0.25500000920E-02 0. -1.
       -2    1    3    3    0  502 -0.36393879011E+03 -0.60919836598E+03 -0.16091215690E+04  0.17586490031E+04  0.25500000920E-02 0.  1.
</event>
<event>
 5   0  0.9333353E-06  0.2000553E+04  0.7818609E-02  0.8606362E-01
       -1   -1    0    0    0  501  0.00000000000E+00  0.00000000000E+00  0.44697443995E+03  0.44697443998E+03  0.50400001928E-02 0. -1.
        1   -1    0    0  501    0  0.00000000000E+00  0.00000000000E+00 -0.22385028582E+04  0.22385028582E+04  0.50400001928E-02 0.  1.
    10030    2    1    2    0    0  0.00000000000E+00  0.00000000000E+00 -0.17915284183E+04  0.26854772982E+04  0.20005534848E+04 0.  0.
        2    1    3    3  502    0 -0.88833720725E+03  0.44033618030E+03 -0.71811158449E+03  0.12242235062E+04  0.25500000920E-02 0.  1.
       -2    1    3    3    0  502  0.88833720725E+03 -0.44033618030E+03 -0.10734168338E+04  0.14612537920E+04  0.25500000920E-02 0. -1.
</event>
<event>
 5   0  0.1999142E-05  0.2000937E+04  0.7818609E-02  0.8606183E-01
       -2   -1    0    0    0  501  0.00000000000E+00  0.00000000000E+00  0.79855648525E+03  0.79855648526E+03  0.25500000920E-02 0. -1.
        2   -1    0    0  501    0  0.00000000000E+00  0.00000000000E+00 -0.12534330973E+04  0.12534330973E+04  0.25500000920E-02 0.  1.
    10030    2    1    2    0    0  0.00000000000E+00  0.00000000000E+00 -0.45487661204E+03  0.20519895826E+04  0.20009369092E+04 0.  0.
        1    1    3    3  502    0  0.35868845104E+03  0.43123578066E+02 -0.11842053493E+04  0.12380869748E+04  0.50400001928E-02 0.  1.
       -1    1    3    3    0  502 -0.35868845104E+03 -0.43123578066E+02  0.72932873724E+03  0.81390260774E+03  0.50400001928E-02 0. -1.
</event>
<event>
 5   0  0.9140695E-06  0.2019525E+04  0.7818609E-02  0.8597546E-01
        1   -1    0    0  501    0  0.00000000000E+00  0.00000000000E+00  0.10808344939E+04  0.10808344939E+04  0.50400001928E-02 0.  1.
       -1   -1    0    0    0  501  0.00000000000E+00  0.00000000000E+00 -0.94336391877E+03  0.94336391878E+03  0.50400001928E-02 0. -1.
    10030    2    1    2    0    0  0.00000000000E+00  0.00000000000E+00  0.13747057513E+03  0.20241984127E+04  0.20195249577E+04 0.  0.
        1    1    3    3  502    0 -0.78000439064E+03  0.60044957568E+03  0.29436446222E+03  0.10274224929E+04  0.50400001928E-02 0.  1.
       -1    1    3    3    0  502  0.78000439064E+03 -0.60044957568E+03 -0.15689388710E+03  0.99677591975E+03  0.50400001928E-02 0. -1.
</event>
<event>
 5   0  0.9342635E-06  0.1994917E+04  0.7818609E-02  0.8609001E-01
        1   -1    0    0  501    0  0.00000000000E+00  0.00000000000E+00  0.15881105604E+04  0.15881105604E+04  0.50400001928E-02 0.  1.
       -1   -1    0    0    0  501  0.00000000000E+00  0.00000000000E+00 -0.62648250352E+03  0.62648250354E+03  0.50400001928E-02 0. -1.
    10030    2    1    2    0    0  0.00000000000E+00  0.00000000000E+00  0.96162805691E+03  0.22145930640E+04  0.19949170206E+04 0.  0.
        5    1    3    3  502    0  0.42905682199E+03 -0.76966202002E+03 -0.38018550629E+02  0.88200730255E+03  0.46999998093E+01 0. -1.
       -5    1    3    3    0  502 -0.42905682199E+03  0.76966202002E+03  0.99964660753E+03  0.13325857614E+04  0.46999998093E+01 0.  1.
</event>
<event>
 5   0  0.9140695E-06  0.2001570E+04  0.7818609E-02  0.8605887E-01
       -1   -1    0    0    0  501  0.00000000000E+00  0.00000000000E+00  0.54138414073E+03  0.54138414075E+03  0.50400001928E-02 0.  1.
        1   -1    0    0  501    0  0.00000000000E+00  0.00000000000E+00 -0.18500191407E+04  0.18500191407E+04  0.50400001928E-02 0. -1.
    10030    2    1    2    0    0  0.00000000000E+00  0.00000000000E+00 -0.13086350000E+04  0.23914032815E+04  0.20015704063E+04 0.  0.
        1    1    3    3  502    0 -0.82530593734E+03  0.13789719744E+02 -0.13304427900E+04  0.15656941158E+04  0.50400001928E-02 0. -1.
       -1    1    3    3    0  502  0.82530593734E+03 -0.13789719744E+02  0.21807790059E+02  0.82570916569E+03  0.50400001928E-02 0.  1.
</event>
<event>
 5   0  0.9220260E-06  0.1999614E+04  0.7818609E-02  0.8606801E-01
       -1   -1    0    0    0  501  0.00000000000E+00  0.00000000000E+00  0.97257970502E+03  0.97257970504E+03  0.50400001928E-02 0. -1.
        1   -1    0    0  501    0  0.00000000000E+00  0.00000000000E+00 -0.10277967375E+04  0.10277967375E+04  0.50400001928E-02 0.  1.
    10030    2    1    2    0    0  0.00000000000E+00  0.00000000000E+00 -0.55217032428E+02  0.20003764425E+04  0.19996142105E+04 0.  0.
        3    1    3    3  502    0 -0.89364035715E+03 -0.27790253029E+03 -0.37958255955E+03  0.10099038736E+04  0.10100000352E+00 0.  1.
       -3    1    3    3    0  502  0.89364035715E+03  0.27790253029E+03  0.32436552712E+03  0.99047256886E+03  0.10100000352E+00 0. -1.
</event>
<event>
 5   0  0.2038882E-05  0.1992715E+04  0.7818609E-02  0.8610034E-01
       -2   -1    0    0    0  501  0.00000000000E+00  0.00000000000E+00  0.80039123474E+03  0.80039123475E+03  0.25500000920E-02 0. -1.
        2   -1    0    0  501    0  0.00000000000E+00  0.00000000000E+00 -0.12403040669E+04  0.12403040669E+04  0.25500000920E-02 0.  1.
    10030    2    1    2    0    0  0.00000000000E+00  0.00000000000E+00 -0.43991283219E+03  0.20406953017E+04  0.19927152367E+04 0.  0.
        3    1    3    3  502    0  0.35185880822E+03 -0.25949491623E+03 -0.11368270340E+04  0.12179975155E+04  0.10100000352E+00 0.  1.
       -3    1    3    3    0  502 -0.35185880822E+03  0.25949491623E+03  0.69691420179E+03  0.82269778614E+03  0.10100000352E+00 0. -1.
</event>
<event>
 5   0  0.1999142E-05  0.2001459E+04  0.7818609E-02  0.8605939E-01
        2   -1    0    0  501    0  0.00000000000E+00  0.00000000000E+00  0.91531701758E+03  0.91531701759E+03  0.25500000920E-02 0.  1.
       -2   -1    0    0    0  501  0.00000000000E+00  0.00000000000E+00 -0.10941122241E+04  0.10941122241E+04  0.25500000920E-02 0. -1.
    10030    2    1    2    0    0  0.00000000000E+00  0.00000000000E+00 -0.17879520655E+03  0.20094292417E+04  0.20014590057E+04 0.  0.
        1    1    3    3  502    0  0.97065742221E+03  0.24132803365E+03 -0.56950383712E+02  0.10018275287E+04  0.50400001928E-02 0.  1.
       -1    1    3    3    0  502 -0.97065742221E+03 -0.24132803365E+03 -0.12184482284E+03  0.10076017130E+04  0.50400001928E-02 0. -1.
</event>
<event>
 5   0  0.7132000E-06  0.2002535E+04  0.7818609E-02  0.8605437E-01
       -3   -1    0    0    0  501  0.00000000000E+00  0.00000000000E+00  0.57981613998E+03  0.57981614878E+03  0.10100000352E+00 0.  1.
        3   -1    0    0  501    0  0.00000000000E+00  0.00000000000E+00 -0.17290590501E+04  0.17290590531E+04  0.10100000352E+00 0. -1.
    10030    2    1    2    0    0  0.00000000000E+00  0.00000000000E+00 -0.11492429101E+04  0.23088752018E+04  0.20025347516E+04 0.  0.
        4    1    3    3  502    0 -0.72827014454E+03  0.18038211641E+03  0.18984588808E+03  0.77392388869E+03  0.12699999809E+01 0.  1.
       -4    1    3    3    0  502  0.72827014454E+03 -0.18038211641E+03 -0.13390887982E+04  0.15349513132E+04  0.12699999809E+01 0. -1.
</event>
<event>
 5   0  0.2003576E-05  0.2002643E+04  0.7818609E-02  0.8605386E-01
        2   -1    0    0  501    0  0.00000000000E+00  0.00000000000E+00  0.69356865642E+03  0.69356865642E+03  0.25500000920E-02 0.  1.
       -2   -1    0    0    0  501  0.00000000000E+00  0.00000000000E+00 -0.14456321405E+04  0.14456321405E+04  0.25500000920E-02 0. -1.
    10030    2    1    2    0    0  0.00000000000E+00  0.00000000000E+00 -0.75206348409E+03  0.21392007969E+04  0.20026433945E+04 0.  0.
        4    1    3    3  502    0 -0.49176623590E+01 -0.15217708152E+03  0.68113041850E+03  0.69794147853E+03  0.12699999809E+01 0.  1.
       -4    1    3    3    0  502  0.49176623590E+01  0.15217708152E+03 -0.14331939026E+04  0.14412593184E+04  0.12699999809E+01 0. -1.
</event>
<event>
 5   0  0.9333353E-06  0.2001470E+04  0.7818609E-02  0.8605934E-01
       -1   -1    0    0    0  501  0.00000000000E+00  0.00000000000E+00  0.62778853576E+03  0.62778853578E+03  0.50400001928E-02 0.  1.
        1   -1    0    0  501    0  0.00000000000E+00  0.00000000000E+00 -0.15952355631E+04  0.15952355631E+04  0.50400001928E-02 0. -1.
    10030    2    1    2    0    0  0.00000000000E+00  0.00000000000E+00 -0.96744702733E+03  0.22230240989E+04  0.20014700581E+04 0.  0.
        2    1    3    3  502    0  0.80338688355E+03 -0.27426572881E+03  0.10485969997E+03  0.85536409285E+03  0.25500000920E-02 0. -1.
       -2    1    3    3    0  502 -0.80338688355E+03  0.27426572881E+03 -0.10723067273E+04  0.13676600060E+04  0.25500000920E-02 0.  1.
</event>
<event>
 5   0  0.2020029E-05  0.1999899E+04  0.7818609E-02  0.8606668E-01
        2   -1    0    0  501    0  0.00000000000E+00  0.00000000000E+00  0.21311311083E+04  0.21311311083E+04  0.25500000920E-02 0. -1.
       -2   -1    0    0    0  501  0.00000000000E+00  0.00000000000E+00 -0.46918688365E+03  0.46918688365E+03  0.25500000920E-02 0.  1.
    10030    2    1    2    0    0  0.00000000000E+00  0.00000000000E+00  0.16619442246E+04  0.26003179919E+04  0.19998987608E+04 0.  0.
        5    1    3    3  502    0 -0.83679002837E+03 -0.45633185142E+03  0.43783873194E+03  0.10488952071E+04  0.46999998093E+01 0.  1.
       -5    1    3    3    0  502  0.83679002837E+03  0.45633185142E+03  0.12241054927E+04  0.15514227849E+04  0.46999998093E+01 0. -1.
</event>
<event>
 5   0  0.2020029E-05  0.2001264E+04  0.7818609E-02  0.8606030E-01
       -2   -1    0    0    0  501  0.00000000000E+00  0.00000000000E+00  0.10785083228E+04  0.10785083228E+04  0.25500000920E-02 0. -1.
        2   -1    0    0  501    0  0.00000000000E+00  0.00000000000E+00 -0.92837866730E+03  0.92837866730E+03  0.25500000920E-02 0.  1.
    10030    2    1    2    0    0  0.00000000000E+00  0.00000000000E+00  0.15012965554E+03  0.20068869901E+04  0.20012637202E+04 0.  0.
        5    1    3    3  502    0  0.43203297707E+03  0.80279535495E+03  0.48866664467E+03  0.10343839011E+04  0.46999998093E+01 0.  1.
       -5    1    3    3    0  502 -0.43203297707E+03 -0.80279535495E+03 -0.33853698913E+03  0.97250308906E+03  0.46999998093E+01 0. -1.
</event>
<event>
 5   0  0.2038882E-05  0.2002828E+04  0.7818609E-02  0.8605300E-01
        2   -1    0    0  501    0  0.00000000000E+00  0.00000000000E+00  0.20895754376E+04  0.20895754377E+04  0.25500000920E-02 0.  1.
       -2   -1    0    0    0  501  0.00000000000E+00  0.00000000000E+00 -0.47992053424E+03  0.47992053424E+03  0.25500000920E-02 0. -1.
    10030    2    1    2    0    0  0.00000000000E+00  0.00000000000E+00  0.16096549034E+04  0.25694959719E+04  0.20028281608E+04 0.  0.
        3    1    3    3  502    0  0.11523311905E+02  0.99774853193E+03  0.91365193329E+03  0.13529208347E+04  0.10100000352E+00 0. -1.
       -3    1    3    3    0  502 -0.11523311905E+02 -0.99774853193E+03  0.69600297013E+03  0.12165751371E+04  0.10100000352E+00 0.  1.
</event>
<event>
 5   0  0.2020029E-05  0.1995973E+04  0.7818609E-02  0.8608506E-01
        2   -1    0    0  501    0  0.00000000000E+00  0.00000000000E+00  0.85325950858E+03  0.85325950858E+03  0.25500000920E-02 0. -1.
       -2   -1    0    0    0  501  0.00000000000E+00  0.00000000000E+00 -0.11672614744E+04  0.11672614744E+04  0.25500000920E-02 0.  1.
    10030    2    1    2    0    0  0.00000000000E+00  0.00000000000E+00 -0.31400196581E+03  0.20205209830E+04  0.19959728976E+04 0.  0.
        5    1    3    3  502    0  0.31593654583E+03  0.39971783874E+03  0.71166972904E+03  0.87526347166E+03  0.46999998093E+01 0. -1.
       -5    1    3    3    0  502 -0.31593654583E+03 -0.39971783874E+03 -0.10256716949E+04  0.11452575113E+04  0.46999998093E+01 0.  1.
</event>
<event>
 5   0  0.1979765E-05  0.1998968E+04  0.7818609E-02  0.8607103E-01
        2   -1    0    0  501    0  0.00000000000E+00  0.00000000000E+00  0.64624670428E+03  0.64624670428E+03  0.25500000920E-02 0. -1.
       -2   -1    0    0    0  501  0.00000000000E+00  0.00000000000E+00 -0.15457999387E+04  0.15457999387E+04  0.25500000920E-02 0.  1.
    10030    2    1    2    0    0  0.00000000000E+00  0.00000000000E+00 -0.89955323444E+03  0.21920466430E+04  0.19989678495E+04 0.  0.
        2    1    3    3  502    0 -0.69741557782E+03 -0.43709906995E+03 -0.10715765927E+04  0.13511922436E+04  0.25500000920E-02 0.  1.
       -2    1    3    3    0  502  0.69741557782E+03  0.43709906995E+03  0.17202335829E+03  0.84085439937E+03  0.25500000920E-02 0. -1.
</event>
<event>
 5   0  0.2020029E-05  0.2007377E+04  0.7818609E-02  0.8603180E-01
       -2   -1    0    0    0  501  0.00000000000E+00  0.00000000000E+00  0.62908326947E+03  0.62908326947E+03  0.25500000920E-02 0. -1.
        2   -1    0    0  501    0  0.00000000000E+00  0.00000000000E+00 -0.16013626047E+04  0.16013626047E+04  0.25500000920E-02 0.  1.
    10030    2    1    2    0    0  0.00000000000E+00  0.00000000000E+00 -0.97227933522E+03  0.22304458742E+04  0.20073768186E+04 0.  0.
        5    1    3    3  502    0 -0.14483710298E+03  0.86559426429E+03 -0.10272210006E+04  0.13510870774E+04  0.46999998093E+01 0.  1.
       -5    1    3    3    0  502  0.14483710298E+03 -0.86559426429E+03  0.54941665370E+02  0.87935879672E+03  0.46999998093E+01 0. -1.
</event>
<event>
 5   0  0.1979765E-05  0.1999231E+04  0.7818609E-02  0.8606980E-01
        2   -1    0    0  501    0  0.00000000000E+00  0.00000000000E+00  0.97037136313E+03  0.97037136313E+03  0.25500000920E-02 0. -1.
       -2   -1    0    0    0  501  0.00000000000E+00  0.00000000000E+00 -0.10297410844E+04  0.10297410844E+04  0.25500000920E-02 0.  1.
    10030    2    1    2    0    0  0.00000000000E+00  0.00000000000E+00 -0.59369721247E+02  0.20001124475E+04  0.19992311119E+04 0.  0.
        2    1    3    3  502    0  0.57715234300E+03 -0.31566280731E+03  0.72329786750E+03  0.97770529307E+03  0.25500000920E-02 0. -1.
       -2    1    3    3    0  502 -0.57715234300E+03  0.31566280731E+03 -0.78266758875E+03  0.10224071544E+04  0.25500000920E-02 0.  1.
</event>
<event>
 5   0  0.2003576E-05  0.2001254E+04  0.7818609E-02  0.8606034E-01
        2   -1    0    0  501    0  0.00000000000E+00  0.00000000000E+00  0.12953998744E+04  0.12953998744E+04  0.25500000920E-02 0.  1.
       -2   -1    0    0    0  501  0.00000000000E+00  0.00000000000E+00 -0.77293104829E+03  0.77293104829E+03  0.25500000920E-02 0. -1.
    10030    2    1    2    0    0  0.00000000000E+00  0.00000000000E+00  0.52246882616E+03  0.20683309227E+04  0.20012543895E+04 0.  0.
        4    1    3    3  502    0 -0.64650640961E+03 -0.72652991776E+03  0.17892320310E+02  0.97269625634E+03  0.12699999809E+01 0. -1.
       -4    1    3    3    0  502  0.64650640961E+03  0.72652991776E+03  0.50457650585E+03  0.10956346664E+04  0.12699999809E+01 0.  1.
</event>
<event>
 5   0  0.1999142E-05  0.1991795E+04  0.7818609E-02  0.8610466E-01
       -2   -1    0    0    0  501  0.00000000000E+00  0.00000000000E+00  0.75845861717E+03  0.75845861717E+03  0.25500000920E-02 0. -1.
        2   -1    0    0  501    0  0.00000000000E+00  0.00000000000E+00 -0.13076674517E+04  0.13076674517E+04  0.25500000920E-02 0.  1.
    10030    2    1    2    0    0  0.00000000000E+00  0.00000000000E+00 -0.54920883456E+03  0.20661260689E+04  0.19917948159E+04 0.  0.
        1    1    3    3  502    0 -0.67955586831E+02 -0.62051543037E+03  0.53034040401E+03  0.81909602932E+03  0.50400001928E-02 0. -1.
       -1    1    3    3    0  502  0.67955586831E+02  0.62051543037E+03 -0.10795492386E+04  0.12470300396E+04  0.50400001928E-02 0.  1.
</event>
<event>
 5   0  0.9140695E-06  0.1997141E+04  0.7818609E-02  0.8607958E-01
        1   -1    0    0  501    0  0.00000000000E+00  0.00000000000E+00  0.11477958153E+04  0.11477958153E+04  0.50400001928E-02 0.  1.
       -1   -1    0    0    0  501  0.00000000000E+00  0.00000000000E+00 -0.86874609055E+03  0.86874609057E+03  0.50400001928E-02 0. -1.
    10030    2    1    2    0    0  0.00000000000E+00  0.00000000000E+00  0.27904972478E+03  0.20165419059E+04  0.19971410840E+04 0.  0.
        1    1    3    3  502    0  0.28473576899E+03 -0.40914351157E+03 -0.73413783966E+03  0.88737322410E+03  0.50400001928E-02 0. -1.
       -1    1    3    3    0  502 -0.28473576899E+03  0.40914351157E+03  0.10131875644E+04  0.11291686818E+04  0.50400001928E-02 0.  1.
</event>
<event>
 5   0  0.9342635E-06  0.2012686E+04  0.7818609E-02  0.8600713E-01
       -1   -1    0    0    0  501  0.00000000000E+00  0.00000000000E+00  0.11545286256E+04  0.11545286256E+04  0.50400001928E-02 0.  1.
        1   -1    0    0  501    0  0.00000000000E+00  0.00000000000E+00 -0.87717697605E+03  0.87717697606E+03  0.50400001928E-02 0. -1.
    10030    2    1    2    0    0  0.00000000000E+00  0.00000000000E+00  0.27735164954E+03  0.20317056017E+04  0.20126856969E+04 0.  0.
        5    1    3    3  502    0 -0.65022506585E+03  0.49125029652E+03  0.73466553178E+03  0.10972123877E+04  0.46999998093E+01 0.  1.
       -5    1    3    3    0  502  0.65022506585E+03 -0.49125029652E+03 -0.45731388224E+03  0.93449321398E+03  0.46999998093E+01 0. -1.
</event>
<event>
 5   0  0.9333353E-06  0.2001450E+04  0.7818609E-02  0.8605943E-01
       -1   -1    0    0    0  501  0.00000000000E+00  0.00000000000E+00  0.83399001511E+03  0.83399001512E+03  0.50400001928E-02 0. -1.
        1   -1    0    0  501    0  0.00000000000E+00  0.00000000000E+00 -0.12007939703E+04  0.12007939703E+04  0.50400001928E-02 0.  1.
    10030    2    1    2    0    0  0.00000000000E+00  0.00000000000E+00 -0.36680395515E+03  0.20347839854E+04  0.20014496560E+04 0.  0.
        2    1    3    3  502    0  0.83609343540E+03  0.50731636160E+03  0.32330359676E+02  0.97850261912E+03  0.25500000920E-02 0.  1.
       -2    1    3    3    0  502 -0.83609343540E+03 -0.50731636160E+03 -0.39913431483E+03  0.10562813663E+04  0.25500000920E-02 0. -1.
</event>
<event>
 5   0  0.9342635E-06  0.2001879E+04  0.7818609E-02  0.8605743E-01
        1   -1    0    0  501    0  0.00000000000E+00  0.00000000000E+00  0.16866002613E+04  0.16866002613E+04  0.50400001928E-02 0.  1.
       -1   -1    0    0    0  501  0.00000000000E+00  0.00000000000E+00 -0.59402327403E+03  0.59402327405E+03  0.50400001928E-02 0. -1.
    10030    2    1    2    0    0  0.00000000000E+00  0.00000000000E+00  0.10925769873E+04  0.22806235354E+04  0.20018789266E+04 0.  0.
        5    1    3    3  502    0  0.89435989912E+03  0.33409266832E+03  0.20383284399E+03  0.97625173929E+03  0.46999998093E+01 0. -1.
       -5    1    3    3    0  502 -0.89435989912E+03 -0.33409266832E+03  0.88874414329E+03  0.13043717961E+04  0.46999998093E+01 0.  1.
</event>
<event>
 5   0  0.1999142E-05  0.1998285E+04  0.7818609E-02  0.8607423E-01
       -2   -1    0    0    0  501  0.00000000000E+00  0.00000000000E+00  0.70171124486E+03  0.70171124487E+03  0.25500000920E-02 0. -1.
        2   -1    0    0  501    0  0.00000000000E+00  0.00000000000E+00 -0.14226449593E+04  0.14226449593E+04  0.25500000920E-02 0.  1.
    10030    2    1    2    0    0  0.00000000000E+00  0.00000000000E+00 -0.72093371445E+03  0.21243562042E+04  0.19982852303E+04 0.  0.
        1    1    3    3  502    0 -0.32777608261E+03  0.11545146174E+03 -0.13563269165E+04  0.14001388877E+04  0.50400001928E-02 0.  1.
       -1    1    3    3    0  502  0.32777608261E+03 -0.11545146174E+03  0.63539320203E+03  0.72421731653E+03  0.50400001928E-02 0. -1.
</event>
<event>
 5   0  0.2003576E-05  0.2004220E+04  0.7818609E-02  0.8604650E-01
        2   -1    0    0  501    0  0.00000000000E+00  0.00000000000E+00  0.20613776028E+04  0.20613776028E+04  0.25500000920E-02 0.  1.
       -2   -1    0    0    0  501  0.00000000000E+00  0.00000000000E+00 -0.48716181299E+03  0.48716181300E+03  0.25500000920E-02 0. -1.
    10030    2    1    2    0    0  0.00000000000E+00  0.00000000000E+00  0.15742157898E+04  0.25485394158E+04  0.20042199981E+04 0.  0.
        4    1    3    3  502    0 -0.15813402005E+03  0.94404434706E+03  0.11643144704E+04  0.15072676923E+04  0.12699999809E+01 0. -1.
       -4    1    3    3    0  502  0.15813402005E+03 -0.94404434706E+03  0.40990131942E+03  0.10412717235E+04  0.12699999809E+01 0.  1.
</event>
<event>
 5   0  0.9370269E-06  0.1999232E+04  0.7818609E-02  0.8606980E-01
        1   -1    0    0  501    0  0.00000000000E+00  0.00000000000E+00  0.10032265718E+04  0.10032265718E+04  0.50400001928E-02 0.  1.
       -1   -1    0    0    0  501  0.00000000000E+00  0.00000000000E+00 -0.99601885497E+03  0.99601885498E+03  0.50400001928E-02 0. -1.
    10030    2    1    2    0    0  0.00000000000E+00  0.00000000000E+00  0.72077168370E+01  0.19992454268E+04  0.19992324341E+04 0.  0.
        4    1    3    3  502    0 -0.31104533251E+02  0.84787585496E+03  0.53216193680E+03  0.10015282808E+04  0.12699999809E+01 0.  1.
       -4    1    3    3    0  502  0.31104533251E+02 -0.84787585496E+03 -0.52495421996E+03  0.99771714598E+03  0.12699999809E+01 0. -1.
</event>
<event>
 5   0  0.9333353E-06  0.1996564E+04  0.7818609E-02  0.8608229E-01
        1   -1    0    0  501    0  0.00000000000E+00  0.00000000000E+00  0.15759174617E+04  0.15759174617E+04  0.50400001928E-02 0.  1.
       -1   -1    0    0    0  501  0.00000000000E+00  0.00000000000E+00 -0.63237282129E+03  0.63237282131E+03  0.50400001928E-02 0. -1.
    10030    2    1    2    0    0  0.00000000000E+00  0.00000000000E+00  0.94354464038E+03  0.22082902830E+04  0.19965644206E+04 0.  0.
        2    1    3    3  502    0 -0.49203672059E+02 -0.62997574533E+03 -0.38302018212E+03  0.73891467773E+03  0.25500000920E-02 0. -1.
       -2    1    3    3    0  502  0.49203672059E+02  0.62997574533E+03  0.13265648225E+04  0.14693756053E+04  0.25500000920E-02 0.  1.
</event>
<event>
 5   0  0.9333353E-06  0.1997833E+04  0.7818609E-02  0.8607635E-01
        1   -1    0    0  501    0  0.00000000000E+00  0.00000000000E+00  0.92485690531E+03  0.92485690533E+03  0.50400001928E-02 0. -1.
       -1   -1    0    0    0  501  0.00000000000E+00  0.00000000000E+00 -0.10789064385E+04  0.10789064385E+04  0.50400001928E-02 0.  1.
    10030    2    1    2    0    0  0.00000000000E+00  0.00000000000E+00 -0.15404953318E+03  0.20037633438E+04  0.19978328958E+04 0.  0.
        2    1    3    3  502    0 -0.51763209731E+03 -0.35342564511E+03  0.70308960226E+03  0.94190639853E+03  0.25500000920E-02 0. -1.
       -2    1    3    3    0  502  0.51763209731E+03  0.35342564511E+03 -0.85713913544E+03  0.10618569453E+04  0.25500000920E-02 0.  1.
</event>
<event>
 5   0  0.1979765E-05  0.1994696E+04  0.7818609E-02  0.8609105E-01
       -2   -1    0    0    0  501  0.00000000000E+00  0.00000000000E+00  0.77109769693E+03  0.77109769693E+03  0.25500000920E-02 0. -1.
        2   -1    0    0  501    0  0.00000000000E+00  0.00000000000E+00 -0.12899830490E+04  0.12899830490E+04  0.25500000920E-02 0.  1.
    10030    2    1    2    0    0  0.00000000000E+00  0.00000000000E+00 -0.51888535207E+03  0.20610807459E+04  0.19946959249E+04 0.  0.
        2    1    3    3  502    0  0.15413488406E+03 -0.53134367283E+03  0.59800553814E+03  0.81467434279E+03  0.25500000920E-02 0. -1.
       -2    1    3    3    0  502 -0.15413488406E+03  0.53134367283E+03 -0.11168908902E+04  0.12464064031E+04  0.25500000920E-02 0.  1.
</event>
<event>
 5   0  0.9140695E-06  0.2011839E+04  0.7818609E-02  0.8601105E-01
       -1   -1    0    0    0  501  0.00000000000E+00  0.00000000000E+00  0.15357444552E+04  0.15357444552E+04  0.50400001928E-02 0.  1.
        1   -1    0    0  501    0  0.00000000000E+00  0.00000000000E+00 -0.65888178740E+03  0.65888178742E+03  0.50400001928E-02 0. -1.
    10030    2    1    2    0    0  0.00000000000E+00  0.00000000000E+00  0.87686266775E+03  0.21946262426E+04  0.20118390111E+04 0.  0.
        1    1    3    3  502    0 -0.34514266805E+03 -0.44255776922E+03 -0.47221650184E+03  0.73346388121E+03  0.50400001928E-02 0. -1.
       -1    1    3    3    0  502  0.34514266805E+03  0.44255776922E+03  0.13490791696E+04  0.14611623614E+04  0.50400001928E-02 0.  1.
</event>
<event>
 5   0  0.9333353E-06  0.1988112E+04  0.7818609E-02  0.8612199E-01
        1   -1    0    0  501    0  0.00000000000E+00  0.00000000000E+00  0.90387060790E+03  0.90387060791E+03  0.50400001928E-02 0.  1.
       -1   -1    0    0    0  501  0.00000000000E+00  0.00000000000E+00 -0.10932396800E+04  0.10932396800E+04  0.50400001928E-02 0. -1.
    10030    2    1    2    0    0  0.00000000000E+00  0.00000000000E+00 -0.18936907206E+03  0.19971102879E+04  0.19881118823E+04 0.  0.
        2    1    3    3  502    0 -0.52456139356E+03 -0.85206107094E+02 -0.93855969553E+03  0.10785726857E+04  0.25500000920E-02 0. -1.
       -2    1    3    3    0  502  0.52456139356E+03  0.85206107094E+02  0.74919062346E+03  0.91853760217E+03  0.25500000920E-02 0.  1.
</event>
<event>
 5   0  0.9220260E-06  0.1993383E+04  0.7818609E-02  0.8609720E-01
       -1   -1    0    0    0  501  0.00000000000E+00  0.00000000000E+00  0.98794604963E+03  0.98794604964E+03  0.50400001928E-02 0. -1.
        1   -1    0    0  501    0  0.00000000000E+00  0.00000000000E+00 -0.10055148034E+04  0.10055148035E+04  0.50400001928E-02 0.  1.
    10030    2    1    2    0    0  0.00000000000E+00  0.00000000000E+00 -0.17568753821E+02  0.19934608531E+04  0.19933834332E+04 0.  0.
        3    1    3    3  502    0  0.79871733016E+03  0.27250696672E+02 -0.60437647430E+03  0.10019794942E+04  0.10100000352E+00 0.  1.
       -3    1    3    3    0  502 -0.79871733016E+03 -0.27250696672E+02  0.58680772048E+03  0.99148135887E+03  0.10100000352E+00 0. -1.
</event>
<event>
 5   0  0.9370269E-06  0.1999793E+04  0.7818609E-02  0.8606718E-01
        1   -1    0    0  501    0  0.00000000000E+00  0.00000000000E+00  0.16404049730E+04  0.16404049730E+04  0.50400001928E-02 0.  1.
       -1   -1    0    0    0  501  0.00000000000E+00  0.00000000000E+00 -0.60947928546E+03  0.60947928548E+03  0.50400001928E-02 0. -1.
    10030    2    1    2    0    0  0.00000000000E+00  0.00000000000E+00  0.10309256875E+04  0.22498842585E+04  0.19997928401E+04 0.  0.
        4    1    3    3  502    0  0.53087336654E+03  0.42907201613E+03 -0.30657088353E+03  0.74827578195E+03  0.12699999809E+01 0. -1.
       -4    1    3    3    0  502 -0.53087336654E+03 -0.42907201613E+03  0.13374965711E+04  0.15016084765E+04  0.12699999809E+01 0.  1.
</event>
<event>
 5   0  0.2003576E-05  0.2002405E+04  0.7818609E-02  0.8605497E-01
       -2   -1    0    0    0  501  0.00000000000E+00  0.00000000000E+00  0.10567682483E+04  0.10567682483E+04  0.25500000920E-02 0. -1.
        2   -1    0    0  501    0  0.00000000000E+00  0.00000000000E+00 -0.94855808893E+03  0.94855808893E+03  0.25500000920E-02 0.  1.
    10030    2    1    2    0    0  0.00000000000E+00  0.00000000000E+00  0.10821015935E+03  0.20053263372E+04  0.20024046245E+04 0.  0.
        4    1    3    3  502    0 -0.55669889361E+03 -0.65411774323E+03  0.56926870203E+03  0.10304621042E+04  0.12699999809E+01 0.  1.
       -4    1    3    3    0  502  0.55669889361E+03  0.65411774323E+03 -0.46105854268E+03  0.97486423302E+03  0.12699999809E+01 0. -1.
</event>
<event>
 5   0  0.1979765E-05  0.1998970E+04  0.7818609E-02  0.8607102E-01
       -2   -1    0    0    0  501  0.00000000000E+00  0.00000000000E+00  0.68729316867E+03  0.68729316867E+03  0.25500000920E-02 0.  1.
        2   -1    0    0  501    0  0.00000000000E+00  0.00000000000E+00 -0.14534846861E+04  0.14534846861E+04  0.25500000920E-02 0. -1.
    10030    2    1    2    0    0  0.00000000000E+00  0.00000000000E+00 -0.76619151744E+03  0.21407778548E+04  0.19989698302E+04 0.  0.
        2    1    3    3  502    0 -0.37755875581E+03 -0.56766613840E+03 -0.11658167765E+04  0.13505273841E+04  0.25500000920E-02 0. -1.
       -2    1    3    3    0  502  0.37755875581E+03  0.56766613840E+03  0.39962525906E+03  0.79025047071E+03  0.25500000920E-02 0.  1.
</event>
<event>
 5   0  0.2020029E-05  0.2001455E+04  0.7818609E-02  0.8605941E-01
        2   -1    0    0  501    0  0.00000000000E+00  0.00000000000E+00  0.15352848916E+04  0.15352848916E+04  0.25500000920E-02 0.  1.
       -2   -1    0    0    0  501  0.00000000000E+00  0.00000000000E+00 -0.65229271671E+03  0.65229271671E+03  0.25500000920E-02 0. -1.
    10030    2    1    2    0    0  0.00000000000E+00  0.00000000000E+00  0.88299217486E+03  0.21875776083E+04  0.20014546239E+04 0.  0.
        5    1    3    3  502    0  0.85633875943E+03  0.47526679556E+03  0.66612817044E+03  0.11844591286E+04  0.46999998093E+01 0.  1.
       -5    1    3    3    0  502 -0.85633875943E+03 -0.47526679556E+03  0.21686400443E+03  0.10031184797E+04  0.46999998093E+01 0. -1.
</event>
<event>
 5   0  0.2038882E-05  0.1996479E+04  0.7818609E-02  0.8608269E-01
        2   -1    0    0  501    0  0.00000000000E+00  0.00000000000E+00  0.15764451158E+04  0.15764451158E+04  0.25500000920E-02 0. -1.
       -2   -1    0    0    0  501  0.00000000000E+00  0.00000000000E+00 -0.63210687155E+03  0.63210687156E+03  0.25500000920E-02 0.  1.
    10030    2    1    2    0    0  0.00000000000E+00  0.00000000000E+00  0.94433824422E+03  0.22085519873E+04  0.19964786904E+04 0.  0.
        3    1    3    3  502    0  0.54565351489E+03  0.11230325770E+03  0.13884883184E+04  0.14960780730E+04  0.10100000352E+00 0. -1.
       -3    1    3    3    0  502 -0.54565351489E+03 -0.11230325770E+03 -0.44415007418E+03  0.71247391433E+03  0.10100000352E+00 0.  1.
</event>
<event>
 5   0  0.1999142E-05  0.1998104E+04  0.7818609E-02  0.8607508E-01
        2   -1    0    0  501    0  0.00000000000E+00  0.00000000000E+00  0.77113542383E+03  0.77113542383E+03  0.25500000920E-02 0. -1.
       -2   -1    0    0    0  501  0.00000000000E+00  0.00000000000E+00 -0.12943317098E+04  0.12943317098E+04  0.25500000920E-02 0.  1.
    10030    2    1    2    0    0  0.00000000000E+00  0.00000000000E+00 -0.52319628595E+03  0.20654671336E+04  0.19981041330E+04 0.  0.
        1    1    3    3  502    0 -0.61198933650E+03 -0.26629195760E+03 -0.10300740191E+04  0.12273935145E+04  0.50400001928E-02 0.  1.
       -1    1    3    3    0  502  0.61198933650E+03  0.26629195760E+03  0.50687773313E+03  0.83807361910E+03  0.50400001928E-02 0. -1.
</event>
<event>
 5   0  0.9220260E-06  0.1993032E+04  0.7818609E-02  0.8609885E-01
       -1   -1    0    0    0  501  0.00000000000E+00  0.00000000000E+00  0.64499384855E+03  0.64499384857E+03  0.50400001928E-02 0.  1.
        1   -1    0    0  501    0  0.00000000000E+00  0.00000000000E+00 -0.15396183887E+04  0.15396183887E+04  0.50400001928E-02 0. -1.
    10030    2    1    2    0    0  0.00000000000E+00  0.00000000000E+00 -0.89462454015E+03  0.21846122373E+04  0.19930322525E+04 0.  0.
        3    1    3    3  502    0  0.62205411250E+03  0.36648051536E+02  0.40509661319E+03  0.74323460278E+03  0.10100000352E+00 0.  1.
       -3    1    3    3    0  502 -0.62205411250E+03 -0.36648051536E+02 -0.12997211533E+04  0.14413776345E+04  0.10100000352E+00 0. -1.
</event>
<event>
 5   0  0.9220260E-06  0.2000895E+04  0.7818609E-02  0.8606202E-01
       -1   -1    0    0    0  501  0.00000000000E+00  0.00000000000E+00  0.80542049546E+03  0.80542049548E+03  0.50400001928E-02 0. -1.
        1   -1    0    0  501    0  0.00000000000E+00  0.00000000000E+00 -0.12426987091E+04  0.12426987091E+04  0.50400001928E-02 0.  1.
    10030    2    1    2    0    0  0.00000000000E+00  0.00000000000E+00 -0.43727821366E+03  0.20481192046E+04  0.20008948099E+04 0.  0.
        3    1    3    3  502    0  0.68996017012E+03 -0.71288463220E+03 -0.86576783449E+02  0.99586398912E+03  0.10100000352E+00 0. -1.
       -3    1    3    3    0  502 -0.68996017012E+03  0.71288463220E+03 -0.35070143021E+03  0.10522552155E+04  0.10100000352E+00 0.  1.
</event>
<event>
 5   0  0.2020029E-05  0.1999835E+04  0.7818609E-02  0.8606698E-01
       -2   -1    0    0    0  501  0.00000000000E+00  0.00000000000E+00  0.66597294551E+03  0.66597294551E+03  0.25500000920E-02 0. -1.
        2   -1    0    0  501    0  0.00000000000E+00  0.00000000000E+00 -0.15013149081E+04  0.15013149081E+04  0.25500000920E-02 0.  1.
    10030    2    1    2    0    0  0.00000000000E+00  0.00000000000E+00 -0.83534196258E+03  0.21672878536E+04  0.19998351047E+04 0.  0.
        5    1    3    3  502    0 -0.31649090717E+03 -0.73973747740E+03  0.22570066872E+03  0.83566794341E+03  0.46999998093E+01 0. -1.
       -5    1    3    3    0  502  0.31649090717E+03  0.73973747740E+03 -0.10610426313E+04  0.13316199102E+04  0.46999998093E+01 0.  1.
</event>
<event>
 5   0  0.9370269E-06  0.2004388E+04  0.7818609E-02  0.8604572E-01
       -1   -1    0    0    0  501  0.00000000000E+00  0.00000000000E+00  0.48427586358E+03  0.48427586360E+03  0.50400001928E-02 0. -1.
        1   -1    0    0  501    0  0.00000000000E+00  0.00000000000E+00 -0.20740090810E+04  0.20740090810E+04  0.50400001928E-02 0.  1.
    10030    2    1    2    0    0  0.00000000000E+00  0.00000000000E+00 -0.15897332175E+04  0.25582849446E+04  0.20043877258E+04 0.  0.
        4    1    3    3  502    0  0.38277399771E+03  0.90306073378E+03 -0.53218709282E+03  0.11159118858E+04  0.12699999809E+01 0.  1.
       -4    1    3    3    0  502 -0.38277399771E+03 -0.90306073378E+03 -0.10575461246E+04  0.14423730588E+04  0.12699999809E+01 0. -1.
</event>
<event>
 5   0  0.1999142E-05  0.1999133E+04  0.7818609E-02  0.8607026E-01
        2   -1    0    0  501    0  0.00000000000E+00  0.00000000000E+00  0.14039556947E+04  0.14039556947E+04  0.25500000920E-02 0.  1.
       -2   -1    0    0    0  501  0.00000000000E+00  0.00000000000E+00 -0.71165570881E+03  0.71165570881E+03  0.25500000920E-02 0. -1.
    10030    2    1    2    0    0  0.00000000000E+00  0.00000000000E+00  0.69229998586E+03  0.21156114035E+04  0.19991328971E+04 0.  0.
        1    1    3    3  502    0  0.47791121596E+03  0.83535140366E+03  0.60375488283E+02  0.96429056697E+03  0.50400001928E-02 0. -1.
       -1    1    3    3    0  502 -0.47791121596E+03 -0.83535140366E+03  0.63192449757E+03  0.11513208365E+04  0.50400001928E-02 0.  1.
</event>
<event>
 5   0  0.2038882E-05  0.1995883E+04  0.7818609E-02  0.8608548E-01
        2   -1    0    0  501    0  0.00000000000E+00  0.00000000000E+00  0.49427189060E+03  0.49427189061E+03  0.25500000920E-02 0.  1.
       -2   -1    0    0    0  501  0.00000000000E+00  0.00000000000E+00 -0.20148573570E+04  0.20148573570E+04  0.25500000920E-02 0. -1.
    10030    2    1    2    0    0  0.00000000000E+00  0.00000000000E+00 -0.15205854664E+04  0.25091292476E+04  0.19958831180E+04 0.  0.
        3    1    3    3  502    0  0.36218324206E+02 -0.92037461272E+03 -0.12430886048E+04  0.15471491474E+04  0.10100000352E+00 0. -1.
       -3    1    3    3    0  502 -0.36218324206E+02  0.92037461272E+03 -0.27749686158E+03  0.96198010018E+03  0.10100000352E+00 0.  1.
</event>
<event>
 5   0  0.9140695E-06  0.1978824E+04  0.7818609E-02  0.8616586E-01
        1   -1    0    0  501    0  0.00000000000E+00  0.00000000000E+00  0.22714371842E+04  0.22714371843E+04  0.50400001928E-02 0. -1.
       -1   -1    0    0    0  501  0.00000000000E+00  0.00000000000E+00 -0.43097646749E+03  0.43097646752E+03  0.50400001928E-02 0.  1.
    10030    2    1    2    0    0  0.00000000000E+00  0.00000000000E+00  0.18404607168E+04  0.27024136518E+04  0.19788238667E+04 0.  0.
        1    1    3    3  502    0 -0.32070075768E+03 -0.46280160060E+03  0.20313003725E+04  0.21078936170E+04  0.50400001928E-02 0. -1.
       -1    1    3    3    0  502  0.32070075768E+03  0.46280160060E+03 -0.19083965571E+03  0.59452003474E+03  0.50400001928E-02 0.  1.
</event>
<event>
 5   0  0.2038882E-05  0.2006337E+04  0.7818609E-02  0.8603664E-01
        2   -1    0    0  501    0  0.00000000000E+00  0.00000000000E+00  0.11081053241E+04  0.11081053241E+04  0.25500000920E-02 0. -1.
       -2   -1    0    0    0  501  0.00000000000E+00  0.00000000000E+00 -0.90816907467E+03  0.90816907467E+03  0.25500000920E-02 0.  1.
    10030    2    1    2    0    0  0.00000000000E+00  0.00000000000E+00  0.19993624944E+03  0.20162743988E+04  0.20063369476E+04 0.  0.
        3    1    3    3  502    0  0.60150561117E+03 -0.18335961403E+03 -0.68551516654E+03  0.93024771007E+03  0.10100000352E+00 0.  1.
       -3    1    3    3    0  502 -0.60150561117E+03  0.18335961403E+03  0.88545141599E+03  0.10860266887E+04  0.10100000352E+00 0. -1.
</event>
<event>
 5   0  0.1999142E-05  0.2002168E+04  0.7818609E-02  0.8605608E-01
        2   -1    0    0  501    0  0.00000000000E+00  0.00000000000E+00  0.87846124665E+03  0.87846124665E+03  0.25500000920E-02 0. -1.
       -2   -1    0    0    0  501  0.00000000000E+00  0.00000000000E+00 -0.11408236906E+04  0.11408236906E+04  0.25500000920E-02 0.  1.
    10030    2    1    2    0    0  0.00000000000E+00  0.00000000000E+00 -0.26236244398E+03  0.20192849373E+04  0.20021682262E+04 0.  0.
        1    1    3    3  502    0  0.84775739688E+02  0.97832194230E+03  0.65081115623E+02  0.98414241879E+03  0.50400001928E-02 0. -1.
       -1    1    3    3    0  502 -0.84775739688E+02 -0.97832194230E+03 -0.32744355960E+03  0.10351425185E+04  0.50400001928E-02 0.  1.
</event>
<event>
 5   0  0.9333353E-06  0.2004774E+04  0.7818609E-02  0.8604392E-01
        1   -1    0    0  501    0  0.00000000000E+00  0.00000000000E+00  0.14502323772E+04  0.14502323772E+04  0.50400001928E-02 0.  1.
       -1   -1    0    0    0  501  0.00000000000E+00  0.00000000000E+00 -0.69284036207E+03  0.69284036209E+03  0.50400001928E-02 0. -1.
    10030    2    1    2    0    0  0.00000000000E+00  0.00000000000E+00  0.75739201509E+03  0.21430727393E+04  0.20047738280E+04 0.  0.
        2    1    3    3  502    0 -0.86108220253E+03 -0.50431066681E+03  0.27735243134E+03  0.10357201260E+04  0.25500000920E-02 0. -1.
       -2    1    3    3    0  502  0.86108220253E+03  0.50431066681E+03  0.48003958375E+03  0.11073526133E+04  0.25500000920E-02 0.  1.
</event>
<event>
 5   0  0.2003576E-05  0.1998144E+04  0.7818609E-02  0.8607489E-01
        2   -1    0    0  501    0  0.00000000000E+00  0.00000000000E+00  0.14498111051E+04  0.14498111051E+04  0.25500000920E-02 0. -1.
       -2   -1    0    0    0  501  0.00000000000E+00  0.00000000000E+00 -0.68846572758E+03  0.68846572759E+03  0.25500000920E-02 0.  1.
    10030    2    1    2    0    0  0.00000000000E+00  0.00000000000E+00  0.76134537750E+03  0.21382768327E+04  0.19981443965E+04 0.  0.
        4    1    3    3  502    0  0.21559214213E+03  0.96988422254E+03  0.49284913401E+03  0.11090794645E+04  0.12699999809E+01 0. -1.
       -4    1    3    3    0  502 -0.21559214213E+03 -0.96988422254E+03  0.26849624349E+03  0.10291973681E+04  0.12699999809E+01 0.  1.
</event>
<event>
 5   0  0.1979765E-05  0.2007472E+04  0.7818609E-02  0.8603135E-01
       -2   -1    0    0    0  501  0.00000000000E+00  0.00000000000E+00  0.45664346990E+03  0.45664346991E+03  0.25500000920E-02 0. -1.
        2   -1    0    0  501    0  0.00000000000E+00  0.00000000000E+00 -0.22062864140E+04  0.22062864140E+04  0.25500000920E-02 0.  1.
    10030    2    1    2    0    0  0.00000000000E+00  0.00000000000E+00 -0.17496429441E+04  0.26629298839E+04  0.20074723248E+04 0.  0.
        2    1    3    3  502    0  0.69398672754E+03  0.84058273097E+01  0.87055769611E+02  0.69947619185E+03  0.25500000920E-02 0. -1.
       -2    1    3    3    0  502 -0.69398672754E+03 -0.84058273097E+01 -0.18366987137E+04  0.19634536921E+04  0.25500000920E-02 0.  1.
</event>
<event>
 5   0  0.9220260E-06  0.2012120E+04  0.7818609E-02  0.8600975E-01
       -1   -1    0    0    0  501  0.00000000000E+00  0.00000000000E+00  0.56271659245E+03  0.56271659247E+03  0.50400001928E-02 0.  1.
        1   -1    0    0  501    0  0.00000000000E+00  0.00000000000E+00 -0.17986963400E+04  0.17986963400E+04  0.50400001928E-02 0. -1.
    10030    2    1    2    0    0  0.00000000000E+00  0.00000000000E+00 -0.12359797475E+04  0.23614129325E+04  0.20121195544E+04 0.  0.
        3    1    3    3  502    0  0.40306118314E+00  0.36741741137E+03 -0.17171417381E+04  0.17560101012E+04  0.10100000352E+00 0. -1.
       -3    1    3    3    0  502 -0.40306118314E+00 -0.36741741137E+03  0.48116199060E+03  0.60540283121E+03  0.10100000352E+00 0.  1.
</event>
<event>
 5   0  0.9370269E-06  0.1997224E+04  0.7818609E-02  0.8607919E-01
       -1   -1    0    0    0  501  0.00000000000E+00  0.00000000000E+00  0.76319252224E+03  0.76319252226E+03  0.50400001928E-02 0. -1.
        1   -1    0    0  501    0  0.00000000000E+00  0.00000000000E+00 -0.13066511121E+04  0.13066511121E+04  0.50400001928E-02 0.  1.
    10030    2    1    2    0    0  0.00000000000E+00  0.00000000000E+00 -0.54345858986E+03  0.20698436344E+04  0.19972244320E+04 0.  0.
        4    1    3    3  502    0 -0.55346307164E+03  0.18503279597E+02  0.58948591710E+03  0.80880096587E+03  0.12699999809E+01 0. -1.
       -4    1    3    3    0  502  0.55346307164E+03 -0.18503279597E+02 -0.11329445070E+04  0.12610426685E+04  0.12699999809E+01 0.  1.
</event>
<event>
 5   0  0.9342635E-06  0.2004087E+04  0.7818609E-02  0.8604712E-01
       -1   -1    0    0    0  501  0.00000000000E+00  0.00000000000E+00  0.76620527090E+03  0.76620527091E+03  0.50400001928E-02 0. -1.
        1   -1    0    0  501    0  0.00000000000E+00  0.00000000000E+00 -0.13104732539E+04  0.13104732539E+04  0.50400001928E-02 0.  1.
    10030    2    1    2    0    0  0.00000000000E+00  0.00000000000E+00 -0.54426798298E+03  0.20766785248E+04  0.20040873379E+04 0.  0.
        5    1    3    3  502    0  0.64433520052E+03 -0.15706552193E+03 -0.10504957358E+04  0.12423368343E+04  0.46999998093E+01 0.  1.
       -5    1    3    3    0  502 -0.64433520052E+03  0.15706552193E+03  0.50622775284E+03  0.83434169053E+03  0.46999998093E+01 0. -1.
</event>
<event>
 5   0  0.9370269E-06  0.2000764E+04  0.7818609E-02  0.8606264E-01
        1   -1    0    0  501    0  0.00000000000E+00  0.00000000000E+00  0.16299510652E+04  0.16299510652E+04  0.50400001928E-02 0.  1.
       -1   -1    0    0    0  501  0.00000000000E+00  0.00000000000E+00 -0.61398419416E+03  0.61398419418E+03  0.50400001928E-02 0. -1.
    10030    2    1    2    0    0  0.00000000000E+00  0.00000000000E+00  0.10159668711E+04  0.22439352594E+04  0.20007640454E+04 0.  0.
        4    1    3    3  502    0 -0.50121931549E+03  0.83086384965E+03  0.78088191858E+03  0.12455254805E+04  0.12699999809E+01 0. -1.
       -4    1    3    3    0  502  0.50121931549E+03 -0.83086384965E+03  0.23508495247E+03  0.99840977892E+03  0.12699999809E+01 0.  1.
</event>
<event>
 5   0  0.9140695E-06  0.2007717E+04  0.7818609E-02  0.8603021E-01
        1   -1    0    0  501    0  0.00000000000E+00  0.00000000000E+00  0.14226039137E+04  0.14226039137E+04  0.50400001928E-02 0.  1.
       -1   -1    0    0    0  501  0.00000000000E+00  0.00000000000E+00 -0.70837158644E+03  0.70837158646E+03  0.50400001928E-02 0. -1.
    10030    2    1    2    0    0  0.00000000000E+00  0.00000000000E+00  0.71423232729E+03  0.21309755002E+04  0.20077173021E+04 0.  0.
        1    1    3    3  502    0  0.17280920540E+02 -0.65817112001E+03 -0.44719529479E+03  0.79590921916E+03  0.50400001928E-02 0. -1.
       -1    1    3    3    0  502 -0.17280920540E+02  0.65817112001E+03  0.11614276221E+04  0.13350662811E+04  0.50400001928E-02 0.  1.
</event>
<event>
 5   0  0.2020029E-05  0.1999841E+04  0.7818609E-02  0.8606695E-01
       -2   -1    0    0    0  501  0.00000000000E+00  0.00000000000E+00  0.14509020801E+04  0.14509020801E+04  0.25500000920E-02 0.  1.
        2   -1    0    0  501    0  0.00000000000E+00  0.00000000000E+00 -0.68911660834E+03  0.68911660834E+03  0.25500000920E-02 0. -1.
    10030    2    1    2    0    0  0.00000000000E+00  0.00000000000E+00  0.76178547174E+03  0.21400186884E+04  0.19998407141E+04 0.  0.
        5    1    3    3  502    0 -0.45212269863E+03  0.82230140257E+03  0.75038400867E+03  0.12015376739E+04  0.46999998093E+01 0.  1.
       -5    1    3    3    0  502  0.45212269863E+03 -0.82230140257E+03  0.11401463063E+02  0.93848101454E+03  0.46999998093E+01 0. -1.
</event>
<event>
 5   0  0.9370269E-06  0.1998323E+04  0.7818609E-02  0.8607405E-01
        1   -1    0    0  501    0  0.00000000000E+00  0.00000000000E+00  0.65707368473E+03  0.65707368475E+03  0.50400001928E-02 0.  1.
       -1   -1    0    0    0  501  0.00000000000E+00  0.00000000000E+00 -0.15193476497E+04  0.15193476497E+04  0.50400001928E-02 0. -1.
    10030    2    1    2    0    0  0.00000000000E+00  0.00000000000E+00 -0.86227396501E+03  0.21764213345E+04  0.19983226553E+04 0.  0.
        4    1    3    3  502    0  0.29137583838E+03 -0.69584266815E+02  0.60701018649E+03  0.67690828683E+03  0.12699999809E+01 0.  1.
       -4    1    3    3    0  502 -0.29137583838E+03  0.69584266815E+02 -0.14692841515E+04  0.14995130477E+04  0.12699999809E+01 0. -1.
</event>
<event>
 5   0  0.7132000E-06  0.1999541E+04  0.7818609E-02  0.8606836E-01
       -4   -1    0    0    0  501  0.00000000000E+00  0.00000000000E+00  0.14217786076E+04  0.14217791748E+04  0.12699999809E+01 0.  1.
        4   -1    0    0  501    0  0.00000000000E+00  0.00000000000E+00 -0.70301998558E+03  0.70302113270E+03  0.12699999809E+01 0. -1.
    10030    2    1    2    0    0  0.00000000000E+00  0.00000000000E+00  0.71875862203E+03  0.21248003075E+04  0.19995405447E+04 0.  0.
        1    1    3    3  502    0 -0.20199754883E+03 -0.14368356815E+03  0.13886053508E+04  0.14105576194E+04  0.50400001928E-02 0.  1.
       -1    1    3    3    0  502  0.20199754883E+03  0.14368356815E+03 -0.66984672874E+03  0.71424268811E+03  0.50400001928E-02 0. -1.
</event>
<event>
 5   0  0.2038882E-05  0.1999093E+04  0.7818609E-02  0.8607045E-01
       -2   -1    0    0    0  501  0.00000000000E+00  0.00000000000E+00  0.86021597354E+03  0.86021597354E+03  0.25500000920E-02 0.  1.
        2   -1    0    0  501    0  0.00000000000E+00  0.00000000000E+00 -0.11614447528E+04  0.11614447528E+04  0.25500000920E-02 0. -1.
    10030    2    1    2    0    0  0.00000000000E+00  0.00000000000E+00 -0.30122877921E+03  0.20216607263E+04  0.19990931231E+04 0.  0.
        3    1    3    3  502    0 -0.57602928738E+03  0.29406776728E+03  0.62009640520E+03  0.89599394731E+03  0.10100000352E+00 0.  1.
       -3    1    3    3    0  502  0.57602928738E+03 -0.29406776728E+03 -0.92132518442E+03  0.11256667790E+04  0.10100000352E+00 0. -1.
</event>
<event>
 5   0  0.2038882E-05  0.2002895E+04  0.7818609E-02  0.8605268E-01
        2   -1    0    0  501    0  0.00000000000E+00  0.00000000000E+00  0.99692301748E+03  0.99692301748E+03  0.25500000920E-02 0.  1.
       -2   -1    0    0    0  501  0.00000000000E+00  0.00000000000E+00 -0.10059928306E+04  0.10059928306E+04  0.25500000920E-02 0. -1.
    10030    2    1    2    0    0  0.00000000000E+00  0.00000000000E+00 -0.90698131440E+01  0.20029158481E+04  0.20028953126E+04 0.  0.
        3    1    3    3  502    0  0.55458933911E+02  0.77836790734E+03  0.62313792554E+03  0.99861563025E+03  0.10100000352E+00 0.  1.
       -3    1    3    3    0  502 -0.55458933911E+02 -0.77836790734E+03 -0.63220773869E+03  0.10043002179E+04  0.10100000352E+00 0. -1.
</event>
<event>
 5   0  0.9342635E-06  0.2000367E+04  0.7818609E-02  0.8606449E-01
        1   -1    0    0  501    0  0.00000000000E+00  0.00000000000E+00  0.96862264830E+03  0.96862264831E+03  0.50400001928E-02 0. -1.
       -1   -1    0    0    0  501  0.00000000000E+00  0.00000000000E+00 -0.10327723602E+04  0.10327723602E+04  0.50400001928E-02 0.  1.
    10030    2    1    2    0    0  0.00000000000E+00  0.00000000000E+00 -0.64149711871E+02  0.20013950085E+04  0.20003666650E+04 0.  0.
        5    1    3    3  502    0  0.10981368283E+03 -0.32774053213E+02  0.96202106115E+03  0.96883424568E+03  0.46999998093E+01 0. -1.
       -5    1    3    3    0  502 -0.10981368283E+03  0.32774053213E+02 -0.10261707730E+04  0.10325607628E+04  0.46999998093E+01 0.  1.
</event>
<event>
 5   0  0.2020029E-05  0.1996480E+04  0.7818609E-02  0.8608268E-01
        2   -1    0    0  501    0  0.00000000000E+00  0.00000000000E+00  0.11439663127E+04  0.11439663127E+04  0.25500000920E-02 0.  1.
       -2   -1    0    0    0  501  0.00000000000E+00  0.00000000000E+00 -0.87107712678E+03  0.87107712678E+03  0.25500000920E-02 0. -1.
    10030    2    1    2    0    0  0.00000000000E+00  0.00000000000E+00  0.27288918596E+03  0.20150434395E+04  0.19964797909E+04 0.  0.
        5    1    3    3  502    0 -0.57006951489E+03  0.36987637767E+03 -0.60156775162E+03  0.90757569180E+03  0.46999998093E+01 0. -1.
       -5    1    3    3    0  502  0.57006951489E+03 -0.36987637767E+03  0.87445693757E+03  0.11074677477E+04  0.46999998093E+01 0.  1.
</event>
<event>
 5   0  0.2038882E-05  0.1995353E+04  0.7818609E-02  0.8608796E-01
        2   -1    0    0  501    0  0.00000000000E+00  0.00000000000E+00  0.81574626434E+03  0.81574626435E+03  0.25500000920E-02 0. -1.
       -2   -1    0    0    0  501  0.00000000000E+00  0.00000000000E+00 -0.12201812902E+04  0.12201812902E+04  0.25500000920E-02 0.  1.
    10030    2    1    2    0    0  0.00000000000E+00  0.00000000000E+00 -0.40443502590E+03  0.20359275546E+04  0.19953529305E+04 0.  0.
        3    1    3    3  502    0 -0.86513440889E+03 -0.49680979913E+03 -0.19304600567E+03  0.10161418663E+04  0.10100000352E+00 0.  1.
       -3    1    3    3    0  502  0.86513440889E+03  0.49680979913E+03 -0.21138902023E+03  0.10197856883E+04  0.10100000352E+00 0. -1.
</event>
<event>
 5   0  0.9220260E-06  0.1999797E+04  0.7818609E-02  0.8606716E-01
        1   -1    0    0  501    0  0.00000000000E+00  0.00000000000E+00  0.10339250872E+04  0.10339250872E+04  0.50400001928E-02 0. -1.
       -1   -1    0    0    0  501  0.00000000000E+00  0.00000000000E+00 -0.96699159236E+03  0.96699159237E+03  0.50400001928E-02 0.  1.
    10030    2    1    2    0    0  0.00000000000E+00  0.00000000000E+00  0.66933494858E+02  0.20009166796E+04  0.19997968562E+04 0.  0.
        3    1    3    3  502    0 -0.69336776749E+03  0.33102500213E+03 -0.60678253341E+03  0.97904109520E+03  0.10100000352E+00 0.  1.
       -3    1    3    3    0  502  0.69336776749E+03 -0.33102500213E+03  0.67371602827E+03  0.10218755844E+04  0.10100000352E+00 0. -1.
</event>
<event>
 5   0  0.9220260E-06  0.1998388E+04  0.7818609E-02  0.8607375E-01
        1   -1    0    0  501    0  0.00000000000E+00  0.00000000000E+00  0.17938058001E+04  0.17938058001E+04  0.50400001928E-02 0. -1.
       -1   -1    0    0    0  501  0.00000000000E+00  0.00000000000E+00 -0.55657548064E+03  0.55657548066E+03  0.50400001928E-02 0.  1.
    10030    2    1    2    0    0  0.00000000000E+00  0.00000000000E+00  0.12372303194E+04  0.23503812807E+04  0.19983876755E+04 0.  0.
        3    1    3    3  502    0  0.63122808228E+03  0.69052920340E+03  0.10312854477E+04  0.13924184563E+04  0.10100000352E+00 0. -1.
       -3    1    3    3    0  502 -0.63122808228E+03 -0.69052920340E+03  0.20594487173E+03  0.95796282443E+03  0.10100000352E+00 0.  1.
</event>
<event>
 5   0  0.9370269E-06  0.2002474E+04  0.7818609E-02  0.8605465E-01
        1   -1    0    0  501    0  0.00000000000E+00  0.00000000000E+00  0.13016001808E+04  0.13016001808E+04  0.50400001928E-02 0.  1.
       -1   -1    0    0    0  501  0.00000000000E+00  0.00000000000E+00 -0.77018726473E+03  0.77018726474E+03  0.50400001928E-02 0. -1.
    10030    2    1    2    0    0  0.00000000000E+00  0.00000000000E+00  0.53141291607E+03  0.20717874455E+04  0.20024743524E+04 0.  0.
        4    1    3    3  502    0  0.73259043530E+03  0.11980644366E+03 -0.42943689832E+03  0.85758964101E+03  0.12699999809E+01 0. -1.
       -4    1    3    3    0  502 -0.73259043530E+03 -0.11980644366E+03  0.96084981438E+03  0.12141978045E+04  0.12699999809E+01 0.  1.
</event>
<event>
 5   0  0.1999142E-05  0.1998053E+04  0.7818609E-02  0.8607532E-01
       -2   -1    0    0    0  501  0.00000000000E+00  0.00000000000E+00  0.88573989491E+03  0.88573989491E+03  0.25500000920E-02 0.  1.
        2   -1    0    0  501    0  0.00000000000E+00  0.00000000000E+00 -0.11268019852E+04  0.11268019852E+04  0.25500000920E-02 0. -1.
    10030    2    1    2    0    0  0.00000000000E+00  0.00000000000E+00 -0.24106209025E+03  0.20125418801E+04  0.19980525238E+04 0.  0.
        1    1    3    3  502    0 -0.39327256623E+03  0.91835809078E+03 -0.12348104663E+03  0.10066242910E+04  0.50400001928E-02 0.  1.
       -1    1    3    3    0  502  0.39327256623E+03 -0.91835809078E+03 -0.11758104362E+03  0.10059175891E+04  0.50400001928E-02 0. -1.
</event>
<event>
 5   0  0.7132000E-06  0.2001366E+04  0.7818609E-02  0.8605982E-01
       -4   -1    0    0    0  501  0.00000000000E+00  0.00000000000E+00  0.13117356470E+04  0.13117362618E+04  0.12699999809E+01 0.  1.
        4   -1    0    0  501    0  0.00000000000E+00  0.00000000000E+00 -0.76338930140E+03  0.76339035781E+03  0.12699999809E+01 0. -1.
    10030    2    1    2    0    0  0.00000000000E+00  0.00000000000E+00  0.54834634556E+03  0.20751266196E+04  0.20013662265E+04 0.  0.
        4    1    3    3  502    0 -0.25706762573E+03 -0.42074596418E+03 -0.62869726360E+03  0.79898234820E+03  0.12699999809E+01 0. -1.
       -4    1    3    3    0  502  0.25706762573E+03  0.42074596418E+03  0.11770436092E+04  0.12761442714E+04  0.12699999809E+01 0.  1.
</event>
<event>
 5   0  0.1979765E-05  0.2022058E+04  0.7818609E-02  0.8596377E-01
        2   -1    0    0  501    0  0.00000000000E+00  0.00000000000E+00  0.95960319478E+03  0.95960319478E+03  0.25500000920E-02 0.  1.
       -2   -1    0    0    0  501  0.00000000000E+00  0.00000000000E+00 -0.10652107161E+04  0.10652107161E+04  0.25500000920E-02 0. -1.
    10030    2    1    2    0    0  0.00000000000E+00  0.00000000000E+00 -0.10560752127E+03  0.20248139108E+04  0.20220579678E+04 0.  0.
        2    1    3    3  502    0 -0.29469063956E+02  0.91671963726E+03 -0.47874957147E+03  0.10346228643E+04  0.25500000920E-02 0. -1.
       -2    1    3    3    0  502  0.29469063956E+02 -0.91671963726E+03  0.37314205020E+03  0.99019104657E+03  0.25500000920E-02 0.  1.
</event>
<event>
 5   0  0.2038882E-05  0.1982168E+04  0.7818609E-02  0.8615003E-01
       -2   -1    0    0    0  501  0.00000000000E+00  0.00000000000E+00  0.86862911938E+03  0.86862911939E+03  0.25500000920E-02 0.  1.
        2   -1    0    0  501    0  0.00000000000E+00  0.00000000000E+00 -0.11308020535E+04  0.11308020535E+04  0.25500000920E-02 0. -1.
    10030    2    1    2    0    0  0.00000000000E+00  0.00000000000E+00 -0.26217293408E+03  0.19994311729E+04  0.19821680977E+04 0.  0.
        3    1    3    3  502    0 -0.34681284736E+02  0.81058182235E+03  0.44308255171E+03  0.92442838558E+03  0.10100000352E+00 0.  1.
       -3    1    3    3    0  502  0.34681284736E+02 -0.81058182235E+03 -0.70525548579E+03  0.10750027873E+04  0.10100000352E+00 0. -1.
</event>
<event>
 5   0  0.9333353E-06  0.2029104E+04  0.7818609E-02  0.8593133E-01
        1   -1    0    0  501    0  0.00000000000E+00  0.00000000000E+00  0.93983495551E+03  0.93983495552E+03  0.50400001928E-02 0. -1.
       -1   -1    0    0    0  501  0.00000000000E+00  0.00000000000E+00 -0.10952090635E+04  0.10952090635E+04  0.50400001928E-02 0.  1.
    10030    2    1    2    0    0  0.00000000000E+00  0.00000000000E+00 -0.15537410800E+03  0.20350440190E+04  0.20291040008E+04 0.  0.
        2    1    3    3  502    0  0.22964320801E+03 -0.13057637287E+03 -0.10601104170E+04  0.10925293078E+04  0.25500000920E-02 0.  1.
       -2    1    3    3    0  502 -0.22964320801E+03  0.13057637287E+03  0.90473630899E+03  0.94251471127E+03  0.25500000920E-02 0. -1.
</event>
<event>
 5   0  0.9140695E-06  0.2008743E+04  0.7818609E-02  0.8602544E-01
       -1   -1    0    0    0  501  0.00000000000E+00  0.00000000000E+00  0.13151960205E+04  0.13151960205E+04  0.50400001928E-02 0. -1.
        1   -1    0    0  501    0  0.00000000000E+00  0.00000000000E+00 -0.76700500685E+03  0.76700500687E+03  0.50400001928E-02 0.  1.
    10030    2    1    2    0    0  0.00000000000E+00  0.00000000000E+00  0.54819101364E+03  0.20822010274E+04  0.20087428235E+04 0.  0.
        1    1    3    3  502    0 -0.28134525102E+03 -0.89790214483E+03 -0.90002329157E+02  0.94524273667E+03  0.50400001928E-02 0. -1.
       -1    1    3    3    0  502  0.28134525102E+03  0.89790214483E+03  0.63819334280E+03  0.11369582907E+04  0.50400001928E-02 0.  1.
</event>
<event>
 5   0  0.2038882E-05  0.2000952E+04  0.7818609E-02  0.8606176E-01
        2   -1    0    0  501    0  0.00000000000E+00  0.00000000000E+00  0.30057184278E+04  0.30057184278E+04  0.25500000920E-02 0.  1.
       -2   -1    0    0    0  501  0.00000000000E+00  0.00000000000E+00 -0.33301591776E+03  0.33301591777E+03  0.25500000920E-02 0. -1.
    10030    2    1    2    0    0  0.00000000000E+00  0.00000000000E+00  0.26727025101E+04  0.33387343456E+04  0.20009518543E+04 0.  0.
        3    1    3    3  502    0  0.13803136307E+03  0.58143166773E+02 -0.31420301913E+03  0.34807590044E+03  0.10100000352E+00 0. -1.
       -3    1    3    3    0  502 -0.13803136307E+03 -0.58143166773E+02  0.29869055292E+04  0.29906584452E+04  0.10100000352E+00 0.  1.
</event>
<event>
 5   0  0.2020029E-05  0.2000147E+04  0.7818609E-02  0.8606552E-01
        2   -1    0    0  501    0  0.00000000000E+00  0.00000000000E+00  0.79770682109E+03  0.79770682109E+03  0.25500000920E-02 0.  1.
       -2   -1    0    0    0  501  0.00000000000E+00  0.00000000000E+00 -0.12537781405E+04  0.12537781405E+04  0.25500000920E-02 0. -1.
    10030    2    1    2    0    0  0.00000000000E+00  0.00000000000E+00 -0.45607131939E+03  0.20514849616E+04  0.20001473694E+04 0.  0.
        5    1    3    3  502    0 -0.20195298069E+03  0.48152294171E+03 -0.11028495256E+04  0.12202247809E+04  0.46999998093E+01 0. -1.
       -5    1    3    3    0  502  0.20195298069E+03 -0.48152294171E+03  0.64677820626E+03  0.83126018063E+03  0.46999998093E+01 0.  1.
</event>
<event>
 5   0  0.9220260E-06  0.2000511E+04  0.7818609E-02  0.8606382E-01
        1   -1    0    0  501    0  0.00000000000E+00  0.00000000000E+00  0.19544193831E+04  0.19544193831E+04  0.50400001928E-02 0. -1.
       -1   -1    0    0    0  501  0.00000000000E+00  0.00000000000E+00 -0.51192219614E+03  0.51192219617E+03  0.50400001928E-02 0.  1.
    10030    2    1    2    0    0  0.00000000000E+00  0.00000000000E+00  0.14424971870E+04  0.24663415793E+04  0.20005105977E+04 0.  0.
        3    1    3    3  502    0 -0.38272929252E+03 -0.16443550605E+03  0.18423953698E+04  0.18888995356E+04  0.10100000352E+00 0. -1.
       -3    1    3    3    0  502  0.38272929252E+03  0.16443550605E+03 -0.39989818278E+03  0.57744204367E+03  0.10100000352E+00 0.  1.
</event>
<event>
 5   0  0.9370269E-06  0.1995776E+04  0.7818609E-02  0.8608598E-01
       -1   -1    0    0    0  501  0.00000000000E+00  0.00000000000E+00  0.12109916865E+04  0.12109916865E+04  0.50400001928E-02 0. -1.
        1   -1    0    0  501    0  0.00000000000E+00  0.00000000000E+00 -0.82228481471E+03  0.82228481472E+03  0.50400001928E-02 0.  1.
    10030    2    1    2    0    0  0.00000000000E+00  0.00000000000E+00  0.38870687177E+03  0.20332765012E+04  0.19957756132E+04 0.  0.
        4    1    3    3  502    0 -0.29445952181E+03 -0.53725521647E+03 -0.60812012757E+03  0.86322724706E+03  0.12699999809E+01 0.  1.
       -4    1    3    3    0  502  0.29445952181E+03  0.53725521647E+03  0.99682699935E+03  0.11700492542E+04  0.12699999809E+01 0. -1.
</event>
<event>
 5   0  0.9333353E-06  0.2000666E+04  0.7818609E-02  0.8606309E-01
       -1   -1    0    0    0  501  0.00000000000E+00  0.00000000000E+00  0.60917913582E+03  0.60917913584E+03  0.50400001928E-02 0.  1.
        1   -1    0    0  501    0  0.00000000000E+00  0.00000000000E+00 -0.16426466835E+04  0.16426466836E+04  0.50400001928E-02 0. -1.
    10030    2    1    2    0    0  0.00000000000E+00  0.00000000000E+00 -0.10334675477E+04  0.22518258194E+04  0.20006659763E+04 0.  0.
        2    1    3    3  502    0 -0.61385650418E+03  0.78517446480E+03 -0.42025644844E+03  0.10816349802E+04  0.25500000920E-02 0. -1.
       -2    1    3    3    0  502  0.61385650418E+03 -0.78517446480E+03 -0.61321109928E+03  0.11701908392E+04  0.25500000920E-02 0.  1.
</event>
<event>
 5   0  0.2003576E-05  0.1998846E+04  0.7818609E-02  0.8607160E-01
       -2   -1    0    0    0  501  0.00000000000E+00  0.00000000000E+00  0.83244917056E+03  0.83244917056E+03  0.25500000920E-02 0.  1.
        2   -1    0    0  501    0  0.00000000000E+00  0.00000000000E+00 -0.11998884642E+04  0.11998884642E+04  0.25500000920E-02 0. -1.
    10030    2    1    2    0    0  0.00000000000E+00  0.00000000000E+00 -0.36743929364E+03  0.20323376348E+04  0.19988458238E+04 0.  0.
        4    1    3    3  502    0 -0.49278523125E+03 -0.88487276211E+02  0.69574586830E+03  0.85716463317E+03  0.12699999809E+01 0.  1.
       -4    1    3    3    0  502  0.49278523125E+03  0.88487276211E+02 -0.10631851619E+04  0.11751730016E+04  0.12699999809E+01 0. -1.
</event>
<event>
 5   0  0.9342635E-06  0.2000071E+04  0.7818609E-02  0.8606588E-01
        1   -1    0    0  501    0  0.00000000000E+00  0.00000000000E+00  0.13546284658E+04  0.13546284658E+04  0.50400001928E-02 0.  1.
       -1   -1    0    0    0  501  0.00000000000E+00  0.00000000000E+00 -0.73826185454E+03  0.73826185456E+03  0.50400001928E-02 0. -1.
    10030    2    1    2    0    0  0.00000000000E+00  0.00000000000E+00  0.61636661125E+03  0.20928903204E+04  0.20000705222E+04 0.  0.
        5    1    3    3  502    0  0.11171766612E+03  0.95283505778E+03  0.60354665679E+03  0.11334311365E+04  0.46999998093E+01 0. -1.
       -5    1    3    3    0  502 -0.11171766612E+03 -0.95283505778E+03  0.12819954459E+02  0.95945918386E+03  0.46999998093E+01 0.  1.
</event>
<event>
 5   0  0.2020029E-05  0.2000409E+04  0.7818609E-02  0.8606430E-01
       -2   -1    0    0    0  501  0.00000000000E+00  0.00000000000E+00  0.67702429572E+03  0.67702429572E+03  0.25500000920E-02 0. -1.
        2   -1    0    0  501    0  0.00000000000E+00  0.00000000000E+00 -0.14776554564E+04  0.14776554564E+04  0.25500000920E-02 0.  1.
    10030    2    1    2    0    0  0.00000000000E+00  0.00000000000E+00 -0.80063116073E+03  0.21546797522E+04  0.20004086030E+04 0.  0.
        5    1    3    3  502    0 -0.77700893136E+03  0.33299360202E+03  0.17547416672E+03  0.86338918894E+03  0.46999998093E+01 0. -1.
       -5    1    3    3    0  502  0.77700893136E+03 -0.33299360202E+03 -0.97610532745E+03  0.12912905632E+04  0.46999998093E+01 0.  1.
</event>
<event>
 5   0  0.9333353E-06  0.2002518E+04  0.7818609E-02  0.8605444E-01
        1   -1    0    0  501    0  0.00000000000E+00  0.00000000000E+00  0.16198917380E+04  0.16198917380E+04  0.50400001928E-02 0.  1.
       -1   -1    0    0    0  501  0.00000000000E+00  0.00000000000E+00 -0.61888060440E+03  0.61888060443E+03  0.50400001928E-02 0. -1.
    10030    2    1    2    0    0  0.00000000000E+00  0.00000000000E+00  0.10010111336E+04  0.22387723424E+04  0.20025179928E+04 0.  0.
        2    1    3    3  502    0 -0.65509167220E+03  0.67248650073E+03  0.88961415017E+03  0.12933663552E+04  0.25500000920E-02 0.  1.
       -2    1    3    3    0  502  0.65509167220E+03 -0.67248650073E+03  0.11139698339E+03  0.94540598717E+03  0.25500000920E-02 0. -1.
</event>
<event>
 5   0  0.1999142E-05  0.1999284E+04  0.7818609E-02  0.8606955E-01
       -2   -1    0    0    0  501  0.00000000000E+00  0.00000000000E+00  0.73805635278E+03  0.73805635279E+03  0.25500000920E-02 0.  1.
        2   -1    0    0  501    0  0.00000000000E+00  0.00000000000E+00 -0.13539406950E+04  0.13539406950E+04  0.25500000920E-02 0. -1.
    10030    2    1    2    0    0  0.00000000000E+00  0.00000000000E+00 -0.61588434217E+03  0.20919970477E+04  0.19992844032E+04 0.  0.
        1    1    3    3  502    0 -0.86507325682E+03  0.30905314386E+03  0.10457161653E+03  0.92455438369E+03  0.50400001928E-02 0.  1.
       -1    1    3    3    0  502  0.86507325682E+03 -0.30905314386E+03 -0.72045595870E+03  0.11674426641E+04  0.50400001928E-02 0. -1.
</event>
<event>
 5   0  0.9342635E-06  0.2002097E+04  0.7818609E-02  0.8605641E-01
        1   -1    0    0  501    0  0.00000000000E+00  0.00000000000E+00  0.22898255617E+04  0.22898255617E+04  0.50400001928E-02 0. -1.
       -1   -1    0    0    0  501  0.00000000000E+00  0.00000000000E+00 -0.43763087931E+03  0.43763087934E+03  0.50400001928E-02 0.  1.
    10030    2    1    2    0    0  0.00000000000E+00  0.00000000000E+00  0.18521946824E+04  0.27274564411E+04  0.20020972745E+04 0.  0.
        5    1    3    3  502    0 -0.32208569295E+03  0.30221973716E+03  0.21498946751E+04  0.21947995733E+04  0.46999998093E+01 0. -1.
       -5    1    3    3    0  502  0.32208569295E+03 -0.30221973716E+03 -0.29769999266E+03  0.53265686775E+03  0.46999998093E+01 0.  1.
</event>
<event>
 5   0  0.9333353E-06  0.1999059E+04  0.7818609E-02  0.8607061E-01
       -1   -1    0    0    0  501  0.00000000000E+00  0.00000000000E+00  0.70941503234E+03  0.70941503236E+03  0.50400001928E-02 0. -1.
        1   -1    0    0  501    0  0.00000000000E+00  0.00000000000E+00 -0.14082858128E+04  0.14082858128E+04  0.50400001928E-02 0.  1.
    10030    2    1    2    0    0  0.00000000000E+00  0.00000000000E+00 -0.69887078045E+03  0.21177008452E+04  0.19990589040E+04 0.  0.
        2    1    3    3  502    0 -0.96154762622E+03  0.24326991421E+03 -0.21837960166E+03  0.10156001866E+04  0.25500000920E-02 0.  1.
       -2    1    3    3    0  502  0.96154762622E+03 -0.24326991421E+03 -0.48049117879E+03  0.11021006585E+04  0.25500000920E-02 0. -1.
</event>
<event>
 5   0  0.1979765E-05  0.1999066E+04  0.7818609E-02  0.8607057E-01
        2   -1    0    0  501    0  0.00000000000E+00  0.00000000000E+00  0.86279731165E+03  0.86279731165E+03  0.25500000920E-02 0.  1.
       -2   -1    0    0    0  501  0.00000000000E+00  0.00000000000E+00 -0.11579387884E+04  0.11579387884E+04  0.25500000920E-02 0. -1.
    10030    2    1    2    0    0  0.00000000000E+00  0.00000000000E+00 -0.29514147677E+03  0.20207361001E+04  0.19990662557E+04 0.  0.
        2    1    3    3  502    0  0.39134917789E+03  0.80734899921E+03 -0.59291417315E+03  0.10754133170E+04  0.25500000920E-02 0. -1.
       -2    1    3    3    0  502 -0.39134917789E+03 -0.80734899921E+03  0.29777269638E+03  0.94532278312E+03  0.25500000920E-02 0.  1.
</event>
<event>
 5   0  0.1979765E-05  0.1993904E+04  0.7818609E-02  0.8609476E-01
        2   -1    0    0  501    0  0.00000000000E+00  0.00000000000E+00  0.23114460449E+04  0.23114460450E+04  0.25500000920E-02 0.  1.
       -2   -1    0    0    0  501  0.00000000000E+00  0.00000000000E+00 -0.42999642803E+03  0.42999642804E+03  0.25500000920E-02 0. -1.
    10030    2    1    2    0    0  0.00000000000E+00  0.00000000000E+00  0.18814496169E+04  0.27414424730E+04  0.19939042534E+04 0.  0.
        2    1    3    3  502    0 -0.56762300847E+03 -0.56405431917E+03  0.17582603424E+04  0.19317951719E+04  0.25500000920E-02 0. -1.
       -2    1    3    3    0  502  0.56762300847E+03  0.56405431917E+03  0.12318927452E+03  0.80964730104E+03  0.25500000920E-02 0.  1.
</event>
<event>
 5   0  0.2003576E-05  0.2001072E+04  0.7818609E-02  0.8606120E-01
       -2   -1    0    0    0  501  0.00000000000E+00  0.00000000000E+00  0.11854006140E+04  0.11854006140E+04  0.25500000920E-02 0.  1.
        2   -1    0    0  501    0  0.00000000000E+00  0.00000000000E+00 -0.84450119710E+03  0.84450119710E+03  0.25500000920E-02 0. -1.
    10030    2    1    2    0    0  0.00000000000E+00  0.00000000000E+00  0.34089941687E+03  0.20299018111E+04  0.20010719503E+04 0.  0.
        4    1    3    3  502    0 -0.62496743060E+03 -0.21857959350E+03 -0.59049722612E+03  0.88715833703E+03  0.12699999809E+01 0. -1.
       -4    1    3    3    0  502  0.62496743060E+03  0.21857959350E+03  0.93139664299E+03  0.11427434740E+04  0.12699999809E+01 0.  1.
</event>
<event>
 5   0  0.1979765E-05  0.1995094E+04  0.7818609E-02  0.8608918E-01
        2   -1    0    0  501    0  0.00000000000E+00  0.00000000000E+00  0.95602267583E+03  0.95602267583E+03  0.25500000920E-02 0.  1.
       -2   -1    0    0    0  501  0.00000000000E+00  0.00000000000E+00 -0.10408746942E+04  0.10408746942E+04  0.25500000920E-02 0. -1.
    10030    2    1    2    0    0  0.00000000000E+00  0.00000000000E+00 -0.84852018410E+02  0.19968973701E+04  0.19950937927E+04 0.  0.
        2    1    3    3  502    0  0.84482241842E+03  0.52615915470E+03 -0.10980280221E+03  0.10013116548E+04  0.25500000920E-02 0.  1.
       -2    1    3    3    0  502 -0.84482241842E+03 -0.52615915470E+03  0.24950783796E+02  0.99558571523E+03  0.25500000920E-02 0. -1.
</event>
<event>
 5   0  0.1979765E-05  0.1963431E+04  0.7818609E-02  0.8623911E-01
       -2   -1    0    0    0  501  0.00000000000E+00  0.00000000000E+00  0.40165660223E+03  0.40165660224E+03  0.25500000920E-02 0.  1.
        2   -1    0    0  501    0  0.00000000000E+00  0.00000000000E+00 -0.23994757579E+04  0.23994757579E+04  0.25500000920E-02 0. -1.
    10030    2    1    2    0    0  0.00000000000E+00  0.00000000000E+00 -0.19978191557E+04  0.28011323601E+04  0.19634309563E+04 0.  0.
        2    1    3    3  502    0 -0.22058393258E+03 -0.80847511058E+03 -0.26939509767E+03  0.88026302569E+03  0.25500000920E-02 0.  1.
       -2    1    3    3    0  502  0.22058393258E+03  0.80847511058E+03 -0.17284240580E+04  0.19208693344E+04  0.25500000920E-02 0. -1.
</event>
<event>
 5   0  0.2038882E-05  0.2003581E+04  0.7818609E-02  0.8604948E-01
       -2   -1    0    0    0  501  0.00000000000E+00  0.00000000000E+00  0.73310381878E+03  0.73310381878E+03  0.25500000920E-02 0.  1.
        2   -1    0    0  501    0  0.00000000000E+00  0.00000000000E+00 -0.13689525680E+04  0.13689525680E+04  0.25500000920E-02 0. -1.
    10030    2    1    2    0    0  0.00000000000E+00  0.00000000000E+00 -0.63584874925E+03  0.21020563868E+04  0.20035811492E+04 0.  0.
        3    1    3    3  502    0  0.49047309399E+03  0.32323102662E+03  0.53346696330E+03  0.79349175398E+03  0.10100000352E+00 0.  1.
       -3    1    3    3    0  502 -0.49047309399E+03 -0.32323102662E+03 -0.11693157125E+04  0.13085646328E+04  0.10100000352E+00 0. -1.
</event>
<event>
 5   0  0.9370269E-06  0.1961320E+04  0.7818609E-02  0.8624921E-01
       -1   -1    0    0    0  501  0.00000000000E+00  0.00000000000E+00  0.12265801289E+04  0.12265801289E+04  0.50400001928E-02 0. -1.
        1   -1    0    0  501    0  0.00000000000E+00  0.00000000000E+00 -0.78404531489E+03  0.78404531491E+03  0.50400001928E-02 0.  1.
    10030    2    1    2    0    0  0.00000000000E+00  0.00000000000E+00  0.44253481402E+03  0.20106254438E+04  0.19613203751E+04 0.  0.
        4    1    3    3  502    0 -0.63998343126E+03  0.18416735172E+03  0.95922231164E+03  0.11677351848E+04  0.12699999809E+01 0. -1.
       -4    1    3    3    0  502  0.63998343126E+03 -0.18416735172E+03 -0.51668749761E+03  0.84289025906E+03  0.12699999809E+01 0.  1.
</event>
<event>
 5   0  0.9140695E-06  0.2008579E+04  0.7818609E-02  0.8602620E-01
        1   -1    0    0  501    0  0.00000000000E+00  0.00000000000E+00  0.28317360570E+04  0.28317360570E+04  0.50400001928E-02 0. -1.
       -1   -1    0    0    0  501  0.00000000000E+00  0.00000000000E+00 -0.35617623951E+03  0.35617623955E+03  0.50400001928E-02 0.  1.
    10030    2    1    2    0    0  0.00000000000E+00  0.00000000000E+00  0.24755598175E+04  0.31879122965E+04  0.20085787016E+04 0.  0.
        1    1    3    3  502    0 -0.44139302348E+03  0.29733732129E+03  0.25895233095E+04  0.26436467719E+04  0.50400001928E-02 0. -1.
       -1    1    3    3    0  502  0.44139302348E+03 -0.29733732129E+03 -0.11396349204E+03  0.54426552468E+03  0.50400001928E-02 0.  1.
</event>
<event>
 5   0  0.9220260E-06  0.2006164E+04  0.7818609E-02  0.8603744E-01
       -1   -1    0    0    0  501  0.00000000000E+00  0.00000000000E+00  0.76343237590E+03  0.76343237592E+03  0.50400001928E-02 0.  1.
        1   -1    0    0  501    0  0.00000000000E+00  0.00000000000E+00 -0.13179607065E+04  0.13179607065E+04  0.50400001928E-02 0. -1.
    10030    2    1    2    0    0  0.00000000000E+00  0.00000000000E+00 -0.55452833055E+03  0.20813930824E+04  0.20061643736E+04 0.  0.
        3    1    3    3  502    0  0.57007263960E+03  0.41866861317E+03  0.46067950614E+03  0.84409231702E+03  0.10100000352E+00 0.  1.
       -3    1    3    3    0  502 -0.57007263960E+03 -0.41866861317E+03 -0.10152078367E+04  0.12373007654E+04  0.10100000352E+00 0. -1.
</event>
<event>
 5   0  0.9333353E-06  0.2000558E+04  0.7818609E-02  0.8606360E-01
        1   -1    0    0  501    0  0.00000000000E+00  0.00000000000E+00  0.68704092420E+03  0.68704092422E+03  0.50400001928E-02 0.  1.
       -1   -1    0    0    0  501  0.00000000000E+00  0.00000000000E+00 -0.14563297189E+04  0.14563297189E+04  0.50400001928E-02 0. -1.
    10030    2    1    2    0    0  0.00000000000E+00  0.00000000000E+00 -0.76928879467E+03  0.21433706431E+04  0.20005580382E+04 0.  0.
        2    1    3    3  502    0 -0.32118388773E+03  0.58250183343E+03  0.41573977600E+03  0.78441509231E+03  0.25500000920E-02 0.  1.
       -2    1    3    3    0  502  0.32118388773E+03 -0.58250183343E+03 -0.11850285707E+04  0.13589555508E+04  0.25500000920E-02 0. -1.
</event>
<event>
 5   0  0.9140695E-06  0.2011389E+04  0.7818609E-02  0.8601315E-01
        1   -1    0    0  501    0  0.00000000000E+00  0.00000000000E+00  0.25144410693E+04  0.25144410693E+04  0.50400001928E-02 0.  1.
       -1   -1    0    0    0  501  0.00000000000E+00  0.00000000000E+00 -0.40224491923E+03  0.40224491927E+03  0.50400001928E-02 0. -1.
    10030    2    1    2    0    0  0.00000000000E+00  0.00000000000E+00  0.21121961501E+04  0.29166859886E+04  0.20113887192E+04 0.  0.
        1    1    3    3  502    0  0.36221822263E+03  0.13738619023E+03  0.24019027007E+04  0.24329434005E+04  0.50400001928E-02 0.  1.
       -1    1    3    3    0  502 -0.36221822263E+03 -0.13738619023E+03 -0.28970655063E+03  0.48374258814E+03  0.50400001928E-02 0. -1.
</event>
<event>
 5   0  0.2003576E-05  0.1998868E+04  0.7818609E-02  0.8607150E-01
        2   -1    0    0  501    0  0.00000000000E+00  0.00000000000E+00  0.18222749566E+04  0.18222749566E+04  0.25500000920E-02 0.  1.
       -2   -1    0    0    0  501  0.00000000000E+00  0.00000000000E+00 -0.54814372781E+03  0.54814372782E+03  0.25500000920E-02 0. -1.
    10030    2    1    2    0    0  0.00000000000E+00  0.00000000000E+00  0.12741312288E+04  0.23704186844E+04  0.19988682676E+04 0.  0.
        4    1    3    3  502    0 -0.49977507426E+03  0.78751197407E+03  0.21127552677E+03  0.95634156830E+03  0.12699999809E+01 0. -1.
       -4    1    3    3    0  502  0.49977507426E+03 -0.78751197407E+03  0.10628557020E+04  0.14140771161E+04  0.12699999809E+01 0.  1.
</event>
<event>
 5   0  0.2003576E-05  0.2000756E+04  0.7818609E-02  0.8606267E-01
        2   -1    0    0  501    0  0.00000000000E+00  0.00000000000E+00  0.16031119428E+04  0.16031119428E+04  0.25500000920E-02 0.  1.
       -2   -1    0    0    0  501  0.00000000000E+00  0.00000000000E+00 -0.62425867166E+03  0.62425867166E+03  0.25500000920E-02 0. -1.
    10030    2    1    2    0    0  0.00000000000E+00  0.00000000000E+00  0.97885327118E+03  0.22273706145E+04  0.20007563889E+04 0.  0.
        4    1    3    3  502    0  0.31090843178E+03 -0.43396184930E+03 -0.45242914230E+03  0.69977187805E+03  0.12699999809E+01 0. -1.
       -4    1    3    3    0  502 -0.31090843178E+03  0.43396184930E+03  0.14312824135E+04  0.15275987365E+04  0.12699999809E+01 0.  1.
</event>
<event>
 5   0  0.1979765E-05  0.1997201E+04  0.7818609E-02  0.8607930E-01
       -2   -1    0    0    0  501  0.00000000000E+00  0.00000000000E+00  0.10385800581E+04  0.10385800581E+04  0.25500000920E-02 0.  1.
        2   -1    0    0  501    0  0.00000000000E+00  0.00000000000E+00 -0.96015977269E+03  0.96015977270E+03  0.25500000920E-02 0. -1.
    10030    2    1    2    0    0  0.00000000000E+00  0.00000000000E+00  0.78420285417E+02  0.19987398308E+04  0.19972008337E+04 0.  0.
        2    1    3    3  502    0 -0.10968503340E+03  0.21239284205E+03 -0.93110455062E+03  0.96129975038E+03  0.25500000920E-02 0. -1.
       -2    1    3    3    0  502  0.10968503340E+03 -0.21239284205E+03  0.10095248360E+04  0.10374400804E+04  0.25500000920E-02 0.  1.
</event>
<event>
 5   0  0.9342635E-06  0.1996604E+04  0.7818609E-02  0.8608210E-01
       -1   -1    0    0    0  501  0.00000000000E+00  0.00000000000E+00  0.63263483202E+03  0.63263483204E+03  0.50400001928E-02 0. -1.
        1   -1    0    0  501    0  0.00000000000E+00  0.00000000000E+00 -0.15753273731E+04  0.15753273731E+04  0.50400001928E-02 0.  1.
    10030    2    1    2    0    0  0.00000000000E+00  0.00000000000E+00 -0.94269254103E+03  0.22079622051E+04  0.19966040850E+04 0.  0.
        5    1    3    3  502    0  0.18810381599E+03  0.84257592513E+03  0.82983192884E+02  0.86730936551E+03  0.46999998093E+01 0. -1.
       -5    1    3    3    0  502 -0.18810381599E+03 -0.84257592513E+03 -0.10256757339E+04  0.13406528396E+04  0.46999998093E+01 0.  1.
</event>
<event>
 5   0  0.9370269E-06  0.2002380E+04  0.7818609E-02  0.8605509E-01
       -1   -1    0    0    0  501  0.00000000000E+00  0.00000000000E+00  0.13330574704E+04  0.13330574705E+04  0.50400001928E-02 0.  1.
        1   -1    0    0  501    0  0.00000000000E+00  0.00000000000E+00 -0.75194178187E+03  0.75194178189E+03  0.50400001928E-02 0. -1.
    10030    2    1    2    0    0  0.00000000000E+00  0.00000000000E+00  0.58111568857E+03  0.20849992523E+04  0.20023801934E+04 0.  0.
        4    1    3    3  502    0 -0.35266151528E+03 -0.69049808695E+03 -0.36899844242E+03  0.85867293881E+03  0.12699999809E+01 0. -1.
       -4    1    3    3    0  502  0.35266151528E+03  0.69049808695E+03  0.95011413099E+03  0.12263263135E+04  0.12699999809E+01 0.  1.
</event>
<event>
 5   0  0.9220260E-06  0.2004221E+04  0.7818609E-02  0.8604650E-01
       -1   -1    0    0    0  501  0.00000000000E+00  0.00000000000E+00  0.12589757024E+04  0.12589757024E+04  0.50400001928E-02 0.  1.
        1   -1    0    0  501    0  0.00000000000E+00  0.00000000000E+00 -0.79765278657E+03  0.79765278658E+03  0.50400001928E-02 0. -1.
    10030    2    1    2    0    0  0.00000000000E+00  0.00000000000E+00  0.46132291582E+03  0.20566284890E+04  0.20042210230E+04 0.  0.
        3    1    3    3  502    0 -0.88890485371E+03 -0.32399374642E+03  0.56960389982E+03  0.11043425191E+04  0.10100000352E+00 0.  1.
       -3    1    3    3    0  502  0.88890485371E+03  0.32399374642E+03 -0.10828098400E+03  0.95228596984E+03  0.10100000352E+00 0. -1.
</event>
<event>
 5   0  0.9370269E-06  0.1997820E+04  0.7818609E-02  0.8607640E-01
        1   -1    0    0  501    0  0.00000000000E+00  0.00000000000E+00  0.93348220504E+03  0.93348220505E+03  0.50400001928E-02 0.  1.
       -1   -1    0    0    0  501  0.00000000000E+00  0.00000000000E+00 -0.10689238589E+04  0.10689238590E+04  0.50400001928E-02 0. -1.
    10030    2    1    2    0    0  0.00000000000E+00  0.00000000000E+00 -0.13544165390E+03  0.20024060640E+04  0.19978202130E+04 0.  0.
        4    1    3    3  502    0  0.14861080359E+03  0.81382691104E+03  0.49340384250E+03  0.96324886544E+03  0.12699999809E+01 0.  1.
       -4    1    3    3    0  502 -0.14861080359E+03 -0.81382691104E+03 -0.62884549640E+03  0.10391571986E+04  0.12699999809E+01 0. -1.
</event>
<event>
 5   0  0.9370269E-06  0.1989971E+04  0.7818609E-02  0.8611324E-01
       -1   -1    0    0    0  501  0.00000000000E+00  0.00000000000E+00  0.53183063807E+03  0.53183063809E+03  0.50400001928E-02 0. -1.
        1   -1    0    0  501    0  0.00000000000E+00  0.00000000000E+00 -0.18614866800E+04  0.18614866800E+04  0.50400001928E-02 0.  1.
    10030    2    1    2    0    0  0.00000000000E+00  0.00000000000E+00 -0.13296560419E+04  0.23933173181E+04  0.19899705011E+04 0.  0.
        4    1    3    3  502    0 -0.20797145681E+03  0.63676520258E+03 -0.15496612422E+04  0.16882457252E+04  0.12699999809E+01 0.  1.
       -4    1    3    3    0  502  0.20797145681E+03 -0.63676520258E+03  0.22000520030E+03  0.70507159290E+03  0.12699999809E+01 0. -1.
</event>
<event>
 5   0  0.1999142E-05  0.1973077E+04  0.7818609E-02  0.8619312E-01
        2   -1    0    0  501    0  0.00000000000E+00  0.00000000000E+00  0.19657558246E+04  0.19657558246E+04  0.25500000920E-02 0.  1.
       -2   -1    0    0    0  501  0.00000000000E+00  0.00000000000E+00 -0.49510657431E+03  0.49510657432E+03  0.25500000920E-02 0. -1.
    10030    2    1    2    0    0  0.00000000000E+00  0.00000000000E+00  0.14706492502E+04  0.24608623989E+04  0.19730774260E+04 0.  0.
        1    1    3    3  502    0  0.90184001673E+03  0.38805325971E+03  0.61467331762E+03  0.11583281209E+04  0.50400001928E-02 0. -1.
       -1    1    3    3    0  502 -0.90184001673E+03 -0.38805325971E+03  0.85597593262E+03  0.13025342780E+04  0.50400001928E-02 0.  1.
</event>
<event>
 5   0  0.1979765E-05  0.1999806E+04  0.7818609E-02  0.8606711E-01
        2   -1    0    0  501    0  0.00000000000E+00  0.00000000000E+00  0.83421575964E+03  0.83421575964E+03  0.25500000920E-02 0. -1.
       -2   -1    0    0    0  501  0.00000000000E+00  0.00000000000E+00 -0.11984978085E+04  0.11984978085E+04  0.25500000920E-02 0.  1.
    10030    2    1    2    0    0  0.00000000000E+00  0.00000000000E+00 -0.36428204887E+03  0.20327135682E+04  0.19998057503E+04 0.  0.
        2    1    3    3  502    0  0.10546739447E+03 -0.93505064210E+03  0.16159934952E+03  0.95475516461E+03  0.25500000920E-02 0.  1.
       -2    1    3    3    0  502 -0.10546739447E+03  0.93505064210E+03 -0.52588139839E+03  0.10779584035E+04  0.25500000920E-02 0. -1.
</event>
<event>
 5   0  0.2038882E-05  0.1999976E+04  0.7818609E-02  0.8606632E-01
       -2   -1    0    0    0  501  0.00000000000E+00  0.00000000000E+00  0.63049379066E+03  0.63049379067E+03  0.25500000920E-02 0. -1.
        2   -1    0    0  501    0  0.00000000000E+00  0.00000000000E+00 -0.15860207762E+04  0.15860207762E+04  0.25500000920E-02 0.  1.
    10030    2    1    2    0    0  0.00000000000E+00  0.00000000000E+00 -0.95552698555E+03  0.22165145669E+04  0.19999762511E+04 0.  0.
        3    1    3    3  502    0 -0.76455134416E+03 -0.46374112018E+03  0.18342796343E+02  0.89438864751E+03  0.10100000352E+00 0. -1.
       -3    1    3    3    0  502  0.76455134416E+03  0.46374112018E+03 -0.97386978190E+03  0.13221259194E+04  0.10100000352E+00 0.  1.
</event>
<event>
 5   0  0.2020029E-05  0.1978527E+04  0.7818609E-02  0.8616726E-01
        2   -1    0    0  501    0  0.00000000000E+00  0.00000000000E+00  0.13377425567E+04  0.13377425567E+04  0.25500000920E-02 0. -1.
       -2   -1    0    0    0  501  0.00000000000E+00  0.00000000000E+00 -0.73156278072E+03  0.73156278072E+03  0.25500000920E-02 0.  1.
    10030    2    1    2    0    0  0.00000000000E+00  0.00000000000E+00  0.60617977594E+03  0.20693053374E+04  0.19785273965E+04 0.  0.
        5    1    3    3  502    0 -0.63381365439E+03  0.43107326381E+03 -0.35096389584E+03  0.84305495280E+03  0.46999998093E+01 0.  1.
       -5    1    3    3    0  502  0.63381365439E+03 -0.43107326381E+03  0.95714367178E+03  0.12262503846E+04  0.46999998093E+01 0. -1.
</event>
<event>
 5   0  0.9342635E-06  0.2000918E+04  0.7818609E-02  0.8606192E-01
       -1   -1    0    0    0  501  0.00000000000E+00  0.00000000000E+00  0.99047527268E+03  0.99047527270E+03  0.50400001928E-02 0.  1.
        1   -1    0    0  501    0  0.00000000000E+00  0.00000000000E+00 -0.10105430833E+04  0.10105430833E+04  0.50400001928E-02 0. -1.
    10030    2    1    2    0    0  0.00000000000E+00  0.00000000000E+00 -0.20067810644E+02  0.20010183560E+04  0.20009177255E+04 0.  0.
        5    1    3    3  502    0  0.39542216064E+03  0.70535726935E+03  0.57906981050E+03  0.99460117533E+03  0.46999998093E+01 0.  1.
       -5    1    3    3    0  502 -0.39542216064E+03 -0.70535726935E+03 -0.59913762115E+03  0.10064171807E+04  0.46999998093E+01 0. -1.
</event>
<event>
 5   0  0.9333353E-06  0.1999058E+04  0.7818609E-02  0.8607061E-01
        1   -1    0    0  501    0  0.00000000000E+00  0.00000000000E+00  0.85651862141E+03  0.85651862142E+03  0.50400001928E-02 0.  1.
       -1   -1    0    0    0  501  0.00000000000E+00  0.00000000000E+00 -0.11664177302E+04  0.11664177303E+04  0.50400001928E-02 0. -1.
    10030    2    1    2    0    0  0.00000000000E+00  0.00000000000E+00 -0.30989910884E+03  0.20229363517E+04  0.19990582846E+04 0.  0.
        2    1    3    3  502    0  0.97860209011E+03 -0.19068710622E+03 -0.22675402037E+03  0.10224680968E+04  0.25500000920E-02 0. -1.
       -2    1    3    3    0  502 -0.97860209011E+03  0.19068710622E+03 -0.83145088467E+02  0.10004682549E+04  0.25500000920E-02 0.  1.
</event>
<event>
 5   0  0.9342635E-06  0.1998361E+04  0.7818609E-02  0.8607387E-01
        1   -1    0    0  501    0  0.00000000000E+00  0.00000000000E+00  0.10438951271E+04  0.10438951271E+04  0.50400001928E-02 0.  1.
       -1   -1    0    0    0  501  0.00000000000E+00  0.00000000000E+00 -0.95638119215E+03  0.95638119217E+03  0.50400001928E-02 0. -1.
    10030    2    1    2    0    0  0.00000000000E+00  0.00000000000E+00  0.87513934962E+02  0.20002763193E+04  0.19983609946E+04 0.  0.
        5    1    3    3  502    0 -0.11630402212E+03 -0.99108958107E+03  0.94346410626E+02  0.10023514945E+04  0.46999998093E+01 0. -1.
       -5    1    3    3    0  502  0.11630402212E+03  0.99108958107E+03 -0.68324756636E+01  0.99792482482E+03  0.46999998093E+01 0.  1.
</event>
<event>
 5   0  0.1979765E-05  0.2000383E+04  0.7818609E-02  0.8606441E-01
       -2   -1    0    0    0  501  0.00000000000E+00  0.00000000000E+00  0.12090815511E+04  0.12090815511E+04  0.25500000920E-02 0. -1.
        2   -1    0    0  501    0  0.00000000000E+00  0.00000000000E+00 -0.82739120336E+03  0.82739120336E+03  0.25500000920E-02 0.  1.
    10030    2    1    2    0    0  0.00000000000E+00  0.00000000000E+00  0.38169034774E+03  0.20364727545E+04  0.20003834028E+04 0.  0.
        2    1    3    3  502    0 -0.62418515482E+03  0.26589846834E+03 -0.55731077236E+03  0.87801161721E+03  0.25500000920E-02 0.  1.
       -2    1    3    3    0  502  0.62418515482E+03 -0.26589846834E+03  0.93900112010E+03  0.11584611372E+04  0.25500000920E-02 0. -1.
</event>
<event>
 5   0  0.1999142E-05  0.1998761E+04  0.7818609E-02  0.8607200E-01
       -2   -1    0    0    0  501  0.00000000000E+00  0.00000000000E+00  0.14016373940E+04  0.14016373940E+04  0.25500000920E-02 0. -1.
        2   -1    0    0  501    0  0.00000000000E+00  0.00000000000E+00 -0.71256794049E+03  0.71256794050E+03  0.25500000920E-02 0.  1.
    10030    2    1    2    0    0  0.00000000000E+00  0.00000000000E+00  0.68906945351E+03  0.21142053345E+04  0.19987614877E+04 0.  0.
        1    1    3    3  502    0 -0.64299389430E+03 -0.69561686107E+03  0.68142333706E+03  0.11669026223E+04  0.50400001928E-02 0. -1.
       -1    1    3    3    0  502  0.64299389430E+03  0.69561686107E+03  0.76461164486E+01  0.94730271225E+03  0.50400001928E-02 0.  1.
</event>
<event>
 5   0  0.1999142E-05  0.2023973E+04  0.7818609E-02  0.8595494E-01
       -2   -1    0    0    0  501  0.00000000000E+00  0.00000000000E+00  0.54632481585E+03  0.54632481586E+03  0.25500000920E-02 0. -1.
        2   -1    0    0  501    0  0.00000000000E+00  0.00000000000E+00 -0.18745562633E+04  0.18745562633E+04  0.25500000920E-02 0.  1.
    10030    2    1    2    0    0  0.00000000000E+00  0.00000000000E+00 -0.13282314475E+04  0.24208810792E+04  0.20239729300E+04 0.  0.
        1    1    3    3  502    0 -0.71442809111E+02 -0.22918320321E+03  0.51177481867E+03  0.56528088651E+03  0.50400001928E-02 0. -1.
       -1    1    3    3    0  502  0.71442809111E+02  0.22918320321E+03 -0.18400062661E+04  0.18556001927E+04  0.50400001928E-02 0.  1.
</event>
<event>
 5   0  0.2038882E-05  0.2000479E+04  0.7818609E-02  0.8606397E-01
       -2   -1    0    0    0  501  0.00000000000E+00  0.00000000000E+00  0.78003041511E+03  0.78003041512E+03  0.25500000920E-02 0. -1.
        2   -1    0    0  501    0  0.00000000000E+00  0.00000000000E+00 -0.12826160676E+04  0.12826160676E+04  0.25500000920E-02 0.  1.
    10030    2    1    2    0    0  0.00000000000E+00  0.00000000000E+00 -0.50258565251E+03  0.20626464827E+04  0.20004794862E+04 0.  0.
        3    1    3    3  502    0 -0.78395619818E+03  0.19073176250E+03 -0.86086164387E+03  0.11798511372E+04  0.10100000352E+00 0.  1.
       -3    1    3    3    0  502  0.78395619818E+03 -0.19073176250E+03  0.35827599136E+03  0.88279534553E+03  0.10100000352E+00 0. -1.
</event>
<event>
 5   0  0.9370269E-06  0.2002697E+04  0.7818609E-02  0.8605361E-01
       -1   -1    0    0    0  501  0.00000000000E+00  0.00000000000E+00  0.87353980653E+03  0.87353980654E+03  0.50400001928E-02 0.  1.
        1   -1    0    0  501    0  0.00000000000E+00  0.00000000000E+00 -0.11478566818E+04  0.11478566818E+04  0.50400001928E-02 0. -1.
    10030    2    1    2    0    0  0.00000000000E+00  0.00000000000E+00 -0.27431687528E+03  0.20213964884E+04  0.20026966857E+04 0.  0.
        4    1    3    3  502    0 -0.80262921056E+03 -0.27973048688E+03  0.39715588400E+03  0.93818825618E+03  0.12699999809E+01 0.  1.
       -4    1    3    3    0  502  0.80262921056E+03  0.27973048688E+03 -0.67147275928E+03  0.10832082322E+04  0.12699999809E+01 0. -1.
</event>
<event>
 5   0  0.2038882E-05  0.2000898E+04  0.7818609E-02  0.8606201E-01
        2   -1    0    0  501    0  0.00000000000E+00  0.00000000000E+00  0.15779537970E+04  0.15779537970E+04  0.25500000920E-02 0. -1.
       -2   -1    0    0    0  501  0.00000000000E+00  0.00000000000E+00 -0.63430161506E+03  0.63430161507E+03  0.25500000920E-02 0.  1.
    10030    2    1    2    0    0  0.00000000000E+00  0.00000000000E+00  0.94365218197E+03  0.22122554121E+04  0.20008984402E+04 0.  0.
        3    1    3    3  502    0 -0.87509686654E+03  0.44615031065E+03  0.26189005846E+03  0.10165781025E+04  0.10100000352E+00 0.  1.
       -3    1    3    3    0  502  0.87509686654E+03 -0.44615031065E+03  0.68176212351E+03  0.11956773096E+04  0.10100000352E+00 0. -1.
</event>
<event>
 5   0  0.9333353E-06  0.2007044E+04  0.7818609E-02  0.8603335E-01
        1   -1    0    0  501    0  0.00000000000E+00  0.00000000000E+00  0.20885248072E+04  0.20885248072E+04  0.50400001928E-02 0. -1.
       -1   -1    0    0    0  501  0.00000000000E+00  0.00000000000E+00 -0.48218527239E+03  0.48218527242E+03  0.50400001928E-02 0.  1.
    10030    2    1    2    0    0  0.00000000000E+00  0.00000000000E+00  0.16063395348E+04  0.25707100797E+04  0.20070435004E+04 0.  0.
        2    1    3    3  502    0  0.59491641948E+03 -0.66856098660E+03  0.22160927078E+03  0.92195987324E+03  0.25500000920E-02 0.  1.
       -2    1    3    3    0  502 -0.59491641948E+03  0.66856098660E+03  0.13847302641E+04  0.16487502064E+04  0.25500000920E-02 0. -1.
</event>
<event>
 5   0  0.2020029E-05  0.1990258E+04  0.7818609E-02  0.8611189E-01
        2   -1    0    0  501    0  0.00000000000E+00  0.00000000000E+00  0.10331301054E+04  0.10331301054E+04  0.25500000920E-02 0.  1.
       -2   -1    0    0    0  501  0.00000000000E+00  0.00000000000E+00 -0.95852594068E+03  0.95852594069E+03  0.25500000920E-02 0. -1.
    10030    2    1    2    0    0  0.00000000000E+00  0.00000000000E+00  0.74604164715E+02  0.19916560461E+04  0.19902582809E+04 0.  0.
        5    1    3    3  502    0 -0.78700020107E+03  0.12910219125E+03  0.63288662124E+03  0.10181376418E+04  0.46999998093E+01 0.  1.
       -5    1    3    3    0  502  0.78700020107E+03 -0.12910219125E+03 -0.55828245652E+03  0.97351840431E+03  0.46999998093E+01 0. -1.
</event>
<event>
 5   0  0.2038882E-05  0.2003657E+04  0.7818609E-02  0.8604913E-01
        2   -1    0    0  501    0  0.00000000000E+00  0.00000000000E+00  0.68810185433E+03  0.68810185433E+03  0.25500000920E-02 0.  1.
       -2   -1    0    0    0  501  0.00000000000E+00  0.00000000000E+00 -0.14585920960E+04  0.14585920960E+04  0.25500000920E-02 0. -1.
    10030    2    1    2    0    0  0.00000000000E+00  0.00000000000E+00 -0.77049024167E+03  0.21466939503E+04  0.20036565833E+04 0.  0.
        3    1    3    3  502    0 -0.70186648234E+03  0.32535008484E+03  0.29674261980E+03  0.82856830095E+03  0.10100000352E+00 0.  1.
       -3    1    3    3    0  502  0.70186648234E+03 -0.32535008484E+03 -0.10672328615E+04  0.13181256494E+04  0.10100000352E+00 0. -1.
</event>
<event>
 5   0  0.9333353E-06  0.2005068E+04  0.7818609E-02  0.8604255E-01
        1   -1    0    0  501    0  0.00000000000E+00  0.00000000000E+00  0.83537623962E+03  0.83537623963E+03  0.50400001928E-02 0. -1.
       -1   -1    0    0    0  501  0.00000000000E+00  0.00000000000E+00 -0.12031392650E+04  0.12031392650E+04  0.50400001928E-02 0.  1.
    10030    2    1    2    0    0  0.00000000000E+00  0.00000000000E+00 -0.36776302542E+03  0.20385155047E+04  0.20050675350E+04 0.  0.
        2    1    3    3  502    0 -0.10848852117E+03 -0.89751018194E+03  0.25668278343E+03  0.93977674861E+03  0.25500000920E-02 0. -1.
       -2    1    3    3    0  502  0.10848852117E+03  0.89751018194E+03 -0.62444580885E+03  0.10987387561E+04  0.25500000920E-02 0.  1.
</event>
<event>
 5   0  0.9333353E-06  0.1999112E+04  0.7818609E-02  0.8607036E-01
        1   -1    0    0  501    0  0.00000000000E+00  0.00000000000E+00  0.11088905102E+04  0.11088905102E+04  0.50400001928E-02 0. -1.
       -1   -1    0    0    0  501  0.00000000000E+00  0.00000000000E+00 -0.90100147027E+03  0.90100147029E+03  0.50400001928E-02 0.  1.
    10030    2    1    2    0    0  0.00000000000E+00  0.00000000000E+00  0.20788903989E+03  0.20098919805E+04  0.19991117828E+04 0.  0.
        2    1    3    3  502    0 -0.20338705677E+02  0.35805860739E+02  0.11080373359E+04  0.11088022638E+04  0.25500000920E-02 0. -1.
       -2    1    3    3    0  502  0.20338705677E+02 -0.35805860739E+02 -0.90014829599E+03  0.90108971661E+03  0.25500000920E-02 0.  1.
</event>
<event>
 5   0  0.9342635E-06  0.1997607E+04  0.7818609E-02  0.8607741E-01
        1   -1    0    0  501    0  0.00000000000E+00  0.00000000000E+00  0.11259592275E+04  0.11259592275E+04  0.50400001928E-02 0.  1.
       -1   -1    0    0    0  501  0.00000000000E+00  0.00000000000E+00 -0.88600716835E+03  0.88600716836E+03  0.50400001928E-02 0. -1.
    10030    2    1    2    0    0  0.00000000000E+00  0.00000000000E+00  0.23995205917E+03  0.20119663959E+04  0.19976065147E+04 0.  0.
        5    1    3    3  502    0  0.38316298869E+03  0.52392741028E+03 -0.64460682532E+03  0.91479716680E+03  0.46999998093E+01 0. -1.
       -5    1    3    3    0  502 -0.38316298869E+03 -0.52392741028E+03  0.88455888449E+03  0.10971692291E+04  0.46999998093E+01 0.  1.
</event>
<event>
 5   0  0.1979765E-05  0.1999693E+04  0.7818609E-02  0.8606764E-01
        2   -1    0    0  501    0  0.00000000000E+00  0.00000000000E+00  0.70978074968E+03  0.70978074968E+03  0.25500000920E-02 0.  1.
       -2   -1    0    0    0  501  0.00000000000E+00  0.00000000000E+00 -0.14084533720E+04  0.14084533720E+04  0.25500000920E-02 0. -1.
    10030    2    1    2    0    0  0.00000000000E+00  0.00000000000E+00 -0.69867262236E+03  0.21182341217E+04  0.19996930667E+04 0.  0.
        2    1    3    3  502    0  0.46433536509E+03  0.79002763149E+02 -0.12835730929E+04  0.13672631980E+04  0.25500000920E-02 0. -1.
       -2    1    3    3    0  502 -0.46433536509E+03 -0.79002763149E+02  0.58490047051E+03  0.75097092372E+03  0.25500000920E-02 0.  1.
</event>
<event>
 5   0  0.1979765E-05  0.2001638E+04  0.7818609E-02  0.8605855E-01
       -2   -1    0    0    0  501  0.00000000000E+00  0.00000000000E+00  0.12673327089E+04  0.12673327089E+04  0.25500000920E-02 0.  1.
        2   -1    0    0  501    0  0.00000000000E+00  0.00000000000E+00 -0.79035188987E+03  0.79035188987E+03  0.25500000920E-02 0. -1.
    10030    2    1    2    0    0  0.00000000000E+00  0.00000000000E+00  0.47698081898E+03  0.20576845987E+04  0.20016381307E+04 0.  0.
        2    1    3    3  502    0 -0.76215931150E+03 -0.52353721905E+03  0.63217663107E+03  0.11201005887E+04  0.25500000920E-02 0.  1.
       -2    1    3    3    0  502  0.76215931150E+03  0.52353721905E+03 -0.15519581209E+03  0.93758401007E+03  0.25500000920E-02 0. -1.
</event>
<event>
 5   0  0.9220260E-06  0.1955829E+04  0.7818609E-02  0.8627555E-01
        1   -1    0    0  501    0  0.00000000000E+00  0.00000000000E+00  0.21842614951E+04  0.21842614951E+04  0.50400001928E-02 0.  1.
       -1   -1    0    0    0  501  0.00000000000E+00  0.00000000000E+00 -0.43782137770E+03  0.43782137773E+03  0.50400001928E-02 0. -1.
    10030    2    1    2    0    0  0.00000000000E+00  0.00000000000E+00  0.17464401174E+04  0.26220828729E+04  0.19558285989E+04 0.  0.
        3    1    3    3  502    0  0.84554773389E+03 -0.21071688051E+03  0.27823121737E+03  0.91474870568E+03  0.10100000352E+00 0.  1.
       -3    1    3    3    0  502 -0.84554773389E+03  0.21071688051E+03  0.14682089000E+04  0.17073341672E+04  0.10100000352E+00 0. -1.
</event>
<event>
 5   0  0.2003576E-05  0.1999887E+04  0.7818609E-02  0.8606673E-01
       -2   -1    0    0    0  501  0.00000000000E+00  0.00000000000E+00  0.72342001280E+03  0.72342001280E+03  0.25500000920E-02 0. -1.
        2   -1    0    0  501    0  0.00000000000E+00  0.00000000000E+00 -0.13821667650E+04  0.13821667650E+04  0.25500000920E-02 0.  1.
    10030    2    1    2    0    0  0.00000000000E+00  0.00000000000E+00 -0.65874675216E+03  0.21055867778E+04  0.19998870956E+04 0.  0.
        4    1    3    3  502    0  0.41850747592E+03  0.79941876636E+03 -0.78303764577E+03  0.11947252567E+04  0.12699999809E+01 0.  1.
       -4    1    3    3    0  502 -0.41850747592E+03 -0.79941876636E+03  0.12429089361E+03  0.91086152106E+03  0.12699999809E+01 0. -1.
</event>
<event>
 5   0  0.9140695E-06  0.1997644E+04  0.7818609E-02  0.8607723E-01
       -1   -1    0    0    0  501  0.00000000000E+00  0.00000000000E+00  0.12971821430E+04  0.12971821430E+04  0.50400001928E-02 0.  1.
        1   -1    0    0  501    0  0.00000000000E+00  0.00000000000E+00 -0.76908688558E+03  0.76908688560E+03  0.50400001928E-02 0. -1.
    10030    2    1    2    0    0  0.00000000000E+00  0.00000000000E+00  0.52809525744E+03  0.20662690286E+04  0.19976443872E+04 0.  0.
        1    1    3    3  502    0  0.17566470054E+03  0.94082587166E+03  0.55958009661E+03  0.11086664477E+04  0.50400001928E-02 0.  1.
       -1    1    3    3    0  502 -0.17566470054E+03 -0.94082587166E+03 -0.31484839176E+02  0.95760258089E+03  0.50400001928E-02 0. -1.
</event>
<event>
 5   0  0.1979765E-05  0.1999836E+04  0.7818609E-02  0.8606697E-01
        2   -1    0    0  501    0  0.00000000000E+00  0.00000000000E+00  0.16015525781E+04  0.16015525781E+04  0.25500000920E-02 0. -1.
       -2   -1    0    0    0  501  0.00000000000E+00  0.00000000000E+00 -0.62429190210E+03  0.62429190211E+03  0.25500000920E-02 0.  1.
    10030    2    1    2    0    0  0.00000000000E+00  0.00000000000E+00  0.97726067598E+03  0.22258444802E+04  0.19998362986E+04 0.  0.
        2    1    3    3  502    0 -0.79757066800E+03  0.57228773041E+03  0.70040752661E+03  0.12059033627E+04  0.25500000920E-02 0. -1.
       -2    1    3    3    0  502  0.79757066800E+03 -0.57228773041E+03  0.27685314937E+03  0.10199411175E+04  0.25500000920E-02 0.  1.
</event>
<event>
 5   0  0.9220260E-06  0.2004762E+04  0.7818609E-02  0.8604398E-01
       -1   -1    0    0    0  501  0.00000000000E+00  0.00000000000E+00  0.10589692987E+04  0.10589692987E+04  0.50400001928E-02 0. -1.
        1   -1    0    0  501    0  0.00000000000E+00  0.00000000000E+00 -0.94881650199E+03  0.94881650201E+03  0.50400001928E-02 0.  1.
    10030    2    1    2    0    0  0.00000000000E+00  0.00000000000E+00  0.11015279673E+03  0.20077858007E+04  0.20047618769E+04 0.  0.
        3    1    3    3  502    0  0.87275821323E+02 -0.46184089412E+03  0.94176682996E+03  0.10525392405E+04  0.10100000352E+00 0. -1.
       -3    1    3    3    0  502 -0.87275821323E+02  0.46184089412E+03 -0.83161403323E+03  0.95524656029E+03  0.10100000352E+00 0.  1.
</event>
<event>
 5   0  0.1999142E-05  0.2001457E+04  0.7818609E-02  0.8605940E-01
        2   -1    0    0  501    0  0.00000000000E+00  0.00000000000E+00  0.20217493277E+04  0.20217493277E+04  0.25500000920E-02 0.  1.
       -2   -1    0    0    0  501  0.00000000000E+00  0.00000000000E+00 -0.49534231861E+03  0.49534231862E+03  0.25500000920E-02 0. -1.
    10030    2    1    2    0    0  0.00000000000E+00  0.00000000000E+00  0.15264070091E+04  0.25170916463E+04  0.20014574686E+04 0.  0.
        1    1    3    3  502    0  0.62171564265E+03  0.49266550274E+03 -0.40620920896E+01  0.79326296934E+03  0.50400001928E-02 0. -1.
       -1    1    3    3    0  502 -0.62171564265E+03 -0.49266550274E+03  0.15304691012E+04  0.17238286770E+04  0.50400001928E-02 0.  1.
</event>
<event>
 5   0  0.7132000E-06  0.1997243E+04  0.7818609E-02  0.8607911E-01
       -4   -1    0    0    0  501  0.00000000000E+00  0.00000000000E+00  0.74543642157E+03  0.74543750342E+03  0.12699999809E+01 0. -1.
        4   -1    0    0  501    0  0.00000000000E+00  0.00000000000E+00 -0.13377982901E+04  0.13377988929E+04  0.12699999809E+01 0.  1.
    10030    2    1    2    0    0  0.00000000000E+00  0.00000000000E+00 -0.59236186854E+03  0.20832363964E+04  0.19972434253E+04 0.  0.
        2    1    3    3  502    0  0.37465798198E+03 -0.85033371132E+03  0.85368404423E+02  0.93312581604E+03  0.25500000920E-02 0. -1.
       -2    1    3    3    0  502 -0.37465798198E+03  0.85033371132E+03 -0.67773027297E+03  0.11501105803E+04  0.25500000920E-02 0.  1.
</event>
<event>
 5   0  0.9140695E-06  0.2038204E+04  0.7818609E-02  0.8588964E-01
        1   -1    0    0  501    0  0.00000000000E+00  0.00000000000E+00  0.15799415970E+04  0.15799415971E+04  0.50400001928E-02 0. -1.
       -1   -1    0    0    0  501  0.00000000000E+00  0.00000000000E+00 -0.65734669870E+03  0.65734669871E+03  0.50400001928E-02 0.  1.
    10030    2    1    2    0    0  0.00000000000E+00  0.00000000000E+00  0.92259489835E+03  0.22372882958E+04  0.20382044971E+04 0.  0.
        1    1    3    3  502    0 -0.28686164840E+03 -0.89174225342E+03  0.20753749512E+02  0.93697629105E+03  0.50400001928E-02 0.  1.
       -1    1    3    3    0  502  0.28686164840E+03  0.89174225342E+03  0.90184114884E+03  0.13003120047E+04  0.50400001928E-02 0. -1.
</event>
<event>
 5   0  0.9370269E-06  0.2007388E+04  0.7818609E-02  0.8603174E-01
       -1   -1    0    0    0  501  0.00000000000E+00  0.00000000000E+00  0.58440020767E+03  0.58440020769E+03  0.50400001928E-02 0.  1.
        1   -1    0    0  501    0  0.00000000000E+00  0.00000000000E+00 -0.17238211887E+04  0.17238211887E+04  0.50400001928E-02 0. -1.
    10030    2    1    2    0    0  0.00000000000E+00  0.00000000000E+00 -0.11394209811E+04  0.23082213964E+04  0.20073878158E+04 0.  0.
        4    1    3    3  502    0  0.84970610666E+03 -0.18365108809E+02 -0.11836363417E+04  0.14571665475E+04  0.12699999809E+01 0. -1.
       -4    1    3    3    0  502 -0.84970610666E+03  0.18365108809E+02  0.44215360589E+02  0.85105484896E+03  0.12699999809E+01 0.  1.
</event>
<event>
 5   0  0.9370269E-06  0.2006470E+04  0.7818609E-02  0.8603602E-01
       -1   -1    0    0    0  501  0.00000000000E+00  0.00000000000E+00  0.85586306196E+03  0.85586306198E+03  0.50400001928E-02 0.  1.
        1   -1    0    0  501    0  0.00000000000E+00  0.00000000000E+00 -0.11759828691E+04  0.11759828691E+04  0.50400001928E-02 0. -1.
    10030    2    1    2    0    0  0.00000000000E+00  0.00000000000E+00 -0.32011980713E+03  0.20318459311E+04  0.20064698345E+04 0.  0.
        4    1    3    3  502    0  0.27719469044E+03  0.87707745072E+03  0.24547579817E+03  0.95203032061E+03  0.12699999809E+01 0.  1.
       -4    1    3    3    0  502 -0.27719469044E+03 -0.87707745072E+03 -0.56559560530E+03  0.10798156105E+04  0.12699999809E+01 0. -1.
</event>
<event>
 5   0  0.1979765E-05  0.1998795E+04  0.7818609E-02  0.8607184E-01
       -2   -1    0    0    0  501  0.00000000000E+00  0.00000000000E+00  0.88937872564E+03  0.88937872564E+03  0.25500000920E-02 0.  1.
        2   -1    0    0  501    0  0.00000000000E+00  0.00000000000E+00 -0.11230253687E+04  0.11230253687E+04  0.25500000920E-02 0. -1.
    10030    2    1    2    0    0  0.00000000000E+00  0.00000000000E+00 -0.23364664303E+03  0.20124040943E+04  0.19987945080E+04 0.  0.
        2    1    3    3  502    0  0.90333819164E+03  0.35284646771E+03 -0.35986780886E+03  0.10344203005E+04  0.25500000920E-02 0. -1.
       -2    1    3    3    0  502 -0.90333819164E+03 -0.35284646771E+03  0.12622116583E+03  0.97798379381E+03  0.25500000920E-02 0.  1.
</event>
<event>
 5   0  0.1979765E-05  0.2021505E+04  0.7818609E-02  0.8596632E-01
       -2   -1    0    0    0  501  0.00000000000E+00  0.00000000000E+00  0.13695335684E+04  0.13695335684E+04  0.25500000920E-02 0.  1.
        2   -1    0    0  501    0  0.00000000000E+00  0.00000000000E+00 -0.74596279435E+03  0.74596279435E+03  0.25500000920E-02 0. -1.
    10030    2    1    2    0    0  0.00000000000E+00  0.00000000000E+00  0.62357077405E+03  0.21154963628E+04  0.20215054664E+04 0.  0.
        2    1    3    3  502    0 -0.26675352648E+03  0.67269632335E+03  0.10502459544E+04  0.12754192848E+04  0.25500000920E-02 0.  1.
       -2    1    3    3    0  502  0.26675352648E+03 -0.67269632335E+03 -0.42667518035E+03  0.84007707794E+03  0.25500000920E-02 0. -1.
</event>
<event>
 5   0  0.2003576E-05  0.1999174E+04  0.7818609E-02  0.8607007E-01
        2   -1    0    0  501    0  0.00000000000E+00  0.00000000000E+00  0.11963184369E+04  0.11963184369E+04  0.25500000920E-02 0. -1.
       -2   -1    0    0    0  501  0.00000000000E+00  0.00000000000E+00 -0.83520748981E+03  0.83520748981E+03  0.25500000920E-02 0.  1.
    10030    2    1    2    0    0  0.00000000000E+00  0.00000000000E+00  0.36111094708E+03  0.20315259267E+04  0.19991739481E+04 0.  0.
        4    1    3    3  502    0  0.72311944127E+03  0.64156000694E+03 -0.77865867965E+02  0.96982765229E+03  0.12699999809E+01 0.  1.
       -4    1    3    3    0  502 -0.72311944127E+03 -0.64156000694E+03  0.43897681504E+03  0.10616982744E+04  0.12699999809E+01 0. -1.
</event>
<event>
 5   0  0.2020029E-05  0.1964463E+04  0.7818609E-02  0.8623418E-01
       -2   -1    0    0    0  501  0.00000000000E+00  0.00000000000E+00  0.59076057209E+03  0.59076057210E+03  0.25500000920E-02 0.  1.
        2   -1    0    0  501    0  0.00000000000E+00  0.00000000000E+00 -0.16331123406E+04  0.16331123406E+04  0.25500000920E-02 0. -1.
    10030    2    1    2    0    0  0.00000000000E+00  0.00000000000E+00 -0.10423517685E+04  0.22238729127E+04  0.19644626549E+04 0.  0.
        5    1    3    3  502    0 -0.49731759790E+03  0.21157554109E+03 -0.14496426055E+04  0.15471182167E+04  0.46999998093E+01 0. -1.
       -5    1    3    3    0  502  0.49731759790E+03 -0.21157554109E+03  0.40729083694E+03  0.67675469605E+03  0.46999998093E+01 0.  1.
</event>
<event>
 5   0  0.1979765E-05  0.2000687E+04  0.7818609E-02  0.8606300E-01
        2   -1    0    0  501    0  0.00000000000E+00  0.00000000000E+00  0.16647473917E+04  0.16647473917E+04  0.25500000920E-02 0.  1.
       -2   -1    0    0    0  501  0.00000000000E+00  0.00000000000E+00 -0.60110447220E+03  0.60110447220E+03  0.25500000920E-02 0. -1.
    10030    2    1    2    0    0  0.00000000000E+00  0.00000000000E+00  0.10636429195E+04  0.22658518639E+04  0.20006869842E+04 0.  0.
        2    1    3    3  502    0 -0.78209676193E+03 -0.39416372444E+03 -0.15613094427E+02  0.87594757572E+03  0.25500000920E-02 0. -1.
       -2    1    3    3    0  502  0.78209676193E+03  0.39416372444E+03  0.10792560139E+04  0.13899042882E+04  0.25500000920E-02 0.  1.
</event>
<event>
 5   0  0.1999142E-05  0.2003838E+04  0.7818609E-02  0.8604828E-01
       -2   -1    0    0    0  501  0.00000000000E+00  0.00000000000E+00  0.67196617780E+03  0.67196617780E+03  0.25500000920E-02 0. -1.
        2   -1    0    0  501    0  0.00000000000E+00  0.00000000000E+00 -0.14938878596E+04  0.14938878596E+04  0.25500000920E-02 0.  1.
    10030    2    1    2    0    0  0.00000000000E+00  0.00000000000E+00 -0.82192168179E+03  0.21658540374E+04  0.20038384317E+04 0.  0.
        1    1    3    3  502    0 -0.46708909195E+03 -0.34103009938E+03 -0.12952597220E+04  0.14185103087E+04  0.50400001928E-02 0.  1.
       -1    1    3    3    0  502  0.46708909195E+03  0.34103009938E+03  0.47333804019E+03  0.74734372869E+03  0.50400001928E-02 0. -1.
</event>
<event>
 5   0  0.2003576E-05  0.1941957E+04  0.7818609E-02  0.8634249E-01
       -2   -1    0    0    0  501  0.00000000000E+00  0.00000000000E+00  0.53528647224E+03  0.53528647224E+03  0.25500000920E-02 0.  1.
        2   -1    0    0  501    0  0.00000000000E+00  0.00000000000E+00 -0.17612983533E+04  0.17612983533E+04  0.25500000920E-02 0. -1.
    10030    2    1    2    0    0  0.00000000000E+00  0.00000000000E+00 -0.12260118811E+04  0.22965848255E+04  0.19419569327E+04 0.  0.
        4    1    3    3  502    0 -0.21505957052E+03 -0.25202693117E+03 -0.16923826808E+04  0.17245083196E+04  0.12699999809E+01 0. -1.
       -4    1    3    3    0  502  0.21505957052E+03  0.25202693117E+03  0.46637079978E+03  0.57207650598E+03  0.12699999809E+01 0.  1.
</event>
<event>
 5   0  0.2003576E-05  0.1999672E+04  0.7818609E-02  0.8606774E-01
        2   -1    0    0  501    0  0.00000000000E+00  0.00000000000E+00  0.23352955283E+04  0.23352955283E+04  0.25500000920E-02 0. -1.
       -2   -1    0    0    0  501  0.00000000000E+00  0.00000000000E+00 -0.42807069632E+03  0.42807069632E+03  0.25500000920E-02 0.  1.
    10030    2    1    2    0    0  0.00000000000E+00  0.00000000000E+00  0.19072248319E+04  0.27633662246E+04  0.19996715559E+04 0.  0.
        4    1    3    3  502    0 -0.33713042808E+03  0.37407277889E+03 -0.24002722115E+03  0.55785486396E+03  0.12699999809E+01 0.  1.
       -4    1    3    3    0  502  0.33713042808E+03 -0.37407277889E+03  0.21472520531E+04  0.22055113606E+04  0.12699999809E+01 0. -1.
</event>
<event>
 5   0  0.2020029E-05  0.1999679E+04  0.7818609E-02  0.8606771E-01
       -2   -1    0    0    0  501  0.00000000000E+00  0.00000000000E+00  0.10559468052E+04  0.10559468052E+04  0.25500000920E-02 0. -1.
        2   -1    0    0  501    0  0.00000000000E+00  0.00000000000E+00 -0.94671352315E+03  0.94671352315E+03  0.25500000920E-02 0.  1.
    10030    2    1    2    0    0  0.00000000000E+00  0.00000000000E+00  0.10923328204E+03  0.20026603283E+04  0.19996790945E+04 0.  0.
        5    1    3    3  502    0 -0.13014130471E+03 -0.33320702313E+03 -0.88042048499E+03  0.95032941649E+03  0.46999998093E+01 0.  1.
       -5    1    3    3    0  502  0.13014130471E+03  0.33320702313E+03  0.98965376703E+03  0.10523309119E+04  0.46999998093E+01 0. -1.
</event>
<event>
 5   0  0.9370269E-06  0.1998625E+04  0.7818609E-02  0.8607264E-01
       -1   -1    0    0    0  501  0.00000000000E+00  0.00000000000E+00  0.76761000456E+03  0.76761000457E+03  0.50400001928E-02 0. -1.
        1   -1    0    0  501    0  0.00000000000E+00  0.00000000000E+00 -0.13009537689E+04  0.13009537689E+04  0.50400001928E-02 0.  1.
    10030    2    1    2    0    0  0.00000000000E+00  0.00000000000E+00 -0.53334376431E+03  0.20685637735E+04  0.19986246556E+04 0.  0.
        4    1    3    3  502    0  0.66508993519E+03 -0.22494929302E+03 -0.10026656714E+04  0.12240452883E+04  0.12699999809E+01 0.  1.
       -4    1    3    3    0  502 -0.66508993519E+03  0.22494929302E+03  0.46932190711E+03  0.84451848513E+03  0.12699999809E+01 0. -1.
</event>
<event>
 5   0  0.2020029E-05  0.2011758E+04  0.7818609E-02  0.8601143E-01
       -2   -1    0    0    0  501  0.00000000000E+00  0.00000000000E+00  0.48869561598E+03  0.48869561598E+03  0.25500000920E-02 0.  1.
        2   -1    0    0  501    0  0.00000000000E+00  0.00000000000E+00 -0.20703952134E+04  0.20703952134E+04  0.25500000920E-02 0. -1.
    10030    2    1    2    0    0  0.00000000000E+00  0.00000000000E+00 -0.15816995974E+04  0.25590908294E+04  0.20117584986E+04 0.  0.
        5    1    3    3  502    0  0.75656350171E+03 -0.11366176904E+03  0.39862925583E+02  0.76610604533E+03  0.46999998093E+01 0. -1.
       -5    1    3    3    0  502 -0.75656350171E+03  0.11366176904E+03 -0.16215625230E+04  0.17929847841E+04  0.46999998093E+01 0.  1.
</event>
<event>
 5   0  0.2038882E-05  0.2004108E+04  0.7818609E-02  0.8604702E-01
       -2   -1    0    0    0  501  0.00000000000E+00  0.00000000000E+00  0.84631589864E+03  0.84631589864E+03  0.25500000920E-02 0.  1.
        2   -1    0    0  501    0  0.00000000000E+00  0.00000000000E+00 -0.11864511761E+04  0.11864511761E+04  0.25500000920E-02 0. -1.
    10030    2    1    2    0    0  0.00000000000E+00  0.00000000000E+00 -0.34013527746E+03  0.20327670747E+04  0.20041082738E+04 0.  0.
        3    1    3    3  502    0  0.11316518668E+03 -0.82946110500E+03  0.38853492873E+03  0.92291466844E+03  0.10100000352E+00 0.  1.
       -3    1    3    3    0  502 -0.11316518668E+03  0.82946110500E+03 -0.72867020619E+03  0.11098524063E+04  0.10100000352E+00 0. -1.
</event>
<event>
 5   0  0.7132000E-06  0.1990683E+04  0.7818609E-02  0.8610989E-01
        4   -1    0    0  501    0  0.00000000000E+00  0.00000000000E+00  0.13280810069E+04  0.13280816141E+04  0.12699999809E+01 0.  1.
       -4   -1    0    0    0  501  0.00000000000E+00  0.00000000000E+00 -0.74596560868E+03  0.74596668976E+03  0.12699999809E+01 0. -1.
    10030    2    1    2    0    0  0.00000000000E+00  0.00000000000E+00  0.58211539822E+03  0.20740483039E+04  0.19906828050E+04 0.  0.
        3    1    3    3  502    0 -0.40290340779E+02  0.99036738068E+03  0.38571181090E+03  0.10635903683E+04  0.10100000352E+00 0. -1.
       -3    1    3    3    0  502  0.40290340779E+02 -0.99036738068E+03  0.19640358732E+03  0.10104579356E+04  0.10100000352E+00 0.  1.
</event>
<event>
 5   0  0.9140695E-06  0.2009747E+04  0.7818609E-02  0.8602077E-01
        1   -1    0    0  501    0  0.00000000000E+00  0.00000000000E+00  0.11566904368E+04  0.11566904368E+04  0.50400001928E-02 0.  1.
       -1   -1    0    0    0  501  0.00000000000E+00  0.00000000000E+00 -0.87298271843E+03  0.87298271845E+03  0.50400001928E-02 0. -1.
    10030    2    1    2    0    0  0.00000000000E+00  0.00000000000E+00  0.28370771835E+03  0.20296731552E+04  0.20097470109E+04 0.  0.
        1    1    3    3  502    0 -0.70452033107E+03  0.71488680767E+03  0.19090201175E+03  0.10216925285E+04  0.50400001928E-02 0. -1.
       -1    1    3    3    0  502  0.70452033107E+03 -0.71488680767E+03  0.92805706607E+02  0.10079806267E+04  0.50400001928E-02 0.  1.
</event>
<event>
 5   0  0.9342635E-06  0.1995810E+04  0.7818609E-02  0.8608582E-01
       -1   -1    0    0    0  501  0.00000000000E+00  0.00000000000E+00  0.14110880749E+04  0.14110880749E+04  0.50400001928E-02 0.  1.
        1   -1    0    0  501    0  0.00000000000E+00  0.00000000000E+00 -0.70570689210E+03  0.70570689212E+03  0.50400001928E-02 0. -1.
    10030    2    1    2    0    0  0.00000000000E+00  0.00000000000E+00  0.70538118282E+03  0.21167949671E+04  0.19958101912E+04 0.  0.
        5    1    3    3  502    0 -0.55564808793E+03 -0.22454507188E+03 -0.49356617522E+03  0.77639870315E+03  0.46999998093E+01 0. -1.
       -5    1    3    3    0  502  0.55564808793E+03  0.22454507188E+03  0.11989473580E+04  0.13403962639E+04  0.46999998093E+01 0.  1.
</event>
<event>
 5   0  0.9342635E-06  0.2000206E+04  0.7818609E-02  0.8606524E-01
       -1   -1    0    0    0  501  0.00000000000E+00  0.00000000000E+00  0.55448666131E+03  0.55448666133E+03  0.50400001928E-02 0.  1.
        1   -1    0    0  501    0  0.00000000000E+00  0.00000000000E+00 -0.18038423285E+04  0.18038423285E+04  0.50400001928E-02 0. -1.
    10030    2    1    2    0    0  0.00000000000E+00  0.00000000000E+00 -0.12493556672E+04  0.23583289899E+04  0.20002064996E+04 0.  0.
        5    1    3    3  502    0 -0.91241303485E+03  0.13834768984E+03 -0.17025390452E+03  0.93842746733E+03  0.46999998093E+01 0.  1.
       -5    1    3    3    0  502  0.91241303485E+03 -0.13834768984E+03 -0.10791017627E+04  0.14199015225E+04  0.46999998093E+01 0. -1.
</event>
<event>
 5   0  0.1999142E-05  0.1998939E+04  0.7818609E-02  0.8607117E-01
        2   -1    0    0  501    0  0.00000000000E+00  0.00000000000E+00  0.28907387674E+04  0.28907387674E+04  0.25500000920E-02 0. -1.
       -2   -1    0    0    0  501  0.00000000000E+00  0.00000000000E+00 -0.34556556555E+03  0.34556556556E+03  0.25500000920E-02 0.  1.
    10030    2    1    2    0    0  0.00000000000E+00  0.00000000000E+00  0.25451732018E+04  0.32363043329E+04  0.19989394958E+04 0.  0.
        1    1    3    3  502    0  0.69448164508E+03 -0.61979980048E+03  0.68329512661E+03  0.11547072261E+04  0.50400001928E-02 0.  1.
       -1    1    3    3    0  502 -0.69448164508E+03  0.61979980048E+03  0.18618780752E+04  0.20815971068E+04  0.50400001928E-02 0. -1.
</event>
<event>
 5   0  0.1999142E-05  0.1994804E+04  0.7818609E-02  0.8609054E-01
       -2   -1    0    0    0  501  0.00000000000E+00  0.00000000000E+00  0.54337651697E+03  0.54337651698E+03  0.25500000920E-02 0.  1.
        2   -1    0    0  501    0  0.00000000000E+00  0.00000000000E+00 -0.18307941719E+04  0.18307941719E+04  0.25500000920E-02 0. -1.
    10030    2    1    2    0    0  0.00000000000E+00  0.00000000000E+00 -0.12874176549E+04  0.23741706889E+04  0.19948038103E+04 0.  0.
        1    1    3    3  502    0  0.52263394996E+02 -0.99569939431E+03 -0.61309061969E+03  0.11704823169E+04  0.50400001928E-02 0. -1.
       -1    1    3    3    0  502 -0.52263394996E+02  0.99569939431E+03 -0.67432703526E+03  0.12036883720E+04  0.50400001928E-02 0.  1.
</event>
<event>
 5   0  0.9370269E-06  0.1997963E+04  0.7818609E-02  0.8607574E-01
        1   -1    0    0  501    0  0.00000000000E+00  0.00000000000E+00  0.61364555316E+03  0.61364555318E+03  0.50400001928E-02 0. -1.
       -1   -1    0    0    0  501  0.00000000000E+00  0.00000000000E+00 -0.16262868765E+04  0.16262868765E+04  0.50400001928E-02 0.  1.
    10030    2    1    2    0    0  0.00000000000E+00  0.00000000000E+00 -0.10126413234E+04  0.22399324297E+04  0.19979626723E+04 0.  0.
        4    1    3    3  502    0  0.78474476510E+02  0.62346680043E+03  0.36432149533E+03  0.72636138358E+03  0.12699999809E+01 0. -1.
       -4    1    3    3    0  502 -0.78474476510E+02 -0.62346680043E+03 -0.13769628187E+04  0.15135710461E+04  0.12699999809E+01 0.  1.
</event>
<event>
 5   0  0.1979765E-05  0.1998818E+04  0.7818609E-02  0.8607173E-01
       -2   -1    0    0    0  501  0.00000000000E+00  0.00000000000E+00  0.55803467777E+03  0.55803467777E+03  0.25500000920E-02 0.  1.
        2   -1    0    0  501    0  0.00000000000E+00  0.00000000000E+00 -0.17898857518E+04  0.17898857518E+04  0.25500000920E-02 0. -1.
    10030    2    1    2    0    0  0.00000000000E+00  0.00000000000E+00 -0.12318510740E+04  0.23479204296E+04  0.19988179695E+04 0.  0.
        2    1    3    3  502    0  0.13980183542E+03 -0.31924277111E+03  0.48434252057E+03  0.59669772693E+03  0.25500000920E-02 0.  1.
       -2    1    3    3    0  502 -0.13980183542E+03  0.31924277111E+03 -0.17161935946E+04  0.17512227026E+04  0.25500000920E-02 0. -1.
</event>
<event>
 5   0  0.7132000E-06  0.2047621E+04  0.7818609E-02  0.8584674E-01
        3   -1    0    0  501    0  0.00000000000E+00  0.00000000000E+00  0.19757671543E+04  0.19757671568E+04  0.10100000352E+00 0. -1.
       -3   -1    0    0    0  501  0.00000000000E+00  0.00000000000E+00 -0.53052210187E+03  0.53052211149E+03  0.10100000352E+00 0.  1.
    10030    2    1    2    0    0  0.00000000000E+00  0.00000000000E+00  0.14452450524E+04  0.25062892683E+04  0.20476212138E+04 0.  0.
        4    1    3    3  502    0 -0.74769155165E+03 -0.49862189569E+03  0.12233784971E+03  0.90699206922E+03  0.12699999809E+01 0.  1.
       -4    1    3    3    0  502  0.74769155165E+03  0.49862189569E+03  0.13229072027E+04  0.15992971991E+04  0.12699999809E+01 0. -1.
</event>
<event>
 5   0  0.2020029E-05  0.2004384E+04  0.7818609E-02  0.8604574E-01
       -2   -1    0    0    0  501  0.00000000000E+00  0.00000000000E+00  0.78080032774E+03  0.78080032774E+03  0.25500000920E-02 0. -1.
        2   -1    0    0  501    0  0.00000000000E+00  0.00000000000E+00 -0.12863582761E+04  0.12863582761E+04  0.25500000920E-02 0.  1.
    10030    2    1    2    0    0  0.00000000000E+00  0.00000000000E+00 -0.50555794834E+03  0.20671586038E+04  0.20043841583E+04 0.  0.
        5    1    3    3  502    0 -0.12621660724E+03 -0.38711515273E+03 -0.11971977137E+04  0.12645525806E+04  0.46999998093E+01 0.  1.
       -5    1    3    3    0  502  0.12621660724E+03  0.38711515273E+03  0.69163976538E+03  0.80260602320E+03  0.46999998093E+01 0. -1.
</event>
<event>
 5   0  0.2020029E-05  0.1989001E+04  0.7818609E-02  0.8611781E-01
        2   -1    0    0  501    0  0.00000000000E+00  0.00000000000E+00  0.30134050416E+04  0.30134050416E+04  0.25500000920E-02 0. -1.
       -2   -1    0    0    0  501  0.00000000000E+00  0.00000000000E+00 -0.32821042871E+03  0.32821042872E+03  0.25500000920E-02 0.  1.
    10030    2    1    2    0    0  0.00000000000E+00  0.00000000000E+00  0.26851946129E+04  0.33416154703E+04  0.19890007145E+04 0.  0.
        5    1    3    3  502    0 -0.35020331487E+03 -0.24795254312E+03 -0.16466463274E+03  0.45962958636E+03  0.46999998093E+01 0.  1.
       -5    1    3    3    0  502  0.35020331487E+03  0.24795254312E+03  0.28498592456E+04  0.28819858840E+04  0.46999998093E+01 0. -1.
</event>
<event>
 5   0  0.9140695E-06  0.1995989E+04  0.7818609E-02  0.8608498E-01
       -1   -1    0    0    0  501  0.00000000000E+00  0.00000000000E+00  0.93426986563E+03  0.93426986564E+03  0.50400001928E-02 0. -1.
        1   -1    0    0  501    0  0.00000000000E+00  0.00000000000E+00 -0.10660656349E+04  0.10660656349E+04  0.50400001928E-02 0.  1.
    10030    2    1    2    0    0  0.00000000000E+00  0.00000000000E+00 -0.13179576928E+03  0.20003355006E+04  0.19959889754E+04 0.  0.
        1    1    3    3  502    0 -0.47019480445E+03 -0.85145283978E+03 -0.28985242096E+03  0.10149234052E+04  0.50400001928E-02 0.  1.
       -1    1    3    3    0  502  0.47019480445E+03  0.85145283978E+03  0.15805665168E+03  0.98541209535E+03  0.50400001928E-02 0. -1.
</event>
<event>
 5   0  0.9370269E-06  0.1993210E+04  0.7818609E-02  0.8609802E-01
       -1   -1    0    0    0  501  0.00000000000E+00  0.00000000000E+00  0.94586706547E+03  0.94586706548E+03  0.50400001928E-02 0. -1.
        1   -1    0    0  501    0  0.00000000000E+00  0.00000000000E+00 -0.10500645014E+04  0.10500645014E+04  0.50400001928E-02 0.  1.
    10030    2    1    2    0    0  0.00000000000E+00  0.00000000000E+00 -0.10419743596E+03  0.19959315669E+04  0.19932099022E+04 0.  0.
        4    1    3    3  502    0  0.58677330662E+03 -0.67995186090E+03 -0.48464034788E+03  0.10205465821E+04  0.12699999809E+01 0.  1.
       -4    1    3    3    0  502 -0.58677330662E+03  0.67995186090E+03  0.38044291193E+03  0.97538498484E+03  0.12699999809E+01 0. -1.
</event>
<event>
 5   0  0.2038882E-05  0.1997015E+04  0.7818609E-02  0.8608017E-01
       -2   -1    0    0    0  501  0.00000000000E+00  0.00000000000E+00  0.72229344519E+03  0.72229344519E+03  0.25500000920E-02 0.  1.
        2   -1    0    0  501    0  0.00000000000E+00  0.00000000000E+00 -0.13803497660E+04  0.13803497660E+04  0.25500000920E-02 0. -1.
    10030    2    1    2    0    0  0.00000000000E+00  0.00000000000E+00 -0.65805632077E+03  0.21026432111E+04  0.19970153610E+04 0.  0.
        3    1    3    3  502    0 -0.84341760768E+03  0.29125241963E+03 -0.80087965420E+03  0.11989951891E+04  0.10100000352E+00 0. -1.
       -3    1    3    3    0  502  0.84341760768E+03 -0.29125241963E+03  0.14282333343E+03  0.90364802200E+03  0.10100000352E+00 0.  1.
</event>
<event>
 5   0  0.1999142E-05  0.1998106E+04  0.7818609E-02  0.8607507E-01
       -2   -1    0    0    0  501  0.00000000000E+00  0.00000000000E+00  0.10558956648E+04  0.10558956648E+04  0.25500000920E-02 0. -1.
        2   -1    0    0  501    0  0.00000000000E+00  0.00000000000E+00 -0.94527053283E+03  0.94527053284E+03  0.25500000920E-02 0.  1.
    10030    2    1    2    0    0  0.00000000000E+00  0.00000000000E+00  0.11062513195E+03  0.20011661976E+04  0.19981061610E+04 0.  0.
        1    1    3    3  502    0 -0.43727846904E+03 -0.30139606939E+03  0.90280883045E+03  0.10474329737E+04  0.50400001928E-02 0. -1.
       -1    1    3    3    0  502  0.43727846904E+03  0.30139606939E+03 -0.79218369850E+03  0.95373322388E+03  0.50400001928E-02 0.  1.
</event>
<event>
 5   0  0.2020029E-05  0.2002068E+04  0.7818609E-02  0.8605654E-01
        2   -1    0    0  501    0  0.00000000000E+00  0.00000000000E+00  0.11038049079E+04  0.11038049079E+04  0.25500000920E-02 0.  1.
       -2   -1    0    0    0  501  0.00000000000E+00  0.00000000000E+00 -0.90783189508E+03  0.90783189509E+03  0.25500000920E-02 0. -1.
    10030    2    1    2    0    0  0.00000000000E+00  0.00000000000E+00  0.19597301277E+03  0.20116368029E+04  0.20020682319E+04 0.  0.
        5    1    3    3  502    0 -0.26072343714E+03 -0.92145725070E+03  0.39090516653E+03  0.10343544435E+04  0.46999998093E+01 0.  1.
       -5    1    3    3    0  502  0.26072343714E+03  0.92145725070E+03 -0.19493215376E+03  0.97728235946E+03  0.46999998093E+01 0. -1.
</event>
<event>
 5   0  0.7132000E-06  0.1999524E+04  0.7818609E-02  0.8606843E-01
        4   -1    0    0  501    0  0.00000000000E+00  0.00000000000E+00  0.11631911650E+04  0.11631918583E+04  0.12699999809E+01 0. -1.
       -4   -1    0    0    0  501  0.00000000000E+00  0.00000000000E+00 -0.85929331798E+03  0.85929425649E+03  0.12699999809E+01 0.  1.
    10030    2    1    2    0    0  0.00000000000E+00  0.00000000000E+00  0.30389784699E+03  0.20224861148E+04  0.19995239891E+04 0.  0.
        5    1    3    3  502    0 -0.43849522545E+03  0.10157366614E+03 -0.75099891836E+03  0.87556652389E+03  0.46999998093E+01 0.  1.
       -5    1    3    3    0  502  0.43849522545E+03 -0.10157366614E+03  0.10548967653E+04  0.11469195909E+04  0.46999998093E+01 0. -1.
</event>
<event>
 5   0  0.2038882E-05  0.1992452E+04  0.7818609E-02  0.8610158E-01
       -2   -1    0    0    0  501  0.00000000000E+00  0.00000000000E+00  0.11115804719E+04  0.11115804719E+04  0.25500000920E-02 0.  1.
        2   -1    0    0  501    0  0.00000000000E+00  0.00000000000E+00 -0.89284228430E+03  0.89284228431E+03  0.25500000920E-02 0. -1.
    10030    2    1    2    0    0  0.00000000000E+00  0.00000000000E+00  0.21873818756E+03  0.20044227562E+04  0.19924518039E+04 0.  0.
        3    1    3    3  502    0 -0.40526003677E+03  0.85165389196E+01 -0.80613027737E+03  0.90230497235E+03  0.10100000352E+00 0. -1.
       -3    1    3    3    0  502  0.40526003677E+03 -0.85165389196E+01  0.10248684649E+04  0.11021177838E+04  0.10100000352E+00 0.  1.
</event>
<event>
 5   0  0.2003576E-05  0.1999072E+04  0.7818609E-02  0.8607055E-01
       -2   -1    0    0    0  501  0.00000000000E+00  0.00000000000E+00  0.10755297313E+04  0.10755297313E+04  0.25500000920E-02 0. -1.
        2   -1    0    0  501    0  0.00000000000E+00  0.00000000000E+00 -0.92891150250E+03  0.92891150251E+03  0.25500000920E-02 0.  1.
    10030    2    1    2    0    0  0.00000000000E+00  0.00000000000E+00  0.14661822882E+03  0.20044412338E+04  0.19990717233E+04 0.  0.
        4    1    3    3  502    0 -0.46980887198E+03 -0.27629795429E+03 -0.76680138545E+03  0.94076931995E+03  0.12699999809E+01 0.  1.
       -4    1    3    3    0  502  0.46980887198E+03  0.27629795429E+03  0.91341961428E+03  0.10636719139E+04  0.12699999809E+01 0. -1.
</event>
<event>
 5   0  0.9342635E-06  0.1996630E+04  0.7818609E-02  0.8608198E-01
       -1   -1    0    0    0  501  0.00000000000E+00  0.00000000000E+00  0.42150073435E+03  0.42150073438E+03  0.50400001928E-02 0.  1.
        1   -1    0    0  501    0  0.00000000000E+00  0.00000000000E+00 -0.23644867745E+04  0.23644867745E+04  0.50400001928E-02 0. -1.
    10030    2    1    2    0    0  0.00000000000E+00  0.00000000000E+00 -0.19429860402E+04  0.27859875089E+04  0.19966300728E+04 0.  0.
        5    1    3    3  502    0  0.85440309646E+03 -0.18537101530E+03 -0.16439330849E+04  0.18619627124E+04  0.46999998093E+01 0. -1.
       -5    1    3    3    0  502 -0.85440309646E+03  0.18537101530E+03 -0.29905295523E+03  0.92402479652E+03  0.46999998093E+01 0.  1.
</event>
<event>
 5   0  0.2038882E-05  0.2001392E+04  0.7818609E-02  0.8605970E-01
       -2   -1    0    0    0  501  0.00000000000E+00  0.00000000000E+00  0.99054746625E+03  0.99054746625E+03  0.25500000920E-02 0.  1.
        2   -1    0    0  501    0  0.00000000000E+00  0.00000000000E+00 -0.10109486920E+04  0.10109486920E+04  0.25500000920E-02 0. -1.
    10030    2    1    2    0    0  0.00000000000E+00  0.00000000000E+00 -0.20401225767E+02  0.20014961583E+04  0.20013921809E+04 0.  0.
        3    1    3    3  502    0  0.50327210723E+03 -0.40552641000E+03  0.75381432068E+03  0.99296048430E+03  0.10100000352E+00 0.  1.
       -3    1    3    3    0  502 -0.50327210723E+03  0.40552641000E+03 -0.77421554644E+03  0.10085356740E+04  0.10100000352E+00 0. -1.
</event>
<event>
 5   0  0.2003576E-05  0.1996407E+04  0.7818609E-02  0.8608302E-01
       -2   -1    0    0    0  501  0.00000000000E+00  0.00000000000E+00  0.39856830186E+03  0.39856830186E+03  0.25500000920E-02 0. -1.
        2   -1    0    0  501    0  0.00000000000E+00  0.00000000000E+00 -0.24999733523E+04  0.24999733523E+04  0.25500000920E-02 0.  1.
    10030    2    1    2    0    0  0.00000000000E+00  0.00000000000E+00 -0.21014050505E+04  0.28985416542E+04  0.19964069062E+04 0.  0.
        4    1    3    3  502    0  0.52272963313E+03  0.53647870298E+03 -0.92734133693E+02  0.75475618617E+03  0.12699999809E+01 0. -1.
       -4    1    3    3    0  502 -0.52272963313E+03 -0.53647870298E+03 -0.20086709168E+04  0.21437854680E+04  0.12699999809E+01 0.  1.
</event>
<event>
 5   0  0.1999142E-05  0.1999725E+04  0.7818609E-02  0.8606749E-01
       -2   -1    0    0    0  501  0.00000000000E+00  0.00000000000E+00  0.83680371615E+03  0.83680371615E+03  0.25500000920E-02 0. -1.
        2   -1    0    0  501    0  0.00000000000E+00  0.00000000000E+00 -0.11946951940E+04  0.11946951940E+04  0.25500000920E-02 0.  1.
    10030    2    1    2    0    0  0.00000000000E+00  0.00000000000E+00 -0.35789147790E+03  0.20314989102E+04  0.19997253592E+04 0.  0.
        1    1    3    3  502    0 -0.44045981778E+03  0.89693703705E+03 -0.21449428344E+03  0.10220120827E+04  0.50400001928E-02 0. -1.
       -1    1    3    3    0  502  0.44045981778E+03 -0.89693703705E+03 -0.14339719446E+03  0.10094868275E+04  0.50400001928E-02 0.  1.
</event>
<event>
 5   0  0.9370269E-06  0.1996939E+04  0.7818609E-02  0.8608053E-01
       -1   -1    0    0    0  501  0.00000000000E+00  0.00000000000E+00  0.78678888026E+03  0.78678888027E+03  0.50400001928E-02 0. -1.
        1   -1    0    0  501    0  0.00000000000E+00  0.00000000000E+00 -0.12671011469E+04  0.12671011469E+04  0.50400001928E-02 0.  1.
    10030    2    1    2    0    0  0.00000000000E+00  0.00000000000E+00 -0.48031226665E+03  0.20538900272E+04  0.19969387498E+04 0.  0.
        4    1    3    3  502    0  0.60171326766E+03  0.87312946755E+02 -0.10547389137E+04  0.12174391961E+04  0.12699999809E+01 0.  1.
       -4    1    3    3    0  502 -0.60171326766E+03 -0.87312946755E+02  0.57442664705E+03  0.83645083112E+03  0.12699999809E+01 0. -1.
</event>
<event>
 5   0  0.2038882E-05  0.1998550E+04  0.7818609E-02  0.8607299E-01
       -2   -1    0    0    0  501  0.00000000000E+00  0.00000000000E+00  0.63367046726E+03  0.63367046727E+03  0.25500000920E-02 0.  1.
        2   -1    0    0  501    0  0.00000000000E+00  0.00000000000E+00 -0.15758198175E+04  0.15758198175E+04  0.25500000920E-02 0. -1.
    10030    2    1    2    0    0  0.00000000000E+00  0.00000000000E+00 -0.94214935024E+03  0.22094902848E+04  0.19985499544E+04 0.  0.
        3    1    3    3  502    0 -0.15015162390E+03  0.62815666997E+03 -0.13140670075E+04  0.14642057309E+04  0.10100000352E+00 0. -1.
       -3    1    3    3    0  502  0.15015162390E+03 -0.62815666997E+03  0.37191765724E+03  0.74528455382E+03  0.10100000352E+00 0.  1.
</event>
<event>
 5   0  0.2020029E-05  0.2022940E+04  0.7818609E-02  0.8595970E-01
        2   -1    0    0  501    0  0.00000000000E+00  0.00000000000E+00  0.21017363956E+04  0.21017363956E+04  0.25500000920E-02 0.  1.
       -2   -1    0    0    0  501  0.00000000000E+00  0.00000000000E+00 -0.48677444563E+03  0.48677444564E+03  0.25500000920E-02 0. -1.
    10030    2    1    2    0    0  0.00000000000E+00  0.00000000000E+00  0.16149619500E+04  0.25885108412E+04  0.20229400079E+04 0.  0.
        5    1    3    3  502    0  0.35744123153E+03 -0.93428629380E+03  0.61599526420E+03  0.11747882227E+04  0.46999998093E+01 0. -1.
       -5    1    3    3    0  502 -0.35744123153E+03  0.93428629380E+03  0.99896668578E+03  0.14137226185E+04  0.46999998093E+01 0.  1.
</event>
<event>
 5   0  0.9220260E-06  0.1996029E+04  0.7818609E-02  0.8608479E-01
        1   -1    0    0  501    0  0.00000000000E+00  0.00000000000E+00  0.71422434200E+03  0.71422434202E+03  0.50400001928E-02 0. -1.
       -1   -1    0    0    0  501  0.00000000000E+00  0.00000000000E+00 -0.13945661607E+04  0.13945661607E+04  0.50400001928E-02 0.  1.
    10030    2    1    2    0    0  0.00000000000E+00  0.00000000000E+00 -0.68034181873E+03  0.21087905028E+04  0.19960291567E+04 0.  0.
        3    1    3    3  502    0  0.33585805826E+02 -0.82302593735E+03  0.25516387047E+03  0.86232726438E+03  0.10100000352E+00 0. -1.
       -3    1    3    3    0  502 -0.33585805826E+02  0.82302593735E+03 -0.93550568920E+03  0.12464632384E+04  0.10100000352E+00 0.  1.
</event>
<event>
 5   0  0.7132000E-06  0.1999221E+04  0.7818609E-02  0.8606985E-01
       -3   -1    0    0    0  501  0.00000000000E+00  0.00000000000E+00  0.11751601516E+04  0.11751601559E+04  0.10100000352E+00 0.  1.
        3   -1    0    0  501    0  0.00000000000E+00  0.00000000000E+00 -0.85028505288E+03  0.85028505888E+03  0.10100000352E+00 0. -1.
    10030    2    1    2    0    0  0.00000000000E+00  0.00000000000E+00  0.32487509868E+03  0.20254452148E+04  0.19992209704E+04 0.  0.
        5    1    3    3  502    0 -0.10604759685E+02 -0.88889544801E+03 -0.30067057566E+03  0.93844150776E+03  0.46999998093E+01 0. -1.
       -5    1    3    3    0  502  0.10604759685E+02  0.88889544801E+03  0.62554567434E+03  0.10870037070E+04  0.46999998093E+01 0.  1.
</event>
<event>
 5   0  0.9370269E-06  0.1999976E+04  0.7818609E-02  0.8606632E-01
       -1   -1    0    0    0  501  0.00000000000E+00  0.00000000000E+00  0.98860155582E+03  0.98860155583E+03  0.50400001928E-02 0. -1.
        1   -1    0    0  501    0  0.00000000000E+00  0.00000000000E+00 -0.10115053742E+04  0.10115053743E+04  0.50400001928E-02 0.  1.
    10030    2    1    2    0    0  0.00000000000E+00  0.00000000000E+00 -0.22903818420E+02  0.20001069301E+04  0.19999757866E+04 0.  0.
        4    1    3    3  502    0 -0.31291520557E+02 -0.83989443764E+03 -0.55331060852E+03  0.10062584499E+04  0.12699999809E+01 0.  1.
       -4    1    3    3    0  502  0.31291520557E+02  0.83989443764E+03  0.53040679010E+03  0.99384848016E+03  0.12699999809E+01 0. -1.
</event>
<event>
 5   0  0.2003576E-05  0.2002671E+04  0.7818609E-02  0.8605373E-01
       -2   -1    0    0    0  501  0.00000000000E+00  0.00000000000E+00  0.52746536788E+03  0.52746536789E+03  0.25500000920E-02 0. -1.
        2   -1    0    0  501    0  0.00000000000E+00  0.00000000000E+00 -0.19009267250E+04  0.19009267250E+04  0.25500000920E-02 0.  1.
    10030    2    1    2    0    0  0.00000000000E+00  0.00000000000E+00 -0.13734613572E+04  0.24283920929E+04  0.20026712305E+04 0.  0.
        4    1    3    3  502    0 -0.98144499555E+03  0.13251728701E+03 -0.50738290286E+03  0.11127596927E+04  0.12699999809E+01 0.  1.
       -4    1    3    3    0  502  0.98144499555E+03 -0.13251728701E+03 -0.86607845430E+03  0.13156324002E+04  0.12699999809E+01 0. -1.
</event>
<event>
 5   0  0.9220260E-06  0.1980405E+04  0.7818609E-02  0.8615837E-01
       -1   -1    0    0    0  501  0.00000000000E+00  0.00000000000E+00  0.13130514874E+04  0.13130514874E+04  0.50400001928E-02 0. -1.
        1   -1    0    0  501    0  0.00000000000E+00  0.00000000000E+00 -0.74673495743E+03  0.74673495744E+03  0.50400001928E-02 0.  1.
    10030    2    1    2    0    0  0.00000000000E+00  0.00000000000E+00  0.56631652999E+03  0.20597864449E+04  0.19804054601E+04 0.  0.
        3    1    3    3  502    0  0.64476432827E+02 -0.82775303260E+03  0.84438810618E+03  0.11841974402E+04  0.10100000352E+00 0. -1.
       -3    1    3    3    0  502 -0.64476432827E+02  0.82775303260E+03 -0.27807157620E+03  0.87558900464E+03  0.10100000352E+00 0.  1.
</event>
<event>
 5   0  0.2020029E-05  0.1996433E+04  0.7818609E-02  0.8608290E-01
        2   -1    0    0  501    0  0.00000000000E+00  0.00000000000E+00  0.12066478004E+04  0.12066478004E+04  0.25500000920E-02 0. -1.
       -2   -1    0    0    0  501  0.00000000000E+00  0.00000000000E+00 -0.82578864795E+03  0.82578864795E+03  0.25500000920E-02 0.  1.
    10030    2    1    2    0    0  0.00000000000E+00  0.00000000000E+00  0.38085915248E+03  0.20324364484E+04  0.19964328746E+04 0.  0.
        5    1    3    3  502    0 -0.14522566423E+03 -0.58593046675E+03  0.99975629787E+03  0.11678783115E+04  0.46999998093E+01 0. -1.
       -5    1    3    3    0  502  0.14522566423E+03  0.58593046675E+03 -0.61889714539E+03  0.86455813685E+03  0.46999998093E+01 0.  1.
</event>
<event>
 5   0  0.1979765E-05  0.2000253E+04  0.7818609E-02  0.8606502E-01
        2   -1    0    0  501    0  0.00000000000E+00  0.00000000000E+00  0.26142681269E+04  0.26142681269E+04  0.25500000920E-02 0.  1.
       -2   -1    0    0    0  501  0.00000000000E+00  0.00000000000E+00 -0.38261292813E+03  0.38261292813E+03  0.25500000920E-02 0. -1.
    10030    2    1    2    0    0  0.00000000000E+00  0.00000000000E+00  0.22316551987E+04  0.29968810550E+04  0.20002527670E+04 0.  0.
        2    1    3    3  502    0  0.50056166264E+03 -0.44393898195E+03  0.22295926799E+04  0.23278159970E+04  0.25500000920E-02 0.  1.
       -2    1    3    3    0  502 -0.50056166264E+03  0.44393898195E+03  0.20625188422E+01  0.66906505797E+03  0.25500000920E-02 0. -1.
</event>
<event>
 5   0  0.2020029E-05  0.1994243E+04  0.7818609E-02  0.8609317E-01
       -2   -1    0    0    0  501  0.00000000000E+00  0.00000000000E+00  0.13778651055E+04  0.13778651055E+04  0.25500000920E-02 0.  1.
        2   -1    0    0  501    0  0.00000000000E+00  0.00000000000E+00 -0.72158835476E+03  0.72158835476E+03  0.25500000920E-02 0. -1.
    10030    2    1    2    0    0  0.00000000000E+00  0.00000000000E+00  0.65627675073E+03  0.20994534603E+04  0.19942431292E+04 0.  0.
        5    1    3    3  502    0  0.70154395690E+03 -0.25988923298E+03  0.10220985152E+04  0.12666545708E+04  0.46999998093E+01 0.  1.
       -5    1    3    3    0  502 -0.70154395690E+03  0.25988923298E+03 -0.36582176451E+03  0.83279888945E+03  0.46999998093E+01 0. -1.
</event>
<event>
 5   0  0.9342635E-06  0.1999017E+04  0.7818609E-02  0.8607080E-01
       -1   -1    0    0    0  501  0.00000000000E+00  0.00000000000E+00  0.42795375107E+03  0.42795375110E+03  0.50400001928E-02 0. -1.
        1   -1    0    0  501    0  0.00000000000E+00  0.00000000000E+00 -0.23344045499E+04  0.23344045500E+04  0.50400001928E-02 0.  1.
    10030    2    1    2    0    0  0.00000000000E+00  0.00000000000E+00 -0.19064507989E+04  0.27623583011E+04  0.19990169421E+04 0.  0.
        5    1    3    3  502    0  0.10939977385E+03 -0.66760439438E+03  0.63479804029E+02  0.67949666182E+03  0.46999998093E+01 0. -1.
       -5    1    3    3    0  502 -0.10939977385E+03  0.66760439438E+03 -0.19699306029E+04  0.20828616392E+04  0.46999998093E+01 0.  1.
</event>
<event>
 5   0  0.9370269E-06  0.1993971E+04  0.7818609E-02  0.8609445E-01
        1   -1    0    0  501    0  0.00000000000E+00  0.00000000000E+00  0.68995604140E+03  0.68995604142E+03  0.50400001928E-02 0. -1.
       -1   -1    0    0    0  501  0.00000000000E+00  0.00000000000E+00 -0.14406423073E+04  0.14406423073E+04  0.50400001928E-02 0.  1.
    10030    2    1    2    0    0  0.00000000000E+00  0.00000000000E+00 -0.75068626592E+03  0.21305983487E+04  0.19939707756E+04 0.  0.
        4    1    3    3  502    0  0.19909712049E+03 -0.64260675657E+03  0.41086942271E+03  0.78828827367E+03  0.12699999809E+01 0. -1.
       -4    1    3    3    0  502 -0.19909712049E+03  0.64260675657E+03 -0.11615556886E+04  0.13423100751E+04  0.12699999809E+01 0.  1.
</event>
<event>
 5   0  0.2038882E-05  0.1999020E+04  0.7818609E-02  0.8607079E-01
        2   -1    0    0  501    0  0.00000000000E+00  0.00000000000E+00  0.80398933070E+03  0.80398933070E+03  0.25500000920E-02 0. -1.
       -2   -1    0    0    0  501  0.00000000000E+00  0.00000000000E+00 -0.12425790088E+04  0.12425790088E+04  0.25500000920E-02 0.  1.
    10030    2    1    2    0    0  0.00000000000E+00  0.00000000000E+00 -0.43858967808E+03  0.20465683395E+04  0.19990200255E+04 0.  0.
        3    1    3    3  502    0  0.90548963765E+03  0.40420739862E+03 -0.34767754071E+03  0.10507972152E+04  0.10100000352E+00 0. -1.
       -3    1    3    3    0  502 -0.90548963765E+03 -0.40420739862E+03 -0.90912137370E+02  0.99577112426E+03  0.10100000352E+00 0.  1.
</event>
<event>
 5   0  0.9333353E-06  0.1979110E+04  0.7818609E-02  0.8616450E-01
        1   -1    0    0  501    0  0.00000000000E+00  0.00000000000E+00  0.98871456669E+03  0.98871456671E+03  0.50400001928E-02 0. -1.
       -1   -1    0    0    0  501  0.00000000000E+00  0.00000000000E+00 -0.99039580007E+03  0.99039580008E+03  0.50400001928E-02 0.  1.
    10030    2    1    2    0    0  0.00000000000E+00  0.00000000000E+00 -0.16812333774E+01  0.19791103668E+04  0.19791096527E+04 0.  0.
        2    1    3    3  502    0 -0.28868165299E+03  0.42948816891E+03  0.84261778994E+03  0.98883867438E+03  0.25500000920E-02 0. -1.
       -2    1    3    3    0  502  0.28868165299E+03 -0.42948816891E+03 -0.84429902332E+03  0.99027169241E+03  0.25500000920E-02 0.  1.
</event>
<event>
 5   0  0.2003576E-05  0.2005284E+04  0.7818609E-02  0.8604154E-01
        2   -1    0    0  501    0  0.00000000000E+00  0.00000000000E+00  0.13081700308E+04  0.13081700308E+04  0.25500000920E-02 0. -1.
       -2   -1    0    0    0  501  0.00000000000E+00  0.00000000000E+00 -0.76847089311E+03  0.76847089311E+03  0.25500000920E-02 0.  1.
    10030    2    1    2    0    0  0.00000000000E+00  0.00000000000E+00  0.53969913772E+03  0.20766409239E+04  0.20052836128E+04 0.  0.
        4    1    3    3  502    0  0.19012598591E+03 -0.89894157105E+03  0.68543413996E+03  0.11463269219E+04  0.12699999809E+01 0. -1.
       -4    1    3    3    0  502 -0.19012598591E+03  0.89894157105E+03 -0.14573500224E+03  0.93031400207E+03  0.12699999809E+01 0.  1.
</event>
<event>
 5   0  0.9370269E-06  0.1996610E+04  0.7818609E-02  0.8608207E-01
        1   -1    0    0  501    0  0.00000000000E+00  0.00000000000E+00  0.16581612877E+04  0.16581612877E+04  0.50400001928E-02 0. -1.
       -1   -1    0    0    0  501  0.00000000000E+00  0.00000000000E+00 -0.60103504108E+03  0.60103504110E+03  0.50400001928E-02 0.  1.
    10030    2    1    2    0    0  0.00000000000E+00  0.00000000000E+00  0.10571262466E+04  0.22591963288E+04  0.19966101649E+04 0.  0.
        4    1    3    3  502    0 -0.67135730329E+03  0.41782206196E+03 -0.16093366439E+03  0.80696788126E+03  0.12699999809E+01 0.  1.
       -4    1    3    3    0  502  0.67135730329E+03 -0.41782206196E+03  0.12180599110E+04  0.14522284475E+04  0.12699999809E+01 0. -1.
</event>
<event>
 5   0  0.9140695E-06  0.1997912E+04  0.7818609E-02  0.8607597E-01
       -1   -1    0    0    0  501  0.00000000000E+00  0.00000000000E+00  0.67338325383E+03  0.67338325385E+03  0.50400001928E-02 0. -1.
        1   -1    0    0  501    0  0.00000000000E+00  0.00000000000E+00 -0.14819397538E+04  0.14819397538E+04  0.50400001928E-02 0.  1.
    10030    2    1    2    0    0  0.00000000000E+00  0.00000000000E+00 -0.80855650000E+03  0.21553230077E+04  0.19979123239E+04 0.  0.
        1    1    3    3  502    0 -0.15801229476E+03  0.64453246676E+03 -0.12097818762E+04  0.13798413583E+04  0.50400001928E-02 0.  1.
       -1    1    3    3    0  502  0.15801229476E+03 -0.64453246676E+03  0.40122537622E+03  0.77548164940E+03  0.50400001928E-02 0. -1.
</event>
<event>
 5   0  0.9342635E-06  0.2000847E+04  0.7818609E-02  0.8606225E-01
        1   -1    0    0  501    0  0.00000000000E+00  0.00000000000E+00  0.59543108439E+03  0.59543108441E+03  0.50400001928E-02 0. -1.
       -1   -1    0    0    0  501  0.00000000000E+00  0.00000000000E+00 -0.16808786444E+04  0.16808786444E+04  0.50400001928E-02 0.  1.
    10030    2    1    2    0    0  0.00000000000E+00  0.00000000000E+00 -0.10854475600E+04  0.22763097288E+04  0.20008472145E+04 0.  0.
        5    1    3    3  502    0  0.21786079569E+03 -0.29819307660E+03 -0.16004799687E+04  0.16425409150E+04  0.46999998093E+01 0.  1.
       -5    1    3    3    0  502 -0.21786079569E+03  0.29819307660E+03  0.51503240875E+03  0.63376881376E+03  0.46999998093E+01 0. -1.
</event>
<event>
 5   0  0.9220260E-06  0.2000530E+04  0.7818609E-02  0.8606373E-01
       -1   -1    0    0    0  501  0.00000000000E+00  0.00000000000E+00  0.82347288593E+03  0.82347288594E+03  0.50400001928E-02 0.  1.
        1   -1    0    0  501    0  0.00000000000E+00  0.00000000000E+00 -0.12150129836E+04  0.12150129836E+04  0.50400001928E-02 0. -1.
    10030    2    1    2    0    0  0.00000000000E+00  0.00000000000E+00 -0.39154009763E+03  0.20384858695E+04  0.20005301778E+04 0.  0.
        3    1    3    3  502    0  0.77868259669E+03 -0.58608823528E+03  0.33632919463E+02  0.97518059322E+03  0.10100000352E+00 0. -1.
       -3    1    3    3    0  502 -0.77868259669E+03  0.58608823528E+03 -0.42517301709E+03  0.10633052763E+04  0.10100000352E+00 0.  1.
</event>
<event>
 5   0  0.1979765E-05  0.2000272E+04  0.7818609E-02  0.8606494E-01
        2   -1    0    0  501    0  0.00000000000E+00  0.00000000000E+00  0.76507065061E+03  0.76507065062E+03  0.25500000920E-02 0. -1.
       -2   -1    0    0    0  501  0.00000000000E+00  0.00000000000E+00 -0.13074241401E+04  0.13074241401E+04  0.25500000920E-02 0.  1.
    10030    2    1    2    0    0  0.00000000000E+00  0.00000000000E+00 -0.54235348944E+03  0.20724947907E+04  0.20002718190E+04 0.  0.
        2    1    3    3  502    0 -0.38081284347E+03 -0.54878121278E+03  0.50007401488E+03  0.83441791784E+03  0.25500000920E-02 0. -1.
       -2    1    3    3    0  502  0.38081284347E+03  0.54878121278E+03 -0.10424275043E+04  0.12380768728E+04  0.25500000920E-02 0.  1.
</event>
<event>
 5   0  0.9370269E-06  0.1991520E+04  0.7818609E-02  0.8610596E-01
        1   -1    0    0  501    0  0.00000000000E+00  0.00000000000E+00  0.10228942725E+04  0.10228942725E+04  0.50400001928E-02 0.  1.
       -1   -1    0    0    0  501  0.00000000000E+00  0.00000000000E+00 -0.96934507499E+03  0.96934507500E+03  0.50400001928E-02 0. -1.
    10030    2    1    2    0    0  0.00000000000E+00  0.00000000000E+00  0.53549197496E+02  0.19922393475E+04  0.19915195458E+04 0.  0.
        4    1    3    3  502    0 -0.56008820135E+03  0.82288444774E+03  0.53209606530E+02  0.99683021761E+03  0.12699999809E+01 0. -1.
       -4    1    3    3    0  502  0.56008820135E+03 -0.82288444774E+03  0.33959096636E+00  0.99540912988E+03  0.12699999809E+01 0.  1.
</event>
<event>
 5   0  0.2020029E-05  0.2000304E+04  0.7818609E-02  0.8606478E-01
        2   -1    0    0  501    0  0.00000000000E+00  0.00000000000E+00  0.11858088768E+04  0.11858088768E+04  0.25500000920E-02 0.  1.
       -2   -1    0    0    0  501  0.00000000000E+00  0.00000000000E+00 -0.84356294449E+03  0.84356294449E+03  0.25500000920E-02 0. -1.
    10030    2    1    2    0    0  0.00000000000E+00  0.00000000000E+00  0.34224593233E+03  0.20293718213E+04  0.20003044046E+04 0.  0.
        5    1    3    3  502    0  0.28904176683E+02  0.70484951862E+03  0.89039219992E+03  0.11359879643E+04  0.46999998093E+01 0.  1.
       -5    1    3    3    0  502 -0.28904176683E+02 -0.70484951862E+03 -0.54814626759E+03  0.89338385703E+03  0.46999998093E+01 0. -1.
</event>
<event>
 5   0  0.2003576E-05  0.2000186E+04  0.7818609E-02  0.8606534E-01
        2   -1    0    0  501    0  0.00000000000E+00  0.00000000000E+00  0.17922745046E+04  0.17922745046E+04  0.25500000920E-02 0.  1.
       -2   -1    0    0    0  501  0.00000000000E+00  0.00000000000E+00 -0.55805384901E+03  0.55805384902E+03  0.25500000920E-02 0. -1.
    10030    2    1    2    0    0  0.00000000000E+00  0.00000000000E+00  0.12342206556E+04  0.23503283537E+04  0.20001856772E+04 0.  0.
        4    1    3    3  502    0  0.26522413971E+02  0.99610311001E+03  0.71722632239E+03  0.12277377793E+04  0.12699999809E+01 0. -1.
       -4    1    3    3    0  502 -0.26522413971E+02 -0.99610311001E+03  0.51699433324E+03  0.11225905744E+04  0.12699999809E+01 0.  1.
</event>
<event>
 5   0  0.9140695E-06  0.2000287E+04  0.7818609E-02  0.8606486E-01
       -1   -1    0    0    0  501  0.00000000000E+00  0.00000000000E+00  0.10659274619E+04  0.10659274619E+04  0.50400001928E-02 0.  1.
        1   -1    0    0  501    0  0.00000000000E+00  0.00000000000E+00 -0.93841945829E+03  0.93841945830E+03  0.50400001928E-02 0. -1.
    10030    2    1    2    0    0  0.00000000000E+00  0.00000000000E+00  0.12750800360E+03  0.20043469202E+04  0.20002870508E+04 0.  0.
        1    1    3    3  502    0 -0.83104181128E+03  0.22008868509E+03 -0.44837780056E+03  0.96959381881E+03  0.50400001928E-02 0. -1.
       -1    1    3    3    0  502  0.83104181128E+03 -0.22008868509E+03  0.57588580417E+03  0.10347531014E+04  0.50400001928E-02 0.  1.
</event>
<event>
 5   0  0.2020029E-05  0.1951048E+04  0.7818609E-02  0.8629856E-01
        2   -1    0    0  501    0  0.00000000000E+00  0.00000000000E+00  0.14826422674E+04  0.14826422674E+04  0.25500000920E-02 0. -1.
       -2   -1    0    0    0  501  0.00000000000E+00  0.00000000000E+00 -0.64185882455E+03  0.64185882455E+03  0.25500000920E-02 0.  1.
    10030    2    1    2    0    0  0.00000000000E+00  0.00000000000E+00  0.84078344285E+03  0.21245010920E+04  0.19510479471E+04 0.  0.
        5    1    3    3  502    0  0.38310054519E+03 -0.43570817011E+03 -0.43355874678E+03  0.72429477020E+03  0.46999998093E+01 0.  1.
       -5    1    3    3    0  502 -0.38310054519E+03  0.43570817011E+03  0.12743421896E+04  0.14002063218E+04  0.46999998093E+01 0. -1.
</event>
<event>
 5   0  0.7132000E-06  0.2000265E+04  0.7818609E-02  0.8606497E-01
       -3   -1    0    0    0  501  0.00000000000E+00  0.00000000000E+00  0.77351810807E+03  0.77351811467E+03  0.10100000352E+00 0.  1.
        3   -1    0    0  501    0  0.00000000000E+00  0.00000000000E+00 -0.12931367006E+04  0.12931367045E+04  0.10100000352E+00 0. -1.
    10030    2    1    2    0    0  0.00000000000E+00  0.00000000000E+00 -0.51961859253E+03  0.20666548192E+04  0.20002646475E+04 0.  0.
        3    1    3    3  502    0  0.22042131746E+03  0.13704127340E+03  0.73811535280E+03  0.78241942208E+03  0.10100000352E+00 0.  1.
       -3    1    3    3    0  502 -0.22042131746E+03 -0.13704127340E+03 -0.12577339453E+04  0.12842353971E+04  0.10100000352E+00 0. -1.
</event>
<event>
 5   0  0.1999142E-05  0.1999991E+04  0.7818609E-02  0.8606625E-01
       -2   -1    0    0    0  501  0.00000000000E+00  0.00000000000E+00  0.16819524993E+04  0.16819524993E+04  0.25500000920E-02 0.  1.
        2   -1    0    0  501    0  0.00000000000E+00  0.00000000000E+00 -0.59454162147E+03  0.59454162148E+03  0.25500000920E-02 0. -1.
    10030    2    1    2    0    0  0.00000000000E+00  0.00000000000E+00  0.10874108779E+04  0.22764941208E+04  0.19999907662E+04 0.  0.
        1    1    3    3  502    0 -0.67289187713E+03 -0.50787272075E+02  0.13837232634E+04  0.15394976112E+04  0.50400001928E-02 0.  1.
       -1    1    3    3    0  502  0.67289187713E+03  0.50787272075E+02 -0.29631238552E+03  0.73699650959E+03  0.50400001928E-02 0. -1.
</event>
<event>
 5   0  0.2038882E-05  0.2001741E+04  0.7818609E-02  0.8605807E-01
        2   -1    0    0  501    0  0.00000000000E+00  0.00000000000E+00  0.12083483765E+04  0.12083483765E+04  0.25500000920E-02 0.  1.
       -2   -1    0    0    0  501  0.00000000000E+00  0.00000000000E+00 -0.82901771035E+03  0.82901771035E+03  0.25500000920E-02 0. -1.
    10030    2    1    2    0    0  0.00000000000E+00  0.00000000000E+00  0.37933066613E+03  0.20373660868E+04  0.20017414462E+04 0.  0.
        3    1    3    3  502    0  0.44113714189E+03 -0.59596954739E+03  0.87390987016E+03  0.11460803422E+04  0.10100000352E+00 0.  1.
       -3    1    3    3    0  502 -0.44113714189E+03  0.59596954739E+03 -0.49457920403E+03  0.89128574466E+03  0.10100000352E+00 0. -1.
</event>
<event>
 5   0  0.9140695E-06  0.2014974E+04  0.7818609E-02  0.8599652E-01
        1   -1    0    0  501    0  0.00000000000E+00  0.00000000000E+00  0.96372598675E+03  0.96372598676E+03  0.50400001928E-02 0.  1.
       -1   -1    0    0    0  501  0.00000000000E+00  0.00000000000E+00 -0.10532346154E+04  0.10532346154E+04  0.50400001928E-02 0. -1.
    10030    2    1    2    0    0  0.00000000000E+00  0.00000000000E+00 -0.89508628656E+02  0.20169606022E+04  0.20149735175E+04 0.  0.
        1    1    3    3  502    0 -0.31544363209E+03  0.12055487358E+03 -0.99489605355E+03  0.10506456681E+04  0.50400001928E-02 0. -1.
       -1    1    3    3    0  502  0.31544363209E+03 -0.12055487358E+03  0.90538742490E+03  0.96631493404E+03  0.50400001928E-02 0.  1.
</event>
<event>
 5   0  0.9333353E-06  0.2021611E+04  0.7818609E-02  0.8596583E-01
        1   -1    0    0  501    0  0.00000000000E+00  0.00000000000E+00  0.79374975483E+03  0.79374975484E+03  0.50400001928E-02 0.  1.
       -1   -1    0    0    0  501  0.00000000000E+00  0.00000000000E+00 -0.12872160436E+04  0.12872160436E+04  0.50400001928E-02 0. -1.
    10030    2    1    2    0    0  0.00000000000E+00  0.00000000000E+00 -0.49346628880E+03  0.20809657985E+04  0.20216106639E+04 0.  0.
        2    1    3    3  502    0 -0.30283005141E+03 -0.90232539511E+03  0.10359775090E+03  0.95740777764E+03  0.25500000920E-02 0.  1.
       -2    1    3    3    0  502  0.30283005141E+03  0.90232539511E+03 -0.59706403970E+03  0.11235580208E+04  0.25500000920E-02 0. -1.
</event>
<event>
 5   0  0.1999142E-05  0.1996643E+04  0.7818609E-02  0.8608192E-01
       -2   -1    0    0    0  501  0.00000000000E+00  0.00000000000E+00  0.51263386929E+03  0.51263386930E+03  0.25500000920E-02 0.  1.
        2   -1    0    0  501    0  0.00000000000E+00  0.00000000000E+00 -0.19441661193E+04  0.19441661193E+04  0.25500000920E-02 0. -1.
    10030    2    1    2    0    0  0.00000000000E+00  0.00000000000E+00 -0.14315322500E+04  0.24567999886E+04  0.19966425823E+04 0.  0.
        1    1    3    3  502    0  0.30154061360E+03 -0.62382705072E+03 -0.16001263789E+04  0.17437004786E+04  0.50400001928E-02 0. -1.
       -1    1    3    3    0  502 -0.30154061360E+03  0.62382705072E+03  0.16859412882E+03  0.71309951000E+03  0.50400001928E-02 0.  1.
</event>
<event>
 5   0  0.2038882E-05  0.2003038E+04  0.7818609E-02  0.8605202E-01
       -2   -1    0    0    0  501  0.00000000000E+00  0.00000000000E+00  0.78707118312E+03  0.78707118313E+03  0.25500000920E-02 0.  1.
        2   -1    0    0  501    0  0.00000000000E+00  0.00000000000E+00 -0.12743954419E+04  0.12743954419E+04  0.25500000920E-02 0. -1.
    10030    2    1    2    0    0  0.00000000000E+00  0.00000000000E+00 -0.48732425880E+03  0.20614666251E+04  0.20030376215E+04 0.  0.
        3    1    3    3  502    0 -0.60694992511E+03 -0.51456766868E+03  0.38224921675E+03  0.88276982909E+03  0.10100000352E+00 0.  1.
       -3    1    3    3    0  502  0.60694992511E+03  0.51456766868E+03 -0.86957347554E+03  0.11786967960E+04  0.10100000352E+00 0. -1.
</event>
<event>
 5   0  0.9342635E-06  0.1997972E+04  0.7818609E-02  0.8607570E-01
        1   -1    0    0  501    0  0.00000000000E+00  0.00000000000E+00  0.23938699271E+04  0.23938699271E+04  0.50400001928E-02 0.  1.
       -1   -1    0    0    0  501  0.00000000000E+00  0.00000000000E+00 -0.41688678530E+03  0.41688678533E+03  0.50400001928E-02 0. -1.
    10030    2    1    2    0    0  0.00000000000E+00  0.00000000000E+00  0.19769831418E+04  0.28107567124E+04  0.19979717099E+04 0.  0.
        5    1    3    3  502    0 -0.49562607246E+03 -0.59461137498E+03  0.18768338372E+04  0.20302057120E+04  0.46999998093E+01 0.  1.
       -5    1    3    3    0  502  0.49562607246E+03  0.59461137498E+03  0.10014930462E+03  0.78055100036E+03  0.46999998093E+01 0. -1.
</event>
<event>
 5   0  0.2038882E-05  0.2001906E+04  0.7818609E-02  0.8605730E-01
        2   -1    0    0  501    0  0.00000000000E+00  0.00000000000E+00  0.19581346978E+04  0.19581346978E+04  0.25500000920E-02 0.  1.
       -2   -1    0    0    0  501  0.00000000000E+00  0.00000000000E+00 -0.51166370351E+03  0.51166370352E+03  0.25500000920E-02 0. -1.
    10030    2    1    2    0    0  0.00000000000E+00  0.00000000000E+00  0.14464709943E+04  0.24697984013E+04  0.20019055437E+04 0.  0.
        3    1    3    3  502    0  0.23974466782E+03  0.68626995376E+03  0.15721436608E+04  0.17320738020E+04  0.10100000352E+00 0.  1.
       -3    1    3    3    0  502 -0.23974466782E+03 -0.68626995376E+03 -0.12567266648E+03  0.73772459935E+03  0.10100000352E+00 0. -1.
</event>
<event>
 5   0  0.9370269E-06  0.1976153E+04  0.7818609E-02  0.8617852E-01
        1   -1    0    0  501    0  0.00000000000E+00  0.00000000000E+00  0.96201246189E+03  0.96201246190E+03  0.50400001928E-02 0. -1.
       -1   -1    0    0    0  501  0.00000000000E+00  0.00000000000E+00 -0.10148466155E+04  0.10148466155E+04  0.50400001928E-02 0.  1.
    10030    2    1    2    0    0  0.00000000000E+00  0.00000000000E+00 -0.52834153576E+02  0.19768590774E+04  0.19761529202E+04 0.  0.
        4    1    3    3  502    0 -0.91968351257E+02 -0.36159711028E+03 -0.94166632287E+03  0.10128907761E+04  0.12699999809E+01 0.  1.
       -4    1    3    3    0  502  0.91968351257E+02  0.36159711028E+03  0.88883216929E+03  0.96396830128E+03  0.12699999809E+01 0. -1.
</event>
<event>
 5   0  0.9370269E-06  0.2011710E+04  0.7818609E-02  0.8601165E-01
        1   -1    0    0  501    0  0.00000000000E+00  0.00000000000E+00  0.13764210526E+04  0.13764210527E+04  0.50400001928E-02 0.  1.
       -1   -1    0    0    0  501  0.00000000000E+00  0.00000000000E+00 -0.73505448086E+03  0.73505448087E+03  0.50400001928E-02 0. -1.
    10030    2    1    2    0    0  0.00000000000E+00  0.00000000000E+00  0.64136657179E+03  0.21114755335E+04  0.20117101802E+04 0.  0.
        4    1    3    3  502    0 -0.68483846897E+03  0.73480600521E+03  0.26515146510E+03  0.10388698216E+04  0.12699999809E+01 0.  1.
       -4    1    3    3    0  502  0.68483846897E+03 -0.73480600521E+03  0.37621510669E+03  0.10726057119E+04  0.12699999809E+01 0. -1.
</event>
<event>
 5   0  0.2038882E-05  0.1997862E+04  0.7818609E-02  0.8607621E-01
       -2   -1    0    0    0  501  0.00000000000E+00  0.00000000000E+00  0.35862847203E+03  0.35862847204E+03  0.25500000920E-02 0. -1.
        2   -1    0    0  501    0  0.00000000000E+00  0.00000000000E+00 -0.27824415074E+04  0.27824415074E+04  0.25500000920E-02 0.  1.
    10030    2    1    2    0    0  0.00000000000E+00  0.00000000000E+00 -0.24238130354E+04  0.31410699795E+04  0.19978616032E+04 0.  0.
        3    1    3    3  502    0 -0.29735139438E+03 -0.88664974702E+01  0.28736963233E+03  0.41361550056E+03  0.10100000352E+00 0. -1.
       -3    1    3    3    0  502  0.29735139438E+03  0.88664974702E+01 -0.27111826677E+04  0.27274544789E+04  0.10100000352E+00 0.  1.
</event>
<event>
 5   0  0.9220260E-06  0.2002550E+04  0.7818609E-02  0.8605430E-01
       -1   -1    0    0    0  501  0.00000000000E+00  0.00000000000E+00  0.88614072193E+03  0.88614072195E+03  0.50400001928E-02 0.  1.
        1   -1    0    0  501    0  0.00000000000E+00  0.00000000000E+00 -0.11313678600E+04  0.11313678600E+04  0.50400001928E-02 0. -1.
    10030    2    1    2    0    0  0.00000000000E+00  0.00000000000E+00 -0.24522713804E+03  0.20175085819E+04  0.20025495072E+04 0.  0.
        3    1    3    3  502    0 -0.27263592080E+03 -0.80873432094E+02  0.84459976120E+03  0.89119000451E+03  0.10100000352E+00 0.  1.
       -3    1    3    3    0  502  0.27263592080E+03  0.80873432094E+02 -0.10898268992E+04  0.11263185774E+04  0.10100000352E+00 0. -1.
</event>
<event>
 5   0  0.9140695E-06  0.1997842E+04  0.7818609E-02  0.8607630E-01
        1   -1    0    0  501    0  0.00000000000E+00  0.00000000000E+00  0.12767498087E+04  0.12767498087E+04  0.50400001928E-02 0. -1.
       -1   -1    0    0    0  501  0.00000000000E+00  0.00000000000E+00 -0.78154957557E+03  0.78154957558E+03  0.50400001928E-02 0.  1.
    10030    2    1    2    0    0  0.00000000000E+00  0.00000000000E+00  0.49520023312E+03  0.20582993843E+04  0.19978421070E+04 0.  0.
        1    1    3    3  502    0  0.86374205175E+03  0.19275508429E+03 -0.22971051719E+03  0.91431492179E+03  0.50400001928E-02 0.  1.
       -1    1    3    3    0  502 -0.86374205175E+03 -0.19275508429E+03  0.72491075031E+03  0.11439844625E+04  0.50400001928E-02 0. -1.
</event>
<event>
 5   0  0.9370269E-06  0.1999027E+04  0.7818609E-02  0.8607076E-01
        1   -1    0    0  501    0  0.00000000000E+00  0.00000000000E+00  0.14765374169E+04  0.14765374169E+04  0.50400001928E-02 0. -1.
       -1   -1    0    0    0  501  0.00000000000E+00  0.00000000000E+00 -0.67660103017E+03  0.67660103019E+03  0.50400001928E-02 0.  1.
    10030    2    1    2    0    0  0.00000000000E+00  0.00000000000E+00  0.79993638670E+03  0.21531384471E+04  0.19990265004E+04 0.  0.
        4    1    3    3  502    0  0.22630457911E+03 -0.21385841564E+03 -0.62303020610E+03  0.69650372223E+03  0.12699999809E+01 0.  1.
       -4    1    3    3    0  502 -0.22630457911E+03  0.21385841564E+03  0.14229665928E+04  0.14566347248E+04  0.12699999809E+01 0. -1.
</event>
<event>
 5   0  0.1979765E-05  0.1996428E+04  0.7818609E-02  0.8608292E-01
       -2   -1    0    0    0  501  0.00000000000E+00  0.00000000000E+00  0.57957575541E+03  0.57957575542E+03  0.25500000920E-02 0. -1.
        2   -1    0    0  501    0  0.00000000000E+00  0.00000000000E+00 -0.17192425291E+04  0.17192425291E+04  0.25500000920E-02 0.  1.
    10030    2    1    2    0    0  0.00000000000E+00  0.00000000000E+00 -0.11396667737E+04  0.22988182846E+04  0.19964280980E+04 0.  0.
        2    1    3    3  502    0  0.23039896038E+02  0.68019383004E+03  0.27100209087E+03  0.73255485563E+03  0.25500000920E-02 0. -1.
       -2    1    3    3    0  502 -0.23039896038E+02 -0.68019383004E+03 -0.14106688646E+04  0.15662634289E+04  0.25500000920E-02 0.  1.
</event>
<event>
 5   0  0.1979765E-05  0.2001219E+04  0.7818609E-02  0.8606051E-01
        2   -1    0    0  501    0  0.00000000000E+00  0.00000000000E+00  0.95760904823E+03  0.95760904823E+03  0.25500000920E-02 0.  1.
       -2   -1    0    0    0  501  0.00000000000E+00  0.00000000000E+00 -0.10455406442E+04  0.10455406442E+04  0.25500000920E-02 0. -1.
    10030    2    1    2    0    0  0.00000000000E+00  0.00000000000E+00 -0.87931596005E+02  0.20031496925E+04  0.20012188098E+04 0.  0.
        2    1    3    3  502    0 -0.28294349728E+03  0.16511591984E+03 -0.99034029385E+03  0.10431175328E+04  0.25500000920E-02 0. -1.
       -2    1    3    3    0  502  0.28294349728E+03 -0.16511591984E+03  0.90240869784E+03  0.96003215966E+03  0.25500000920E-02 0.  1.
</event>
<event>
 5   0  0.1979765E-05  0.2002918E+04  0.7818609E-02  0.8605257E-01
       -2   -1    0    0    0  501  0.00000000000E+00  0.00000000000E+00  0.11402031058E+04  0.11402031058E+04  0.25500000920E-02 0.  1.
        2   -1    0    0  501    0  0.00000000000E+00  0.00000000000E+00 -0.87959801490E+03  0.87959801491E+03  0.25500000920E-02 0. -1.
    10030    2    1    2    0    0  0.00000000000E+00  0.00000000000E+00  0.26060509088E+03  0.20198011207E+04  0.20029182594E+04 0.  0.
        2    1    3    3  502    0  0.90070344697E+03 -0.17781197800E+03 -0.27311522694E+03  0.95784953208E+03  0.25500000920E-02 0. -1.
       -2    1    3    3    0  502 -0.90070344697E+03  0.17781197800E+03  0.53372031783E+03  0.10619515886E+04  0.25500000920E-02 0.  1.
</event>
<event>
 5   0  0.9333353E-06  0.1995585E+04  0.7818609E-02  0.8608688E-01
       -1   -1    0    0    0  501  0.00000000000E+00  0.00000000000E+00  0.89964012849E+03  0.89964012851E+03  0.50400001928E-02 0.  1.
        1   -1    0    0  501    0  0.00000000000E+00  0.00000000000E+00 -0.11066531159E+04  0.11066531159E+04  0.50400001928E-02 0. -1.
    10030    2    1    2    0    0  0.00000000000E+00  0.00000000000E+00 -0.20701298739E+03  0.20062932444E+04  0.19955846776E+04 0.  0.
        2    1    3    3  502    0  0.68445796105E+03 -0.13033867221E+03 -0.82156505454E+03  0.10772372110E+04  0.25500000920E-02 0. -1.
       -2    1    3    3    0  502 -0.68445796105E+03  0.13033867221E+03  0.61455206716E+03  0.92905603339E+03  0.25500000920E-02 0.  1.
</event>
<event>
 5   0  0.9370269E-06  0.1999678E+04  0.7818609E-02  0.8606771E-01
        1   -1    0    0  501    0  0.00000000000E+00  0.00000000000E+00  0.16884717508E+04  0.16884717508E+04  0.50400001928E-02 0. -1.
       -1   -1    0    0    0  501  0.00000000000E+00  0.00000000000E+00 -0.59206060622E+03  0.59206060624E+03  0.50400001928E-02 0.  1.
    10030    2    1    2    0    0  0.00000000000E+00  0.00000000000E+00  0.10964111446E+04  0.22805323570E+04  0.19996775824E+04 0.  0.
        4    1    3    3  502    0 -0.12596862836E+03  0.15518166611E+03 -0.56904353276E+03  0.60312652064E+03  0.12699999809E+01 0.  1.
       -4    1    3    3    0  502  0.12596862836E+03 -0.15518166611E+03  0.16654546773E+04  0.16774058364E+04  0.12699999809E+01 0. -1.
</event>
<event>
 5   0  0.9220260E-06  0.2000792E+04  0.7818609E-02  0.8606251E-01
        1   -1    0    0  501    0  0.00000000000E+00  0.00000000000E+00  0.16221129650E+04  0.16221129650E+04  0.50400001928E-02 0. -1.
       -1   -1    0    0    0  501  0.00000000000E+00  0.00000000000E+00 -0.61696815106E+03  0.61696815108E+03  0.50400001928E-02 0.  1.
    10030    2    1    2    0    0  0.00000000000E+00  0.00000000000E+00  0.10051448140E+04  0.22390811161E+04  0.20007918801E+04 0.  0.
        3    1    3    3  502    0 -0.84486718976E+03  0.46588822254E+03  0.79853004512E+03  0.12523987573E+04  0.10100000352E+00 0. -1.
       -3    1    3    3    0  502  0.84486718976E+03 -0.46588822254E+03  0.20661476886E+03  0.98668235879E+03  0.10100000352E+00 0.  1.
</event>
<event>
 5   0  0.2020029E-05  0.2000655E+04  0.7818609E-02  0.8606314E-01
        2   -1    0    0  501    0  0.00000000000E+00  0.00000000000E+00  0.14347945832E+04  0.14347945832E+04  0.25500000920E-02 0.  1.
       -2   -1    0    0    0  501  0.00000000000E+00  0.00000000000E+00 -0.69742073990E+03  0.69742073990E+03  0.25500000920E-02 0. -1.
    10030    2    1    2    0    0  0.00000000000E+00  0.00000000000E+00  0.73737384329E+03  0.21322153231E+04  0.20006553924E+04 0.  0.
        5    1    3    3  502    0  0.54094325947E+03  0.39049194029E+03 -0.42566411875E+03  0.79140103449E+03  0.46999998093E+01 0. -1.
       -5    1    3    3    0  502 -0.54094325947E+03 -0.39049194029E+03  0.11630379620E+04  0.13408142886E+04  0.46999998093E+01 0.  1.
</event>
<event>
 5   0  0.9370269E-06  0.2027925E+04  0.7818609E-02  0.8593675E-01
       -1   -1    0    0    0  501  0.00000000000E+00  0.00000000000E+00  0.30528963642E+03  0.30528963646E+03  0.50400001928E-02 0.  1.
        1   -1    0    0  501    0  0.00000000000E+00  0.00000000000E+00 -0.33676881924E+04  0.33676881924E+04  0.50400001928E-02 0. -1.
    10030    2    1    2    0    0  0.00000000000E+00  0.00000000000E+00 -0.30623985560E+04  0.36729778288E+04  0.20279253476E+04 0.  0.
        4    1    3    3  502    0 -0.25893515179E+03 -0.24468856690E+03 -0.32505981662E+04  0.32700626842E+04  0.12699999809E+01 0. -1.
       -4    1    3    3    0  502  0.25893515179E+03  0.24468856690E+03  0.18819961022E+03  0.40291514465E+03  0.12699999809E+01 0.  1.
</event>
<event>
 5   0  0.2020029E-05  0.2000510E+04  0.7818609E-02  0.8606382E-01
       -2   -1    0    0    0  501  0.00000000000E+00  0.00000000000E+00  0.10230880068E+04  0.10230880068E+04  0.25500000920E-02 0. -1.
        2   -1    0    0  501    0  0.00000000000E+00  0.00000000000E+00 -0.97793166719E+03  0.97793166719E+03  0.25500000920E-02 0.  1.
    10030    2    1    2    0    0  0.00000000000E+00  0.00000000000E+00  0.45156339635E+02  0.20010196740E+04  0.20005100952E+04 0.  0.
        5    1    3    3  502    0 -0.51286981575E+03 -0.40756289380E+03 -0.73348810911E+03  0.98344794296E+03  0.46999998093E+01 0.  1.
       -5    1    3    3    0  502  0.51286981575E+03  0.40756289380E+03  0.77864444874E+03  0.10175717311E+04  0.46999998093E+01 0. -1.
</event>
<event>
 5   0  0.9370269E-06  0.1997857E+04  0.7818609E-02  0.8607623E-01
       -1   -1    0    0    0  501  0.00000000000E+00  0.00000000000E+00  0.11345579076E+04  0.11345579076E+04  0.50400001928E-02 0.  1.
        1   -1    0    0  501    0  0.00000000000E+00  0.00000000000E+00 -0.87951249827E+03  0.87951249828E+03  0.50400001928E-02 0. -1.
    10030    2    1    2    0    0  0.00000000000E+00  0.00000000000E+00  0.25504540931E+03  0.20140704059E+04  0.19978567113E+04 0.  0.
        4    1    3    3  502    0 -0.23744301016E+03 -0.38600536037E+03 -0.76991357877E+03  0.89339120937E+03  0.12699999809E+01 0. -1.
       -4    1    3    3    0  502  0.23744301016E+03  0.38600536037E+03  0.10249589881E+04  0.11206791965E+04  0.12699999809E+01 0.  1.
</event>
<event>
 5   0  0.9342635E-06  0.1999470E+04  0.7818609E-02  0.8606869E-01
       -1   -1    0    0    0  501  0.00000000000E+00  0.00000000000E+00  0.64356271508E+03  0.64356271510E+03  0.50400001928E-02 0.  1.
        1   -1    0    0  501    0  0.00000000000E+00  0.00000000000E+00 -0.15530265560E+04  0.15530265560E+04  0.50400001928E-02 0. -1.
    10030    2    1    2    0    0  0.00000000000E+00  0.00000000000E+00 -0.90946384089E+03  0.21965892711E+04  0.19994699167E+04 0.  0.
        5    1    3    3  502    0 -0.22731186799E+03 -0.23112571016E+03  0.58420626887E+03  0.66813833433E+03  0.46999998093E+01 0.  1.
       -5    1    3    3    0  502  0.22731186799E+03  0.23112571016E+03 -0.14936701098E+04  0.15284509367E+04  0.46999998093E+01 0. -1.
</event>
<event>
 5   0  0.9220260E-06  0.1997201E+04  0.7818609E-02  0.8607931E-01
        1   -1    0    0  501    0  0.00000000000E+00  0.00000000000E+00  0.11554248815E+04  0.11554248815E+04  0.50400001928E-02 0. -1.
       -1   -1    0    0    0  501  0.00000000000E+00  0.00000000000E+00 -0.86306136216E+03  0.86306136218E+03  0.50400001928E-02 0.  1.
    10030    2    1    2    0    0  0.00000000000E+00  0.00000000000E+00  0.29236351935E+03  0.20184862437E+04  0.19972006130E+04 0.  0.
        3    1    3    3  502    0 -0.96761343258E+03  0.10637664257E+03  0.37129046622E+03  0.10418485329E+04  0.10100000352E+00 0. -1.
       -3    1    3    3    0  502  0.96761343258E+03 -0.10637664257E+03 -0.78926946873E+02  0.97663771079E+03  0.10100000352E+00 0.  1.
</event>
<event>
 5   0  0.9140695E-06  0.2002244E+04  0.7818609E-02  0.8605572E-01
        1   -1    0    0  501    0  0.00000000000E+00  0.00000000000E+00  0.12909997468E+04  0.12909997468E+04  0.50400001928E-02 0. -1.
       -1   -1    0    0    0  501  0.00000000000E+00  0.00000000000E+00 -0.77633258525E+03  0.77633258526E+03  0.50400001928E-02 0.  1.
    10030    2    1    2    0    0  0.00000000000E+00  0.00000000000E+00  0.51466716158E+03  0.20673323321E+04  0.20022439122E+04 0.  0.
        1    1    3    3  502    0 -0.97174966248E+02 -0.26865504299E+03  0.12480174456E+04  0.12802992036E+04  0.50400001928E-02 0. -1.
       -1    1    3    3    0  502  0.97174966248E+02  0.26865504299E+03 -0.73335028404E+03  0.78703312848E+03  0.50400001928E-02 0.  1.
</event>
<event>
 5   0  0.2003576E-05  0.2003164E+04  0.7818609E-02  0.8605143E-01
        2   -1    0    0  501    0  0.00000000000E+00  0.00000000000E+00  0.12307312696E+04  0.12307312696E+04  0.25500000920E-02 0. -1.
       -2   -1    0    0    0  501  0.00000000000E+00  0.00000000000E+00 -0.81509788680E+03  0.81509788681E+03  0.25500000920E-02 0.  1.
    10030    2    1    2    0    0  0.00000000000E+00  0.00000000000E+00  0.41563338276E+03  0.20458291564E+04  0.20031639544E+04 0.  0.
        4    1    3    3  502    0 -0.25635262606E+03  0.59431172558E+03  0.98845374301E+03  0.11815098438E+04  0.12699999809E+01 0. -1.
       -4    1    3    3    0  502  0.25635262606E+03 -0.59431172558E+03 -0.57282036025E+03  0.86431931256E+03  0.12699999809E+01 0.  1.
</event>
<event>
 5   0  0.1979765E-05  0.1997306E+04  0.7818609E-02  0.8607881E-01
        2   -1    0    0  501    0  0.00000000000E+00  0.00000000000E+00  0.83280611627E+03  0.83280611627E+03  0.25500000920E-02 0. -1.
       -2   -1    0    0    0  501  0.00000000000E+00  0.00000000000E+00 -0.11975264410E+04  0.11975264410E+04  0.25500000920E-02 0.  1.
    10030    2    1    2    0    0  0.00000000000E+00  0.00000000000E+00 -0.36472032478E+03  0.20303325573E+04  0.19973055295E+04 0.  0.
        2    1    3    3  502    0 -0.87248479911E+03  0.19208936328E+03 -0.63603508240E+03  0.10966625161E+04  0.25500000920E-02 0.  1.
       -2    1    3    3    0  502  0.87248479911E+03 -0.19208936328E+03  0.27131475763E+03  0.93367004122E+03  0.25500000920E-02 0. -1.
</event>
<event>
 5   0  0.9220260E-06  0.2002100E+04  0.7818609E-02  0.8605639E-01
        1   -1    0    0  501    0  0.00000000000E+00  0.00000000000E+00  0.68068446920E+03  0.68068446922E+03  0.50400001928E-02 0.  1.
       -1   -1    0    0    0  501  0.00000000000E+00  0.00000000000E+00 -0.14721963796E+04  0.14721963796E+04  0.50400001928E-02 0. -1.
    10030    2    1    2    0    0  0.00000000000E+00  0.00000000000E+00 -0.79151191037E+03  0.21528808488E+04  0.20021001086E+04 0.  0.
        3    1    3    3  502    0  0.19017132434E+03  0.46090380372E+03  0.53766364247E+03  0.73326642602E+03  0.10100000352E+00 0.  1.
       -3    1    3    3    0  502 -0.19017132434E+03 -0.46090380372E+03 -0.13291755528E+04  0.14196144228E+04  0.10100000352E+00 0. -1.
</event>
<event>
 5   0  0.2038882E-05  0.2001435E+04  0.7818609E-02  0.8605950E-01
        2   -1    0    0  501    0  0.00000000000E+00  0.00000000000E+00  0.14048284097E+04  0.14048284097E+04  0.25500000920E-02 0. -1.
       -2   -1    0    0    0  501  0.00000000000E+00  0.00000000000E+00 -0.71285290013E+03  0.71285290013E+03  0.25500000920E-02 0.  1.
    10030    2    1    2    0    0  0.00000000000E+00  0.00000000000E+00  0.69197550960E+03  0.21176813099E+04  0.20014354909E+04 0.  0.
        3    1    3    3  502    0 -0.36169238926E+03 -0.78340197053E+02 -0.63778736583E+03  0.73738138377E+03  0.10100000352E+00 0.  1.
       -3    1    3    3    0  502  0.36169238926E+03  0.78340197053E+02  0.13297628754E+04  0.13802999261E+04  0.10100000352E+00 0. -1.
</event>
<event>
 5   0  0.9140695E-06  0.2000001E+04  0.7818609E-02  0.8606620E-01
       -1   -1    0    0    0  501  0.00000000000E+00  0.00000000000E+00  0.13445236363E+04  0.13445236363E+04  0.50400001928E-02 0.  1.
        1   -1    0    0  501    0  0.00000000000E+00  0.00000000000E+00 -0.74375879891E+03  0.74375879892E+03  0.50400001928E-02 0. -1.
    10030    2    1    2    0    0  0.00000000000E+00  0.00000000000E+00  0.60076483742E+03  0.20882824353E+04  0.20000012849E+04 0.  0.
        1    1    3    3  502    0  0.21366135960E+03  0.54550932460E+03  0.11465677845E+04  0.12875749626E+04  0.50400001928E-02 0.  1.
       -1    1    3    3    0  502 -0.21366135960E+03 -0.54550932460E+03 -0.54580294704E+03  0.80070747270E+03  0.50400001928E-02 0. -1.
</event>
<event>
 5   0  0.9370269E-06  0.2001945E+04  0.7818609E-02  0.8605712E-01
        1   -1    0    0  501    0  0.00000000000E+00  0.00000000000E+00  0.17303051091E+04  0.17303051091E+04  0.50400001928E-02 0. -1.
       -1   -1    0    0    0  501  0.00000000000E+00  0.00000000000E+00 -0.57905711744E+03  0.57905711746E+03  0.50400001928E-02 0.  1.
    10030    2    1    2    0    0  0.00000000000E+00  0.00000000000E+00  0.11512479917E+04  0.23093622266E+04  0.20019445435E+04 0.  0.
        4    1    3    3  502    0  0.12852873583E+03  0.20057615911E+03  0.16971268045E+04  0.17137652800E+04  0.12699999809E+01 0. -1.
       -4    1    3    3    0  502 -0.12852873583E+03 -0.20057615911E+03 -0.54587881284E+03  0.59559694655E+03  0.12699999809E+01 0.  1.
</event>
<event>
 5   0  0.9342635E-06  0.1998405E+04  0.7818609E-02  0.8607367E-01
        1   -1    0    0  501    0  0.00000000000E+00  0.00000000000E+00  0.24167849285E+04  0.24167849285E+04  0.50400001928E-02 0. -1.
       -1   -1    0    0    0  501  0.00000000000E+00  0.00000000000E+00 -0.41311330399E+03  0.41311330402E+03  0.50400001928E-02 0.  1.
    10030    2    1    2    0    0  0.00000000000E+00  0.00000000000E+00  0.20036716245E+04  0.28298982325E+04  0.19984053712E+04 0.  0.
        5    1    3    3  502    0 -0.62731690674E+03 -0.37675618800E+03  0.19653021340E+04  0.20971185695E+04  0.46999998093E+01 0. -1.
       -5    1    3    3    0  502  0.62731690674E+03  0.37675618800E+03  0.38369490474E+02  0.73277966298E+03  0.46999998093E+01 0.  1.
</event>
<event>
 5   0  0.2038882E-05  0.1999168E+04  0.7818609E-02  0.8607010E-01
        2   -1    0    0  501    0  0.00000000000E+00  0.00000000000E+00  0.13494813738E+04  0.13494813738E+04  0.25500000920E-02 0.  1.
       -2   -1    0    0    0  501  0.00000000000E+00  0.00000000000E+00 -0.74040921655E+03  0.74040921656E+03  0.25500000920E-02 0. -1.
    10030    2    1    2    0    0  0.00000000000E+00  0.00000000000E+00  0.60907215725E+03  0.20898905904E+04  0.19991682738E+04 0.  0.
        3    1    3    3  502    0 -0.79934721280E+03  0.30039871230E+03  0.84770439989E+03  0.12032448266E+04  0.10100000352E+00 0.  1.
       -3    1    3    3    0  502  0.79934721280E+03 -0.30039871230E+03 -0.23863224264E+03  0.88664576376E+03  0.10100000352E+00 0. -1.
</event>
<event>
 5   0  0.9140695E-06  0.1999795E+04  0.7818609E-02  0.8606716E-01
       -1   -1    0    0    0  501  0.00000000000E+00  0.00000000000E+00  0.89800560838E+03  0.89800560840E+03  0.50400001928E-02 0.  1.
        1   -1    0    0  501    0  0.00000000000E+00  0.00000000000E+00 -0.11133509225E+04  0.11133509225E+04  0.50400001928E-02 0. -1.
    10030    2    1    2    0    0  0.00000000000E+00  0.00000000000E+00 -0.21534531411E+03  0.20113565309E+04  0.19997953621E+04 0.  0.
        1    1    3    3  502    0  0.60820031973E+03  0.70607392266E+03 -0.47218662606E+03  0.10447048497E+04  0.50400001928E-02 0. -1.
       -1    1    3    3    0  502 -0.60820031973E+03 -0.70607392266E+03  0.25684131195E+03  0.96665168118E+03  0.50400001928E-02 0.  1.
</event>
<event>
 5   0  0.1999142E-05  0.2001608E+04  0.7818609E-02  0.8605869E-01
       -2   -1    0    0    0  501  0.00000000000E+00  0.00000000000E+00  0.80511992529E+03  0.80511992529E+03  0.25500000920E-02 0. -1.
        2   -1    0    0  501    0  0.00000000000E+00  0.00000000000E+00 -0.12440487874E+04  0.12440487874E+04  0.25500000920E-02 0.  1.
    10030    2    1    2    0    0  0.00000000000E+00  0.00000000000E+00 -0.43892886209E+03  0.20491687127E+04  0.20016078205E+04 0.  0.
        1    1    3    3  502    0 -0.34067709816E+03  0.83775551247E+03  0.21933798087E+03  0.93059353843E+03  0.50400001928E-02 0. -1.
       -1    1    3    3    0  502  0.34067709816E+03 -0.83775551247E+03 -0.65826684296E+03  0.11185751742E+04  0.50400001928E-02 0.  1.
</event>
<event>
 5   0  0.9370269E-06  0.2001260E+04  0.7818609E-02  0.8606032E-01
       -1   -1    0    0    0  501  0.00000000000E+00  0.00000000000E+00  0.86664462542E+03  0.86664462543E+03  0.50400001928E-02 0. -1.
        1   -1    0    0  501    0  0.00000000000E+00  0.00000000000E+00 -0.11553293705E+04  0.11553293705E+04  0.50400001928E-02 0.  1.
    10030    2    1    2    0    0  0.00000000000E+00  0.00000000000E+00 -0.28868474508E+03  0.20219739959E+04  0.20012595929E+04 0.  0.
        4    1    3    3  502    0  0.30019250765E+03  0.33462817119E+03  0.75887204634E+03  0.88203171724E+03  0.12699999809E+01 0. -1.
       -4    1    3    3    0  502 -0.30019250765E+03 -0.33462817119E+03 -0.10475567914E+04  0.11399422787E+04  0.12699999809E+01 0.  1.
</event>
<event>
 5   0  0.9342635E-06  0.2010451E+04  0.7818609E-02  0.8601750E-01
       -1   -1    0    0    0  501  0.00000000000E+00  0.00000000000E+00  0.10406199708E+04  0.10406199708E+04  0.50400001928E-02 0.  1.
        1   -1    0    0  501    0  0.00000000000E+00  0.00000000000E+00 -0.97103490891E+03  0.97103490892E+03  0.50400001928E-02 0. -1.
    10030    2    1    2    0    0  0.00000000000E+00  0.00000000000E+00  0.69585061877E+02  0.20116548797E+04  0.20104510127E+04 0.  0.
        5    1    3    3  502    0  0.21551381714E+03  0.97851853316E+03 -0.45949676237E+02  0.10030344899E+04  0.46999998093E+01 0. -1.
       -5    1    3    3    0  502 -0.21551381714E+03 -0.97851853316E+03  0.11553473811E+03  0.10086203899E+04  0.46999998093E+01 0.  1.
</event>
<event>
 5   0  0.9333353E-06  0.1992680E+04  0.7818609E-02  0.8610050E-01
        1   -1    0    0  501    0  0.00000000000E+00  0.00000000000E+00  0.50510734939E+03  0.50510734942E+03  0.50400001928E-02 0.  1.
       -1   -1    0    0    0  501  0.00000000000E+00  0.00000000000E+00 -0.19653124305E+04  0.19653124305E+04  0.50400001928E-02 0. -1.
    10030    2    1    2    0    0  0.00000000000E+00  0.00000000000E+00 -0.14602050811E+04  0.24704197800E+04  0.19926803583E+04 0.  0.
        2    1    3    3  502    0 -0.66856763698E+03 -0.28053812584E+03 -0.15773220339E+04  0.17359807383E+04  0.25500000920E-02 0. -1.
       -2    1    3    3    0  502  0.66856763698E+03  0.28053812584E+03  0.11711695272E+03  0.73443904164E+03  0.25500000920E-02 0.  1.
</event>
<event>
 5   0  0.9370269E-06  0.2003351E+04  0.7818609E-02  0.8605056E-01
       -1   -1    0    0    0  501  0.00000000000E+00  0.00000000000E+00  0.56245445013E+03  0.56245445015E+03  0.50400001928E-02 0.  1.
        1   -1    0    0  501    0  0.00000000000E+00  0.00000000000E+00 -0.17838847982E+04  0.17838847982E+04  0.50400001928E-02 0. -1.
    10030    2    1    2    0    0  0.00000000000E+00  0.00000000000E+00 -0.12214303481E+04  0.23463392484E+04  0.20033511358E+04 0.  0.
        4    1    3    3  502    0 -0.84573115305E+03  0.23342581078E+03 -0.44640875900E+02  0.87848916503E+03  0.12699999809E+01 0.  1.
       -4    1    3    3    0  502  0.84573115305E+03 -0.23342581078E+03 -0.11767894722E+04  0.14678500833E+04  0.12699999809E+01 0. -1.
</event>
<event>
 5   0  0.9342635E-06  0.1988657E+04  0.7818609E-02  0.8611942E-01
        1   -1    0    0  501    0  0.00000000000E+00  0.00000000000E+00  0.16469560993E+04  0.16469560993E+04  0.50400001928E-02 0.  1.
       -1   -1    0    0    0  501  0.00000000000E+00  0.00000000000E+00 -0.60031315109E+03  0.60031315111E+03  0.50400001928E-02 0. -1.
    10030    2    1    2    0    0  0.00000000000E+00  0.00000000000E+00  0.10466429482E+04  0.22472692504E+04  0.19886572412E+04 0.  0.
        5    1    3    3  502    0 -0.90377271539E+03  0.27050726123E+02  0.55846008088E+02  0.90591265003E+03  0.46999998093E+01 0. -1.
       -5    1    3    3    0  502  0.90377271539E+03 -0.27050726123E+02  0.99079694015E+03  0.13413566004E+04  0.46999998093E+01 0.  1.
</event>
<event>
 5   0  0.1979765E-05  0.1996428E+04  0.7818609E-02  0.8608292E-01
        2   -1    0    0  501    0  0.00000000000E+00  0.00000000000E+00  0.22281586922E+04  0.22281586922E+04  0.25500000920E-02 0.  1.
       -2   -1    0    0    0  501  0.00000000000E+00  0.00000000000E+00 -0.44719949523E+03  0.44719949523E+03  0.25500000920E-02 0. -1.
    10030    2    1    2    0    0  0.00000000000E+00  0.00000000000E+00  0.17809591970E+04  0.26753581874E+04  0.19964282531E+04 0.  0.
        2    1    3    3  502    0  0.11178588369E+02 -0.69623232306E+03 -0.67992562199E+02  0.69963375922E+03  0.25500000920E-02 0. -1.
       -2    1    3    3    0  502 -0.11178588369E+02  0.69623232306E+03  0.18489517592E+04  0.19757244282E+04  0.25500000920E-02 0.  1.
</event>
<event>
 5   0  0.9140695E-06  0.2001749E+04  0.7818609E-02  0.8605804E-01
       -1   -1    0    0    0  501  0.00000000000E+00  0.00000000000E+00  0.30571329609E+03  0.30571329613E+03  0.50400001928E-02 0. -1.
        1   -1    0    0  501    0  0.00000000000E+00  0.00000000000E+00 -0.32767610444E+04  0.32767610444E+04  0.50400001928E-02 0.  1.
    10030    2    1    2    0    0  0.00000000000E+00  0.00000000000E+00 -0.29710477483E+04  0.35824743405E+04  0.20017486550E+04 0.  0.
        1    1    3    3  502    0  0.46599246858E+03 -0.40712493609E+03 -0.77642237884E+02  0.62364093154E+03  0.50400001928E-02 0. -1.
       -1    1    3    3    0  502 -0.46599246858E+03  0.40712493609E+03 -0.28934055104E+04  0.29588334090E+04  0.50400001928E-02 0.  1.
</event>
<event>
 5   0  0.9140695E-06  0.1999685E+04  0.7818609E-02  0.8606768E-01
       -1   -1    0    0    0  501  0.00000000000E+00  0.00000000000E+00  0.86437573191E+03  0.86437573193E+03  0.50400001928E-02 0. -1.
        1   -1    0    0  501    0  0.00000000000E+00  0.00000000000E+00 -0.11565398650E+04  0.11565398650E+04  0.50400001928E-02 0.  1.
    10030    2    1    2    0    0  0.00000000000E+00  0.00000000000E+00 -0.29216413310E+03  0.20209155970E+04  0.19996849675E+04 0.  0.
        1    1    3    3  502    0  0.70324102027E+03  0.68147451109E+02  0.56888426517E+03  0.90709498668E+03  0.50400001928E-02 0. -1.
       -1    1    3    3    0  502 -0.70324102027E+03 -0.68147451109E+02 -0.86104839827E+03  0.11138206103E+04  0.50400001928E-02 0.  1.
</event>
<event>
 5   0  0.9140695E-06  0.1999149E+04  0.7818609E-02  0.8607019E-01
       -1   -1    0    0    0  501  0.00000000000E+00  0.00000000000E+00  0.68773294765E+03  0.68773294767E+03  0.50400001928E-02 0.  1.
        1   -1    0    0  501    0  0.00000000000E+00  0.00000000000E+00 -0.14528155975E+04  0.14528155976E+04  0.50400001928E-02 0. -1.
    10030    2    1    2    0    0  0.00000000000E+00  0.00000000000E+00 -0.76508264989E+03  0.21405485452E+04  0.19991489723E+04 0.  0.
        1    1    3    3  502    0 -0.36533805836E+03  0.92112267080E+03 -0.24207445213E+03  0.10200680918E+04  0.50400001928E-02 0.  1.
       -1    1    3    3    0  502  0.36533805836E+03 -0.92112267080E+03 -0.52300819776E+03  0.11204804534E+04  0.50400001928E-02 0. -1.
</event>
<event>
 5   0  0.2003576E-05  0.2000554E+04  0.7818609E-02  0.8606362E-01
       -2   -1    0    0    0  501  0.00000000000E+00  0.00000000000E+00  0.95272060757E+03  0.95272060757E+03  0.25500000920E-02 0.  1.
        2   -1    0    0  501    0  0.00000000000E+00  0.00000000000E+00 -0.10502070762E+04  0.10502070762E+04  0.25500000920E-02 0. -1.
    10030    2    1    2    0    0  0.00000000000E+00  0.00000000000E+00 -0.97486468603E+02  0.20029276837E+04  0.20005538470E+04 0.  0.
        4    1    3    3  502    0 -0.10360245408E+03 -0.92470646084E+02  0.94302192376E+03  0.95319266178E+03  0.12699999809E+01 0.  1.
       -4    1    3    3    0  502  0.10360245408E+03  0.92470646084E+02 -0.10405083924E+04  0.10497350220E+04  0.12699999809E+01 0. -1.
</event>
<event>
 5   0  0.9220260E-06  0.2002785E+04  0.7818609E-02  0.8605320E-01
        1   -1    0    0  501    0  0.00000000000E+00  0.00000000000E+00  0.85672894143E+03  0.85672894144E+03  0.50400001928E-02 0. -1.
       -1   -1    0    0    0  501  0.00000000000E+00  0.00000000000E+00 -0.11704836487E+04  0.11704836487E+04  0.50400001928E-02 0.  1.
    10030    2    1    2    0    0  0.00000000000E+00  0.00000000000E+00 -0.31375470730E+03  0.20272125902E+04  0.20027852779E+04 0.  0.
        3    1    3    3  502    0 -0.90763473994E+03 -0.41859615540E+03 -0.21897415255E+03  0.10232171090E+04  0.10100000352E+00 0. -1.
       -3    1    3    3    0  502  0.90763473994E+03  0.41859615540E+03 -0.94780554745E+02  0.10039954812E+04  0.10100000352E+00 0.  1.
</event>
<event>
 5   0  0.2003576E-05  0.1999427E+04  0.7818609E-02  0.8606889E-01
        2   -1    0    0  501    0  0.00000000000E+00  0.00000000000E+00  0.17923959997E+04  0.17923959997E+04  0.25500000920E-02 0.  1.
       -2   -1    0    0    0  501  0.00000000000E+00  0.00000000000E+00 -0.55759260150E+03  0.55759260151E+03  0.25500000920E-02 0. -1.
    10030    2    1    2    0    0  0.00000000000E+00  0.00000000000E+00  0.12348033982E+04  0.23499886012E+04  0.19994266662E+04 0.  0.
        4    1    3    3  502    0 -0.46324176281E+03  0.80942241100E+03  0.10406312211E+04  0.13973805929E+04  0.12699999809E+01 0.  1.
       -4    1    3    3    0  502  0.46324176281E+03 -0.80942241100E+03  0.19417217712E+03  0.95260800831E+03  0.12699999809E+01 0. -1.
</event>
<event>
 5   0  0.2038882E-05  0.2000271E+04  0.7818609E-02  0.8606494E-01
        2   -1    0    0  501    0  0.00000000000E+00  0.00000000000E+00  0.19955507865E+04  0.19955507865E+04  0.25500000920E-02 0. -1.
       -2   -1    0    0    0  501  0.00000000000E+00  0.00000000000E+00 -0.50125063498E+03  0.50125063499E+03  0.25500000920E-02 0.  1.
    10030    2    1    2    0    0  0.00000000000E+00  0.00000000000E+00  0.14943001516E+04  0.24968014215E+04  0.20002710805E+04 0.  0.
        3    1    3    3  502    0 -0.53682101451E+03 -0.52292484996E+03  0.15738562634E+04  0.17431726101E+04  0.10100000352E+00 0. -1.
       -3    1    3    3    0  502  0.53682101451E+03  0.52292484996E+03 -0.79556111885E+02  0.75362881146E+03  0.10100000352E+00 0.  1.
</event>
<event>
 5   0  0.1999142E-05  0.2001572E+04  0.7818609E-02  0.8605886E-01
        2   -1    0    0  501    0  0.00000000000E+00  0.00000000000E+00  0.12449229773E+04  0.12449229773E+04  0.25500000920E-02 0. -1.
       -2   -1    0    0    0  501  0.00000000000E+00  0.00000000000E+00 -0.80452547599E+03  0.80452547600E+03  0.25500000920E-02 0.  1.
    10030    2    1    2    0    0  0.00000000000E+00  0.00000000000E+00  0.44039750129E+03  0.20494484533E+04  0.20015716334E+04 0.  0.
        1    1    3    3  502    0  0.42241018943E+03 -0.53607121022E+03 -0.52927231644E+03  0.86367348896E+03  0.50400001928E-02 0.  1.
       -1    1    3    3    0  502 -0.42241018943E+03  0.53607121022E+03  0.96966981773E+03  0.11857749643E+04  0.50400001928E-02 0. -1.
</event>
<event>
 5   0  0.2003576E-05  0.2000012E+04  0.7818609E-02  0.8606615E-01
        2   -1    0    0  501    0  0.00000000000E+00  0.00000000000E+00  0.25548452084E+04  0.25548452084E+04  0.25500000920E-02 0. -1.
       -2   -1    0    0    0  501  0.00000000000E+00  0.00000000000E+00 -0.39141773944E+03  0.39141773945E+03  0.25500000920E-02 0.  1.
    10030    2    1    2    0    0  0.00000000000E+00  0.00000000000E+00  0.21634274690E+04  0.29462629479E+04  0.20000117361E+04 0.  0.
        4    1    3    3  502    0  0.18817089385E+03 -0.18224249055E+03 -0.33997535902E+03  0.42919164519E+03  0.12699999809E+01 0.  1.
       -4    1    3    3    0  502 -0.18817089385E+03  0.18224249055E+03  0.25034028280E+04  0.25170713027E+04  0.12699999809E+01 0. -1.
</event>
<event>
 5   0  0.9220260E-06  0.1985856E+04  0.7818609E-02  0.8613262E-01
       -1   -1    0    0    0  501  0.00000000000E+00  0.00000000000E+00  0.12594402826E+04  0.12594402826E+04  0.50400001928E-02 0. -1.
        1   -1    0    0  501    0  0.00000000000E+00  0.00000000000E+00 -0.78281285673E+03  0.78281285674E+03  0.50400001928E-02 0.  1.
    10030    2    1    2    0    0  0.00000000000E+00  0.00000000000E+00  0.47662742589E+03  0.20422531394E+04  0.19858560326E+04 0.  0.
        3    1    3    3  502    0 -0.16032448843E+02  0.96508385643E+03 -0.12440751764E+01  0.96521782375E+03  0.10100000352E+00 0.  1.
       -3    1    3    3    0  502  0.16032448843E+02 -0.96508385643E+03  0.47787150107E+03  0.10770353156E+04  0.10100000352E+00 0. -1.
</event>
<event>
 5   0  0.2038882E-05  0.1999869E+04  0.7818609E-02  0.8606682E-01
        2   -1    0    0  501    0  0.00000000000E+00  0.00000000000E+00  0.20058757897E+04  0.20058757897E+04  0.25500000920E-02 0. -1.
       -2   -1    0    0    0  501  0.00000000000E+00  0.00000000000E+00 -0.49847015607E+03  0.49847015608E+03  0.25500000920E-02 0.  1.
    10030    2    1    2    0    0  0.00000000000E+00  0.00000000000E+00  0.15074056336E+04  0.25043459458E+04  0.19998692137E+04 0.  0.
        3    1    3    3  502    0 -0.44528456799E+03  0.31468848136E+03 -0.29592434580E+03  0.62038569893E+03  0.10100000352E+00 0.  1.
       -3    1    3    3    0  502  0.44528456799E+03 -0.31468848136E+03  0.18033299794E+04  0.18839602469E+04  0.10100000352E+00 0. -1.
</event>
<event>
 5   0  0.9140695E-06  0.1999235E+04  0.7818609E-02  0.8606978E-01
       -1   -1    0    0    0  501  0.00000000000E+00  0.00000000000E+00  0.54152882056E+03  0.54152882058E+03  0.50400001928E-02 0. -1.
        1   -1    0    0  501    0  0.00000000000E+00  0.00000000000E+00 -0.18452120877E+04  0.18452120877E+04  0.50400001928E-02 0.  1.
    10030    2    1    2    0    0  0.00000000000E+00  0.00000000000E+00 -0.13036832671E+04  0.23867409083E+04  0.19992353794E+04 0.  0.
        1    1    3    3  502    0 -0.38234790292E+03 -0.55026171448E+03  0.23373142083E+03  0.70965361297E+03  0.50400001928E-02 0. -1.
       -1    1    3    3    0  502  0.38234790292E+03  0.55026171448E+03 -0.15374146880E+04  0.16770872953E+04  0.50400001928E-02 0.  1.
</event>
<event>
 5   0  0.2003576E-05  0.1998590E+04  0.7818609E-02  0.8607280E-01
        2   -1    0    0  501    0  0.00000000000E+00  0.00000000000E+00  0.96042262020E+03  0.96042262020E+03  0.25500000920E-02 0. -1.
       -2   -1    0    0    0  501  0.00000000000E+00  0.00000000000E+00 -0.10397409222E+04  0.10397409222E+04  0.25500000920E-02 0.  1.
    10030    2    1    2    0    0  0.00000000000E+00  0.00000000000E+00 -0.79318301972E+02  0.20001635424E+04  0.19985902039E+04 0.  0.
        4    1    3    3  502    0  0.34143635114E+03  0.49051764856E+03 -0.84116585427E+03  0.10318662475E+04  0.12699999809E+01 0.  1.
       -4    1    3    3    0  502 -0.34143635114E+03 -0.49051764856E+03  0.76184755230E+03  0.96829729488E+03  0.12699999809E+01 0. -1.
</event>
<event>
 5   0  0.1979765E-05  0.2000101E+04  0.7818609E-02  0.8606574E-01
        2   -1    0    0  501    0  0.00000000000E+00  0.00000000000E+00  0.13290277414E+04  0.13290277414E+04  0.25500000920E-02 0. -1.
       -2   -1    0    0    0  501  0.00000000000E+00  0.00000000000E+00 -0.75250550501E+03  0.75250550502E+03  0.25500000920E-02 0.  1.
    10030    2    1    2    0    0  0.00000000000E+00  0.00000000000E+00  0.57652223637E+03  0.20815332464E+04  0.20001006892E+04 0.  0.
        2    1    3    3  502    0  0.89599079040E+03  0.10262486898E+03 -0.16150245082E+03  0.91619561331E+03  0.25500000920E-02 0.  1.
       -2    1    3    3    0  502 -0.89599079040E+03 -0.10262486898E+03  0.73802468719E+03  0.11653376331E+04  0.25500000920E-02 0. -1.
</event>
<event>
 5   0  0.1999142E-05  0.1997914E+04  0.7818609E-02  0.8607597E-01
        2   -1    0    0  501    0  0.00000000000E+00  0.00000000000E+00  0.19168699701E+04  0.19168699701E+04  0.25500000920E-02 0.  1.
       -2   -1    0    0    0  501  0.00000000000E+00  0.00000000000E+00 -0.52059596888E+03  0.52059596889E+03  0.25500000920E-02 0. -1.
    10030    2    1    2    0    0  0.00000000000E+00  0.00000000000E+00  0.13962740012E+04  0.24374659390E+04  0.19979136911E+04 0.  0.
        1    1    3    3  502    0  0.10013212387E+03 -0.72528681890E+03  0.15272449303E+04  0.16936777997E+04  0.50400001928E-02 0.  1.
       -1    1    3    3    0  502 -0.10013212387E+03  0.72528681890E+03 -0.13097092909E+03  0.74378813932E+03  0.50400001928E-02 0. -1.
</event>
<event>
 5   0  0.2038882E-05  0.1999700E+04  0.7818609E-02  0.8606761E-01
       -2   -1    0    0    0  501  0.00000000000E+00  0.00000000000E+00  0.57044851137E+03  0.57044851137E+03  0.25500000920E-02 0. -1.
        2   -1    0    0  501    0  0.00000000000E+00  0.00000000000E+00 -0.17524809217E+04  0.17524809217E+04  0.25500000920E-02 0.  1.
    10030    2    1    2    0    0  0.00000000000E+00  0.00000000000E+00 -0.11820324103E+04  0.23229294330E+04  0.19997001105E+04 0.  0.
        3    1    3    3  502    0 -0.70556633213E+03  0.16913426367E+03 -0.13901611869E+04  0.15681130010E+04  0.10100000352E+00 0.  1.
       -3    1    3    3    0  502  0.70556633213E+03 -0.16913426367E+03  0.20812877662E+03  0.75481643201E+03  0.10100000352E+00 0. -1.
</event>
<event>
 5   0  0.1979765E-05  0.2004873E+04  0.7818609E-02  0.8604346E-01
       -2   -1    0    0    0  501  0.00000000000E+00  0.00000000000E+00  0.40316393680E+03  0.40316393681E+03  0.25500000920E-02 0. -1.
        2   -1    0    0  501    0  0.00000000000E+00  0.00000000000E+00 -0.24924830625E+04  0.24924830625E+04  0.25500000920E-02 0.  1.
    10030    2    1    2    0    0  0.00000000000E+00  0.00000000000E+00 -0.20893191257E+04  0.28956469993E+04  0.20048733465E+04 0.  0.
        2    1    3    3  502    0 -0.55891963992E+03  0.55119288352E+03 -0.19450932057E+04  0.20975205214E+04  0.25500000920E-02 0.  1.
       -2    1    3    3    0  502  0.55891963992E+03 -0.55119288352E+03 -0.14422591995E+03  0.79812647789E+03  0.25500000920E-02 0. -1.
</event>
<event>
 5   0  0.9333353E-06  0.1994770E+04  0.7818609E-02  0.8609070E-01
       -1   -1    0    0    0  501  0.00000000000E+00  0.00000000000E+00  0.21625837050E+04  0.21625837050E+04  0.50400001928E-02 0. -1.
        1   -1    0    0  501    0  0.00000000000E+00  0.00000000000E+00 -0.45999451208E+03  0.45999451211E+03  0.50400001928E-02 0.  1.
    10030    2    1    2    0    0  0.00000000000E+00  0.00000000000E+00  0.17025891929E+04  0.26225782171E+04  0.19947697975E+04 0.  0.
        2    1    3    3  502    0 -0.94491046375E+03  0.29967137381E+03  0.70656755088E+03  0.12173316807E+04  0.25500000920E-02 0.  1.
       -2    1    3    3    0  502  0.94491046375E+03 -0.29967137381E+03  0.99602164206E+03  0.14052465365E+04  0.25500000920E-02 0. -1.
</event>
<event>
 5   0  0.9333353E-06  0.1994783E+04  0.7818609E-02  0.8609064E-01
       -1   -1    0    0    0  501  0.00000000000E+00  0.00000000000E+00  0.71005514894E+03  0.71005514896E+03  0.50400001928E-02 0.  1.
        1   -1    0    0  501    0  0.00000000000E+00  0.00000000000E+00 -0.14010035043E+04  0.14010035043E+04  0.50400001928E-02 0. -1.
    10030    2    1    2    0    0  0.00000000000E+00  0.00000000000E+00 -0.69094835537E+03  0.21110586533E+04  0.19947829475E+04 0.  0.
        2    1    3    3  502    0 -0.22280393434E+03  0.63181147306E+03 -0.11274368614E+04  0.13114652901E+04  0.25500000920E-02 0. -1.
       -2    1    3    3    0  502  0.22280393434E+03 -0.63181147306E+03  0.43648850599E+03  0.79959336322E+03  0.25500000920E-02 0.  1.
</event>
<event>
 5   0  0.9370269E-06  0.1999839E+04  0.7818609E-02  0.8606696E-01
        1   -1    0    0  501    0  0.00000000000E+00  0.00000000000E+00  0.76922470718E+03  0.76922470720E+03  0.50400001928E-02 0. -1.
       -1   -1    0    0    0  501  0.00000000000E+00  0.00000000000E+00 -0.12998008505E+04  0.12998008506E+04  0.50400001928E-02 0.  1.
    10030    2    1    2    0    0  0.00000000000E+00  0.00000000000E+00 -0.53057614336E+03  0.20690255578E+04  0.19998389222E+04 0.  0.
        4    1    3    3  502    0  0.67202092454E+03 -0.47532876751E+03 -0.85263234906E+03  0.11851299911E+04  0.12699999809E+01 0.  1.
       -4    1    3    3    0  502 -0.67202092454E+03  0.47532876751E+03  0.32205620570E+03  0.88389556666E+03  0.12699999809E+01 0. -1.
</event>
<event>
 5   0  0.9342635E-06  0.1998276E+04  0.7818609E-02  0.8607427E-01
        1   -1    0    0  501    0  0.00000000000E+00  0.00000000000E+00  0.10131828105E+04  0.10131828105E+04  0.50400001928E-02 0.  1.
       -1   -1    0    0    0  501  0.00000000000E+00  0.00000000000E+00 -0.98528761814E+03  0.98528761816E+03  0.50400001928E-02 0. -1.
    10030    2    1    2    0    0  0.00000000000E+00  0.00000000000E+00  0.27895192363E+02  0.19984704287E+04  0.19982757349E+04 0.  0.
        5    1    3    3  502    0 -0.31420800404E+02  0.79096883715E+03  0.62362606979E+03  0.10077452719E+04  0.46999998093E+01 0.  1.
       -5    1    3    3    0  502  0.31420800404E+02 -0.79096883715E+03 -0.59573087743E+03  0.99072515682E+03  0.46999998093E+01 0. -1.
</event>
<event>
 5   0  0.9342635E-06  0.2000372E+04  0.7818609E-02  0.8606447E-01
       -1   -1    0    0    0  501  0.00000000000E+00  0.00000000000E+00  0.14363063205E+04  0.14363063205E+04  0.50400001928E-02 0. -1.
        1   -1    0    0  501    0  0.00000000000E+00  0.00000000000E+00 -0.69648904365E+03  0.69648904367E+03  0.50400001928E-02 0.  1.
    10030    2    1    2    0    0  0.00000000000E+00  0.00000000000E+00  0.73981727689E+03  0.21327953642E+04  0.20003715811E+04 0.  0.
        5    1    3    3  502    0  0.40394877192E+03 -0.88955550753E+03  0.59824944973E+03  0.11456038169E+04  0.46999998093E+01 0.  1.
       -5    1    3    3    0  502 -0.40394877192E+03  0.88955550753E+03  0.14156782716E+03  0.98719154727E+03  0.46999998093E+01 0. -1.
</event>
<event>
 5   0  0.2038882E-05  0.2052682E+04  0.7818609E-02  0.8582378E-01
        2   -1    0    0  501    0  0.00000000000E+00  0.00000000000E+00  0.10104354420E+04  0.10104354420E+04  0.25500000920E-02 0. -1.
       -2   -1    0    0    0  501  0.00000000000E+00  0.00000000000E+00 -0.10424973887E+04  0.10424973887E+04  0.25500000920E-02 0.  1.
    10030    2    1    2    0    0  0.00000000000E+00  0.00000000000E+00 -0.32061946645E+02  0.20529328307E+04  0.20526824497E+04 0.  0.
        3    1    3    3  502    0 -0.64822666411E+02  0.58167338571E+03 -0.85924139491E+03  0.10396353643E+04  0.10100000352E+00 0.  1.
       -3    1    3    3    0  502  0.64822666411E+02 -0.58167338571E+03  0.82717944826E+03  0.10132974665E+04  0.10100000352E+00 0. -1.
</event>
<event>
 5   0  0.2038882E-05  0.1995408E+04  0.7818609E-02  0.8608770E-01
       -2   -1    0    0    0  501  0.00000000000E+00  0.00000000000E+00  0.96330706423E+03  0.96330706423E+03  0.25500000920E-02 0. -1.
        2   -1    0    0  501    0  0.00000000000E+00  0.00000000000E+00 -0.10333296393E+04  0.10333296393E+04  0.25500000920E-02 0.  1.
    10030    2    1    2    0    0  0.00000000000E+00  0.00000000000E+00 -0.70022575090E+02  0.19966367035E+04  0.19954084707E+04 0.  0.
        3    1    3    3  502    0  0.68546530239E+03  0.13638725554E+03 -0.74745345622E+03  0.10233038863E+04  0.10100000352E+00 0.  1.
       -3    1    3    3    0  502 -0.68546530239E+03 -0.13638725554E+03  0.67743088113E+03  0.97333281727E+03  0.10100000352E+00 0. -1.
</event>
<event>
 5   0  0.9342635E-06  0.1999830E+04  0.7818609E-02  0.8606700E-01
        1   -1    0    0  501    0  0.00000000000E+00  0.00000000000E+00  0.10310450010E+04  0.10310450010E+04  0.50400001928E-02 0.  1.
       -1   -1    0    0    0  501  0.00000000000E+00  0.00000000000E+00 -0.96972506593E+03  0.96972506594E+03  0.50400001928E-02 0. -1.
    10030    2    1    2    0    0  0.00000000000E+00  0.00000000000E+00  0.61319935039E+02  0.20007700669E+04  0.19998301743E+04 0.  0.
        5    1    3    3  502    0 -0.88531172555E+03 -0.39408753203E+03  0.27720276642E+03  0.10079411183E+04  0.46999998093E+01 0.  1.
       -5    1    3    3    0  502  0.88531172555E+03  0.39408753203E+03 -0.21588283138E+03  0.99282894860E+03  0.46999998093E+01 0. -1.
</event>
<event>
 5   0  0.1999142E-05  0.1996358E+04  0.7818609E-02  0.8608325E-01
       -2   -1    0    0    0  501  0.00000000000E+00  0.00000000000E+00  0.45766139010E+03  0.45766139011E+03  0.25500000920E-02 0. -1.
        2   -1    0    0  501    0  0.00000000000E+00  0.00000000000E+00 -0.21770714123E+04  0.21770714123E+04  0.25500000920E-02 0.  1.
    10030    2    1    2    0    0  0.00000000000E+00  0.00000000000E+00 -0.17194100222E+04  0.26347328024E+04  0.19963582133E+04 0.  0.
        1    1    3    3  502    0 -0.46978341830E+03 -0.71121528164E+03 -0.15452714914E+04  0.17647627656E+04  0.50400001928E-02 0.  1.
       -1    1    3    3    0  502  0.46978341830E+03  0.71121528164E+03 -0.17413853086E+03  0.86997003679E+03  0.50400001928E-02 0. -1.
</event>
<event>
 5   0  0.9333353E-06  0.2009233E+04  0.7818609E-02  0.8602316E-01
        1   -1    0    0  501    0  0.00000000000E+00  0.00000000000E+00  0.25378759253E+04  0.25378759253E+04  0.50400001928E-02 0. -1.
       -1   -1    0    0    0  501  0.00000000000E+00  0.00000000000E+00 -0.39767665801E+03  0.39767665804E+03  0.50400001928E-02 0.  1.
    10030    2    1    2    0    0  0.00000000000E+00  0.00000000000E+00  0.21401992673E+04  0.29355525833E+04  0.20092327057E+04 0.  0.
        2    1    3    3  502    0  0.34526980491E+03  0.48046014148E+02 -0.30647936567E+03  0.46416512067E+03  0.25500000920E-02 0.  1.
       -2    1    3    3    0  502 -0.34526980491E+03 -0.48046014148E+02  0.24466786329E+04  0.24713874627E+04  0.25500000920E-02 0. -1.
</event>
<event>
 5   0  0.2038882E-05  0.1998547E+04  0.7818609E-02  0.8607300E-01
        2   -1    0    0  501    0  0.00000000000E+00  0.00000000000E+00  0.70548568257E+03  0.70548568258E+03  0.25500000920E-02 0. -1.
       -2   -1    0    0    0  501  0.00000000000E+00  0.00000000000E+00 -0.14154050426E+04  0.14154050426E+04  0.25500000920E-02 0.  1.
    10030    2    1    2    0    0  0.00000000000E+00  0.00000000000E+00 -0.70991936007E+03  0.21208907252E+04  0.19985474652E+04 0.  0.
        3    1    3    3  502    0 -0.92404165476E+03 -0.48640888715E+02  0.45400270078E+02  0.92643408320E+03  0.10100000352E+00 0. -1.
       -3    1    3    3    0  502  0.92404165476E+03  0.48640888715E+02 -0.75531963014E+03  0.11944566420E+04  0.10100000352E+00 0.  1.
</event>
<event>
 5   0  0.2003576E-05  0.2000666E+04  0.7818609E-02  0.8606309E-01
        2   -1    0    0  501    0  0.00000000000E+00  0.00000000000E+00  0.14661703109E+04  0.14661703109E+04  0.25500000920E-02 0.  1.
       -2   -1    0    0    0  501  0.00000000000E+00  0.00000000000E+00 -0.68250311978E+03  0.68250311978E+03  0.25500000920E-02 0. -1.
    10030    2    1    2    0    0  0.00000000000E+00  0.00000000000E+00  0.78366719108E+03  0.21486734306E+04  0.20006657005E+04 0.  0.
        4    1    3    3  502    0  0.47178464300E+03  0.12704982627E+03 -0.54563512080E+03  0.73242180858E+03  0.12699999809E+01 0. -1.
       -4    1    3    3    0  502 -0.47178464300E+03 -0.12704982627E+03  0.13293023119E+04  0.14162516221E+04  0.12699999809E+01 0.  1.
</event>
<event>
 5   0  0.2020029E-05  0.1997519E+04  0.7818609E-02  0.8607781E-01
        2   -1    0    0  501    0  0.00000000000E+00  0.00000000000E+00  0.12759774105E+04  0.12759774105E+04  0.25500000920E-02 0.  1.
       -2   -1    0    0    0  501  0.00000000000E+00  0.00000000000E+00 -0.78177010789E+03  0.78177010790E+03  0.25500000920E-02 0. -1.
    10030    2    1    2    0    0  0.00000000000E+00  0.00000000000E+00  0.49420730258E+03  0.20577475184E+04  0.19975194596E+04 0.  0.
        5    1    3    3  502    0 -0.14374944462E+03 -0.86711573313E+03  0.73568798742E+03  0.11462166036E+04  0.46999998093E+01 0.  1.
       -5    1    3    3    0  502  0.14374944462E+03  0.86711573313E+03 -0.24148068485E+03  0.91153091480E+03  0.46999998093E+01 0. -1.
</event>
<event>
 5   0  0.9140695E-06  0.1994944E+04  0.7818609E-02  0.8608988E-01
       -1   -1    0    0    0  501  0.00000000000E+00  0.00000000000E+00  0.59299269877E+03  0.59299269879E+03  0.50400001928E-02 0. -1.
        1   -1    0    0  501    0  0.00000000000E+00  0.00000000000E+00 -0.16778459141E+04  0.16778459141E+04  0.50400001928E-02 0.  1.
    10030    2    1    2    0    0  0.00000000000E+00  0.00000000000E+00 -0.10848532154E+04  0.22708386129E+04  0.19949439860E+04 0.  0.
        1    1    3    3  502    0  0.44509952100E+03 -0.69938724735E+03 -0.11738421525E+04  0.14370669797E+04  0.50400001928E-02 0.  1.
       -1    1    3    3    0  502 -0.44509952100E+03  0.69938724735E+03  0.88988937098E+02  0.83377163319E+03  0.50400001928E-02 0. -1.
</event>
<event>
 5   0  0.9220260E-06  0.2012048E+04  0.7818609E-02  0.8601009E-01
        1   -1    0    0  501    0  0.00000000000E+00  0.00000000000E+00  0.19460961415E+04  0.19460961415E+04  0.50400001928E-02 0.  1.
       -1   -1    0    0    0  501  0.00000000000E+00  0.00000000000E+00 -0.52005856914E+03  0.52005856916E+03  0.50400001928E-02 0. -1.
    10030    2    1    2    0    0  0.00000000000E+00  0.00000000000E+00  0.14260375724E+04  0.24661547107E+04  0.20120476881E+04 0.  0.
        3    1    3    3  502    0  0.56525037766E+03 -0.54510936115E+03  0.14837763968E+04  0.16787628215E+04  0.10100000352E+00 0.  1.
       -3    1    3    3    0  502 -0.56525037766E+03  0.54510936115E+03 -0.57738824421E+02  0.78739188915E+03  0.10100000352E+00 0. -1.
</event>
<event>
 5   0  0.9370269E-06  0.1971376E+04  0.7818609E-02  0.8620121E-01
       -1   -1    0    0    0  501  0.00000000000E+00  0.00000000000E+00  0.81456218365E+03  0.81456218367E+03  0.50400001928E-02 0. -1.
        1   -1    0    0  501    0  0.00000000000E+00  0.00000000000E+00 -0.11927645803E+04  0.11927645804E+04  0.50400001928E-02 0.  1.
    10030    2    1    2    0    0  0.00000000000E+00  0.00000000000E+00 -0.37820239669E+03  0.20073267640E+04  0.19713760891E+04 0.  0.
        4    1    3    3  502    0  0.12914207876E+03  0.10310064198E+03  0.80035624758E+03  0.81723873796E+03  0.12699999809E+01 0. -1.
       -4    1    3    3    0  502 -0.12914207876E+03 -0.10310064198E+03 -0.11785586443E+04  0.11900880261E+04  0.12699999809E+01 0.  1.
</event>
<event>
 5   0  0.9342635E-06  0.2003002E+04  0.7818609E-02  0.8605219E-01
        1   -1    0    0  501    0  0.00000000000E+00  0.00000000000E+00  0.17262873880E+04  0.17262873880E+04  0.50400001928E-02 0.  1.
       -1   -1    0    0    0  501  0.00000000000E+00  0.00000000000E+00 -0.58101793554E+03  0.58101793556E+03  0.50400001928E-02 0. -1.
    10030    2    1    2    0    0  0.00000000000E+00  0.00000000000E+00  0.11452694525E+04  0.23073053236E+04  0.20030016819E+04 0.  0.
        5    1    3    3  502    0 -0.71380083310E+03 -0.53382403861E+03  0.10986265365E+04  0.14147374634E+04  0.46999998093E+01 0.  1.
       -5    1    3    3    0  502  0.71380083310E+03  0.53382403861E+03  0.46642915997E+02  0.89256786024E+03  0.46999998093E+01 0. -1.
</event>
<event>
 5   0  0.2038882E-05  0.2003248E+04  0.7818609E-02  0.8605104E-01
        2   -1    0    0  501    0  0.00000000000E+00  0.00000000000E+00  0.11394270165E+04  0.11394270165E+04  0.25500000920E-02 0. -1.
       -2   -1    0    0    0  501  0.00000000000E+00  0.00000000000E+00 -0.88048717807E+03  0.88048717807E+03  0.25500000920E-02 0.  1.
    10030    2    1    2    0    0  0.00000000000E+00  0.00000000000E+00  0.25893983847E+03  0.20199141946E+04  0.20032482406E+04 0.  0.
        3    1    3    3  502    0  0.66831843843E+03  0.73176067967E+03 -0.17092846878E+02  0.99116870566E+03  0.10100000352E+00 0. -1.
       -3    1    3    3    0  502 -0.66831843843E+03 -0.73176067967E+03  0.27603268535E+03  0.10287454890E+04  0.10100000352E+00 0.  1.
</event>
<event>
 5   0  0.9333353E-06  0.1999582E+04  0.7818609E-02  0.8606816E-01
       -1   -1    0    0    0  501  0.00000000000E+00  0.00000000000E+00  0.79500450854E+03  0.79500450856E+03  0.50400001928E-02 0. -1.
        1   -1    0    0  501    0  0.00000000000E+00  0.00000000000E+00 -0.12573281540E+04  0.12573281540E+04  0.50400001928E-02 0.  1.
    10030    2    1    2    0    0  0.00000000000E+00  0.00000000000E+00 -0.46232364546E+03  0.20523326626E+04  0.19995815074E+04 0.  0.
        2    1    3    3  502    0 -0.62389911075E+03 -0.77742293064E+03 -0.31029998331E+03  0.10439935791E+04  0.25500000920E-02 0.  1.
       -2    1    3    3    0  502  0.62389911075E+03  0.77742293064E+03 -0.15202366215E+03  0.10083390835E+04  0.25500000920E-02 0. -1.
</event>
<event>
 5   0  0.9370269E-06  0.2000675E+04  0.7818609E-02  0.8606305E-01
        1   -1    0    0  501    0  0.00000000000E+00  0.00000000000E+00  0.27811185024E+04  0.27811185025E+04  0.50400001928E-02 0. -1.
       -1   -1    0    0    0  501  0.00000000000E+00  0.00000000000E+00 -0.35981025266E+03  0.35981025270E+03  0.50400001928E-02 0.  1.
    10030    2    1    2    0    0  0.00000000000E+00  0.00000000000E+00  0.24213082498E+04  0.31409287551E+04  0.20006748373E+04 0.  0.
        4    1    3    3  502    0 -0.82723405258E+03 -0.46208256162E+03  0.70720453267E+03  0.11823604930E+04  0.12699999809E+01 0.  1.
       -4    1    3    3    0  502  0.82723405258E+03  0.46208256162E+03  0.17141037171E+04  0.19585682621E+04  0.12699999809E+01 0. -1.
</event>
<event>
 5   0  0.9220260E-06  0.2000813E+04  0.7818609E-02  0.8606240E-01
        1   -1    0    0  501    0  0.00000000000E+00  0.00000000000E+00  0.98795379795E+03  0.98795379796E+03  0.50400001928E-02 0. -1.
       -1   -1    0    0    0  501  0.00000000000E+00  0.00000000000E+00 -0.10130165884E+04  0.10130165884E+04  0.50400001928E-02 0.  1.
    10030    2    1    2    0    0  0.00000000000E+00  0.00000000000E+00 -0.25062790476E+02  0.20009703864E+04  0.20008134205E+04 0.  0.
        3    1    3    3  502    0 -0.24779670170E+02  0.40762741155E+03 -0.92586063744E+03  0.10119249324E+04  0.10100000352E+00 0.  1.
       -3    1    3    3    0  502  0.24779670170E+02 -0.40762741155E+03  0.90079784697E+03  0.98904545396E+03  0.10100000352E+00 0. -1.
</event>
<event>
 5   0  0.9370269E-06  0.2002529E+04  0.7818609E-02  0.8605439E-01
       -1   -1    0    0    0  501  0.00000000000E+00  0.00000000000E+00  0.48981565939E+03  0.48981565942E+03  0.50400001928E-02 0.  1.
        1   -1    0    0  501    0  0.00000000000E+00  0.00000000000E+00 -0.20467503431E+04  0.20467503431E+04  0.50400001928E-02 0. -1.
    10030    2    1    2    0    0  0.00000000000E+00  0.00000000000E+00 -0.15569346837E+04  0.25365660025E+04  0.20025287703E+04 0.  0.
        4    1    3    3  502    0 -0.14647798991E+03  0.69496776412E+03  0.11550177974E+03  0.71956811263E+03  0.12699999809E+01 0.  1.
       -4    1    3    3    0  502  0.14647798991E+03 -0.69496776412E+03 -0.16724364634E+04  0.18169978899E+04  0.12699999809E+01 0. -1.
</event>
<event>
 5   0  0.1979765E-05  0.2010771E+04  0.7818609E-02  0.8601601E-01
       -2   -1    0    0    0  501  0.00000000000E+00  0.00000000000E+00  0.47123542493E+03  0.47123542493E+03  0.25500000920E-02 0. -1.
        2   -1    0    0  501    0  0.00000000000E+00  0.00000000000E+00 -0.21449997945E+04  0.21449997945E+04  0.25500000920E-02 0.  1.
    10030    2    1    2    0    0  0.00000000000E+00  0.00000000000E+00 -0.16737643696E+04  0.26162352194E+04  0.20107708866E+04 0.  0.
        2    1    3    3  502    0 -0.10019314735E+04 -0.52648588084E+02 -0.92081479159E+03  0.13618143896E+04  0.25500000920E-02 0. -1.
       -2    1    3    3    0  502  0.10019314735E+04  0.52648588084E+02 -0.75294957799E+03  0.12544208298E+04  0.25500000920E-02 0.  1.
</event>
<event>
 5   0  0.2020029E-05  0.2002032E+04  0.7818609E-02  0.8605671E-01
       -2   -1    0    0    0  501  0.00000000000E+00  0.00000000000E+00  0.70071948043E+03  0.70071948043E+03  0.25500000920E-02 0.  1.
        2   -1    0    0  501    0  0.00000000000E+00  0.00000000000E+00 -0.14300058471E+04  0.14300058471E+04  0.25500000920E-02 0. -1.
    10030    2    1    2    0    0  0.00000000000E+00  0.00000000000E+00 -0.72928636667E+03  0.21307253275E+04  0.20020319220E+04 0.  0.
        5    1    3    3  502    0  0.32767570404E+03 -0.77528778220E+03  0.21200521187E+03  0.86799240325E+03  0.46999998093E+01 0.  1.
       -5    1    3    3    0  502 -0.32767570404E+03  0.77528778220E+03 -0.94129157854E+03  0.12627329243E+04  0.46999998093E+01 0. -1.
</event>
<event>
 5   0  0.2038882E-05  0.1997087E+04  0.7818609E-02  0.8607984E-01
        2   -1    0    0  501    0  0.00000000000E+00  0.00000000000E+00  0.14483674989E+04  0.14483674989E+04  0.25500000920E-02 0. -1.
       -2   -1    0    0    0  501  0.00000000000E+00  0.00000000000E+00 -0.68842307176E+03  0.68842307177E+03  0.25500000920E-02 0.  1.
    10030    2    1    2    0    0  0.00000000000E+00  0.00000000000E+00  0.75994442711E+03  0.21367905706E+04  0.19970874819E+04 0.  0.
        3    1    3    3  502    0  0.10941072772E+03 -0.47685851791E+03 -0.55139432557E+03  0.73715701578E+03  0.10100000352E+00 0.  1.
       -3    1    3    3    0  502 -0.10941072772E+03  0.47685851791E+03  0.13113387527E+04  0.13996335549E+04  0.10100000352E+00 0. -1.
</event>
<event>
 5   0  0.2020029E-05  0.2006279E+04  0.7818609E-02  0.8603691E-01
       -2   -1    0    0    0  501  0.00000000000E+00  0.00000000000E+00  0.94245940566E+03  0.94245940566E+03  0.25500000920E-02 0. -1.
        2   -1    0    0  501    0  0.00000000000E+00  0.00000000000E+00 -0.10677265135E+04  0.10677265135E+04  0.25500000920E-02 0.  1.
    10030    2    1    2    0    0  0.00000000000E+00  0.00000000000E+00 -0.12526710786E+03  0.20101859192E+04  0.20062790388E+04 0.  0.
        5    1    3    3  502    0  0.35151948009E+03  0.64151133947E+03  0.62511703244E+03  0.96223497016E+03  0.46999998093E+01 0. -1.
       -5    1    3    3    0  502 -0.35151948009E+03 -0.64151133947E+03 -0.75038414030E+03  0.10479509490E+04  0.46999998093E+01 0.  1.
</event>
<event>
 5   0  0.9370269E-06  0.2006364E+04  0.7818609E-02  0.8603651E-01
       -1   -1    0    0    0  501  0.00000000000E+00  0.00000000000E+00  0.11944490721E+04  0.11944490721E+04  0.50400001928E-02 0. -1.
        1   -1    0    0  501    0  0.00000000000E+00  0.00000000000E+00 -0.84254291489E+03  0.84254291491E+03  0.50400001928E-02 0.  1.
    10030    2    1    2    0    0  0.00000000000E+00  0.00000000000E+00  0.35190615723E+03  0.20369919870E+04  0.20063644763E+04 0.  0.
        4    1    3    3  502    0  0.85496171380E+03  0.15003253064E+03  0.68652517995E+03  0.11067012822E+04  0.12699999809E+01 0. -1.
       -4    1    3    3    0  502 -0.85496171380E+03 -0.15003253064E+03 -0.33461902273E+03  0.93029070488E+03  0.12699999809E+01 0.  1.
</event>
<event>
 5   0  0.9220260E-06  0.2002885E+04  0.7818609E-02  0.8605273E-01
       -1   -1    0    0    0  501  0.00000000000E+00  0.00000000000E+00  0.78454099904E+03  0.78454099905E+03  0.50400001928E-02 0. -1.
        1   -1    0    0  501    0  0.00000000000E+00  0.00000000000E+00 -0.12783104509E+04  0.12783104509E+04  0.50400001928E-02 0.  1.
    10030    2    1    2    0    0  0.00000000000E+00  0.00000000000E+00 -0.49376945189E+03  0.20628514500E+04  0.20028848776E+04 0.  0.
        3    1    3    3  502    0  0.43315243554E+02 -0.49600834366E+03 -0.11417992343E+04  0.12456347735E+04  0.10100000352E+00 0.  1.
       -3    1    3    3    0  502 -0.43315243554E+02  0.49600834366E+03  0.64802978239E+03  0.81721667651E+03  0.10100000352E+00 0. -1.
</event>
<event>
 5   0  0.9220260E-06  0.1999698E+04  0.7818609E-02  0.8606762E-01
       -1   -1    0    0    0  501  0.00000000000E+00  0.00000000000E+00  0.79970746064E+03  0.79970746065E+03  0.50400001928E-02 0. -1.
        1   -1    0    0  501    0  0.00000000000E+00  0.00000000000E+00 -0.12500792789E+04  0.12500792790E+04  0.50400001928E-02 0.  1.
    10030    2    1    2    0    0  0.00000000000E+00  0.00000000000E+00 -0.45037181831E+03  0.20497867396E+04  0.19996977029E+04 0.  0.
        3    1    3    3  502    0  0.88833433714E+03 -0.44971206225E+03 -0.13169339985E+03  0.10043515297E+04  0.10100000352E+00 0. -1.
       -3    1    3    3    0  502 -0.88833433714E+03  0.44971206225E+03 -0.31867841845E+03  0.10454352099E+04  0.10100000352E+00 0.  1.
</event>
<event>
 5   0  0.9342635E-06  0.1998872E+04  0.7818609E-02  0.8607148E-01
        1   -1    0    0  501    0  0.00000000000E+00  0.00000000000E+00  0.16264199124E+04  0.16264199124E+04  0.50400001928E-02 0.  1.
       -1   -1    0    0    0  501  0.00000000000E+00  0.00000000000E+00 -0.61415428866E+03  0.61415428869E+03  0.50400001928E-02 0. -1.
    10030    2    1    2    0    0  0.00000000000E+00  0.00000000000E+00  0.10122656237E+04  0.22405742011E+04  0.19988724465E+04 0.  0.
        5    1    3    3  502    0  0.44344784822E+03 -0.44088117850E+02  0.15088767692E+04  0.15733152738E+04  0.46999998093E+01 0.  1.
       -5    1    3    3    0  502 -0.44344784822E+03  0.44088117850E+02 -0.49661114546E+03  0.66725892727E+03  0.46999998093E+01 0. -1.
</event>
<event>
 5   0  0.1979765E-05  0.1998580E+04  0.7818609E-02  0.8607285E-01
        2   -1    0    0  501    0  0.00000000000E+00  0.00000000000E+00  0.16515497125E+04  0.16515497125E+04  0.25500000920E-02 0. -1.
       -2   -1    0    0    0  501  0.00000000000E+00  0.00000000000E+00 -0.60463227411E+03  0.60463227412E+03  0.25500000920E-02 0.  1.
    10030    2    1    2    0    0  0.00000000000E+00  0.00000000000E+00  0.10469174384E+04  0.22561819866E+04  0.19985797542E+04 0.  0.
        2    1    3    3  502    0 -0.41976940356E+03 -0.65703859966E+03  0.12290610410E+04  0.14555057939E+04  0.25500000920E-02 0. -1.
       -2    1    3    3    0  502  0.41976940356E+03  0.65703859966E+03 -0.18214360260E+03  0.80067619272E+03  0.25500000920E-02 0.  1.
</event>
<event>
 5   0  0.2038882E-05  0.2000081E+04  0.7818609E-02  0.8606583E-01
        2   -1    0    0  501    0  0.00000000000E+00  0.00000000000E+00  0.12366511439E+04  0.12366511439E+04  0.25500000920E-02 0. -1.
       -2   -1    0    0    0  501  0.00000000000E+00  0.00000000000E+00 -0.80870108066E+03  0.80870108067E+03  0.25500000920E-02 0.  1.
    10030    2    1    2    0    0  0.00000000000E+00  0.00000000000E+00  0.42795006326E+03  0.20453522246E+04  0.20000811149E+04 0.  0.
        3    1    3    3  502    0 -0.62850981220E+03 -0.87204189727E+02  0.10044206389E+04  0.11880614399E+04  0.10100000352E+00 0. -1.
       -3    1    3    3    0  502  0.62850981220E+03  0.87204189727E+02 -0.57647057569E+03  0.85729078473E+03  0.10100000352E+00 0.  1.
</event>
<event>
 5   0  0.2038882E-05  0.1994882E+04  0.7818609E-02  0.8609017E-01
        2   -1    0    0  501    0  0.00000000000E+00  0.00000000000E+00  0.19671819207E+04  0.19671819207E+04  0.25500000920E-02 0. -1.
       -2   -1    0    0    0  501  0.00000000000E+00  0.00000000000E+00 -0.50574287205E+03  0.50574287206E+03  0.25500000920E-02 0.  1.
    10030    2    1    2    0    0  0.00000000000E+00  0.00000000000E+00  0.14614390487E+04  0.24729247928E+04  0.19948816852E+04 0.  0.
        3    1    3    3  502    0 -0.40697673585E+03  0.80536321007E+03  0.12575982436E+04  0.15478350416E+04  0.10100000352E+00 0. -1.
       -3    1    3    3    0  502  0.40697673585E+03 -0.80536321007E+03  0.20384080510E+03  0.92508975115E+03  0.10100000352E+00 0.  1.
</event>
<event>
 5   0  0.9333353E-06  0.2000942E+04  0.7818609E-02  0.8606180E-01
        1   -1    0    0  501    0  0.00000000000E+00  0.00000000000E+00  0.98931163751E+03  0.98931163752E+03  0.50400001928E-02 0.  1.
       -1   -1    0    0    0  501  0.00000000000E+00  0.00000000000E+00 -0.10117564484E+04  0.10117564484E+04  0.50400001928E-02 0. -1.
    10030    2    1    2    0    0  0.00000000000E+00  0.00000000000E+00 -0.22444810870E+02  0.20010680859E+04  0.20009422068E+04 0.  0.
        2    1    3    3  502    0 -0.50789842522E+03 -0.45811003465E+03  0.71897201616E+03  0.99234387901E+03  0.25500000920E-02 0.  1.
       -2    1    3    3    0  502  0.50789842522E+03  0.45811003465E+03 -0.74141682703E+03  0.10087242069E+04  0.25500000920E-02 0. -1.
</event>
<event>
 5   0  0.2003576E-05  0.1996556E+04  0.7818609E-02  0.8608232E-01
       -2   -1    0    0    0  501  0.00000000000E+00  0.00000000000E+00  0.44885242447E+03  0.44885242448E+03  0.25500000920E-02 0.  1.
        2   -1    0    0  501    0  0.00000000000E+00  0.00000000000E+00 -0.22202380427E+04  0.22202380427E+04  0.25500000920E-02 0. -1.
    10030    2    1    2    0    0  0.00000000000E+00  0.00000000000E+00 -0.17713856182E+04  0.26690904672E+04  0.19965562636E+04 0.  0.
        4    1    3    3  502    0 -0.57321900600E+03  0.81284630166E+03 -0.99958776212E+03  0.14101334852E+04  0.12699999809E+01 0. -1.
       -4    1    3    3    0  502  0.57321900600E+03 -0.81284630166E+03 -0.77179785612E+03  0.12589569820E+04  0.12699999809E+01 0.  1.
</event>
<event>
 5   0  0.2038882E-05  0.2002400E+04  0.7818609E-02  0.8605500E-01
       -2   -1    0    0    0  501  0.00000000000E+00  0.00000000000E+00  0.91002108820E+03  0.91002108820E+03  0.25500000920E-02 0.  1.
        2   -1    0    0  501    0  0.00000000000E+00  0.00000000000E+00 -0.11015140674E+04  0.11015140674E+04  0.25500000920E-02 0. -1.
    10030    2    1    2    0    0  0.00000000000E+00  0.00000000000E+00 -0.19149297920E+03  0.20115351556E+04  0.20023995908E+04 0.  0.
        3    1    3    3  502    0  0.71500335573E+03  0.33575748493E+03  0.52223337482E+03  0.94693748229E+03  0.10100000352E+00 0.  1.
       -3    1    3    3    0  502 -0.71500335573E+03 -0.33575748493E+03 -0.71372635402E+03  0.10645976733E+04  0.10100000352E+00 0. -1.
</event>
<event>
 5   0  0.2038882E-05  0.1998900E+04  0.7818609E-02  0.8607135E-01
       -2   -1    0    0    0  501  0.00000000000E+00  0.00000000000E+00  0.71008531043E+03  0.71008531044E+03  0.25500000920E-02 0. -1.
        2   -1    0    0  501    0  0.00000000000E+00  0.00000000000E+00 -0.14067327841E+04  0.14067327841E+04  0.25500000920E-02 0.  1.
    10030    2    1    2    0    0  0.00000000000E+00  0.00000000000E+00 -0.69664747366E+03  0.21168180945E+04  0.19988999832E+04 0.  0.
        3    1    3    3  502    0  0.50862414331E+03  0.70939961253E+03 -0.86381872545E+03  0.12280590906E+04  0.10100000352E+00 0. -1.
       -3    1    3    3    0  502 -0.50862414331E+03 -0.70939961253E+03  0.16717125178E+03  0.88875900391E+03  0.10100000352E+00 0.  1.
</event>
<event>
 5   0  0.2038882E-05  0.2016090E+04  0.7818609E-02  0.8599135E-01
        2   -1    0    0  501    0  0.00000000000E+00  0.00000000000E+00  0.15386691731E+04  0.15386691731E+04  0.25500000920E-02 0.  1.
       -2   -1    0    0    0  501  0.00000000000E+00  0.00000000000E+00 -0.66041143981E+03  0.66041143981E+03  0.25500000920E-02 0. -1.
    10030    2    1    2    0    0  0.00000000000E+00  0.00000000000E+00  0.87825773326E+03  0.21990806129E+04  0.20160900019E+04 0.  0.
        3    1    3    3  502    0  0.70894906052E+03 -0.13665995043E+03 -0.32819162769E+03  0.79309171421E+03  0.10100000352E+00 0. -1.
       -3    1    3    3    0  502 -0.70894906052E+03  0.13665995043E+03  0.12064493610E+04  0.14059888987E+04  0.10100000352E+00 0.  1.
</event>
<event>
 5   0  0.2020029E-05  0.2000147E+04  0.7818609E-02  0.8606552E-01
        2   -1    0    0  501    0  0.00000000000E+00  0.00000000000E+00  0.70428888566E+03  0.70428888567E+03  0.25500000920E-02 0.  1.
       -2   -1    0    0    0  501  0.00000000000E+00  0.00000000000E+00 -0.14200813216E+04  0.14200813216E+04  0.25500000920E-02 0. -1.
    10030    2    1    2    0    0  0.00000000000E+00  0.00000000000E+00 -0.71579243592E+03  0.21243702073E+04  0.20001474861E+04 0.  0.
        5    1    3    3  502    0 -0.49112411934E+03 -0.11546932824E+03 -0.12749990300E+04  0.13711968068E+04  0.46999998093E+01 0. -1.
       -5    1    3    3    0  502  0.49112411934E+03  0.11546932824E+03  0.55920659408E+03  0.75317340050E+03  0.46999998093E+01 0.  1.
</event>
<event>
 5   0  0.9220260E-06  0.1989994E+04  0.7818609E-02  0.8611313E-01
       -1   -1    0    0    0  501  0.00000000000E+00  0.00000000000E+00  0.56636734755E+03  0.56636734757E+03  0.50400001928E-02 0.  1.
        1   -1    0    0  501    0  0.00000000000E+00  0.00000000000E+00 -0.17480161843E+04  0.17480161843E+04  0.50400001928E-02 0. -1.
    10030    2    1    2    0    0  0.00000000000E+00  0.00000000000E+00 -0.11816488368E+04  0.23143835319E+04  0.19899942611E+04 0.  0.
        3    1    3    3  502    0 -0.45764738765E+02 -0.15405989640E+03  0.55117244674E+03  0.57412536892E+03  0.10100000352E+00 0.  1.
       -3    1    3    3    0  502  0.45764738765E+02  0.15405989640E+03 -0.17328212835E+04  0.17402581630E+04  0.10100000352E+00 0. -1.
</event>
<event>
 5   0  0.9333353E-06  0.2002483E+04  0.7818609E-02  0.8605460E-01
        1   -1    0    0  501    0  0.00000000000E+00  0.00000000000E+00  0.13019861926E+04  0.13019861926E+04  0.50400001928E-02 0.  1.
       -1   -1    0    0    0  501  0.00000000000E+00  0.00000000000E+00 -0.76996592106E+03  0.76996592108E+03  0.50400001928E-02 0. -1.
    10030    2    1    2    0    0  0.00000000000E+00  0.00000000000E+00  0.53202027151E+03  0.20719521137E+04  0.20024834561E+04 0.  0.
        2    1    3    3  502    0  0.96091214802E+03  0.25827908549E+03  0.15067683863E+03  0.10063616407E+04  0.25500000920E-02 0. -1.
       -2    1    3    3    0  502 -0.96091214802E+03 -0.25827908549E+03  0.38134343288E+03  0.10655904729E+04  0.25500000920E-02 0.  1.
</event>
<event>
 5   0  0.9370269E-06  0.1992490E+04  0.7818609E-02  0.8610140E-01
        1   -1    0    0  501    0  0.00000000000E+00  0.00000000000E+00  0.12910487785E+04  0.12910487785E+04  0.50400001928E-02 0. -1.
       -1   -1    0    0    0  501  0.00000000000E+00  0.00000000000E+00 -0.76875802512E+03  0.76875802513E+03  0.50400001928E-02 0.  1.
    10030    2    1    2    0    0  0.00000000000E+00  0.00000000000E+00  0.52229075341E+03  0.20598068037E+04  0.19924900093E+04 0.  0.
        4    1    3    3  502    0  0.83426211371E+03  0.26671118533E+03  0.75192056072E+03  0.11543458205E+04  0.12699999809E+01 0. -1.
       -4    1    3    3    0  502 -0.83426211371E+03 -0.26671118533E+03 -0.22962980731E+03  0.90546098318E+03  0.12699999809E+01 0.  1.
</event>
<event>
 5   0  0.2038882E-05  0.1995807E+04  0.7818609E-02  0.8608584E-01
        2   -1    0    0  501    0  0.00000000000E+00  0.00000000000E+00  0.11595556997E+04  0.11595556997E+04  0.25500000920E-02 0. -1.
       -2   -1    0    0    0  501  0.00000000000E+00  0.00000000000E+00 -0.85878675765E+03  0.85878675765E+03  0.25500000920E-02 0.  1.
    10030    2    1    2    0    0  0.00000000000E+00  0.00000000000E+00  0.30076894203E+03  0.20183424573E+04  0.19958066837E+04 0.  0.
        3    1    3    3  502    0 -0.15662607461E+02 -0.97234600033E+03 -0.75993563624E+02  0.97543687317E+03  0.10100000352E+00 0. -1.
       -3    1    3    3    0  502  0.15662607461E+02  0.97234600033E+03  0.37676250565E+03  0.10429055842E+04  0.10100000352E+00 0.  1.
</event>
<event>
 5   0  0.2038882E-05  0.2000228E+04  0.7818609E-02  0.8606514E-01
       -2   -1    0    0    0  501  0.00000000000E+00  0.00000000000E+00  0.44010020998E+03  0.44010020999E+03  0.25500000920E-02 0.  1.
        2   -1    0    0  501    0  0.00000000000E+00  0.00000000000E+00 -0.22727273036E+04  0.22727273036E+04  0.25500000920E-02 0. -1.
    10030    2    1    2    0    0  0.00000000000E+00  0.00000000000E+00 -0.18326270936E+04  0.27128275136E+04  0.20002277506E+04 0.  0.
        3    1    3    3  502    0  0.54057004141E+03 -0.69752823591E+03 -0.27805534398E+03  0.92524396463E+03  0.10100000352E+00 0.  1.
       -3    1    3    3    0  502 -0.54057004141E+03  0.69752823591E+03 -0.15545717497E+04  0.17875835490E+04  0.10100000352E+00 0. -1.
</event>
<event>
 5   0  0.1999142E-05  0.1994100E+04  0.7818609E-02  0.8609384E-01
       -2   -1    0    0    0  501  0.00000000000E+00  0.00000000000E+00  0.11354445193E+04  0.11354445193E+04  0.25500000920E-02 0.  1.
        2   -1    0    0  501    0  0.00000000000E+00  0.00000000000E+00 -0.87552368017E+03  0.87552368018E+03  0.25500000920E-02 0. -1.
    10030    2    1    2    0    0  0.00000000000E+00  0.00000000000E+00  0.25992083912E+03  0.20109681995E+04  0.19940998613E+04 0.  0.
        1    1    3    3  502    0  0.35413333067E+02 -0.76304967701E+02 -0.87193852409E+03  0.87598706730E+03  0.50400001928E-02 0. -1.
       -1    1    3    3    0  502 -0.35413333067E+02  0.76304967701E+02  0.11318593632E+04  0.11349811322E+04  0.50400001928E-02 0.  1.
</event>
<event>
 5   0  0.9140695E-06  0.2001777E+04  0.7818609E-02  0.8605790E-01
       -1   -1    0    0    0  501  0.00000000000E+00  0.00000000000E+00  0.95466779339E+03  0.95466779341E+03  0.50400001928E-02 0.  1.
        1   -1    0    0  501    0  0.00000000000E+00  0.00000000000E+00 -0.10493470087E+04  0.10493470087E+04  0.50400001928E-02 0. -1.
    10030    2    1    2    0    0  0.00000000000E+00  0.00000000000E+00 -0.94679215289E+02  0.20040148021E+04  0.20017770039E+04 0.  0.
        1    1    3    3  502    0  0.24331096098E+03 -0.52046918719E+03  0.77314318021E+03  0.96324388172E+03  0.50400001928E-02 0.  1.
       -1    1    3    3    0  502 -0.24331096098E+03  0.52046918719E+03 -0.86782239550E+03  0.10407709204E+04  0.50400001928E-02 0. -1.
</event>
<event>
 5   0  0.1979765E-05  0.2005909E+04  0.7818609E-02  0.8603863E-01
       -2   -1    0    0    0  501  0.00000000000E+00  0.00000000000E+00  0.83755900953E+03  0.83755900953E+03  0.25500000920E-02 0. -1.
        2   -1    0    0  501    0  0.00000000000E+00  0.00000000000E+00 -0.12010109653E+04  0.12010109653E+04  0.25500000920E-02 0.  1.
    10030    2    1    2    0    0  0.00000000000E+00  0.00000000000E+00 -0.36345195582E+03  0.20385699749E+04  0.20059088260E+04 0.  0.
        2    1    3    3  502    0 -0.36032337963E+03  0.52176006034E+03  0.60800531875E+03  0.87848560950E+03  0.25500000920E-02 0. -1.
       -2    1    3    3    0  502  0.36032337963E+03 -0.52176006034E+03 -0.97145727456E+03  0.11600843654E+04  0.25500000920E-02 0.  1.
</event>
<event>
 5   0  0.2038882E-05  0.1997706E+04  0.7818609E-02  0.8607694E-01
        2   -1    0    0  501    0  0.00000000000E+00  0.00000000000E+00  0.60234078519E+03  0.60234078520E+03  0.25500000920E-02 0. -1.
       -2   -1    0    0    0  501  0.00000000000E+00  0.00000000000E+00 -0.16563834088E+04  0.16563834088E+04  0.25500000920E-02 0.  1.
    10030    2    1    2    0    0  0.00000000000E+00  0.00000000000E+00 -0.10540426236E+04  0.22587241940E+04  0.19977059674E+04 0.  0.
        3    1    3    3  502    0 -0.40761120272E+03  0.62536568449E+03  0.22338040229E+03  0.77918415426E+03  0.10100000352E+00 0. -1.
       -3    1    3    3    0  502  0.40761120272E+03 -0.62536568449E+03 -0.12774230259E+04  0.14795400397E+04  0.10100000352E+00 0.  1.
</event>
<event>
 5   0  0.9140695E-06  0.2001176E+04  0.7818609E-02  0.8606071E-01
       -1   -1    0    0    0  501  0.00000000000E+00  0.00000000000E+00  0.61199340718E+03  0.61199340720E+03  0.50400001928E-02 0. -1.
        1   -1    0    0  501    0  0.00000000000E+00  0.00000000000E+00 -0.16359270959E+04  0.16359270959E+04  0.50400001928E-02 0.  1.
    10030    2    1    2    0    0  0.00000000000E+00  0.00000000000E+00 -0.10239336887E+04  0.22479205031E+04  0.20011762515E+04 0.  0.
        1    1    3    3  502    0  0.25049573059E+03  0.30265702607E+03 -0.15456632603E+04  0.15948116819E+04  0.50400001928E-02 0.  1.
       -1    1    3    3    0  502 -0.25049573059E+03 -0.30265702607E+03  0.52172957158E+03  0.65310882122E+03  0.50400001928E-02 0. -1.
</event>
<event>
 5   0  0.2003576E-05  0.2000107E+04  0.7818609E-02  0.8606571E-01
       -2   -1    0    0    0  501  0.00000000000E+00  0.00000000000E+00  0.39054891645E+03  0.39054891645E+03  0.25500000920E-02 0. -1.
        2   -1    0    0  501    0  0.00000000000E+00  0.00000000000E+00 -0.25607721783E+04  0.25607721783E+04  0.25500000920E-02 0.  1.
    10030    2    1    2    0    0  0.00000000000E+00  0.00000000000E+00 -0.21702232618E+04  0.29513210947E+04  0.20001067966E+04 0.  0.
        4    1    3    3  502    0 -0.21275869223E+03  0.35078948012E+03  0.26065263521E+03  0.48606679543E+03  0.12699999809E+01 0. -1.
       -4    1    3    3    0  502  0.21275869223E+03 -0.35078948012E+03 -0.24308758970E+04  0.24652542993E+04  0.12699999809E+01 0.  1.
</event>
<event>
 5   0  0.9342635E-06  0.2001668E+04  0.7818609E-02  0.8605841E-01
        1   -1    0    0  501    0  0.00000000000E+00  0.00000000000E+00  0.17847982337E+04  0.17847982337E+04  0.50400001928E-02 0. -1.
       -1   -1    0    0    0  501  0.00000000000E+00  0.00000000000E+00 -0.56122234196E+03  0.56122234198E+03  0.50400001928E-02 0.  1.
    10030    2    1    2    0    0  0.00000000000E+00  0.00000000000E+00  0.12235758918E+04  0.23460205757E+04  0.20016679492E+04 0.  0.
        5    1    3    3  502    0 -0.41237896997E+03  0.65625807352E+03  0.13538943759E+04  0.15600586992E+04  0.46999998093E+01 0. -1.
       -5    1    3    3    0  502  0.41237896997E+03 -0.65625807352E+03 -0.13031848417E+03  0.78596187646E+03  0.46999998093E+01 0.  1.
</event>
<event>
 5   0  0.2020029E-05  0.1997691E+04  0.7818609E-02  0.8607701E-01
        2   -1    0    0  501    0  0.00000000000E+00  0.00000000000E+00  0.14353856262E+04  0.14353856262E+04  0.25500000920E-02 0. -1.
       -2   -1    0    0    0  501  0.00000000000E+00  0.00000000000E+00 -0.69506919036E+03  0.69506919036E+03  0.25500000920E-02 0.  1.
    10030    2    1    2    0    0  0.00000000000E+00  0.00000000000E+00  0.74031643586E+03  0.21304548166E+04  0.19976909922E+04 0.  0.
        5    1    3    3  502    0 -0.77955130567E+03  0.25580224869E+03 -0.23738184972E+03  0.85411197227E+03  0.46999998093E+01 0.  1.
       -5    1    3    3    0  502  0.77955130567E+03 -0.25580224869E+03  0.97769828558E+03  0.12763428443E+04  0.46999998093E+01 0. -1.
</event>
<event>
 5   0  0.2003576E-05  0.2001306E+04  0.7818609E-02  0.8606010E-01
        2   -1    0    0  501    0  0.00000000000E+00  0.00000000000E+00  0.97415282397E+03  0.97415282397E+03  0.25500000920E-02 0.  1.
       -2   -1    0    0    0  501  0.00000000000E+00  0.00000000000E+00 -0.10278737892E+04  0.10278737892E+04  0.25500000920E-02 0. -1.
    10030    2    1    2    0    0  0.00000000000E+00  0.00000000000E+00 -0.53720965281E+02  0.20020266132E+04  0.20013057282E+04 0.  0.
        4    1    3    3  502    0 -0.87862184790E+03  0.22327397546E+03  0.39693928488E+03  0.98964136358E+03  0.12699999809E+01 0. -1.
       -4    1    3    3    0  502  0.87862184790E+03 -0.22327397546E+03 -0.45066025016E+03  0.10123852496E+04  0.12699999809E+01 0.  1.
</event>
<event>
 5   0  0.2038882E-05  0.2002245E+04  0.7818609E-02  0.8605572E-01
       -2   -1    0    0    0  501  0.00000000000E+00  0.00000000000E+00  0.79722918920E+03  0.79722918920E+03  0.25500000920E-02 0. -1.
        2   -1    0    0  501    0  0.00000000000E+00  0.00000000000E+00 -0.12571614288E+04  0.12571614288E+04  0.25500000920E-02 0.  1.
    10030    2    1    2    0    0  0.00000000000E+00  0.00000000000E+00 -0.45993223962E+03  0.20543906180E+04  0.20022445271E+04 0.  0.
        3    1    3    3  502    0 -0.20684901995E+03 -0.94844418504E+03 -0.48111198485E+03  0.10834212668E+04  0.10100000352E+00 0. -1.
       -3    1    3    3    0  502  0.20684901995E+03  0.94844418504E+03  0.21179745234E+02  0.97096935122E+03  0.10100000352E+00 0.  1.
</event>
<event>
 5   0  0.2038882E-05  0.2007066E+04  0.7818609E-02  0.8603324E-01
       -2   -1    0    0    0  501  0.00000000000E+00  0.00000000000E+00  0.19999659634E+04  0.19999659634E+04  0.25500000920E-02 0.  1.
        2   -1    0    0  501    0  0.00000000000E+00  0.00000000000E+00 -0.50354779760E+03  0.50354779761E+03  0.25500000920E-02 0. -1.
    10030    2    1    2    0    0  0.00000000000E+00  0.00000000000E+00  0.14964181658E+04  0.25035137610E+04  0.20070659742E+04 0.  0.
        3    1    3    3  502    0  0.94225027830E+03  0.34456209620E+03  0.71977002579E+03  0.12347580837E+04  0.10100000352E+00 0. -1.
       -3    1    3    3    0  502 -0.94225027830E+03 -0.34456209620E+03  0.77664814004E+03  0.12687556773E+04  0.10100000352E+00 0.  1.
</event>
<event>
 5   0  0.2003576E-05  0.1999053E+04  0.7818609E-02  0.8607063E-01
        2   -1    0    0  501    0  0.00000000000E+00  0.00000000000E+00  0.16757831556E+04  0.16757831556E+04  0.25500000920E-02 0.  1.
       -2   -1    0    0    0  501  0.00000000000E+00  0.00000000000E+00 -0.59617116799E+03  0.59617116800E+03  0.25500000920E-02 0. -1.
    10030    2    1    2    0    0  0.00000000000E+00  0.00000000000E+00  0.10796119876E+04  0.22719543236E+04  0.19990533772E+04 0.  0.
        4    1    3    3  502    0 -0.46102675343E+03 -0.54329999838E+03 -0.25683468650E+03  0.75742077124E+03  0.12699999809E+01 0. -1.
       -4    1    3    3    0  502  0.46102675343E+03  0.54329999838E+03  0.13364466741E+04  0.15145335524E+04  0.12699999809E+01 0.  1.
</event>
<event>
 5   0  0.2038882E-05  0.2005394E+04  0.7818609E-02  0.8604103E-01
        2   -1    0    0  501    0  0.00000000000E+00  0.00000000000E+00  0.19292912452E+04  0.19292912452E+04  0.25500000920E-02 0. -1.
       -2   -1    0    0    0  501  0.00000000000E+00  0.00000000000E+00 -0.52112481672E+03  0.52112481672E+03  0.25500000920E-02 0.  1.
    10030    2    1    2    0    0  0.00000000000E+00  0.00000000000E+00  0.14081664285E+04  0.24504160619E+04  0.20053942720E+04 0.  0.
        3    1    3    3  502    0  0.79350402957E+03  0.47864079506E+03  0.11720228164E+04  0.14941161762E+04  0.10100000352E+00 0. -1.
       -3    1    3    3    0  502 -0.79350402957E+03 -0.47864079506E+03  0.23614361204E+03  0.95629988567E+03  0.10100000352E+00 0.  1.
</event>
<event>
 5   0  0.9342635E-06  0.2001046E+04  0.7818609E-02  0.8606132E-01
        1   -1    0    0  501    0  0.00000000000E+00  0.00000000000E+00  0.17843436863E+04  0.17843436863E+04  0.50400001928E-02 0. -1.
       -1   -1    0    0    0  501  0.00000000000E+00  0.00000000000E+00 -0.56101634061E+03  0.56101634063E+03  0.50400001928E-02 0.  1.
    10030    2    1    2    0    0  0.00000000000E+00  0.00000000000E+00  0.12233273456E+04  0.23453600269E+04  0.20010456919E+04 0.  0.
        5    1    3    3  502    0  0.36118398117E+03  0.25854201406E+03  0.16624309306E+04  0.17207546398E+04  0.46999998093E+01 0. -1.
       -5    1    3    3    0  502 -0.36118398117E+03 -0.25854201406E+03 -0.43910358496E+03  0.62460538711E+03  0.46999998093E+01 0.  1.
</event>
<event>
 5   0  0.1999142E-05  0.2001654E+04  0.7818609E-02  0.8605848E-01
        2   -1    0    0  501    0  0.00000000000E+00  0.00000000000E+00  0.10716694252E+04  0.10716694252E+04  0.25500000920E-02 0.  1.
       -2   -1    0    0    0  501  0.00000000000E+00  0.00000000000E+00 -0.93466804070E+03  0.93466804071E+03  0.25500000920E-02 0. -1.
    10030    2    1    2    0    0  0.00000000000E+00  0.00000000000E+00  0.13700138449E+03  0.20063374659E+04  0.20016544776E+04 0.  0.
        1    1    3    3  502    0 -0.44486045744E+03 -0.21417278990E+03  0.94110296685E+03  0.10627537837E+04  0.50400001928E-02 0.  1.
       -1    1    3    3    0  502  0.44486045744E+03  0.21417278990E+03 -0.80410158236E+03  0.94358368220E+03  0.50400001928E-02 0. -1.
</event>
<event>
 5   0  0.9140695E-06  0.1997921E+04  0.7818609E-02  0.8607593E-01
       -1   -1    0    0    0  501  0.00000000000E+00  0.00000000000E+00  0.55361438140E+03  0.55361438143E+03  0.50400001928E-02 0. -1.
        1   -1    0    0  501    0  0.00000000000E+00  0.00000000000E+00 -0.18025574515E+04  0.18025574515E+04  0.50400001928E-02 0.  1.
    10030    2    1    2    0    0  0.00000000000E+00  0.00000000000E+00 -0.12489430701E+04  0.23561718330E+04  0.19979206476E+04 0.  0.
        1    1    3    3  502    0  0.50306071294E+03 -0.67469861844E+03 -0.12591489766E+04  0.15145112914E+04  0.50400001928E-02 0. -1.
       -1    1    3    3    0  502 -0.50306071294E+03  0.67469861844E+03  0.10205906442E+02  0.84166054154E+03  0.50400001928E-02 0.  1.
</event>
<event>
 5   0  0.2003576E-05  0.2001341E+04  0.7818609E-02  0.8605994E-01
        2   -1    0    0  501    0  0.00000000000E+00  0.00000000000E+00  0.97859207418E+03  0.97859207419E+03  0.25500000920E-02 0. -1.
       -2   -1    0    0    0  501  0.00000000000E+00  0.00000000000E+00 -0.10232475197E+04  0.10232475197E+04  0.25500000920E-02 0.  1.
    10030    2    1    2    0    0  0.00000000000E+00  0.00000000000E+00 -0.44655445555E+02  0.20018395939E+04  0.20013414629E+04 0.  0.
        4    1    3    3  502    0 -0.71531378915E+03 -0.61665575825E+03  0.30851457437E+03  0.99353963012E+03  0.12699999809E+01 0. -1.
       -4    1    3    3    0  502  0.71531378915E+03  0.61665575825E+03 -0.35317001992E+03  0.10082999638E+04  0.12699999809E+01 0.  1.
</event>
<event>
 5   0  0.2003576E-05  0.1995335E+04  0.7818609E-02  0.8608805E-01
        2   -1    0    0  501    0  0.00000000000E+00  0.00000000000E+00  0.14902533310E+04  0.14902533310E+04  0.25500000920E-02 0. -1.
       -2   -1    0    0    0  501  0.00000000000E+00  0.00000000000E+00 -0.66790006228E+03  0.66790006229E+03  0.25500000920E-02 0.  1.
    10030    2    1    2    0    0  0.00000000000E+00  0.00000000000E+00  0.82235326872E+03  0.21581533933E+04  0.19953348517E+04 0.  0.
        4    1    3    3  502    0  0.13641232736E+03 -0.97990083794E+03  0.27213867928E+03  0.10260969978E+04  0.12699999809E+01 0.  1.
       -4    1    3    3    0  502 -0.13641232736E+03  0.97990083794E+03  0.55021458944E+03  0.11320563955E+04  0.12699999809E+01 0. -1.
</event>
<event>
 5   0  0.7132000E-06  0.2001875E+04  0.7818609E-02  0.8605745E-01
        3   -1    0    0  501    0  0.00000000000E+00  0.00000000000E+00  0.66067130417E+03  0.66067131189E+03  0.10100000352E+00 0.  1.
       -3   -1    0    0    0  501  0.00000000000E+00  0.00000000000E+00 -0.15164508956E+04  0.15164508989E+04  0.10100000352E+00 0. -1.
    10030    2    1    2    0    0  0.00000000000E+00  0.00000000000E+00 -0.85577959141E+03  0.21771222108E+04  0.20018747243E+04 0.  0.
        4    1    3    3  502    0 -0.38940454796E+03  0.69341405248E+03  0.23311285135E+03  0.82873528011E+03  0.12699999809E+01 0.  1.
       -4    1    3    3    0  502  0.38940454796E+03 -0.69341405248E+03 -0.10888924428E+04  0.13483869307E+04  0.12699999809E+01 0. -1.
</event>
<event>
 5   0  0.2003576E-05  0.1994934E+04  0.7818609E-02  0.8608993E-01
       -2   -1    0    0    0  501  0.00000000000E+00  0.00000000000E+00  0.48278558482E+03  0.48278558483E+03  0.25500000920E-02 0.  1.
        2   -1    0    0  501    0  0.00000000000E+00  0.00000000000E+00 -0.20608336628E+04  0.20608336628E+04  0.25500000920E-02 0. -1.
    10030    2    1    2    0    0  0.00000000000E+00  0.00000000000E+00 -0.15780480779E+04  0.25436192476E+04  0.19949343699E+04 0.  0.
        4    1    3    3  502    0 -0.59284123336E+03 -0.79981700353E+03 -0.86732436417E+03  0.13203867360E+04  0.12699999809E+01 0.  1.
       -4    1    3    3    0  502  0.59284123336E+03  0.79981700353E+03 -0.71072371377E+03  0.12232325116E+04  0.12699999809E+01 0. -1.
</event>
<event>
 5   0  0.1999142E-05  0.2002188E+04  0.7818609E-02  0.8605598E-01
       -2   -1    0    0    0  501  0.00000000000E+00  0.00000000000E+00  0.52594734785E+03  0.52594734786E+03  0.25500000920E-02 0.  1.
        2   -1    0    0  501    0  0.00000000000E+00  0.00000000000E+00 -0.19054942221E+04  0.19054942221E+04  0.25500000920E-02 0. -1.
    10030    2    1    2    0    0  0.00000000000E+00  0.00000000000E+00 -0.13795468742E+04  0.24314415700E+04  0.20021884352E+04 0.  0.
        1    1    3    3  502    0  0.80927146142E+03 -0.58776208066E+03 -0.74136824486E+03  0.12449945527E+04  0.50400001928E-02 0.  1.
       -1    1    3    3    0  502 -0.80927146142E+03  0.58776208066E+03 -0.63817862938E+03  0.11864470173E+04  0.50400001928E-02 0. -1.
</event>
<event>
 5   0  0.9370269E-06  0.1989111E+04  0.7818609E-02  0.8611728E-01
       -1   -1    0    0    0  501  0.00000000000E+00  0.00000000000E+00  0.12227687939E+04  0.12227687939E+04  0.50400001928E-02 0. -1.
        1   -1    0    0  501    0  0.00000000000E+00  0.00000000000E+00 -0.80893535342E+03  0.80893535343E+03  0.50400001928E-02 0.  1.
    10030    2    1    2    0    0  0.00000000000E+00  0.00000000000E+00  0.41383344049E+03  0.20317041473E+04  0.19891112653E+04 0.  0.
        4    1    3    3  502    0 -0.21257577819E+03 -0.68741398704E+03 -0.49438046361E+03  0.87300636123E+03  0.12699999809E+01 0.  1.
       -4    1    3    3    0  502  0.21257577819E+03  0.68741398704E+03  0.90821390410E+03  0.11586977861E+04  0.12699999809E+01 0. -1.
</event>
<event>
 5   0  0.7132000E-06  0.1991671E+04  0.7818609E-02  0.8610525E-01
        3   -1    0    0  501    0  0.00000000000E+00  0.00000000000E+00  0.17261375547E+04  0.17261375577E+04  0.10100000352E+00 0. -1.
       -3   -1    0    0    0  501  0.00000000000E+00  0.00000000000E+00 -0.57451290231E+03  0.57451291119E+03  0.10100000352E+00 0.  1.
    10030    2    1    2    0    0  0.00000000000E+00  0.00000000000E+00  0.11516246524E+04  0.23006504689E+04  0.19916709668E+04 0.  0.
        1    1    3    3  502    0 -0.21289631228E+03 -0.82405210466E+02 -0.54387891200E+03  0.58984720856E+03  0.50400001928E-02 0.  1.
       -1    1    3    3    0  502  0.21289631228E+03  0.82405210466E+02  0.16955035644E+04  0.17108032603E+04  0.50400001928E-02 0. -1.
</event>
<event>
 5   0  0.9342635E-06  0.1986781E+04  0.7818609E-02  0.8612826E-01
        1   -1    0    0  501    0  0.00000000000E+00  0.00000000000E+00  0.75308303521E+03  0.75308303523E+03  0.50400001928E-02 0. -1.
       -1   -1    0    0    0  501  0.00000000000E+00  0.00000000000E+00 -0.13103790404E+04  0.13103790404E+04  0.50400001928E-02 0.  1.
    10030    2    1    2    0    0  0.00000000000E+00  0.00000000000E+00 -0.55729600516E+03  0.20634620756E+04  0.19867805365E+04 0.  0.
        5    1    3    3  502    0 -0.31460388689E+03  0.79023310597E+02 -0.12538125721E+04  0.12951016737E+04  0.46999998093E+01 0.  1.
       -5    1    3    3    0  502  0.31460388689E+03 -0.79023310597E+02  0.69651656692E+03  0.76836040193E+03  0.46999998093E+01 0. -1.
</event>
<event>
 5   0  0.2003576E-05  0.2021905E+04  0.7818609E-02  0.8596447E-01
        2   -1    0    0  501    0  0.00000000000E+00  0.00000000000E+00  0.62409175317E+03  0.62409175318E+03  0.25500000920E-02 0.  1.
       -2   -1    0    0    0  501  0.00000000000E+00  0.00000000000E+00 -0.16376198934E+04  0.16376198934E+04  0.25500000920E-02 0. -1.
    10030    2    1    2    0    0  0.00000000000E+00  0.00000000000E+00 -0.10135281402E+04  0.22617116466E+04  0.20219051118E+04 0.  0.
        4    1    3    3  502    0 -0.48289170358E+03 -0.51014334558E+03 -0.13200384606E+04  0.14953039092E+04  0.12699999809E+01 0. -1.
       -4    1    3    3    0  502  0.48289170358E+03  0.51014334558E+03  0.30651032044E+03  0.76640773734E+03  0.12699999809E+01 0.  1.
</event>
<event>
 5   0  0.1999142E-05  0.2000892E+04  0.7818609E-02  0.8606204E-01
        2   -1    0    0  501    0  0.00000000000E+00  0.00000000000E+00  0.67940656545E+03  0.67940656546E+03  0.25500000920E-02 0. -1.
       -2   -1    0    0    0  501  0.00000000000E+00  0.00000000000E+00 -0.14731853375E+04  0.14731853375E+04  0.25500000920E-02 0.  1.
    10030    2    1    2    0    0  0.00000000000E+00  0.00000000000E+00 -0.79377877209E+03  0.21525919030E+04  0.20008915917E+04 0.  0.
        1    1    3    3  502    0 -0.13988215530E+03 -0.27247316213E+03  0.62772793350E+03  0.69846331326E+03  0.50400001928E-02 0. -1.
       -1    1    3    3    0  502  0.13988215530E+03  0.27247316213E+03 -0.14215067056E+04  0.14541285897E+04  0.50400001928E-02 0.  1.
</event>
<event>
 5   0  0.1979765E-05  0.2000153E+04  0.7818609E-02  0.8606549E-01
       -2   -1    0    0    0  501  0.00000000000E+00  0.00000000000E+00  0.12494798886E+04  0.12494798886E+04  0.25500000920E-02 0. -1.
        2   -1    0    0  501    0  0.00000000000E+00  0.00000000000E+00 -0.80045561579E+03  0.80045561580E+03  0.25500000920E-02 0.  1.
    10030    2    1    2    0    0  0.00000000000E+00  0.00000000000E+00  0.44902427278E+03  0.20499355044E+04  0.20001531878E+04 0.  0.
        2    1    3    3  502    0  0.46959656102E+03 -0.33746433055E+03  0.10607552517E+04  0.12081410549E+04  0.25500000920E-02 0.  1.
       -2    1    3    3    0  502 -0.46959656102E+03  0.33746433055E+03 -0.61173097895E+03  0.84179444945E+03  0.25500000920E-02 0. -1.
</event>
<event>
 5   0  0.2020029E-05  0.2000215E+04  0.7818609E-02  0.8606520E-01
       -2   -1    0    0    0  501  0.00000000000E+00  0.00000000000E+00  0.48238435559E+03  0.48238435560E+03  0.25500000920E-02 0.  1.
        2   -1    0    0  501    0  0.00000000000E+00  0.00000000000E+00 -0.20734822945E+04  0.20734822945E+04  0.25500000920E-02 0. -1.
    10030    2    1    2    0    0  0.00000000000E+00  0.00000000000E+00 -0.15910979389E+04  0.25558666501E+04  0.20002154089E+04 0.  0.
        5    1    3    3  502    0  0.99602493068E+03  0.87727241336E+02 -0.76900281138E+03  0.12614076048E+04  0.46999998093E+01 0.  1.
       -5    1    3    3    0  502 -0.99602493068E+03 -0.87727241336E+02 -0.82209512755E+03  0.12944590454E+04  0.46999998093E+01 0. -1.
</event>
<event>
 5   0  0.1979765E-05  0.1987235E+04  0.7818609E-02  0.8612612E-01
        2   -1    0    0  501    0  0.00000000000E+00  0.00000000000E+00  0.22811431322E+04  0.22811431322E+04  0.25500000920E-02 0. -1.
       -2   -1    0    0    0  501  0.00000000000E+00  0.00000000000E+00 -0.43279856909E+03  0.43279856910E+03  0.25500000920E-02 0.  1.
    10030    2    1    2    0    0  0.00000000000E+00  0.00000000000E+00  0.18483445631E+04  0.27139417013E+04  0.19872347456E+04 0.  0.
        2    1    3    3  502    0 -0.39870791390E+03 -0.21143883863E+03  0.21330958960E+04  0.21803147673E+04  0.25500000920E-02 0. -1.
       -2    1    3    3    0  502  0.39870791390E+03  0.21143883863E+03 -0.28475133288E+03  0.53362693398E+03  0.25500000920E-02 0.  1.
</event>
<event>
 5   0  0.9220260E-06  0.1995555E+04  0.7818609E-02  0.8608701E-01
       -1   -1    0    0    0  501  0.00000000000E+00  0.00000000000E+00  0.38130301812E+03  0.38130301815E+03  0.50400001928E-02 0.  1.
        1   -1    0    0  501    0  0.00000000000E+00  0.00000000000E+00 -0.26109426356E+04  0.26109426356E+04  0.50400001928E-02 0. -1.
    10030    2    1    2    0    0  0.00000000000E+00  0.00000000000E+00 -0.22296396174E+04  0.29922456537E+04  0.19955553684E+04 0.  0.
        3    1    3    3  502    0 -0.47489358294E+03  0.17107840401E+03  0.17572989034E+03  0.53448361996E+03  0.10100000352E+00 0.  1.
       -3    1    3    3    0  502  0.47489358294E+03 -0.17107840401E+03 -0.24053695078E+04  0.24577620338E+04  0.10100000352E+00 0. -1.
</event>
<event>
 5   0  0.1999142E-05  0.1997404E+04  0.7818609E-02  0.8607835E-01
       -2   -1    0    0    0  501  0.00000000000E+00  0.00000000000E+00  0.52161474519E+03  0.52161474520E+03  0.25500000920E-02 0.  1.
        2   -1    0    0  501    0  0.00000000000E+00  0.00000000000E+00 -0.19121508442E+04  0.19121508442E+04  0.25500000920E-02 0. -1.
    10030    2    1    2    0    0  0.00000000000E+00  0.00000000000E+00 -0.13905360991E+04  0.24337655894E+04  0.19974043911E+04 0.  0.
        1    1    3    3  502    0  0.53749636539E+03  0.65351306456E+03 -0.13416565565E+04  0.15861979650E+04  0.50400001928E-02 0. -1.
       -1    1    3    3    0  502 -0.53749636539E+03 -0.65351306456E+03 -0.48879542521E+02  0.84756762448E+03  0.50400001928E-02 0.  1.
</event>
<event>
 5   0  0.9333353E-06  0.2001098E+04  0.7818609E-02  0.8606107E-01
        1   -1    0    0  501    0  0.00000000000E+00  0.00000000000E+00  0.12465761437E+04  0.12465761437E+04  0.50400001928E-02 0.  1.
       -1   -1    0    0    0  501  0.00000000000E+00  0.00000000000E+00 -0.80307840701E+03  0.80307840703E+03  0.50400001928E-02 0. -1.
    10030    2    1    2    0    0  0.00000000000E+00  0.00000000000E+00  0.44349773667E+03  0.20496545507E+04  0.20010980823E+04 0.  0.
        2    1    3    3  502    0  0.80332172395E+03  0.10958937757E+03 -0.37879081281E+03  0.89488440802E+03  0.25500000920E-02 0. -1.
       -2    1    3    3    0  502 -0.80332172395E+03 -0.10958937757E+03  0.82228854948E+03  0.11547701427E+04  0.25500000920E-02 0.  1.
</event>
<event>
 5   0  0.9370269E-06  0.1999735E+04  0.7818609E-02  0.8606744E-01
        1   -1    0    0  501    0  0.00000000000E+00  0.00000000000E+00  0.10226744944E+04  0.10226744944E+04  0.50400001928E-02 0. -1.
       -1   -1    0    0    0  501  0.00000000000E+00  0.00000000000E+00 -0.97756932408E+03  0.97756932409E+03  0.50400001928E-02 0.  1.
    10030    2    1    2    0    0  0.00000000000E+00  0.00000000000E+00  0.45105170319E+02  0.20002438185E+04  0.19997351967E+04 0.  0.
        4    1    3    3  502    0 -0.17855228478E+03  0.90982800761E+03  0.39690127086E+03  0.10085634108E+04  0.12699999809E+01 0.  1.
       -4    1    3    3    0  502  0.17855228478E+03 -0.90982800761E+03 -0.35179610054E+03  0.99168040773E+03  0.12699999809E+01 0. -1.
</event>
<event>
 5   0  0.2038882E-05  0.2004061E+04  0.7818609E-02  0.8604725E-01
        2   -1    0    0  501    0  0.00000000000E+00  0.00000000000E+00  0.19744164862E+04  0.19744164862E+04  0.25500000920E-02 0.  1.
       -2   -1    0    0    0  501  0.00000000000E+00  0.00000000000E+00 -0.50853741981E+03  0.50853741981E+03  0.25500000920E-02 0. -1.
    10030    2    1    2    0    0  0.00000000000E+00  0.00000000000E+00  0.14658790664E+04  0.24829539060E+04  0.20040605435E+04 0.  0.
        3    1    3    3  502    0 -0.61050683848E+03 -0.78865577898E+03  0.85285742661E+03  0.13122737283E+04  0.10100000352E+00 0.  1.
       -3    1    3    3    0  502  0.61050683848E+03  0.78865577898E+03  0.61302163979E+03  0.11706801778E+04  0.10100000352E+00 0. -1.
</event>
<event>
 5   0  0.2020029E-05  0.1999003E+04  0.7818609E-02  0.8607087E-01
       -2   -1    0    0    0  501  0.00000000000E+00  0.00000000000E+00  0.89849401206E+03  0.89849401206E+03  0.25500000920E-02 0. -1.
        2   -1    0    0  501    0  0.00000000000E+00  0.00000000000E+00 -0.11118640084E+04  0.11118640084E+04  0.25500000920E-02 0.  1.
    10030    2    1    2    0    0  0.00000000000E+00  0.00000000000E+00 -0.21336999632E+03  0.20103580204E+04  0.19990029052E+04 0.  0.
        5    1    3    3  502    0 -0.15839612325E+03 -0.93642588962E+03 -0.41989960679E+03  0.10384221436E+04  0.46999998093E+01 0. -1.
       -5    1    3    3    0  502  0.15839612325E+03  0.93642588962E+03  0.20652961047E+03  0.97193587680E+03  0.46999998093E+01 0.  1.
</event>
<event>
 5   0  0.7132000E-06  0.2002066E+04  0.7818609E-02  0.8605656E-01
       -3   -1    0    0    0  501  0.00000000000E+00  0.00000000000E+00  0.12583756936E+04  0.12583756976E+04  0.10100000352E+00 0. -1.
        3   -1    0    0  501    0  0.00000000000E+00  0.00000000000E+00 -0.79631748466E+03  0.79631749107E+03  0.10100000352E+00 0.  1.
    10030    2    1    2    0    0  0.00000000000E+00  0.00000000000E+00  0.46205820891E+03  0.20546931887E+04  0.20020655112E+04 0.  0.
        1    1    3    3  502    0 -0.94572176884E+03  0.32038846168E+03  0.15825569953E+03  0.10109813534E+04  0.50400001928E-02 0.  1.
       -1    1    3    3    0  502  0.94572176884E+03 -0.32038846168E+03  0.30380250938E+03  0.10437118353E+04  0.50400001928E-02 0. -1.
</event>
<event>
 5   0  0.2020029E-05  0.2002335E+04  0.7818609E-02  0.8605530E-01
       -2   -1    0    0    0  501  0.00000000000E+00  0.00000000000E+00  0.54931828102E+03  0.54931828103E+03  0.25500000920E-02 0.  1.
        2   -1    0    0  501    0  0.00000000000E+00  0.00000000000E+00 -0.18246921478E+04  0.18246921478E+04  0.25500000920E-02 0. -1.
    10030    2    1    2    0    0  0.00000000000E+00  0.00000000000E+00 -0.12753738668E+04  0.23740104289E+04  0.20023353905E+04 0.  0.
        5    1    3    3  502    0 -0.37866537670E+03  0.23412132075E+03 -0.17008618451E+04  0.17581676161E+04  0.46999998093E+01 0. -1.
       -5    1    3    3    0  502  0.37866537670E+03 -0.23412132075E+03  0.42548797827E+03  0.61584281273E+03  0.46999998093E+01 0.  1.
</event>
<event>
 5   0  0.1999142E-05  0.1998944E+04  0.7818609E-02  0.8607115E-01
       -2   -1    0    0    0  501  0.00000000000E+00  0.00000000000E+00  0.75499425444E+03  0.75499425445E+03  0.25500000920E-02 0. -1.
        2   -1    0    0  501    0  0.00000000000E+00  0.00000000000E+00 -0.13231145329E+04  0.13231145329E+04  0.25500000920E-02 0.  1.
    10030    2    1    2    0    0  0.00000000000E+00  0.00000000000E+00 -0.56812027850E+03  0.20781087874E+04  0.19989435913E+04 0.  0.
        1    1    3    3  502    0  0.67071141980E+03  0.66451658507E+03 -0.62492926471E+03  0.11322423267E+04  0.50400001928E-02 0. -1.
       -1    1    3    3    0  502 -0.67071141980E+03 -0.66451658507E+03  0.56808986216E+02  0.94586646067E+03  0.50400001928E-02 0.  1.
</event>
<event>
 5   0  0.9370269E-06  0.1997257E+04  0.7818609E-02  0.8607904E-01
       -1   -1    0    0    0  501  0.00000000000E+00  0.00000000000E+00  0.53669719417E+03  0.53669719419E+03  0.50400001928E-02 0.  1.
        1   -1    0    0  501    0  0.00000000000E+00  0.00000000000E+00 -0.18581399894E+04  0.18581399894E+04  0.50400001928E-02 0. -1.
    10030    2    1    2    0    0  0.00000000000E+00  0.00000000000E+00 -0.13214427953E+04  0.23948371836E+04  0.19972566372E+04 0.  0.
        4    1    3    3  502    0  0.76031219323E+03  0.69641745733E+02  0.11109946930E+03  0.77153697831E+03  0.12699999809E+01 0. -1.
       -4    1    3    3    0  502 -0.76031219323E+03 -0.69641745733E+02 -0.14325422646E+04  0.16233002053E+04  0.12699999809E+01 0.  1.
</event>
<event>
 5   0  0.9342635E-06  0.2000388E+04  0.7818609E-02  0.8606439E-01
       -1   -1    0    0    0  501  0.00000000000E+00  0.00000000000E+00  0.17662741579E+04  0.17662741579E+04  0.50400001928E-02 0. -1.
        1   -1    0    0  501    0  0.00000000000E+00  0.00000000000E+00 -0.56638316356E+03  0.56638316358E+03  0.50400001928E-02 0.  1.
    10030    2    1    2    0    0  0.00000000000E+00  0.00000000000E+00  0.11998909943E+04  0.23326573215E+04  0.20003879077E+04 0.  0.
        5    1    3    3  502    0  0.50862088862E+03  0.69237398781E+03  0.11971549667E+04  0.14735260607E+04  0.46999998093E+01 0. -1.
       -5    1    3    3    0  502 -0.50862088862E+03 -0.69237398781E+03  0.27360276006E+01  0.85913126074E+03  0.46999998093E+01 0.  1.
</event>
<event>
 5   0  0.2020029E-05  0.1995562E+04  0.7818609E-02  0.8608698E-01
       -2   -1    0    0    0  501  0.00000000000E+00  0.00000000000E+00  0.65253338151E+03  0.65253338152E+03  0.25500000920E-02 0. -1.
        2   -1    0    0  501    0  0.00000000000E+00  0.00000000000E+00 -0.15256957719E+04  0.15256957719E+04  0.25500000920E-02 0.  1.
    10030    2    1    2    0    0  0.00000000000E+00  0.00000000000E+00 -0.87316239036E+03  0.21782291534E+04  0.19955624983E+04 0.  0.
        5    1    3    3  502    0 -0.11825855461E+03  0.98884948005E+03 -0.36985490970E+03  0.10623667560E+04  0.46999998093E+01 0. -1.
       -5    1    3    3    0  502  0.11825855461E+03 -0.98884948005E+03 -0.50330748066E+03  0.11158623974E+04  0.46999998093E+01 0.  1.
</event>
<event>
 5   0  0.1979765E-05  0.2002567E+04  0.7818609E-02  0.8605422E-01
       -2   -1    0    0    0  501  0.00000000000E+00  0.00000000000E+00  0.59536301050E+03  0.59536301051E+03  0.25500000920E-02 0. -1.
        2   -1    0    0  501    0  0.00000000000E+00  0.00000000000E+00 -0.16839615653E+04  0.16839615653E+04  0.25500000920E-02 0.  1.
    10030    2    1    2    0    0  0.00000000000E+00  0.00000000000E+00 -0.10885985548E+04  0.22793245758E+04  0.20025667800E+04 0.  0.
        2    1    3    3  502    0 -0.37692505285E+03  0.74994083361E+03  0.77126110395E+02  0.84287139369E+03  0.25500000920E-02 0. -1.
       -2    1    3    3    0  502  0.37692505285E+03 -0.74994083361E+03 -0.11657246652E+04  0.14364531821E+04  0.25500000920E-02 0.  1.
</event>
<event>
 5   0  0.2038882E-05  0.2001268E+04  0.7818609E-02  0.8606028E-01
       -2   -1    0    0    0  501  0.00000000000E+00  0.00000000000E+00  0.14719343701E+04  0.14719343701E+04  0.25500000920E-02 0.  1.
        2   -1    0    0  501    0  0.00000000000E+00  0.00000000000E+00 -0.68023977601E+03  0.68023977601E+03  0.25500000920E-02 0. -1.
    10030    2    1    2    0    0  0.00000000000E+00  0.00000000000E+00  0.79169459405E+03  0.21521741461E+04  0.20012679043E+04 0.  0.
        3    1    3    3  502    0 -0.82680525050E+03 -0.40771409725E+03  0.81433141909E+03  0.12300298280E+04  0.10100000352E+00 0. -1.
       -3    1    3    3    0  502  0.82680525050E+03  0.40771409725E+03 -0.22636825050E+02  0.92214431810E+03  0.10100000352E+00 0.  1.
</event>
<event>
 5   0  0.9140695E-06  0.2000538E+04  0.7818609E-02  0.8606369E-01
       -1   -1    0    0    0  501  0.00000000000E+00  0.00000000000E+00  0.90965739698E+03  0.90965739699E+03  0.50400001928E-02 0. -1.
        1   -1    0    0  501    0  0.00000000000E+00  0.00000000000E+00 -0.10999067899E+04  0.10999067899E+04  0.50400001928E-02 0.  1.
    10030    2    1    2    0    0  0.00000000000E+00  0.00000000000E+00 -0.19024939289E+03  0.20095641869E+04  0.20005382750E+04 0.  0.
        1    1    3    3  502    0  0.48883320570E+03  0.80609960267E+03 -0.43097411263E+03  0.10365776180E+04  0.50400001928E-02 0.  1.
       -1    1    3    3    0  502 -0.48883320570E+03 -0.80609960267E+03  0.24072471974E+03  0.97298656884E+03  0.50400001928E-02 0. -1.
</event>
<event>
 5   0  0.2038882E-05  0.2001636E+04  0.7818609E-02  0.8605856E-01
        2   -1    0    0  501    0  0.00000000000E+00  0.00000000000E+00  0.93158404930E+03  0.93158404930E+03  0.25500000920E-02 0. -1.
       -2   -1    0    0    0  501  0.00000000000E+00  0.00000000000E+00 -0.10751973184E+04  0.10751973184E+04  0.25500000920E-02 0.  1.
    10030    2    1    2    0    0  0.00000000000E+00  0.00000000000E+00 -0.14361326906E+03  0.20067813677E+04  0.20016360025E+04 0.  0.
        3    1    3    3  502    0  0.41707731436E+03  0.77131087445E+03  0.41188843323E+03  0.96877553790E+03  0.10100000352E+00 0. -1.
       -3    1    3    3    0  502 -0.41707731436E+03 -0.77131087445E+03 -0.55550170229E+03  0.10380058298E+04  0.10100000352E+00 0.  1.
</event>
<event>
 5   0  0.2020029E-05  0.2002851E+04  0.7818609E-02  0.8605289E-01
        2   -1    0    0  501    0  0.00000000000E+00  0.00000000000E+00  0.11809603462E+04  0.11809603462E+04  0.25500000920E-02 0. -1.
       -2   -1    0    0    0  501  0.00000000000E+00  0.00000000000E+00 -0.84918416160E+03  0.84918416161E+03  0.25500000920E-02 0.  1.
    10030    2    1    2    0    0  0.00000000000E+00  0.00000000000E+00  0.33177618457E+03  0.20301445078E+04  0.20028507897E+04 0.  0.
        5    1    3    3  502    0 -0.79447348039E+02  0.94841406297E+03 -0.14985256722E+03  0.96347236486E+03  0.46999998093E+01 0.  1.
       -5    1    3    3    0  502  0.79447348039E+02 -0.94841406297E+03  0.48162875179E+03  0.10666721429E+04  0.46999998093E+01 0. -1.
</event>
<event>
 5   0  0.9140695E-06  0.1999197E+04  0.7818609E-02  0.8606996E-01
       -1   -1    0    0    0  501  0.00000000000E+00  0.00000000000E+00  0.10775843038E+04  0.10775843038E+04  0.50400001928E-02 0.  1.
        1   -1    0    0  501    0  0.00000000000E+00  0.00000000000E+00 -0.92725659821E+03  0.92725659822E+03  0.50400001928E-02 0. -1.
    10030    2    1    2    0    0  0.00000000000E+00  0.00000000000E+00  0.15032770557E+03  0.20048409020E+04  0.19991969946E+04 0.  0.
        1    1    3    3  502    0 -0.94306474900E+01  0.50580762251E+03  0.93972698277E+03  0.10672474363E+04  0.50400001928E-02 0.  1.
       -1    1    3    3    0  502  0.94306474900E+01 -0.50580762251E+03 -0.78939927719E+03  0.93759346572E+03  0.50400001928E-02 0. -1.
</event>
<event>
 5   0  0.9333353E-06  0.2001361E+04  0.7818609E-02  0.8605985E-01
       -1   -1    0    0    0  501  0.00000000000E+00  0.00000000000E+00  0.42125118277E+03  0.42125118280E+03  0.50400001928E-02 0. -1.
        1   -1    0    0  501    0  0.00000000000E+00  0.00000000000E+00 -0.23771126640E+04  0.23771126640E+04  0.50400001928E-02 0.  1.
    10030    2    1    2    0    0  0.00000000000E+00  0.00000000000E+00 -0.19558614812E+04  0.27983638468E+04  0.20013610582E+04 0.  0.
        2    1    3    3  502    0 -0.14362305534E+03  0.78894684101E+03 -0.14097939136E+03  0.81421120648E+03  0.25500000920E-02 0. -1.
       -2    1    3    3    0  502  0.14362305534E+03 -0.78894684101E+03 -0.18148820899E+04  0.19841526403E+04  0.25500000920E-02 0.  1.
</event>
<event>
 5   0  0.2003576E-05  0.2002531E+04  0.7818609E-02  0.8605438E-01
       -2   -1    0    0    0  501  0.00000000000E+00  0.00000000000E+00  0.77676611731E+03  0.77676611732E+03  0.25500000920E-02 0.  1.
        2   -1    0    0  501    0  0.00000000000E+00  0.00000000000E+00 -0.12906493253E+04  0.12906493253E+04  0.25500000920E-02 0. -1.
    10030    2    1    2    0    0  0.00000000000E+00  0.00000000000E+00 -0.51388320803E+03  0.20674154427E+04  0.20025310637E+04 0.  0.
        4    1    3    3  502    0  0.98740846642E+03 -0.62637408319E+02 -0.98233205870E+02  0.99425866862E+03  0.12699999809E+01 0.  1.
       -4    1    3    3    0  502 -0.98740846642E+03  0.62637408319E+02 -0.41565000216E+03  0.10731567740E+04  0.12699999809E+01 0. -1.
</event>
<event>
 5   0  0.2003576E-05  0.2002813E+04  0.7818609E-02  0.8605306E-01
        2   -1    0    0  501    0  0.00000000000E+00  0.00000000000E+00  0.94425105036E+03  0.94425105037E+03  0.25500000920E-02 0. -1.
       -2   -1    0    0    0  501  0.00000000000E+00  0.00000000000E+00 -0.10620220527E+04  0.10620220527E+04  0.25500000920E-02 0.  1.
    10030    2    1    2    0    0  0.00000000000E+00  0.00000000000E+00 -0.11777100230E+03  0.20062731030E+04  0.20028134599E+04 0.  0.
        4    1    3    3  502    0  0.84274049325E+03  0.52712069221E+03  0.62757629227E+02  0.99599593174E+03  0.12699999809E+01 0. -1.
       -4    1    3    3    0  502 -0.84274049325E+03 -0.52712069221E+03 -0.18052863153E+03  0.10102771713E+04  0.12699999809E+01 0.  1.
</event>
<event>
 5   0  0.1979765E-05  0.2001015E+04  0.7818609E-02  0.8606146E-01
        2   -1    0    0  501    0  0.00000000000E+00  0.00000000000E+00  0.18540333954E+04  0.18540333954E+04  0.25500000920E-02 0. -1.
       -2   -1    0    0    0  501  0.00000000000E+00  0.00000000000E+00 -0.53991193853E+03  0.53991193853E+03  0.25500000920E-02 0.  1.
    10030    2    1    2    0    0  0.00000000000E+00  0.00000000000E+00  0.13141214569E+04  0.23939453339E+04  0.20010145073E+04 0.  0.
        2    1    3    3  502    0 -0.50480298216E+03 -0.40312953389E+03  0.15710679911E+04  0.16987036541E+04  0.25500000920E-02 0. -1.
       -2    1    3    3    0  502  0.50480298216E+03  0.40312953389E+03 -0.25694653421E+03  0.69524167981E+03  0.25500000920E-02 0.  1.
</event>
<event>
 5   0  0.1999142E-05  0.2002574E+04  0.7818609E-02  0.8605418E-01
        2   -1    0    0  501    0  0.00000000000E+00  0.00000000000E+00  0.76298268456E+03  0.76298268456E+03  0.25500000920E-02 0.  1.
       -2   -1    0    0    0  501  0.00000000000E+00  0.00000000000E+00 -0.13140217664E+04  0.13140217664E+04  0.25500000920E-02 0. -1.
    10030    2    1    2    0    0  0.00000000000E+00  0.00000000000E+00 -0.55103908186E+03  0.20770044510E+04  0.20025741983E+04 0.  0.
        1    1    3    3  502    0 -0.80504251228E+03  0.37342312223E+03  0.20543717446E+03  0.91090213935E+03  0.50400001928E-02 0.  1.
       -1    1    3    3    0  502  0.80504251228E+03 -0.37342312223E+03 -0.75647625632E+03  0.11661023116E+04  0.50400001928E-02 0. -1.
</event>
<event>
 5   0  0.2003576E-05  0.1998379E+04  0.7818609E-02  0.8607379E-01
       -2   -1    0    0    0  501  0.00000000000E+00  0.00000000000E+00  0.10505715954E+04  0.10505715954E+04  0.25500000920E-02 0. -1.
        2   -1    0    0  501    0  0.00000000000E+00  0.00000000000E+00 -0.95032051212E+03  0.95032051213E+03  0.25500000920E-02 0.  1.
    10030    2    1    2    0    0  0.00000000000E+00  0.00000000000E+00  0.10025108326E+03  0.20008921075E+04  0.19983790797E+04 0.  0.
        4    1    3    3  502    0  0.32733965534E+03 -0.48900297087E+03  0.85866996311E+03  0.10409567109E+04  0.12699999809E+01 0. -1.
       -4    1    3    3    0  502 -0.32733965534E+03  0.48900297087E+03 -0.75841887985E+03  0.95993539663E+03  0.12699999809E+01 0.  1.
</event>
<event>
 5   0  0.2038882E-05  0.2008863E+04  0.7818609E-02  0.8602488E-01
       -2   -1    0    0    0  501  0.00000000000E+00  0.00000000000E+00  0.11861224726E+04  0.11861224726E+04  0.25500000920E-02 0.  1.
        2   -1    0    0  501    0  0.00000000000E+00  0.00000000000E+00 -0.85057199903E+03  0.85057199903E+03  0.25500000920E-02 0. -1.
    10030    2    1    2    0    0  0.00000000000E+00  0.00000000000E+00  0.33555047361E+03  0.20366944717E+04  0.20088629248E+04 0.  0.
        3    1    3    3  502    0 -0.61881678521E+03 -0.76997072819E+03 -0.16661055775E+02  0.98796089847E+03  0.10100000352E+00 0. -1.
       -3    1    3    3    0  502  0.61881678521E+03  0.76997072819E+03  0.35221152938E+03  0.10487335732E+04  0.10100000352E+00 0.  1.
</event>
<event>
 5   0  0.9140695E-06  0.2016409E+04  0.7818609E-02  0.8598987E-01
       -1   -1    0    0    0  501  0.00000000000E+00  0.00000000000E+00  0.75585910377E+03  0.75585910379E+03  0.50400001928E-02 0.  1.
        1   -1    0    0  501    0  0.00000000000E+00  0.00000000000E+00 -0.13447962821E+04  0.13447962821E+04  0.50400001928E-02 0. -1.
    10030    2    1    2    0    0  0.00000000000E+00  0.00000000000E+00 -0.58893717833E+03  0.21006553859E+04  0.20164091971E+04 0.  0.
        1    1    3    3  502    0 -0.81395891700E+03 -0.95574093696E+01 -0.91417994564E+03  0.12240692120E+04  0.50400001928E-02 0. -1.
       -1    1    3    3    0  502  0.81395891700E+03  0.95574093696E+01  0.32524276731E+03  0.87658617394E+03  0.50400001928E-02 0.  1.
</event>
<event>
 5   0  0.9220260E-06  0.1991590E+04  0.7818609E-02  0.8610563E-01
        1   -1    0    0  501    0  0.00000000000E+00  0.00000000000E+00  0.15974280111E+04  0.15974280111E+04  0.50400001928E-02 0. -1.
       -1   -1    0    0    0  501  0.00000000000E+00  0.00000000000E+00 -0.62075294800E+03  0.62075294802E+03  0.50400001928E-02 0.  1.
    10030    2    1    2    0    0  0.00000000000E+00  0.00000000000E+00  0.97667506306E+03  0.22181809591E+04  0.19915904670E+04 0.  0.
        3    1    3    3  502    0  0.34781835199E+03 -0.31799334744E+03 -0.48868433382E+03  0.67890335344E+03  0.10100000352E+00 0.  1.
       -3    1    3    3    0  502 -0.34781835199E+03  0.31799334744E+03  0.14653593969E+04  0.15392776056E+04  0.10100000352E+00 0. -1.
</event>
<event>
 5   0  0.9370269E-06  0.2002646E+04  0.7818609E-02  0.8605385E-01
        1   -1    0    0  501    0  0.00000000000E+00  0.00000000000E+00  0.11354441798E+04  0.11354441798E+04  0.50400001928E-02 0. -1.
       -1   -1    0    0    0  501  0.00000000000E+00  0.00000000000E+00 -0.88304453404E+03  0.88304453405E+03  0.50400001928E-02 0.  1.
    10030    2    1    2    0    0  0.00000000000E+00  0.00000000000E+00  0.25239964578E+03  0.20184887139E+04  0.20026460264E+04 0.  0.
        4    1    3    3  502    0 -0.82238833403E+02 -0.95896287026E+03 -0.15216091431E+03  0.97443705235E+03  0.12699999809E+01 0. -1.
       -4    1    3    3    0  502  0.82238833403E+02  0.95896287026E+03  0.40456056009E+03  0.10440516615E+04  0.12699999809E+01 0.  1.
</event>
<event>
 5   0  0.9140695E-06  0.1998065E+04  0.7818609E-02  0.8607526E-01
       -1   -1    0    0    0  501  0.00000000000E+00  0.00000000000E+00  0.67504664340E+03  0.67504664342E+03  0.50400001928E-02 0.  1.
        1   -1    0    0  501    0  0.00000000000E+00  0.00000000000E+00 -0.14785134714E+04  0.14785134714E+04  0.50400001928E-02 0. -1.
    10030    2    1    2    0    0  0.00000000000E+00  0.00000000000E+00 -0.80346682800E+03  0.21535601148E+04  0.19980646197E+04 0.  0.
        1    1    3    3  502    0 -0.44998883420E+03 -0.88554299273E+03 -0.51675896738E+03  0.11196946786E+04  0.50400001928E-02 0. -1.
       -1    1    3    3    0  502  0.44998883420E+03  0.88554299273E+03 -0.28670786062E+03  0.10338654362E+04  0.50400001928E-02 0.  1.
</event>
<event>
 5   0  0.1999142E-05  0.2009599E+04  0.7818609E-02  0.8602146E-01
       -2   -1    0    0    0  501  0.00000000000E+00  0.00000000000E+00  0.99898669315E+03  0.99898669315E+03  0.25500000920E-02 0. -1.
        2   -1    0    0  501    0  0.00000000000E+00  0.00000000000E+00 -0.10106465121E+04  0.10106465121E+04  0.25500000920E-02 0.  1.
    10030    2    1    2    0    0  0.00000000000E+00  0.00000000000E+00 -0.11659818977E+02  0.20096332053E+04  0.20095993801E+04 0.  0.
        1    1    3    3  502    0 -0.70823500977E+03 -0.48592783085E+03 -0.52727874152E+03  0.10078420299E+04  0.50400001928E-02 0.  1.
       -1    1    3    3    0  502  0.70823500977E+03  0.48592783085E+03  0.51561892254E+03  0.10017911754E+04  0.50400001928E-02 0. -1.
</event>
<event>
 5   0  0.2003576E-05  0.2000735E+04  0.7818609E-02  0.8606277E-01
       -2   -1    0    0    0  501  0.00000000000E+00  0.00000000000E+00  0.98096904539E+03  0.98096904539E+03  0.25500000920E-02 0. -1.
        2   -1    0    0  501    0  0.00000000000E+00  0.00000000000E+00 -0.10201497322E+04  0.10201497322E+04  0.25500000920E-02 0.  1.
    10030    2    1    2    0    0  0.00000000000E+00  0.00000000000E+00 -0.39180686766E+02  0.20011187775E+04  0.20007351738E+04 0.  0.
        4    1    3    3  502    0 -0.88511124918E+03  0.44328111057E+03  0.12470661301E+03  0.99773414226E+03  0.12699999809E+01 0. -1.
       -4    1    3    3    0  502  0.88511124918E+03 -0.44328111057E+03 -0.16388729978E+03  0.10033846353E+04  0.12699999809E+01 0.  1.
</event>
<event>
 5   0  0.1979765E-05  0.1996357E+04  0.7818609E-02  0.8608326E-01
        2   -1    0    0  501    0  0.00000000000E+00  0.00000000000E+00  0.92249458515E+03  0.92249458515E+03  0.25500000920E-02 0.  1.
       -2   -1    0    0    0  501  0.00000000000E+00  0.00000000000E+00 -0.10800720379E+04  0.10800720379E+04  0.25500000920E-02 0. -1.
    10030    2    1    2    0    0  0.00000000000E+00  0.00000000000E+00 -0.15757745271E+03  0.20025666230E+04  0.19963572892E+04 0.  0.
        2    1    3    3  502    0 -0.97581314355E+02 -0.87674155697E+03 -0.54732043655E+03  0.10381510155E+04  0.25500000920E-02 0. -1.
       -2    1    3    3    0  502  0.97581314355E+02  0.87674155697E+03  0.38974298384E+03  0.96441560755E+03  0.25500000920E-02 0.  1.
</event>
<event>
 5   0  0.9342635E-06  0.1999260E+04  0.7818609E-02  0.8606967E-01
        1   -1    0    0  501    0  0.00000000000E+00  0.00000000000E+00  0.96364981770E+03  0.96364981771E+03  0.50400001928E-02 0.  1.
       -1   -1    0    0    0  501  0.00000000000E+00  0.00000000000E+00 -0.10369534077E+04  0.10369534077E+04  0.50400001928E-02 0. -1.
    10030    2    1    2    0    0  0.00000000000E+00  0.00000000000E+00 -0.73303589994E+02  0.20006032254E+04  0.19992598253E+04 0.  0.
        5    1    3    3  502    0 -0.12745030718E+03 -0.91258913287E+03  0.35113326684E+03  0.98609287965E+03  0.46999998093E+01 0.  1.
       -5    1    3    3    0  502  0.12745030718E+03  0.91258913287E+03 -0.42443685683E+03  0.10145103458E+04  0.46999998093E+01 0. -1.
</event>
<event>
 5   0  0.9220260E-06  0.1996113E+04  0.7818609E-02  0.8608440E-01
        1   -1    0    0  501    0  0.00000000000E+00  0.00000000000E+00  0.14444936043E+04  0.14444936043E+04  0.50400001928E-02 0. -1.
       -1   -1    0    0    0  501  0.00000000000E+00  0.00000000000E+00 -0.68959581939E+03  0.68959581941E+03  0.50400001928E-02 0.  1.
    10030    2    1    2    0    0  0.00000000000E+00  0.00000000000E+00  0.75489778486E+03  0.21340894237E+04  0.19961129734E+04 0.  0.
        3    1    3    3  502    0 -0.97111286489E+03  0.23012274577E+03  0.36675414019E+03  0.10632616254E+04  0.10100000352E+00 0.  1.
       -3    1    3    3    0  502  0.97111286489E+03 -0.23012274577E+03  0.38814364468E+03  0.10708277983E+04  0.10100000352E+00 0. -1.
</event>
<event>
 5   0  0.1999142E-05  0.2001363E+04  0.7818609E-02  0.8605984E-01
       -2   -1    0    0    0  501  0.00000000000E+00  0.00000000000E+00  0.10272204036E+04  0.10272204036E+04  0.25500000920E-02 0. -1.
        2   -1    0    0  501    0  0.00000000000E+00  0.00000000000E+00 -0.97482825662E+03  0.97482825662E+03  0.25500000920E-02 0.  1.
    10030    2    1    2    0    0  0.00000000000E+00  0.00000000000E+00  0.52392146991E+02  0.20020486602E+04  0.20013630108E+04 0.  0.
        1    1    3    3  502    0 -0.16133539213E+03  0.71244235662E+03 -0.65796824228E+03  0.98312025111E+03  0.50400001928E-02 0. -1.
       -1    1    3    3    0  502  0.16133539213E+03 -0.71244235662E+03  0.71036038927E+03  0.10189284091E+04  0.50400001928E-02 0.  1.
</event>
<event>
 5   0  0.9370269E-06  0.2018681E+04  0.7818609E-02  0.8597936E-01
       -1   -1    0    0    0  501  0.00000000000E+00  0.00000000000E+00  0.69665622838E+03  0.69665622840E+03  0.50400001928E-02 0.  1.
        1   -1    0    0  501    0  0.00000000000E+00  0.00000000000E+00 -0.14623682694E+04  0.14623682694E+04  0.50400001928E-02 0. -1.
    10030    2    1    2    0    0  0.00000000000E+00  0.00000000000E+00 -0.76571204099E+03  0.21590244978E+04  0.20186807207E+04 0.  0.
        4    1    3    3  502    0  0.24432553211E+03 -0.97720136411E+03 -0.45174587909E+03  0.11039444840E+04  0.12699999809E+01 0. -1.
       -4    1    3    3    0  502 -0.24432553211E+03  0.97720136411E+03 -0.31396616190E+03  0.10550800137E+04  0.12699999809E+01 0.  1.
</event>
<event>
 5   0  0.9220260E-06  0.1980575E+04  0.7818609E-02  0.8615757E-01
        1   -1    0    0  501    0  0.00000000000E+00  0.00000000000E+00  0.17426158347E+04  0.17426158347E+04  0.50400001928E-02 0.  1.
       -1   -1    0    0    0  501  0.00000000000E+00  0.00000000000E+00 -0.56275703547E+03  0.56275703549E+03  0.50400001928E-02 0. -1.
    10030    2    1    2    0    0  0.00000000000E+00  0.00000000000E+00  0.11798587992E+04  0.23053728702E+04  0.19805749884E+04 0.  0.
        3    1    3    3  502    0  0.35566364907E+03  0.78785700011E+03  0.27522587125E+02  0.86485419979E+03  0.10100000352E+00 0. -1.
       -3    1    3    3    0  502 -0.35566364907E+03 -0.78785700011E+03  0.11523362121E+04  0.14405186704E+04  0.10100000352E+00 0.  1.
</event>
<event>
 5   0  0.9140695E-06  0.1998771E+04  0.7818609E-02  0.8607195E-01
       -1   -1    0    0    0  501  0.00000000000E+00  0.00000000000E+00  0.69446298099E+03  0.69446298100E+03  0.50400001928E-02 0.  1.
        1   -1    0    0  501    0  0.00000000000E+00  0.00000000000E+00 -0.14381923580E+04  0.14381923580E+04  0.50400001928E-02 0. -1.
    10030    2    1    2    0    0  0.00000000000E+00  0.00000000000E+00 -0.74372937699E+03  0.21326553390E+04  0.19987709746E+04 0.  0.
        1    1    3    3  502    0  0.82941961322E+03 -0.33472005536E+03 -0.84759682507E+03  0.12322316293E+04  0.50400001928E-02 0. -1.
       -1    1    3    3    0  502 -0.82941961322E+03  0.33472005536E+03  0.10386744808E+03  0.90042370973E+03  0.50400001928E-02 0.  1.
</event>
<event>
 5   0  0.9342635E-06  0.2001258E+04  0.7818609E-02  0.8606033E-01
       -1   -1    0    0    0  501  0.00000000000E+00  0.00000000000E+00  0.79952263128E+03  0.79952263129E+03  0.50400001928E-02 0. -1.
        1   -1    0    0  501    0  0.00000000000E+00  0.00000000000E+00 -0.12523203157E+04  0.12523203158E+04  0.50400001928E-02 0.  1.
    10030    2    1    2    0    0  0.00000000000E+00  0.00000000000E+00 -0.45279768447E+03  0.20518429470E+04  0.20012580384E+04 0.  0.
        5    1    3    3  502    0 -0.77884872746E+03 -0.17443476206E+03  0.39234814092E+03  0.88937729910E+03  0.46999998093E+01 0. -1.
       -5    1    3    3    0  502  0.77884872746E+03  0.17443476206E+03 -0.84514582539E+03  0.11624656479E+04  0.46999998093E+01 0.  1.
</event>
<event>
 5   0  0.9220260E-06  0.1999733E+04  0.7818609E-02  0.8606746E-01
       -1   -1    0    0    0  501  0.00000000000E+00  0.00000000000E+00  0.13935718577E+04  0.13935718577E+04  0.50400001928E-02 0. -1.
        1   -1    0    0  501    0  0.00000000000E+00  0.00000000000E+00 -0.71738864658E+03  0.71738864660E+03  0.50400001928E-02 0.  1.
    10030    2    1    2    0    0  0.00000000000E+00  0.00000000000E+00  0.67618321107E+03  0.21109605043E+04  0.19997326110E+04 0.  0.
        3    1    3    3  502    0 -0.92542125218E+03  0.34796524432E+03  0.18063650767E+03  0.10050442096E+04  0.10100000352E+00 0.  1.
       -3    1    3    3    0  502  0.92542125218E+03 -0.34796524432E+03  0.49554670341E+03  0.11059162946E+04  0.10100000352E+00 0. -1.
</event>
<event>
 5   0  0.2003576E-05  0.1994338E+04  0.7818609E-02  0.8609273E-01
        2   -1    0    0  501    0  0.00000000000E+00  0.00000000000E+00  0.10869213497E+04  0.10869213497E+04  0.25500000920E-02 0. -1.
       -2   -1    0    0    0  501  0.00000000000E+00  0.00000000000E+00 -0.91482756394E+03  0.91482756395E+03  0.25500000920E-02 0.  1.
    10030    2    1    2    0    0  0.00000000000E+00  0.00000000000E+00  0.17209378580E+03  0.20017489137E+04  0.19943375949E+04 0.  0.
        4    1    3    3  502    0 -0.35896115365E+03 -0.68279400823E+02 -0.84520961854E+03  0.92081273806E+03  0.12699999809E+01 0.  1.
       -4    1    3    3    0  502  0.35896115365E+03  0.68279400823E+02  0.10173034043E+04  0.10809361756E+04  0.12699999809E+01 0. -1.
</event>
<event>
 5   0  0.1999142E-05  0.2000768E+04  0.7818609E-02  0.8606262E-01
        2   -1    0    0  501    0  0.00000000000E+00  0.00000000000E+00  0.15785999823E+04  0.15785999823E+04  0.25500000920E-02 0. -1.
       -2   -1    0    0    0  501  0.00000000000E+00  0.00000000000E+00 -0.63395947549E+03  0.63395947549E+03  0.25500000920E-02 0.  1.
    10030    2    1    2    0    0  0.00000000000E+00  0.00000000000E+00  0.94464050681E+03  0.22125594578E+04  0.20007682692E+04 0.  0.
        1    1    3    3  502    0 -0.21873573793E+02  0.27126579956E+02 -0.63328810723E+03  0.63424611260E+03  0.50400001928E-02 0.  1.
       -1    1    3    3    0  502  0.21873573793E+02 -0.27126579956E+02  0.15779286140E+04  0.15783133452E+04  0.50400001928E-02 0. -1.
</event>
<event>
 5   0  0.9370269E-06  0.1999662E+04  0.7818609E-02  0.8606779E-01
        1   -1    0    0  501    0  0.00000000000E+00  0.00000000000E+00  0.75412234401E+03  0.75412234403E+03  0.50400001928E-02 0. -1.
       -1   -1    0    0    0  501  0.00000000000E+00  0.00000000000E+00 -0.13255968412E+04  0.13255968412E+04  0.50400001928E-02 0.  1.
    10030    2    1    2    0    0  0.00000000000E+00  0.00000000000E+00 -0.57147449718E+03  0.20797191852E+04  0.19996621686E+04 0.  0.
        4    1    3    3  502    0  0.91305214639E+03 -0.21518126847E+03  0.74080962858E+02  0.94098714247E+03  0.12699999809E+01 0. -1.
       -4    1    3    3    0  502 -0.91305214639E+03  0.21518126847E+03 -0.64555546004E+03  0.11387320428E+04  0.12699999809E+01 0.  1.
</event>
<event>
 5   0  0.2020029E-05  0.1999378E+04  0.7818609E-02  0.8606912E-01
        2   -1    0    0  501    0  0.00000000000E+00  0.00000000000E+00  0.14387764579E+04  0.14387764579E+04  0.25500000920E-02 0. -1.
       -2   -1    0    0    0  501  0.00000000000E+00  0.00000000000E+00 -0.69460255266E+03  0.69460255266E+03  0.25500000920E-02 0.  1.
    10030    2    1    2    0    0  0.00000000000E+00  0.00000000000E+00  0.74417390527E+03  0.21333790106E+04  0.19993777036E+04 0.  0.
        5    1    3    3  502    0 -0.81341309047E+03  0.39752758490E+03 -0.80217755164E+02  0.90891474558E+03  0.46999998093E+01 0.  1.
       -5    1    3    3    0  502  0.81341309047E+03 -0.39752758490E+03  0.82439166043E+03  0.12244642650E+04  0.46999998093E+01 0. -1.
</event>
<event>
 5   0  0.9370269E-06  0.2001426E+04  0.7818609E-02  0.8605954E-01
       -1   -1    0    0    0  501  0.00000000000E+00  0.00000000000E+00  0.68511390367E+03  0.68511390368E+03  0.50400001928E-02 0.  1.
        1   -1    0    0  501    0  0.00000000000E+00  0.00000000000E+00 -0.14616928424E+04  0.14616928424E+04  0.50400001928E-02 0. -1.
    10030    2    1    2    0    0  0.00000000000E+00  0.00000000000E+00 -0.77657893869E+03  0.21468067460E+04  0.20014255811E+04 0.  0.
        4    1    3    3  502    0  0.46939754189E+02 -0.48029059312E+03  0.55205577211E+03  0.73324592245E+03  0.12699999809E+01 0.  1.
       -4    1    3    3    0  502 -0.46939754189E+02  0.48029059312E+03 -0.13286347108E+04  0.14135608236E+04  0.12699999809E+01 0. -1.
</event>
<event>
 5   0  0.9140695E-06  0.1995637E+04  0.7818609E-02  0.8608663E-01
       -1   -1    0    0    0  501  0.00000000000E+00  0.00000000000E+00  0.10397107910E+04  0.10397107910E+04  0.50400001928E-02 0. -1.
        1   -1    0    0  501    0  0.00000000000E+00  0.00000000000E+00 -0.95761383287E+03  0.95761383288E+03  0.50400001928E-02 0.  1.
    10030    2    1    2    0    0  0.00000000000E+00  0.00000000000E+00  0.82096958145E+02  0.19973246239E+04  0.19956366760E+04 0.  0.
        1    1    3    3  502    0  0.88260711803E+03 -0.41721791445E+03 -0.16546393031E+03  0.99017393684E+03  0.50400001928E-02 0.  1.
       -1    1    3    3    0  502 -0.88260711803E+03  0.41721791445E+03  0.24756088846E+03  0.10071506871E+04  0.50400001928E-02 0. -1.
</event>
<event>
 5   0  0.9140695E-06  0.1987297E+04  0.7818609E-02  0.8612583E-01
       -1   -1    0    0    0  501  0.00000000000E+00  0.00000000000E+00  0.13546623332E+04  0.13546623332E+04  0.50400001928E-02 0. -1.
        1   -1    0    0  501    0  0.00000000000E+00  0.00000000000E+00 -0.72884390084E+03  0.72884390086E+03  0.50400001928E-02 0.  1.
    10030    2    1    2    0    0  0.00000000000E+00  0.00000000000E+00  0.62581843233E+03  0.20835062340E+04  0.19872970379E+04 0.  0.
        1    1    3    3  502    0 -0.22777688211E+03  0.66550116622E+02  0.13245188566E+04  0.13456081998E+04  0.50400001928E-02 0. -1.
       -1    1    3    3    0  502  0.22777688211E+03 -0.66550116622E+02 -0.69870042423E+03  0.73789803421E+03  0.50400001928E-02 0.  1.
</event>
<event>
 5   0  0.9220260E-06  0.1998912E+04  0.7818609E-02  0.8607130E-01
        1   -1    0    0  501    0  0.00000000000E+00  0.00000000000E+00  0.14466964143E+04  0.14466964143E+04  0.50400001928E-02 0. -1.
       -1   -1    0    0    0  501  0.00000000000E+00  0.00000000000E+00 -0.69047803557E+03  0.69047803559E+03  0.50400001928E-02 0.  1.
    10030    2    1    2    0    0  0.00000000000E+00  0.00000000000E+00  0.75621837869E+03  0.21371744499E+04  0.19989118022E+04 0.  0.
        3    1    3    3  502    0  0.32588194088E+03 -0.67126890360E+02  0.13857446534E+04  0.14251292269E+04  0.10100000352E+00 0. -1.
       -3    1    3    3    0  502 -0.32588194088E+03  0.67126890360E+02 -0.62952627470E+03  0.71204522296E+03  0.10100000352E+00 0.  1.
</event>
<event>
 5   0  0.2020029E-05  0.1990194E+04  0.7818609E-02  0.8611219E-01
        2   -1    0    0  501    0  0.00000000000E+00  0.00000000000E+00  0.10872220355E+04  0.10872220355E+04  0.25500000920E-02 0. -1.
       -2   -1    0    0    0  501  0.00000000000E+00  0.00000000000E+00 -0.91077833968E+03  0.91077833968E+03  0.25500000920E-02 0.  1.
    10030    2    1    2    0    0  0.00000000000E+00  0.00000000000E+00  0.17644369585E+03  0.19980003752E+04  0.19901942422E+04 0.  0.
        5    1    3    3  502    0  0.20259005564E+03 -0.31999957053E+03  0.10120233422E+04  0.10805812283E+04  0.46999998093E+01 0. -1.
       -5    1    3    3    0  502 -0.20259005564E+03  0.31999957053E+03 -0.83557964634E+03  0.91741914693E+03  0.46999998093E+01 0.  1.
</event>
<event>
 5   0  0.1999142E-05  0.1994635E+04  0.7818609E-02  0.8609133E-01
        2   -1    0    0  501    0  0.00000000000E+00  0.00000000000E+00  0.13092446107E+04  0.13092446107E+04  0.25500000920E-02 0.  1.
       -2   -1    0    0    0  501  0.00000000000E+00  0.00000000000E+00 -0.75970671332E+03  0.75970671333E+03  0.25500000920E-02 0. -1.
    10030    2    1    2    0    0  0.00000000000E+00  0.00000000000E+00  0.54953789734E+03  0.20689513240E+04  0.19946347236E+04 0.  0.
        1    1    3    3  502    0 -0.53028441376E+03 -0.84405502628E+03  0.30775756441E+03  0.10432378278E+04  0.50400001928E-02 0.  1.
       -1    1    3    3    0  502  0.53028441376E+03  0.84405502628E+03  0.24178033293E+03  0.10257134962E+04  0.50400001928E-02 0. -1.
</event>
<event>
 5   0  0.9370269E-06  0.2001810E+04  0.7818609E-02  0.8605775E-01
        1   -1    0    0  501    0  0.00000000000E+00  0.00000000000E+00  0.14402788222E+04  0.14402788222E+04  0.50400001928E-02 0. -1.
       -1   -1    0    0    0  501  0.00000000000E+00  0.00000000000E+00 -0.69556728788E+03  0.69556728790E+03  0.50400001928E-02 0.  1.
    10030    2    1    2    0    0  0.00000000000E+00  0.00000000000E+00  0.74471153433E+03  0.21358461101E+04  0.20018100152E+04 0.  0.
        4    1    3    3  502    0  0.16209310281E+03 -0.49673678045E+03 -0.53849576499E+03  0.75033386226E+03  0.12699999809E+01 0.  1.
       -4    1    3    3    0  502 -0.16209310281E+03  0.49673678045E+03  0.12832072993E+04  0.13855122479E+04  0.12699999809E+01 0. -1.
</event>
<event>
 5   0  0.9220260E-06  0.2001333E+04  0.7818609E-02  0.8605997E-01
       -1   -1    0    0    0  501  0.00000000000E+00  0.00000000000E+00  0.52819834340E+03  0.52819834342E+03  0.50400001928E-02 0. -1.
        1   -1    0    0  501    0  0.00000000000E+00  0.00000000000E+00 -0.18957536140E+04  0.18957536140E+04  0.50400001928E-02 0.  1.
    10030    2    1    2    0    0  0.00000000000E+00  0.00000000000E+00 -0.13675552706E+04  0.24239519574E+04  0.20013334739E+04 0.  0.
        3    1    3    3  502    0  0.33671087081E+03  0.87144704679E+03 -0.24954419934E+03  0.96698835748E+03  0.10100000352E+00 0. -1.
       -3    1    3    3    0  502 -0.33671087081E+03 -0.87144704679E+03 -0.11180110712E+04  0.14569635999E+04  0.10100000352E+00 0.  1.
</event>
<event>
 5   0  0.2020029E-05  0.1997866E+04  0.7818609E-02  0.8607619E-01
       -2   -1    0    0    0  501  0.00000000000E+00  0.00000000000E+00  0.14180927132E+04  0.14180927132E+04  0.25500000920E-02 0.  1.
        2   -1    0    0  501    0  0.00000000000E+00  0.00000000000E+00 -0.70366839010E+03  0.70366839010E+03  0.25500000920E-02 0. -1.
    10030    2    1    2    0    0  0.00000000000E+00  0.00000000000E+00  0.71442432308E+03  0.21217611033E+04  0.19978658779E+04 0.  0.
        5    1    3    3  502    0 -0.99474943142E+03  0.86237716583E+02  0.32567998259E+03  0.10502632604E+04  0.46999998093E+01 0.  1.
       -5    1    3    3    0  502  0.99474943142E+03 -0.86237716583E+02  0.38874434049E+03  0.10714978429E+04  0.46999998093E+01 0. -1.
</event>
<event>
 5   0  0.9220260E-06  0.2003350E+04  0.7818609E-02  0.8605056E-01
        1   -1    0    0  501    0  0.00000000000E+00  0.00000000000E+00  0.71476907287E+03  0.71476907289E+03  0.50400001928E-02 0.  1.
       -1   -1    0    0    0  501  0.00000000000E+00  0.00000000000E+00 -0.14037437460E+04  0.14037437460E+04  0.50400001928E-02 0. -1.
    10030    2    1    2    0    0  0.00000000000E+00  0.00000000000E+00 -0.68897467317E+03  0.21185128189E+04  0.20033498106E+04 0.  0.
        3    1    3    3  502    0  0.14469593374E+03 -0.98827926864E+03 -0.26451054890E+03  0.10332466631E+04  0.10100000352E+00 0.  1.
       -3    1    3    3    0  502 -0.14469593374E+03  0.98827926864E+03 -0.42446412427E+03  0.10852661559E+04  0.10100000352E+00 0. -1.
</event>
<event>
 5   0  0.9220260E-06  0.1999974E+04  0.7818609E-02  0.8606633E-01
       -1   -1    0    0    0  501  0.00000000000E+00  0.00000000000E+00  0.51217601697E+03  0.51217601700E+03  0.50400001928E-02 0. -1.
        1   -1    0    0  501    0  0.00000000000E+00  0.00000000000E+00 -0.19524035834E+04  0.19524035834E+04  0.50400001928E-02 0.  1.
    10030    2    1    2    0    0  0.00000000000E+00  0.00000000000E+00 -0.14402275665E+04  0.24645796004E+04  0.19999742908E+04 0.  0.
        3    1    3    3  502    0  0.72432616685E+03  0.36213116366E+03  0.28484454676E+01  0.80981201492E+03  0.10100000352E+00 0. -1.
       -3    1    3    3    0  502 -0.72432616685E+03 -0.36213116366E+03 -0.14430760119E+04  0.16547675855E+04  0.10100000352E+00 0.  1.
</event>
<event>
 5   0  0.2003576E-05  0.1999120E+04  0.7818609E-02  0.8607032E-01
        2   -1    0    0  501    0  0.00000000000E+00  0.00000000000E+00  0.14323476097E+04  0.14323476097E+04  0.25500000920E-02 0. -1.
       -2   -1    0    0    0  501  0.00000000000E+00  0.00000000000E+00 -0.69753997081E+03  0.69753997082E+03  0.25500000920E-02 0.  1.
    10030    2    1    2    0    0  0.00000000000E+00  0.00000000000E+00  0.73480763893E+03  0.21298875806E+04  0.19991195161E+04 0.  0.
        4    1    3    3  502    0 -0.71621296497E+03 -0.48701146819E+03  0.89901910969E+03  0.12483501728E+04  0.12699999809E+01 0. -1.
       -4    1    3    3    0  502  0.71621296497E+03  0.48701146819E+03 -0.16421147076E+03  0.88153740781E+03  0.12699999809E+01 0.  1.
</event>
<event>
 5   0  0.1979765E-05  0.1999089E+04  0.7818609E-02  0.8607047E-01
       -2   -1    0    0    0  501  0.00000000000E+00  0.00000000000E+00  0.59235241353E+03  0.59235241353E+03  0.25500000920E-02 0.  1.
        2   -1    0    0  501    0  0.00000000000E+00  0.00000000000E+00 -0.16866466663E+04  0.16866466663E+04  0.25500000920E-02 0. -1.
    10030    2    1    2    0    0  0.00000000000E+00  0.00000000000E+00 -0.10942942528E+04  0.22789990799E+04  0.19990890161E+04 0.  0.
        2    1    3    3  502    0 -0.66689538539E+03  0.25706910517E+03 -0.13437382724E+04  0.15219942590E+04  0.25500000920E-02 0. -1.
       -2    1    3    3    0  502  0.66689538539E+03 -0.25706910517E+03  0.24944401956E+03  0.75700482084E+03  0.25500000920E-02 0.  1.
</event>
<event>
 5   0  0.9333353E-06  0.1997364E+04  0.7818609E-02  0.8607854E-01
        1   -1    0    0  501    0  0.00000000000E+00  0.00000000000E+00  0.12562540862E+04  0.12562540862E+04  0.50400001928E-02 0. -1.
       -1   -1    0    0    0  501  0.00000000000E+00  0.00000000000E+00 -0.79392034027E+03  0.79392034028E+03  0.50400001928E-02 0.  1.
    10030    2    1    2    0    0  0.00000000000E+00  0.00000000000E+00  0.46233374594E+03  0.20501744265E+04  0.19973639344E+04 0.  0.
        2    1    3    3  502    0 -0.60516543191E+03  0.21840571526E+03  0.10151947247E+04  0.12018929176E+04  0.25500000920E-02 0. -1.
       -2    1    3    3    0  502  0.60516543191E+03 -0.21840571526E+03 -0.55286097876E+03  0.84828150886E+03  0.25500000920E-02 0.  1.
</event>
<event>
 5   0  0.1979765E-05  0.2000372E+04  0.7818609E-02  0.8606447E-01
        2   -1    0    0  501    0  0.00000000000E+00  0.00000000000E+00  0.74121926809E+03  0.74121926810E+03  0.25500000920E-02 0.  1.
       -2   -1    0    0    0  501  0.00000000000E+00  0.00000000000E+00 -0.13496304631E+04  0.13496304631E+04  0.25500000920E-02 0. -1.
    10030    2    1    2    0    0  0.00000000000E+00  0.00000000000E+00 -0.60841119496E+03  0.20908497312E+04  0.20003720694E+04 0.  0.
        2    1    3    3  502    0 -0.73699647938E+03  0.84201690413E+02  0.39704849283E+03  0.84136867124E+03  0.25500000920E-02 0.  1.
       -2    1    3    3    0  502  0.73699647938E+03 -0.84201690413E+02 -0.10054596878E+04  0.12494810599E+04  0.25500000920E-02 0. -1.
</event>
<event>
 5   0  0.9333353E-06  0.2000928E+04  0.7818609E-02  0.8606187E-01
       -1   -1    0    0    0  501  0.00000000000E+00  0.00000000000E+00  0.67552296636E+03  0.67552296638E+03  0.50400001928E-02 0.  1.
        1   -1    0    0  501    0  0.00000000000E+00  0.00000000000E+00 -0.14817079856E+04  0.14817079857E+04  0.50400001928E-02 0. -1.
    10030    2    1    2    0    0  0.00000000000E+00  0.00000000000E+00 -0.80618501928E+03  0.21572309520E+04  0.20009275587E+04 0.  0.
        2    1    3    3  502    0 -0.12245914791E+03 -0.14368003789E+03  0.65614569315E+03  0.68276450321E+03  0.25500000920E-02 0.  1.
       -2    1    3    3    0  502  0.12245914791E+03  0.14368003789E+03 -0.14623307124E+04  0.14744664488E+04  0.25500000920E-02 0. -1.
</event>
<event>
 5   0  0.7132000E-06  0.2010519E+04  0.7818609E-02  0.8601719E-01
       -3   -1    0    0    0  501  0.00000000000E+00  0.00000000000E+00  0.15582449137E+04  0.15582449169E+04  0.10100000352E+00 0. -1.
        3   -1    0    0  501    0  0.00000000000E+00  0.00000000000E+00 -0.64851572190E+03  0.64851572976E+03  0.10100000352E+00 0.  1.
    10030    2    1    2    0    0  0.00000000000E+00  0.00000000000E+00  0.90972919175E+03  0.22067606467E+04  0.20105186767E+04 0.  0.
        4    1    3    3  502    0 -0.25567732899E+02  0.11373525696E+03 -0.64107082448E+03  0.65158486212E+03  0.12699999809E+01 0.  1.
       -4    1    3    3    0  502  0.25567732899E+02 -0.11373525696E+03  0.15508000162E+04  0.15551757846E+04  0.12699999809E+01 0. -1.
</event>
<event>
 5   0  0.9140695E-06  0.2000590E+04  0.7818609E-02  0.8606345E-01
       -1   -1    0    0    0  501  0.00000000000E+00  0.00000000000E+00  0.74806507053E+03  0.74806507055E+03  0.50400001928E-02 0. -1.
        1   -1    0    0  501    0  0.00000000000E+00  0.00000000000E+00 -0.13375705374E+04  0.13375705374E+04  0.50400001928E-02 0.  1.
    10030    2    1    2    0    0  0.00000000000E+00  0.00000000000E+00 -0.58950546685E+03  0.20856356079E+04  0.20005897115E+04 0.  0.
        1    1    3    3  502    0  0.11680428777E+02 -0.24499079375E+03  0.71623131584E+03  0.75706288990E+03  0.50400001928E-02 0. -1.
       -1    1    3    3    0  502 -0.11680428777E+02  0.24499079375E+03 -0.13057367827E+04  0.13285727180E+04  0.50400001928E-02 0.  1.
</event>
<event>
 5   0  0.1979765E-05  0.2004373E+04  0.7818609E-02  0.8604579E-01
       -2   -1    0    0    0  501  0.00000000000E+00  0.00000000000E+00  0.15608472118E+04  0.15608472118E+04  0.25500000920E-02 0. -1.
        2   -1    0    0  501    0  0.00000000000E+00  0.00000000000E+00 -0.64348252194E+03  0.64348252194E+03  0.25500000920E-02 0.  1.
    10030    2    1    2    0    0  0.00000000000E+00  0.00000000000E+00  0.91736468983E+03  0.22043297337E+04  0.20043731191E+04 0.  0.
        2    1    3    3  502    0  0.71664114134E+03 -0.35234946311E+03 -0.20724331077E+03  0.82502997490E+03  0.25500000920E-02 0.  1.
       -2    1    3    3    0  502 -0.71664114134E+03  0.35234946311E+03  0.11246080006E+04  0.13792997588E+04  0.25500000920E-02 0. -1.
</event>
<event>
 5   0  0.2003576E-05  0.1999272E+04  0.7818609E-02  0.8606961E-01
       -2   -1    0    0    0  501  0.00000000000E+00  0.00000000000E+00  0.10728861015E+04  0.10728861015E+04  0.25500000920E-02 0. -1.
        2   -1    0    0  501    0  0.00000000000E+00  0.00000000000E+00 -0.93138706542E+03  0.93138706543E+03  0.25500000920E-02 0.  1.
    10030    2    1    2    0    0  0.00000000000E+00  0.00000000000E+00  0.14149903606E+03  0.20042731669E+04  0.19992721051E+04 0.  0.
        4    1    3    3  502    0 -0.78985231813E+02 -0.71618414606E+03  0.76538408098E+03  0.10511768653E+04  0.12699999809E+01 0. -1.
       -4    1    3    3    0  502  0.78985231813E+02  0.71618414606E+03 -0.62388504491E+03  0.95309630157E+03  0.12699999809E+01 0.  1.
</event>
<event>
 5   0  0.1999142E-05  0.1999321E+04  0.7818609E-02  0.8606938E-01
        2   -1    0    0  501    0  0.00000000000E+00  0.00000000000E+00  0.18138437681E+04  0.18138437681E+04  0.25500000920E-02 0.  1.
       -2   -1    0    0    0  501  0.00000000000E+00  0.00000000000E+00 -0.55094117022E+03  0.55094117023E+03  0.25500000920E-02 0. -1.
    10030    2    1    2    0    0  0.00000000000E+00  0.00000000000E+00  0.12629025979E+04  0.23647849383E+04  0.19993210930E+04 0.  0.
        1    1    3    3  502    0  0.93841358219E+03  0.31265219047E+03  0.46025330250E+03  0.10909649609E+04  0.50400001928E-02 0. -1.
       -1    1    3    3    0  502 -0.93841358219E+03 -0.31265219047E+03  0.80264929536E+03  0.12738199774E+04  0.50400001928E-02 0.  1.
</event>
<event>
 5   0  0.1999142E-05  0.1990887E+04  0.7818609E-02  0.8610893E-01
       -2   -1    0    0    0  501  0.00000000000E+00  0.00000000000E+00  0.11328077557E+04  0.11328077557E+04  0.25500000920E-02 0. -1.
        2   -1    0    0  501    0  0.00000000000E+00  0.00000000000E+00 -0.87473565728E+03  0.87473565729E+03  0.25500000920E-02 0.  1.
    10030    2    1    2    0    0  0.00000000000E+00  0.00000000000E+00  0.25807209843E+03  0.20075434130E+04  0.19908865731E+04 0.  0.
        1    1    3    3  502    0  0.58608081608E+03 -0.84798777969E+02  0.93587156554E+03  0.11074913738E+04  0.50400001928E-02 0. -1.
       -1    1    3    3    0  502 -0.58608081608E+03  0.84798777969E+02 -0.67779946711E+03  0.90005203925E+03  0.50400001928E-02 0.  1.
</event>
<event>
 5   0  0.9333353E-06  0.1999829E+04  0.7818609E-02  0.8606701E-01
       -1   -1    0    0    0  501  0.00000000000E+00  0.00000000000E+00  0.12702514987E+04  0.12702514987E+04  0.50400001928E-02 0.  1.
        1   -1    0    0  501    0  0.00000000000E+00  0.00000000000E+00 -0.78711087010E+03  0.78711087012E+03  0.50400001928E-02 0. -1.
    10030    2    1    2    0    0  0.00000000000E+00  0.00000000000E+00  0.48314062863E+03  0.20573623689E+04  0.19998287551E+04 0.  0.
        2    1    3    3  502    0  0.68138543745E+03  0.68305503808E+03 -0.28623087817E+02  0.96523032515E+03  0.25500000920E-02 0. -1.
       -2    1    3    3    0  502 -0.68138543745E+03 -0.68305503808E+03  0.51176371645E+03  0.10921320437E+04  0.25500000920E-02 0.  1.
</event>
<event>
 5   0  0.7132000E-06  0.1999918E+04  0.7818609E-02  0.8606659E-01
        4   -1    0    0  501    0  0.00000000000E+00  0.00000000000E+00  0.18584259026E+04  0.18584263365E+04  0.12699999809E+01 0.  1.
       -4   -1    0    0    0  501  0.00000000000E+00  0.00000000000E+00 -0.53804454140E+03  0.53804604025E+03  0.12699999809E+01 0. -1.
    10030    2    1    2    0    0  0.00000000000E+00  0.00000000000E+00  0.13203813612E+04  0.23964723768E+04  0.19999182267E+04 0.  0.
        5    1    3    3  502    0  0.21342940179E+03 -0.37864900629E+03  0.17392922013E+04  0.17927873915E+04  0.46999998093E+01 0.  1.
       -5    1    3    3    0  502 -0.21342940179E+03  0.37864900629E+03 -0.41891084011E+03  0.60368498530E+03  0.46999998093E+01 0. -1.
</event>
<event>
 5   0  0.1999142E-05  0.2001359E+04  0.7818609E-02  0.8605986E-01
       -2   -1    0    0    0  501  0.00000000000E+00  0.00000000000E+00  0.64699854803E+03  0.64699854804E+03  0.25500000920E-02 0.  1.
        2   -1    0    0  501    0  0.00000000000E+00  0.00000000000E+00 -0.15476992592E+04  0.15476992592E+04  0.25500000920E-02 0. -1.
    10030    2    1    2    0    0  0.00000000000E+00  0.00000000000E+00 -0.90070071120E+03  0.21946978073E+04  0.20013587120E+04 0.  0.
        1    1    3    3  502    0  0.53316358880E+03  0.64242021484E+03  0.15466504707E+03  0.84905148352E+03  0.50400001928E-02 0. -1.
       -1    1    3    3    0  502 -0.53316358880E+03 -0.64242021484E+03 -0.10553657583E+04  0.13456463237E+04  0.50400001928E-02 0.  1.
</event>
<event>
 5   0  0.2020029E-05  0.1998941E+04  0.7818609E-02  0.8607116E-01
       -2   -1    0    0    0  501  0.00000000000E+00  0.00000000000E+00  0.16701295165E+04  0.16701295165E+04  0.25500000920E-02 0.  1.
        2   -1    0    0  501    0  0.00000000000E+00  0.00000000000E+00 -0.59812177894E+03  0.59812177894E+03  0.25500000920E-02 0. -1.
    10030    2    1    2    0    0  0.00000000000E+00  0.00000000000E+00  0.10720077376E+04  0.22682512955E+04  0.19989405569E+04 0.  0.
        5    1    3    3  502    0  0.54196631220E+03 -0.28750886743E+03 -0.35930193739E+03  0.71099142373E+03  0.46999998093E+01 0. -1.
       -5    1    3    3    0  502 -0.54196631220E+03  0.28750886743E+03  0.14313096750E+04  0.15572598717E+04  0.46999998093E+01 0.  1.
</event>
<event>
 5   0  0.2003576E-05  0.2001300E+04  0.7818609E-02  0.8606013E-01
        2   -1    0    0  501    0  0.00000000000E+00  0.00000000000E+00  0.17268305807E+04  0.17268305807E+04  0.25500000920E-02 0. -1.
       -2   -1    0    0    0  501  0.00000000000E+00  0.00000000000E+00 -0.57984855303E+03  0.57984855304E+03  0.25500000920E-02 0.  1.
    10030    2    1    2    0    0  0.00000000000E+00  0.00000000000E+00  0.11469820277E+04  0.23066791337E+04  0.20012997912E+04 0.  0.
        4    1    3    3  502    0  0.28225185521E+03 -0.32505466357E+03  0.16146394557E+04  0.16710442331E+04  0.12699999809E+01 0. -1.
       -4    1    3    3    0  502 -0.28225185521E+03  0.32505466357E+03 -0.46765742802E+03  0.63563490068E+03  0.12699999809E+01 0.  1.
</event>
<event>
 5   0  0.9140695E-06  0.1997108E+04  0.7818609E-02  0.8607974E-01
       -1   -1    0    0    0  501  0.00000000000E+00  0.00000000000E+00  0.14042653401E+04  0.14042653401E+04  0.50400001928E-02 0.  1.
        1   -1    0    0  501    0  0.00000000000E+00  0.00000000000E+00 -0.71005815186E+03  0.71005815188E+03  0.50400001928E-02 0. -1.
    10030    2    1    2    0    0  0.00000000000E+00  0.00000000000E+00  0.69420718822E+03  0.21143234920E+04  0.19971079612E+04 0.  0.
        1    1    3    3  502    0 -0.77724601823E+03 -0.62527639201E+03  0.39478136596E+03  0.10728160449E+04  0.50400001928E-02 0. -1.
       -1    1    3    3    0  502  0.77724601823E+03  0.62527639201E+03  0.29942582226E+03  0.10415074471E+04  0.50400001928E-02 0.  1.
</event>
<event>
 5   0  0.2038882E-05  0.2011649E+04  0.7818609E-02  0.8601194E-01
       -2   -1    0    0    0  501  0.00000000000E+00  0.00000000000E+00  0.91417721952E+03  0.91417721953E+03  0.25500000920E-02 0.  1.
        2   -1    0    0  501    0  0.00000000000E+00  0.00000000000E+00 -0.11066599050E+04  0.11066599050E+04  0.25500000920E-02 0. -1.
    10030    2    1    2    0    0  0.00000000000E+00  0.00000000000E+00 -0.19248268544E+03  0.20208371245E+04  0.20116493481E+04 0.  0.
        3    1    3    3  502    0  0.74987297419E+03 -0.64809463355E+03  0.75851129144E+02  0.99402692894E+03  0.10100000352E+00 0. -1.
       -3    1    3    3    0  502 -0.74987297419E+03  0.64809463355E+03 -0.26833381458E+03  0.10268101956E+04  0.10100000352E+00 0.  1.
</event>
<event>
 5   0  0.1999142E-05  0.2026162E+04  0.7818609E-02  0.8594486E-01
       -2   -1    0    0    0  501  0.00000000000E+00  0.00000000000E+00  0.89248517161E+03  0.89248517161E+03  0.25500000920E-02 0. -1.
        2   -1    0    0  501    0  0.00000000000E+00  0.00000000000E+00 -0.11499726148E+04  0.11499726148E+04  0.25500000920E-02 0.  1.
    10030    2    1    2    0    0  0.00000000000E+00  0.00000000000E+00 -0.25748744320E+03  0.20424577864E+04  0.20261623888E+04 0.  0.
        1    1    3    3  502    0  0.59970781236E+03 -0.81648781305E+03 -0.13441904389E+03  0.10219443666E+04  0.50400001928E-02 0. -1.
       -1    1    3    3    0  502 -0.59970781236E+03  0.81648781305E+03 -0.12306839931E+03  0.10205134198E+04  0.50400001928E-02 0.  1.
</event>
<event>
 5   0  0.9370269E-06  0.1940647E+04  0.7818609E-02  0.8634884E-01
        1   -1    0    0  501    0  0.00000000000E+00  0.00000000000E+00  0.13624735108E+04  0.13624735108E+04  0.50400001928E-02 0.  1.
       -1   -1    0    0    0  501  0.00000000000E+00  0.00000000000E+00 -0.69104309625E+03  0.69104309627E+03  0.50400001928E-02 0. -1.
    10030    2    1    2    0    0  0.00000000000E+00  0.00000000000E+00  0.67143041456E+03  0.20535166071E+04  0.19406472255E+04 0.  0.
        4    1    3    3  502    0 -0.34191519256E+03 -0.49048834378E+03  0.11443891929E+04  0.12911673215E+04  0.12699999809E+01 0.  1.
       -4    1    3    3    0  502  0.34191519256E+03  0.49048834378E+03 -0.47295877838E+03  0.76234928558E+03  0.12699999809E+01 0. -1.
</event>
<event>
 5   0  0.2038882E-05  0.1998647E+04  0.7818609E-02  0.8607253E-01
        2   -1    0    0  501    0  0.00000000000E+00  0.00000000000E+00  0.84352784379E+03  0.84352784379E+03  0.25500000920E-02 0. -1.
       -2   -1    0    0    0  501  0.00000000000E+00  0.00000000000E+00 -0.11838943989E+04  0.11838943989E+04  0.25500000920E-02 0.  1.
    10030    2    1    2    0    0  0.00000000000E+00  0.00000000000E+00 -0.34036655512E+03  0.20274222427E+04  0.19986474322E+04 0.  0.
        3    1    3    3  502    0 -0.55184707442E+03 -0.38195608394E+03 -0.92126352397E+03  0.11398035508E+04  0.10100000352E+00 0.  1.
       -3    1    3    3    0  502  0.55184707442E+03  0.38195608394E+03  0.58089696885E+03  0.88761869191E+03  0.10100000352E+00 0. -1.
</event>
<event>
 5   0  0.1999142E-05  0.2005372E+04  0.7818609E-02  0.8604113E-01
       -2   -1    0    0    0  501  0.00000000000E+00  0.00000000000E+00  0.14100772071E+04  0.14100772071E+04  0.25500000920E-02 0. -1.
        2   -1    0    0  501    0  0.00000000000E+00  0.00000000000E+00 -0.71299583369E+03  0.71299583370E+03  0.25500000920E-02 0.  1.
    10030    2    1    2    0    0  0.00000000000E+00  0.00000000000E+00  0.69708137341E+03  0.21230730408E+04  0.20053719594E+04 0.  0.
        1    1    3    3  502    0  0.22588958766E+03 -0.83349766101E+03  0.88799091283E+03  0.12386574660E+04  0.50400001928E-02 0. -1.
       -1    1    3    3    0  502 -0.22588958766E+03  0.83349766101E+03 -0.19090953942E+03  0.88441557482E+03  0.50400001928E-02 0.  1.
</event>
<event>
 5   0  0.9333353E-06  0.2019315E+04  0.7818609E-02  0.8597643E-01
       -1   -1    0    0    0  501  0.00000000000E+00  0.00000000000E+00  0.88070129630E+03  0.88070129631E+03  0.50400001928E-02 0. -1.
        1   -1    0    0  501    0  0.00000000000E+00  0.00000000000E+00 -0.11574966033E+04  0.11574966033E+04  0.50400001928E-02 0.  1.
    10030    2    1    2    0    0  0.00000000000E+00  0.00000000000E+00 -0.27679530698E+03  0.20381978996E+04  0.20193154870E+04 0.  0.
        2    1    3    3  502    0 -0.25707381994E+03  0.40128928206E+03 -0.10368269612E+04  0.11411091904E+04  0.25500000920E-02 0.  1.
       -2    1    3    3    0  502  0.25707381994E+03 -0.40128928206E+03  0.76003165424E+03  0.89708870924E+03  0.25500000920E-02 0. -1.
</event>
<event>
 5   0  0.2020029E-05  0.1995627E+04  0.7818609E-02  0.8608668E-01
       -2   -1    0    0    0  501  0.00000000000E+00  0.00000000000E+00  0.10070702061E+04  0.10070702061E+04  0.25500000920E-02 0. -1.
        2   -1    0    0  501    0  0.00000000000E+00  0.00000000000E+00 -0.98864212440E+03  0.98864212440E+03  0.25500000920E-02 0.  1.
    10030    2    1    2    0    0  0.00000000000E+00  0.00000000000E+00  0.18428081692E+02  0.19957123305E+04  0.19956272477E+04 0.  0.
        5    1    3    3  502    0  0.18994721949E+03 -0.94314417915E+03  0.27381755344E+03  0.10002994709E+04  0.46999998093E+01 0. -1.
       -5    1    3    3    0  502 -0.18994721949E+03  0.94314417915E+03 -0.25538947175E+03  0.99541285963E+03  0.46999998093E+01 0.  1.
</event>
<event>
 5   0  0.9140695E-06  0.1996632E+04  0.7818609E-02  0.8608197E-01
       -1   -1    0    0    0  501  0.00000000000E+00  0.00000000000E+00  0.50393412462E+03  0.50393412464E+03  0.50400001928E-02 0.  1.
        1   -1    0    0  501    0  0.00000000000E+00  0.00000000000E+00 -0.19777076998E+04  0.19777076998E+04  0.50400001928E-02 0. -1.
    10030    2    1    2    0    0  0.00000000000E+00  0.00000000000E+00 -0.14737735751E+04  0.24816418244E+04  0.19966315619E+04 0.  0.
        1    1    3    3  502    0  0.63510643898E+03 -0.26140647660E+03  0.16363942467E+03  0.70602506767E+03  0.50400001928E-02 0.  1.
       -1    1    3    3    0  502 -0.63510643898E+03  0.26140647660E+03 -0.16374129998E+04  0.17756167567E+04  0.50400001928E-02 0. -1.
</event>
<event>
 5   0  0.1999142E-05  0.2002402E+04  0.7818609E-02  0.8605499E-01
       -2   -1    0    0    0  501  0.00000000000E+00  0.00000000000E+00  0.16094988908E+04  0.16094988908E+04  0.25500000920E-02 0. -1.
        2   -1    0    0  501    0  0.00000000000E+00  0.00000000000E+00 -0.62280441069E+03  0.62280441069E+03  0.25500000920E-02 0.  1.
    10030    2    1    2    0    0  0.00000000000E+00  0.00000000000E+00  0.98669448007E+03  0.22323033014E+04  0.20024015663E+04 0.  0.
        1    1    3    3  502    0  0.70785599724E+03  0.66210928545E+03  0.77306132998E+03  0.12397873361E+04  0.50400001928E-02 0. -1.
       -1    1    3    3    0  502 -0.70785599724E+03 -0.66210928545E+03  0.21363315009E+03  0.99251596539E+03  0.50400001928E-02 0.  1.
</event>
<event>
 5   0  0.1979765E-05  0.2019997E+04  0.7818609E-02  0.8597328E-01
        2   -1    0    0  501    0  0.00000000000E+00  0.00000000000E+00  0.77629523339E+03  0.77629523339E+03  0.25500000920E-02 0.  1.
       -2   -1    0    0    0  501  0.00000000000E+00  0.00000000000E+00 -0.13140580100E+04  0.13140580100E+04  0.25500000920E-02 0. -1.
    10030    2    1    2    0    0  0.00000000000E+00  0.00000000000E+00 -0.53776277661E+03  0.20903532434E+04  0.20199969996E+04 0.  0.
        2    1    3    3  502    0 -0.95908523102E+03 -0.78645593847E+02  0.48505101047E+02  0.96352600101E+03  0.25500000920E-02 0.  1.
       -2    1    3    3    0  502  0.95908523102E+03  0.78645593847E+02 -0.58626787766E+03  0.11268272424E+04  0.25500000920E-02 0. -1.
</event>
<event>
 5   0  0.9342635E-06  0.2002992E+04  0.7818609E-02  0.8605223E-01
        1   -1    0    0  501    0  0.00000000000E+00  0.00000000000E+00  0.13913253370E+04  0.13913253371E+04  0.50400001928E-02 0. -1.
       -1   -1    0    0    0  501  0.00000000000E+00  0.00000000000E+00 -0.72089136792E+03  0.72089136793E+03  0.50400001928E-02 0.  1.
    10030    2    1    2    0    0  0.00000000000E+00  0.00000000000E+00  0.67043396913E+03  0.21122167050E+04  0.20029921872E+04 0.  0.
        5    1    3    3  502    0  0.43004344346E+03  0.19327170975E+03 -0.59652577742E+03  0.76036597121E+03  0.46999998093E+01 0.  1.
       -5    1    3    3    0  502 -0.43004344346E+03 -0.19327170975E+03  0.12669597465E+04  0.13518507338E+04  0.46999998093E+01 0. -1.
</event>
<event>
 5   0  0.9220260E-06  0.2006706E+04  0.7818609E-02  0.8603492E-01
       -1   -1    0    0    0  501  0.00000000000E+00  0.00000000000E+00  0.15373086202E+04  0.15373086203E+04  0.50400001928E-02 0.  1.
        1   -1    0    0  501    0  0.00000000000E+00  0.00000000000E+00 -0.65485722673E+03  0.65485722675E+03  0.50400001928E-02 0. -1.
    10030    2    1    2    0    0  0.00000000000E+00  0.00000000000E+00  0.88245139352E+03  0.21921658470E+04  0.20067064157E+04 0.  0.
        3    1    3    3  502    0  0.70355763698E+03 -0.81517927122E+02  0.12175966515E+04  0.14086092918E+04  0.10100000352E+00 0.  1.
       -3    1    3    3    0  502 -0.70355763698E+03  0.81517927122E+02 -0.33514525801E+03  0.78355655518E+03  0.10100000352E+00 0. -1.
</event>
<event>
 5   0  0.2038882E-05  0.1999159E+04  0.7818609E-02  0.8607014E-01
       -2   -1    0    0    0  501  0.00000000000E+00  0.00000000000E+00  0.11381570630E+04  0.11381570630E+04  0.25500000920E-02 0. -1.
        2   -1    0    0  501    0  0.00000000000E+00  0.00000000000E+00 -0.87787475756E+03  0.87787475756E+03  0.25500000920E-02 0.  1.
    10030    2    1    2    0    0  0.00000000000E+00  0.00000000000E+00  0.26028230541E+03  0.20160318205E+04  0.19991591790E+04 0.  0.
        3    1    3    3  502    0 -0.26715469022E+03  0.92607052946E+03 -0.13701185406E+03  0.97352478776E+03  0.10100000352E+00 0. -1.
       -3    1    3    3    0  502  0.26715469022E+03 -0.92607052946E+03  0.39729415947E+03  0.10425070328E+04  0.10100000352E+00 0.  1.
</event>
<event>
 5   0  0.2020029E-05  0.1999210E+04  0.7818609E-02  0.8606990E-01
       -2   -1    0    0    0  501  0.00000000000E+00  0.00000000000E+00  0.10394350997E+04  0.10394350998E+04  0.25500000920E-02 0. -1.
        2   -1    0    0  501    0  0.00000000000E+00  0.00000000000E+00 -0.96130085375E+03  0.96130085376E+03  0.25500000920E-02 0.  1.
    10030    2    1    2    0    0  0.00000000000E+00  0.00000000000E+00  0.78134245996E+02  0.20007359535E+04  0.19992096927E+04 0.  0.
        5    1    3    3  502    0 -0.67661912962E+03  0.65123793280E+03  0.38176608835E+03  0.10137513146E+04  0.46999998093E+01 0.  1.
       -5    1    3    3    0  502  0.67661912962E+03 -0.65123793280E+03 -0.30363184236E+03  0.98698463888E+03  0.46999998093E+01 0. -1.
</event>
<event>
 5   0  0.9342635E-06  0.1988854E+04  0.7818609E-02  0.8611850E-01
       -1   -1    0    0    0  501  0.00000000000E+00  0.00000000000E+00  0.10479676694E+04  0.10479676694E+04  0.50400001928E-02 0.  1.
        1   -1    0    0  501    0  0.00000000000E+00  0.00000000000E+00 -0.94362149372E+03  0.94362149374E+03  0.50400001928E-02 0. -1.
    10030    2    1    2    0    0  0.00000000000E+00  0.00000000000E+00  0.10434617569E+03  0.19915891632E+04  0.19888537579E+04 0.  0.
        5    1    3    3  502    0  0.49012174385E+03 -0.34111406237E+03  0.84842998356E+03  0.10375132068E+04  0.46999998093E+01 0.  1.
       -5    1    3    3    0  502 -0.49012174385E+03  0.34111406237E+03 -0.74408380787E+03  0.95407595634E+03  0.46999998093E+01 0. -1.
</event>
<event>
 5   0  0.1999142E-05  0.2007692E+04  0.7818609E-02  0.8603033E-01
       -2   -1    0    0    0  501  0.00000000000E+00  0.00000000000E+00  0.79729846070E+03  0.79729846070E+03  0.25500000920E-02 0.  1.
        2   -1    0    0  501    0  0.00000000000E+00  0.00000000000E+00 -0.12639013969E+04  0.12639013969E+04  0.25500000920E-02 0. -1.
    10030    2    1    2    0    0  0.00000000000E+00  0.00000000000E+00 -0.46660293623E+03  0.20611998576E+04  0.20076918471E+04 0.  0.
        1    1    3    3  502    0  0.39848061182E+03  0.12370241726E+03  0.70405865412E+03  0.81840556847E+03  0.50400001928E-02 0.  1.
       -1    1    3    3    0  502 -0.39848061182E+03 -0.12370241726E+03 -0.11706615903E+04  0.12427942892E+04  0.50400001928E-02 0. -1.
</event>
<event>
 5   0  0.9140695E-06  0.1995514E+04  0.7818609E-02  0.8608721E-01
       -1   -1    0    0    0  501  0.00000000000E+00  0.00000000000E+00  0.92301422511E+03  0.92301422512E+03  0.50400001928E-02 0. -1.
        1   -1    0    0  501    0  0.00000000000E+00  0.00000000000E+00 -0.10785520421E+04  0.10785520421E+04  0.50400001928E-02 0.  1.
    10030    2    1    2    0    0  0.00000000000E+00  0.00000000000E+00 -0.15553781700E+03  0.20015662672E+04  0.19955138460E+04 0.  0.
        1    1    3    3  502    0  0.85895885086E+03  0.23683818376E+02 -0.58640421693E+03  0.10403081930E+04  0.50400001928E-02 0.  1.
       -1    1    3    3    0  502 -0.85895885086E+03 -0.23683818376E+02  0.43086639992E+03  0.96125807426E+03  0.50400001928E-02 0. -1.
</event>
<event>
 5   0  0.2038882E-05  0.2000256E+04  0.7818609E-02  0.8606501E-01
       -2   -1    0    0    0  501  0.00000000000E+00  0.00000000000E+00  0.12722105126E+04  0.12722105126E+04  0.25500000920E-02 0. -1.
        2   -1    0    0  501    0  0.00000000000E+00  0.00000000000E+00 -0.78623451428E+03  0.78623451428E+03  0.25500000920E-02 0.  1.
    10030    2    1    2    0    0  0.00000000000E+00  0.00000000000E+00  0.48597599831E+03  0.20584450269E+04  0.20002557981E+04 0.  0.
        3    1    3    3  502    0 -0.41538336896E+03 -0.54247233780E+03  0.99460221746E+03  0.12066702788E+04  0.10100000352E+00 0. -1.
       -3    1    3    3    0  502  0.41538336896E+03  0.54247233780E+03 -0.50862621915E+03  0.85177474810E+03  0.10100000352E+00 0.  1.
</event>
<event>
 5   0  0.2003576E-05  0.2000716E+04  0.7818609E-02  0.8606286E-01
        2   -1    0    0  501    0  0.00000000000E+00  0.00000000000E+00  0.13372749058E+04  0.13372749058E+04  0.25500000920E-02 0.  1.
       -2   -1    0    0    0  501  0.00000000000E+00  0.00000000000E+00 -0.74832461815E+03  0.74832461816E+03  0.25500000920E-02 0. -1.
    10030    2    1    2    0    0  0.00000000000E+00  0.00000000000E+00  0.58895028766E+03  0.20855995240E+04  0.20007156052E+04 0.  0.
        4    1    3    3  502    0  0.65643432586E+03  0.11728727282E+03  0.10718011215E+04  0.12623080390E+04  0.12699999809E+01 0.  1.
       -4    1    3    3    0  502 -0.65643432586E+03 -0.11728727282E+03 -0.48285083382E+03  0.82329148493E+03  0.12699999809E+01 0. -1.
</event>
<event>
 5   0  0.1979765E-05  0.2034881E+04  0.7818609E-02  0.8590484E-01
       -2   -1    0    0    0  501  0.00000000000E+00  0.00000000000E+00  0.11444521713E+04  0.11444521713E+04  0.25500000920E-02 0.  1.
        2   -1    0    0  501    0  0.00000000000E+00  0.00000000000E+00 -0.90452451773E+03  0.90452451773E+03  0.25500000920E-02 0. -1.
    10030    2    1    2    0    0  0.00000000000E+00  0.00000000000E+00  0.23992765360E+03  0.20489766891E+04  0.20348808794E+04 0.  0.
        2    1    3    3  502    0 -0.50692335135E+03 -0.45475116909E+03 -0.64119256282E+03  0.93535972361E+03  0.25500000920E-02 0. -1.
       -2    1    3    3    0  502  0.50692335135E+03  0.45475116909E+03  0.88112021642E+03  0.11136169654E+04  0.25500000920E-02 0.  1.
</event>
<event>
 5   0  0.1979765E-05  0.2000479E+04  0.7818609E-02  0.8606397E-01
        2   -1    0    0  501    0  0.00000000000E+00  0.00000000000E+00  0.12522205105E+04  0.12522205105E+04  0.25500000920E-02 0. -1.
       -2   -1    0    0    0  501  0.00000000000E+00  0.00000000000E+00 -0.79896422094E+03  0.79896422095E+03  0.25500000920E-02 0.  1.
    10030    2    1    2    0    0  0.00000000000E+00  0.00000000000E+00  0.45325628956E+03  0.20511847314E+04  0.20004793272E+04 0.  0.
        2    1    3    3  502    0 -0.55545452230E+03 -0.62681246514E+03  0.78734913793E+03  0.11494965236E+04  0.25500000920E-02 0. -1.
       -2    1    3    3    0  502  0.55545452230E+03  0.62681246514E+03 -0.33409284837E+03  0.90168820783E+03  0.25500000920E-02 0.  1.
</event>
<event>
 5   0  0.1999142E-05  0.1998229E+04  0.7818609E-02  0.8607449E-01
        2   -1    0    0  501    0  0.00000000000E+00  0.00000000000E+00  0.14793355550E+04  0.14793355550E+04  0.25500000920E-02 0.  1.
       -2   -1    0    0    0  501  0.00000000000E+00  0.00000000000E+00 -0.67478229647E+03  0.67478229648E+03  0.25500000920E-02 0. -1.
    10030    2    1    2    0    0  0.00000000000E+00  0.00000000000E+00  0.80455325852E+03  0.21541178515E+04  0.19982286586E+04 0.  0.
        1    1    3    3  502    0 -0.92822956769E+03  0.27146588278E+03  0.13185718564E+03  0.97605848865E+03  0.50400001928E-02 0. -1.
       -1    1    3    3    0  502  0.92822956769E+03 -0.27146588278E+03  0.67269607288E+03  0.11780593628E+04  0.50400001928E-02 0.  1.
</event>
<event>
 5   0  0.9342635E-06  0.2004513E+04  0.7818609E-02  0.8604514E-01
       -1   -1    0    0    0  501  0.00000000000E+00  0.00000000000E+00  0.50361053701E+03  0.50361053703E+03  0.50400001928E-02 0.  1.
        1   -1    0    0  501    0  0.00000000000E+00  0.00000000000E+00 -0.19946327606E+04  0.19946327606E+04  0.50400001928E-02 0. -1.
    10030    2    1    2    0    0  0.00000000000E+00  0.00000000000E+00 -0.14910222236E+04  0.24982432976E+04  0.20045129840E+04 0.  0.
        5    1    3    3  502    0 -0.20795675788E+03 -0.44611943608E+03  0.34258721270E+03  0.59971380899E+03  0.46999998093E+01 0.  1.
       -5    1    3    3    0  502  0.20795675788E+03  0.44611943608E+03 -0.18336094363E+04  0.18985294887E+04  0.46999998093E+01 0. -1.
</event>
<event>
 5   0  0.9140695E-06  0.2010890E+04  0.7818609E-02  0.8601546E-01
        1   -1    0    0  501    0  0.00000000000E+00  0.00000000000E+00  0.18007516111E+04  0.18007516111E+04  0.50400001928E-02 0. -1.
       -1   -1    0    0    0  501  0.00000000000E+00  0.00000000000E+00 -0.56138747458E+03  0.56138747460E+03  0.50400001928E-02 0.  1.
    10030    2    1    2    0    0  0.00000000000E+00  0.00000000000E+00  0.12393641365E+04  0.23621390857E+04  0.20108897527E+04 0.  0.
        1    1    3    3  502    0  0.27114425707E+03 -0.48129026831E+03 -0.36715552331E+03  0.66329684820E+03  0.50400001928E-02 0.  1.
       -1    1    3    3    0  502 -0.27114425707E+03  0.48129026831E+03  0.16065196598E+04  0.16988422375E+04  0.50400001928E-02 0. -1.
</event>
<event>
 5   0  0.1999142E-05  0.1998811E+04  0.7818609E-02  0.8607177E-01
       -2   -1    0    0    0  501  0.00000000000E+00  0.00000000000E+00  0.90054137535E+03  0.90054137535E+03  0.25500000920E-02 0.  1.
        2   -1    0    0  501    0  0.00000000000E+00  0.00000000000E+00 -0.11091226741E+04  0.11091226742E+04  0.25500000920E-02 0. -1.
    10030    2    1    2    0    0  0.00000000000E+00  0.00000000000E+00 -0.20858129880E+03  0.20096640495E+04  0.19988105047E+04 0.  0.
        1    1    3    3  502    0 -0.57243315629E+03  0.64509657399E+02 -0.92540732958E+03  0.10900550170E+04  0.50400001928E-02 0. -1.
       -1    1    3    3    0  502  0.57243315629E+03 -0.64509657399E+02  0.71682603078E+03  0.91960903255E+03  0.50400001928E-02 0.  1.
</event>
<event>
 5   0  0.9333353E-06  0.2001504E+04  0.7818609E-02  0.8605918E-01
       -1   -1    0    0    0  501  0.00000000000E+00  0.00000000000E+00  0.13129438569E+04  0.13129438570E+04  0.50400001928E-02 0. -1.
        1   -1    0    0  501    0  0.00000000000E+00  0.00000000000E+00 -0.76279308726E+03  0.76279308728E+03  0.50400001928E-02 0.  1.
    10030    2    1    2    0    0  0.00000000000E+00  0.00000000000E+00  0.55015076969E+03  0.20757369442E+04  0.20015039326E+04 0.  0.
        2    1    3    3  502    0  0.41182212938E+03  0.12629214034E+03  0.12118812273E+04  0.12861583418E+04  0.25500000920E-02 0. -1.
       -2    1    3    3    0  502 -0.41182212938E+03 -0.12629214034E+03 -0.66173045761E+03  0.78957860248E+03  0.25500000920E-02 0.  1.
</event>
<event>
 5   0  0.9220260E-06  0.2001328E+04  0.7818609E-02  0.8606000E-01
       -1   -1    0    0    0  501  0.00000000000E+00  0.00000000000E+00  0.74543973000E+03  0.74543973001E+03  0.50400001928E-02 0.  1.
        1   -1    0    0  501    0  0.00000000000E+00  0.00000000000E+00 -0.13432716964E+04  0.13432716964E+04  0.50400001928E-02 0. -1.
    10030    2    1    2    0    0  0.00000000000E+00  0.00000000000E+00 -0.59783196643E+03  0.20887114264E+04  0.20013276501E+04 0.  0.
        3    1    3    3  502    0  0.68699030183E+02  0.14664605686E+03 -0.13295052028E+04  0.13393314442E+04  0.10100000352E+00 0. -1.
       -3    1    3    3    0  502 -0.68699030183E+02 -0.14664605686E+03  0.73167323642E+03  0.74937998228E+03  0.10100000352E+00 0.  1.
</event>
<event>
 5   0  0.9370269E-06  0.1994557E+04  0.7818609E-02  0.8609170E-01
        1   -1    0    0  501    0  0.00000000000E+00  0.00000000000E+00  0.16604751176E+04  0.16604751176E+04  0.50400001928E-02 0.  1.
       -1   -1    0    0    0  501  0.00000000000E+00  0.00000000000E+00 -0.59896355380E+03  0.59896355383E+03  0.50400001928E-02 0. -1.
    10030    2    1    2    0    0  0.00000000000E+00  0.00000000000E+00  0.10615115638E+04  0.22594386714E+04  0.19945566700E+04 0.  0.
        4    1    3    3  502    0  0.52324986633E+03 -0.22330126404E+03  0.14586230463E+04  0.15656425777E+04  0.12699999809E+01 0.  1.
       -4    1    3    3    0  502 -0.52324986633E+03  0.22330126404E+03 -0.39711148253E+03  0.69379609367E+03  0.12699999809E+01 0. -1.
</event>
<event>
 5   0  0.1999142E-05  0.2017452E+04  0.7818609E-02  0.8598504E-01
        2   -1    0    0  501    0  0.00000000000E+00  0.00000000000E+00  0.76240227331E+03  0.76240227331E+03  0.25500000920E-02 0.  1.
       -2   -1    0    0    0  501  0.00000000000E+00  0.00000000000E+00 -0.13346342777E+04  0.13346342777E+04  0.25500000920E-02 0. -1.
    10030    2    1    2    0    0  0.00000000000E+00  0.00000000000E+00 -0.57223200438E+03  0.20970365510E+04  0.20174520637E+04 0.  0.
        1    1    3    3  502    0  0.91878516445E+03  0.25513062593E+03 -0.62814082905E+03  0.11418488148E+04  0.50400001928E-02 0.  1.
       -1    1    3    3    0  502 -0.91878516445E+03 -0.25513062593E+03  0.55908824670E+02  0.95518773621E+03  0.50400001928E-02 0. -1.
</event>
<event>
 5   0  0.9333353E-06  0.1992900E+04  0.7818609E-02  0.8609947E-01
       -1   -1    0    0    0  501  0.00000000000E+00  0.00000000000E+00  0.55935359675E+03  0.55935359678E+03  0.50400001928E-02 0.  1.
        1   -1    0    0  501    0  0.00000000000E+00  0.00000000000E+00 -0.17751077943E+04  0.17751077943E+04  0.50400001928E-02 0. -1.
    10030    2    1    2    0    0  0.00000000000E+00  0.00000000000E+00 -0.12157541976E+04  0.23344613911E+04  0.19929003281E+04 0.  0.
        2    1    3    3  502    0  0.83938062348E+03 -0.14690786559E+03 -0.28559306468E+01  0.85214430021E+03  0.25500000920E-02 0.  1.
       -2    1    3    3    0  502 -0.83938062348E+03  0.14690786559E+03 -0.12128982669E+04  0.14823170909E+04  0.25500000920E-02 0. -1.
</event>
<event>
 5   0  0.9220260E-06  0.2026844E+04  0.7818609E-02  0.8594172E-01
        1   -1    0    0  501    0  0.00000000000E+00  0.00000000000E+00  0.13943516855E+04  0.13943516855E+04  0.50400001928E-02 0. -1.
       -1   -1    0    0    0  501  0.00000000000E+00  0.00000000000E+00 -0.73656034247E+03  0.73656034249E+03  0.50400001928E-02 0.  1.
    10030    2    1    2    0    0  0.00000000000E+00  0.00000000000E+00  0.65779134307E+03  0.21309120280E+04  0.20268440049E+04 0.  0.
        3    1    3    3  502    0  0.77510935720E+02  0.69862362386E+03 -0.43861576726E+03  0.82853286867E+03  0.10100000352E+00 0.  1.
       -3    1    3    3    0  502 -0.77510935720E+02 -0.69862362386E+03  0.10964071103E+04  0.13023791594E+04  0.10100000352E+00 0. -1.
</event>
<event>
 5   0  0.9342635E-06  0.2001582E+04  0.7818609E-02  0.8605881E-01
       -1   -1    0    0    0  501  0.00000000000E+00  0.00000000000E+00  0.10672089387E+04  0.10672089387E+04  0.50400001928E-02 0.  1.
        1   -1    0    0  501    0  0.00000000000E+00  0.00000000000E+00 -0.93850682637E+03  0.93850682638E+03  0.50400001928E-02 0. -1.
    10030    2    1    2    0    0  0.00000000000E+00  0.00000000000E+00  0.12870211229E+03  0.20057157651E+04  0.20015822482E+04 0.  0.
        5    1    3    3  502    0 -0.23372790078E+03  0.92055557126E+03  0.38045375486E+03  0.10231414570E+04  0.46999998093E+01 0.  1.
       -5    1    3    3    0  502  0.23372790078E+03 -0.92055557126E+03 -0.25175164257E+03  0.98257430809E+03  0.46999998093E+01 0. -1.
</event>
<event>
 5   0  0.1999142E-05  0.2007493E+04  0.7818609E-02  0.8603125E-01
       -2   -1    0    0    0  501  0.00000000000E+00  0.00000000000E+00  0.54852488933E+03  0.54852488933E+03  0.25500000920E-02 0. -1.
        2   -1    0    0  501    0  0.00000000000E+00  0.00000000000E+00 -0.18367577145E+04  0.18367577145E+04  0.25500000920E-02 0.  1.
    10030    2    1    2    0    0  0.00000000000E+00  0.00000000000E+00 -0.12882328252E+04  0.23852826038E+04  0.20074932848E+04 0.  0.
        1    1    3    3  502    0  0.38565895350E+03 -0.40658258387E+03 -0.16335759591E+04  0.17270242153E+04  0.50400001928E-02 0.  1.
       -1    1    3    3    0  502 -0.38565895350E+03  0.40658258387E+03  0.34534313394E+03  0.65825838856E+03  0.50400001928E-02 0. -1.
</event>
<event>
 5   0  0.7132000E-06  0.1981702E+04  0.7818609E-02  0.8615224E-01
        3   -1    0    0  501    0  0.00000000000E+00  0.00000000000E+00  0.14102929134E+04  0.14102929170E+04  0.10100000352E+00 0. -1.
       -3   -1    0    0    0  501  0.00000000000E+00  0.00000000000E+00 -0.69615729380E+03  0.69615730113E+03  0.10100000352E+00 0.  1.
    10030    2    1    2    0    0  0.00000000000E+00  0.00000000000E+00  0.71413561963E+03  0.21064502182E+04  0.19817020054E+04 0.  0.
        5    1    3    3  502    0  0.46153161675E+03  0.10561132699E+03  0.12822609097E+04  0.13668870898E+04  0.46999998093E+01 0. -1.
       -5    1    3    3    0  502 -0.46153161675E+03 -0.10561132699E+03 -0.56812529008E+03  0.73956312839E+03  0.46999998093E+01 0.  1.
</event>
<event>
 5   0  0.9342635E-06  0.1999472E+04  0.7818609E-02  0.8606868E-01
        1   -1    0    0  501    0  0.00000000000E+00  0.00000000000E+00  0.30848664165E+04  0.30848664165E+04  0.50400001928E-02 0.  1.
       -1   -1    0    0    0  501  0.00000000000E+00  0.00000000000E+00 -0.32399201638E+03  0.32399201642E+03  0.50400001928E-02 0. -1.
    10030    2    1    2    0    0  0.00000000000E+00  0.00000000000E+00  0.27608744001E+04  0.34088584329E+04  0.19994720209E+04 0.  0.
        5    1    3    3  502    0  0.39487290576E+03 -0.90466546476E+03  0.11103023949E+04  0.14856438715E+04  0.46999998093E+01 0.  1.
       -5    1    3    3    0  502 -0.39487290576E+03  0.90466546476E+03  0.16505720052E+04  0.19232145614E+04  0.46999998093E+01 0. -1.
</event>
<event>
 5   0  0.1979765E-05  0.1998618E+04  0.7818609E-02  0.8607267E-01
        2   -1    0    0  501    0  0.00000000000E+00  0.00000000000E+00  0.84419896813E+03  0.84419896813E+03  0.25500000920E-02 0. -1.
       -2   -1    0    0    0  501  0.00000000000E+00  0.00000000000E+00 -0.11829189438E+04  0.11829189438E+04  0.25500000920E-02 0.  1.
    10030    2    1    2    0    0  0.00000000000E+00  0.00000000000E+00 -0.33871997565E+03  0.20271179119E+04  0.19986184746E+04 0.  0.
        2    1    3    3  502    0  0.62160115931E+03 -0.11664111034E+03  0.61538189014E+03  0.88243301196E+03  0.25500000920E-02 0. -1.
       -2    1    3    3    0  502 -0.62160115931E+03  0.11664111034E+03 -0.95410186580E+03  0.11446849000E+04  0.25500000920E-02 0.  1.
</event>
<event>
 5   0  0.9333353E-06  0.1999324E+04  0.7818609E-02  0.8606937E-01
       -1   -1    0    0    0  501  0.00000000000E+00  0.00000000000E+00  0.50168543839E+03  0.50168543842E+03  0.50400001928E-02 0. -1.
        1   -1    0    0  501    0  0.00000000000E+00  0.00000000000E+00 -0.19919344567E+04  0.19919344567E+04  0.50400001928E-02 0.  1.
    10030    2    1    2    0    0  0.00000000000E+00  0.00000000000E+00 -0.14902490183E+04  0.24936198951E+04  0.19993243971E+04 0.  0.
        2    1    3    3  502    0 -0.17290471312E+03  0.85496055847E+03 -0.13605803079E+03  0.88281673302E+03  0.25500000920E-02 0. -1.
       -2    1    3    3    0  502  0.17290471312E+03 -0.85496055847E+03 -0.13541909875E+04  0.16108031621E+04  0.25500000920E-02 0.  1.
</event>
<event>
 5   0  0.2020029E-05  0.2001511E+04  0.7818609E-02  0.8605915E-01
        2   -1    0    0  501    0  0.00000000000E+00  0.00000000000E+00  0.13321698549E+04  0.13321698549E+04  0.25500000920E-02 0.  1.
       -2   -1    0    0    0  501  0.00000000000E+00  0.00000000000E+00 -0.75178976535E+03  0.75178976536E+03  0.25500000920E-02 0. -1.
    10030    2    1    2    0    0  0.00000000000E+00  0.00000000000E+00  0.58038008958E+03  0.20839596203E+04  0.20015110918E+04 0.  0.
        5    1    3    3  502    0  0.75352391631E+03  0.57265205670E+03 -0.48415348972E+02  0.94767864094E+03  0.46999998093E+01 0. -1.
       -5    1    3    3    0  502 -0.75352391631E+03 -0.57265205670E+03  0.62879543855E+03  0.11362809793E+04  0.46999998093E+01 0.  1.
</event>
<event>
 5   0  0.2003576E-05  0.1994852E+04  0.7818609E-02  0.8609031E-01
       -2   -1    0    0    0  501  0.00000000000E+00  0.00000000000E+00  0.61984670465E+03  0.61984670466E+03  0.25500000920E-02 0.  1.
        2   -1    0    0  501    0  0.00000000000E+00  0.00000000000E+00 -0.16050081023E+04  0.16050081023E+04  0.25500000920E-02 0. -1.
    10030    2    1    2    0    0  0.00000000000E+00  0.00000000000E+00 -0.98516139768E+03  0.22248548070E+04  0.19948523586E+04 0.  0.
        4    1    3    3  502    0  0.53196604220E+03  0.80281075674E+03 -0.20310900419E+03  0.98424989798E+03  0.12699999809E+01 0.  1.
       -4    1    3    3    0  502 -0.53196604220E+03 -0.80281075674E+03 -0.78205239349E+03  0.12406049090E+04  0.12699999809E+01 0. -1.
</event>
<event>
 5   0  0.2003576E-05  0.1985482E+04  0.7818609E-02  0.8613438E-01
        2   -1    0    0  501    0  0.00000000000E+00  0.00000000000E+00  0.10928370290E+04  0.10928370290E+04  0.25500000920E-02 0. -1.
       -2   -1    0    0    0  501  0.00000000000E+00  0.00000000000E+00 -0.90181348806E+03  0.90181348807E+03  0.25500000920E-02 0.  1.
    10030    2    1    2    0    0  0.00000000000E+00  0.00000000000E+00  0.19102354094E+03  0.19946505171E+04  0.19854824834E+04 0.  0.
        4    1    3    3  502    0 -0.55321016103E+03 -0.65855372304E+03 -0.40255879068E+03  0.94962607443E+03  0.12699999809E+01 0. -1.
       -4    1    3    3    0  502  0.55321016103E+03  0.65855372304E+03  0.59358233162E+03  0.10450244426E+04  0.12699999809E+01 0.  1.
</event>
<event>
 5   0  0.9342635E-06  0.1998517E+04  0.7818609E-02  0.8607314E-01
        1   -1    0    0  501    0  0.00000000000E+00  0.00000000000E+00  0.92274453220E+03  0.92274453222E+03  0.50400001928E-02 0. -1.
       -1   -1    0    0    0  501  0.00000000000E+00  0.00000000000E+00 -0.10821170440E+04  0.10821170440E+04  0.50400001928E-02 0.  1.
    10030    2    1    2    0    0  0.00000000000E+00  0.00000000000E+00 -0.15937251181E+03  0.20048615762E+04  0.19985170358E+04 0.  0.
        5    1    3    3  502    0 -0.60758314574E+03 -0.78601367868E+03  0.27989077913E+02  0.99387135009E+03  0.46999998093E+01 0.  1.
       -5    1    3    3    0  502  0.60758314574E+03  0.78601367868E+03 -0.18736158972E+03  0.10109902261E+04  0.46999998093E+01 0. -1.
</event>
<event>
 5   0  0.9342635E-06  0.1998020E+04  0.7818609E-02  0.8607547E-01
        1   -1    0    0  501    0  0.00000000000E+00  0.00000000000E+00  0.15270285578E+04  0.15270285578E+04  0.50400001928E-02 0. -1.
       -1   -1    0    0    0  501  0.00000000000E+00  0.00000000000E+00 -0.65357052491E+03  0.65357052493E+03  0.50400001928E-02 0.  1.
    10030    2    1    2    0    0  0.00000000000E+00  0.00000000000E+00  0.87345803287E+03  0.21805990827E+04  0.19980198759E+04 0.  0.
        5    1    3    3  502    0 -0.50239710793E+03  0.50353748877E+03  0.12022883113E+04  0.13969510121E+04  0.46999998093E+01 0. -1.
       -5    1    3    3    0  502  0.50239710793E+03 -0.50353748877E+03 -0.32883027840E+03  0.78364807066E+03  0.46999998093E+01 0.  1.
</event>
<event>
 5   0  0.9342635E-06  0.2000430E+04  0.7818609E-02  0.8606419E-01
        1   -1    0    0  501    0  0.00000000000E+00  0.00000000000E+00  0.73544399334E+03  0.73544399336E+03  0.50400001928E-02 0.  1.
       -1   -1    0    0    0  501  0.00000000000E+00  0.00000000000E+00 -0.13603080581E+04  0.13603080581E+04  0.50400001928E-02 0. -1.
    10030    2    1    2    0    0  0.00000000000E+00  0.00000000000E+00 -0.62486406479E+03  0.20957520515E+04  0.20004303442E+04 0.  0.
        5    1    3    3  502    0 -0.79287907742E+03  0.12252459557E+03 -0.93816874369E+03  0.12344440812E+04  0.46999998093E+01 0. -1.
       -5    1    3    3    0  502  0.79287907742E+03 -0.12252459557E+03  0.31330467890E+03  0.86130797032E+03  0.46999998093E+01 0.  1.
</event>
<event>
 5   0  0.2003576E-05  0.1999550E+04  0.7818609E-02  0.8606831E-01
       -2   -1    0    0    0  501  0.00000000000E+00  0.00000000000E+00  0.87722301832E+03  0.87722301833E+03  0.25500000920E-02 0. -1.
        2   -1    0    0  501    0  0.00000000000E+00  0.00000000000E+00 -0.11394485655E+04  0.11394485655E+04  0.25500000920E-02 0.  1.
    10030    2    1    2    0    0  0.00000000000E+00  0.00000000000E+00 -0.26222554716E+03  0.20166715838E+04  0.19995504593E+04 0.  0.
        4    1    3    3  502    0 -0.44733427330E+03 -0.75412016456E+03 -0.61558374247E+03  0.10713310093E+04  0.12699999809E+01 0.  1.
       -4    1    3    3    0  502  0.44733427330E+03  0.75412016456E+03  0.35335819531E+03  0.94534057448E+03  0.12699999809E+01 0. -1.
</event>
<event>
 5   0  0.2020029E-05  0.2003444E+04  0.7818609E-02  0.8605012E-01
       -2   -1    0    0    0  501  0.00000000000E+00  0.00000000000E+00  0.51255205843E+03  0.51255205843E+03  0.25500000920E-02 0.  1.
        2   -1    0    0  501    0  0.00000000000E+00  0.00000000000E+00 -0.19577457908E+04  0.19577457908E+04  0.25500000920E-02 0. -1.
    10030    2    1    2    0    0  0.00000000000E+00  0.00000000000E+00 -0.14451937324E+04  0.24702978492E+04  0.20034436702E+04 0.  0.
        5    1    3    3  502    0 -0.57960016239E+03  0.44011232738E+02  0.28332192750E+03  0.64665813337E+03  0.46999998093E+01 0.  1.
       -5    1    3    3    0  502  0.57960016239E+03 -0.44011232738E+02 -0.17285156599E+04  0.18236397159E+04  0.46999998093E+01 0. -1.
</event>
<event>
 5   0  0.9220260E-06  0.2001665E+04  0.7818609E-02  0.8605843E-01
       -1   -1    0    0    0  501  0.00000000000E+00  0.00000000000E+00  0.12037623212E+04  0.12037623212E+04  0.50400001928E-02 0. -1.
        1   -1    0    0  501    0  0.00000000000E+00  0.00000000000E+00 -0.83211241674E+03  0.83211241675E+03  0.50400001928E-02 0.  1.
    10030    2    1    2    0    0  0.00000000000E+00  0.00000000000E+00  0.37164990448E+03  0.20358747380E+04  0.20016648814E+04 0.  0.
        3    1    3    3  502    0  0.11860834744E+03 -0.98684345157E+03  0.66614172066E+02  0.99617538421E+03  0.10100000352E+00 0.  1.
       -3    1    3    3    0  502 -0.11860834744E+03  0.98684345157E+03  0.30503573241E+03  0.10396993538E+04  0.10100000352E+00 0. -1.
</event>
<event>
 5   0  0.2003576E-05  0.2000330E+04  0.7818609E-02  0.8606466E-01
       -2   -1    0    0    0  501  0.00000000000E+00  0.00000000000E+00  0.11648349753E+04  0.11648349753E+04  0.25500000920E-02 0. -1.
        2   -1    0    0  501    0  0.00000000000E+00  0.00000000000E+00 -0.85877393991E+03  0.85877393992E+03  0.25500000920E-02 0.  1.
    10030    2    1    2    0    0  0.00000000000E+00  0.00000000000E+00  0.30606103535E+03  0.20236089152E+04  0.20003298939E+04 0.  0.
        4    1    3    3  502    0 -0.91611269854E+03 -0.20083873692E+03 -0.19847480027E+03  0.95864098281E+03  0.12699999809E+01 0. -1.
       -4    1    3    3    0  502  0.91611269854E+03  0.20083873692E+03  0.50453583562E+03  0.10649679324E+04  0.12699999809E+01 0.  1.
</event>
<event>
 5   0  0.1999142E-05  0.1998987E+04  0.7818609E-02  0.8607094E-01
        2   -1    0    0  501    0  0.00000000000E+00  0.00000000000E+00  0.16765113912E+04  0.16765113912E+04  0.25500000920E-02 0.  1.
       -2   -1    0    0    0  501  0.00000000000E+00  0.00000000000E+00 -0.59587261354E+03  0.59587261354E+03  0.25500000920E-02 0. -1.
    10030    2    1    2    0    0  0.00000000000E+00  0.00000000000E+00  0.10806387776E+04  0.22723840047E+04  0.19989869677E+04 0.  0.
        1    1    3    3  502    0 -0.46214017035E+03 -0.60828105291E+03  0.12729905699E+04  0.14846158990E+04  0.50400001928E-02 0.  1.
       -1    1    3    3    0  502  0.46214017035E+03  0.60828105291E+03 -0.19235179229E+03  0.78776810573E+03  0.50400001928E-02 0. -1.
</event>
<event>
 5   0  0.9220260E-06  0.1998677E+04  0.7818609E-02  0.8607240E-01
        1   -1    0    0  501    0  0.00000000000E+00  0.00000000000E+00  0.20563431903E+04  0.20563431904E+04  0.50400001928E-02 0. -1.
       -1   -1    0    0    0  501  0.00000000000E+00  0.00000000000E+00 -0.48565688146E+03  0.48565688149E+03  0.50400001928E-02 0.  1.
    10030    2    1    2    0    0  0.00000000000E+00  0.00000000000E+00  0.15706863089E+04  0.25420000718E+04  0.19986767834E+04 0.  0.
        3    1    3    3  502    0 -0.58834133307E+03 -0.14668418091E+03 -0.22496296365E+03  0.64673806007E+03  0.10100000352E+00 0.  1.
       -3    1    3    3    0  502  0.58834133307E+03  0.14668418091E+03  0.17956492725E+04  0.18952620118E+04  0.10100000352E+00 0. -1.
</event>
<event>
 5   0  0.2038882E-05  0.2000526E+04  0.7818609E-02  0.8606375E-01
       -2   -1    0    0    0  501  0.00000000000E+00  0.00000000000E+00  0.57942772406E+03  0.57942772407E+03  0.25500000920E-02 0. -1.
        2   -1    0    0  501    0  0.00000000000E+00  0.00000000000E+00 -0.17267492001E+04  0.17267492001E+04  0.25500000920E-02 0.  1.
    10030    2    1    2    0    0  0.00000000000E+00  0.00000000000E+00 -0.11473214760E+04  0.23061769242E+04  0.20005262898E+04 0.  0.
        3    1    3    3  502    0 -0.36168505093E+03 -0.65686826454E+03 -0.13367960855E+04  0.15327477866E+04  0.10100000352E+00 0. -1.
       -3    1    3    3    0  502  0.36168505093E+03  0.65686826454E+03  0.18947460942E+03  0.77342913757E+03  0.10100000352E+00 0.  1.
</event>
<event>
 5   0  0.9220260E-06  0.1993844E+04  0.7818609E-02  0.8609504E-01
        1   -1    0    0  501    0  0.00000000000E+00  0.00000000000E+00  0.22495765149E+04  0.22495765149E+04  0.50400001928E-02 0. -1.
       -1   -1    0    0    0  501  0.00000000000E+00  0.00000000000E+00 -0.44179576368E+03  0.44179576371E+03  0.50400001928E-02 0.  1.
    10030    2    1    2    0    0  0.00000000000E+00  0.00000000000E+00  0.18077807513E+04  0.26913722786E+04  0.19938439000E+04 0.  0.
        3    1    3    3  502    0 -0.81371523323E+03  0.29775963739E+03  0.15693771681E+04  0.17926901540E+04  0.10100000352E+00 0. -1.
       -3    1    3    3    0  502  0.81371523323E+03 -0.29775963739E+03  0.23840358318E+03  0.89868212462E+03  0.10100000352E+00 0.  1.
</event>
<event>
 5   0  0.9342635E-06  0.1998677E+04  0.7818609E-02  0.8607239E-01
        1   -1    0    0  501    0  0.00000000000E+00  0.00000000000E+00  0.14762316555E+04  0.14762316556E+04  0.50400001928E-02 0. -1.
       -1   -1    0    0    0  501  0.00000000000E+00  0.00000000000E+00 -0.67650470634E+03  0.67650470636E+03  0.50400001928E-02 0.  1.
    10030    2    1    2    0    0  0.00000000000E+00  0.00000000000E+00  0.79972694921E+03  0.21527363619E+04  0.19986772252E+04 0.  0.
        5    1    3    3  502    0 -0.17096085212E+03 -0.35089943799E+03  0.13907176028E+04  0.14444637653E+04  0.46999998093E+01 0. -1.
       -5    1    3    3    0  502  0.17096085212E+03  0.35089943799E+03 -0.59099065357E+03  0.70827259663E+03  0.46999998093E+01 0.  1.
</event>
<event>
 5   0  0.9140695E-06  0.1994263E+04  0.7818609E-02  0.8609307E-01
        1   -1    0    0  501    0  0.00000000000E+00  0.00000000000E+00  0.14282703966E+04  0.14282703966E+04  0.50400001928E-02 0. -1.
       -1   -1    0    0    0  501  0.00000000000E+00  0.00000000000E+00 -0.69613688947E+03  0.69613688949E+03  0.50400001928E-02 0.  1.
    10030    2    1    2    0    0  0.00000000000E+00  0.00000000000E+00  0.73213350711E+03  0.21244072861E+04  0.19942634843E+04 0.  0.
        1    1    3    3  502    0  0.77119742974E+03  0.45198023703E+03 -0.10462843255E+03  0.89998817727E+03  0.50400001928E-02 0. -1.
       -1    1    3    3    0  502 -0.77119742974E+03 -0.45198023703E+03  0.83676193966E+03  0.12244191088E+04  0.50400001928E-02 0.  1.
</event>
<event>
 5   0  0.9140695E-06  0.1999165E+04  0.7818609E-02  0.8607011E-01
        1   -1    0    0  501    0  0.00000000000E+00  0.00000000000E+00  0.11754468009E+04  0.11754468009E+04  0.50400001928E-02 0.  1.
       -1   -1    0    0    0  501  0.00000000000E+00  0.00000000000E+00 -0.85002983968E+03  0.85002983969E+03  0.50400001928E-02 0. -1.
    10030    2    1    2    0    0  0.00000000000E+00  0.00000000000E+00  0.32541696120E+03  0.20254766406E+04  0.19991646813E+04 0.  0.
        1    1    3    3  502    0  0.36546489174E+03 -0.91266581474E+03  0.34575560841E+03  0.10421470229E+04  0.50400001928E-02 0.  1.
       -1    1    3    3    0  502 -0.36546489174E+03  0.91266581474E+03 -0.20338647207E+02  0.98332961772E+03  0.50400001928E-02 0. -1.
</event>
<event>
 5   0  0.2038882E-05  0.1999779E+04  0.7818609E-02  0.8606724E-01
       -2   -1    0    0    0  501  0.00000000000E+00  0.00000000000E+00  0.53141957602E+03  0.53141957602E+03  0.25500000920E-02 0.  1.
        2   -1    0    0  501    0  0.00000000000E+00  0.00000000000E+00 -0.18813361791E+04  0.18813361791E+04  0.25500000920E-02 0. -1.
    10030    2    1    2    0    0  0.00000000000E+00  0.00000000000E+00 -0.13499166031E+04  0.24127557552E+04  0.19997788625E+04 0.  0.
        3    1    3    3  502    0 -0.59164144090E+03 -0.41958744803E+03 -0.15053375697E+04  0.16709681116E+04  0.10100000352E+00 0. -1.
       -3    1    3    3    0  502  0.59164144090E+03  0.41958744803E+03  0.15542096653E+03  0.74178764358E+03  0.10100000352E+00 0.  1.
</event>
<event>
 5   0  0.9140695E-06  0.1997260E+04  0.7818609E-02  0.8607903E-01
        1   -1    0    0  501    0  0.00000000000E+00  0.00000000000E+00  0.19359035522E+04  0.19359035522E+04  0.50400001928E-02 0. -1.
       -1   -1    0    0    0  501  0.00000000000E+00  0.00000000000E+00 -0.51514033158E+03  0.51514033161E+03  0.50400001928E-02 0.  1.
    10030    2    1    2    0    0  0.00000000000E+00  0.00000000000E+00  0.14207632207E+04  0.24510438838E+04  0.19972601211E+04 0.  0.
        1    1    3    3  502    0 -0.72942118613E+03 -0.59177861309E+03  0.29420808654E+03  0.98428430440E+03  0.50400001928E-02 0.  1.
       -1    1    3    3    0  502  0.72942118613E+03  0.59177861309E+03  0.11265551341E+04  0.14667595794E+04  0.50400001928E-02 0. -1.
</event>
<event>
 5   0  0.9333353E-06  0.2001349E+04  0.7818609E-02  0.8605990E-01
        1   -1    0    0  501    0  0.00000000000E+00  0.00000000000E+00  0.24811787231E+04  0.24811787231E+04  0.50400001928E-02 0.  1.
       -1   -1    0    0    0  501  0.00000000000E+00  0.00000000000E+00 -0.40357821585E+03  0.40357821588E+03  0.50400001928E-02 0. -1.
    10030    2    1    2    0    0  0.00000000000E+00  0.00000000000E+00  0.20776005072E+04  0.28847569390E+04  0.20013492272E+04 0.  0.
        2    1    3    3  502    0  0.27041185977E+03  0.95751489390E+03  0.88495193707E+03  0.13315769887E+04  0.25500000920E-02 0.  1.
       -2    1    3    3    0  502 -0.27041185977E+03 -0.95751489390E+03  0.11926485702E+04  0.15531799503E+04  0.25500000920E-02 0. -1.
</event>
<event>
 5   0  0.9342635E-06  0.1994762E+04  0.7818609E-02  0.8609074E-01
        1   -1    0    0  501    0  0.00000000000E+00  0.00000000000E+00  0.17658756980E+04  0.17658756980E+04  0.50400001928E-02 0.  1.
       -1   -1    0    0    0  501  0.00000000000E+00  0.00000000000E+00 -0.56332871307E+03  0.56332871309E+03  0.50400001928E-02 0. -1.
    10030    2    1    2    0    0  0.00000000000E+00  0.00000000000E+00  0.12025469849E+04  0.23292044111E+04  0.19947616243E+04 0.  0.
        5    1    3    3  502    0  0.38824137803E+03 -0.90617606479E+03  0.42472891072E+03  0.10734538489E+04  0.46999998093E+01 0. -1.
       -5    1    3    3    0  502 -0.38824137803E+03  0.90617606479E+03  0.77781807422E+03  0.12557505623E+04  0.46999998093E+01 0.  1.
</event>
<event>
 5   0  0.1999142E-05  0.2001623E+04  0.7818609E-02  0.8605862E-01
        2   -1    0    0  501    0  0.00000000000E+00  0.00000000000E+00  0.98671319484E+03  0.98671319484E+03  0.25500000920E-02 0. -1.
       -2   -1    0    0    0  501  0.00000000000E+00  0.00000000000E+00 -0.10151108681E+04  0.10151108681E+04  0.25500000920E-02 0.  1.
    10030    2    1    2    0    0  0.00000000000E+00  0.00000000000E+00 -0.28397673215E+02  0.20018240629E+04  0.20016226295E+04 0.  0.
        1    1    3    3  502    0  0.61633785104E+03 -0.17068932797E+03  0.75569425747E+03  0.98999040607E+03  0.50400001928E-02 0. -1.
       -1    1    3    3    0  502 -0.61633785104E+03  0.17068932797E+03 -0.78409193069E+03  0.10118336568E+04  0.50400001928E-02 0.  1.
</event>
<event>
 5   0  0.2038882E-05  0.1998137E+04  0.7818609E-02  0.8607492E-01
        2   -1    0    0  501    0  0.00000000000E+00  0.00000000000E+00  0.11372421586E+04  0.11372421586E+04  0.25500000920E-02 0. -1.
       -2   -1    0    0    0  501  0.00000000000E+00  0.00000000000E+00 -0.87768237966E+03  0.87768237966E+03  0.25500000920E-02 0.  1.
    10030    2    1    2    0    0  0.00000000000E+00  0.00000000000E+00  0.25955977895E+03  0.20149245383E+04  0.19981365359E+04 0.  0.
        3    1    3    3  502    0 -0.38438630096E+02  0.64925971726E+03 -0.63495956416E+03  0.90894959545E+03  0.10100000352E+00 0.  1.
       -3    1    3    3    0  502  0.38438630096E+02 -0.64925971726E+03  0.89451934311E+03  0.11059749428E+04  0.10100000352E+00 0. -1.
</event>
<event>
 5   0  0.9370269E-06  0.1997876E+04  0.7818609E-02  0.8607614E-01
        1   -1    0    0  501    0  0.00000000000E+00  0.00000000000E+00  0.58476018481E+03  0.58476018483E+03  0.50400001928E-02 0. -1.
       -1   -1    0    0    0  501  0.00000000000E+00  0.00000000000E+00 -0.17064732472E+04  0.17064732472E+04  0.50400001928E-02 0.  1.
    10030    2    1    2    0    0  0.00000000000E+00  0.00000000000E+00 -0.11217130623E+04  0.22912334320E+04  0.19978764841E+04 0.  0.
        4    1    3    3  502    0  0.57494271338E+03 -0.55982046275E+03 -0.12431197858E+04  0.14796305244E+04  0.12699999809E+01 0.  1.
       -4    1    3    3    0  502 -0.57494271338E+03  0.55982046275E+03  0.12140672340E+03  0.81160290757E+03  0.12699999809E+01 0. -1.
</event>
<event>
 5   0  0.9333353E-06  0.1997384E+04  0.7818609E-02  0.8607845E-01
        1   -1    0    0  501    0  0.00000000000E+00  0.00000000000E+00  0.12301618425E+04  0.12301618425E+04  0.50400001928E-02 0.  1.
       -1   -1    0    0    0  501  0.00000000000E+00  0.00000000000E+00 -0.81077635251E+03  0.81077635252E+03  0.50400001928E-02 0. -1.
    10030    2    1    2    0    0  0.00000000000E+00  0.00000000000E+00  0.41938548996E+03  0.20409381950E+04  0.19973844213E+04 0.  0.
        2    1    3    3  502    0 -0.36233899540E+03 -0.98137610721E+02 -0.73594142212E+03  0.82615392938E+03  0.25500000920E-02 0. -1.
       -2    1    3    3    0  502  0.36233899540E+03  0.98137610721E+02  0.11553269121E+04  0.12147842656E+04  0.25500000920E-02 0.  1.
</event>
<event>
 5   0  0.9370269E-06  0.2002001E+04  0.7818609E-02  0.8605686E-01
       -1   -1    0    0    0  501  0.00000000000E+00  0.00000000000E+00  0.44693836648E+03  0.44693836651E+03  0.50400001928E-02 0. -1.
        1   -1    0    0  501    0  0.00000000000E+00  0.00000000000E+00 -0.22419237959E+04  0.22419237959E+04  0.50400001928E-02 0.  1.
    10030    2    1    2    0    0  0.00000000000E+00  0.00000000000E+00 -0.17949854294E+04  0.26888621624E+04  0.20020007584E+04 0.  0.
        4    1    3    3  502    0  0.69811297768E+03  0.27205850237E+03 -0.17890262432E+04  0.19395860563E+04  0.12699999809E+01 0.  1.
       -4    1    3    3    0  502 -0.69811297768E+03 -0.27205850237E+03 -0.59591862468E+01  0.74927610606E+03  0.12699999809E+01 0. -1.
</event>
<event>
 5   0  0.9140695E-06  0.1994052E+04  0.7818609E-02  0.8609407E-01
        1   -1    0    0  501    0  0.00000000000E+00  0.00000000000E+00  0.10186236213E+04  0.10186236213E+04  0.50400001928E-02 0. -1.
       -1   -1    0    0    0  501  0.00000000000E+00  0.00000000000E+00 -0.97588630522E+03  0.97588630524E+03  0.50400001928E-02 0.  1.
    10030    2    1    2    0    0  0.00000000000E+00  0.00000000000E+00  0.42737316073E+02  0.19945099265E+04  0.19940519975E+04 0.  0.
        1    1    3    3  502    0  0.12029657431E+03  0.42203045207E+03 -0.87409101825E+03  0.97806752143E+03  0.50400001928E-02 0.  1.
       -1    1    3    3    0  502 -0.12029657431E+03 -0.42203045207E+03  0.91682833433E+03  0.10164424051E+04  0.50400001928E-02 0. -1.
</event>
<event>
 5   0  0.7132000E-06  0.2002661E+04  0.7818609E-02  0.8605377E-01
       -3   -1    0    0    0  501  0.00000000000E+00  0.00000000000E+00  0.79619284418E+03  0.79619285059E+03  0.10100000352E+00 0. -1.
        3   -1    0    0  501    0  0.00000000000E+00  0.00000000000E+00 -0.12593219070E+04  0.12593219110E+04  0.10100000352E+00 0.  1.
    10030    2    1    2    0    0  0.00000000000E+00  0.00000000000E+00 -0.46312906280E+03  0.20555147616E+04  0.20026613309E+04 0.  0.
        4    1    3    3  502    0  0.54323780382E+03  0.77004332118E+03 -0.57900598677E+03  0.11060395895E+04  0.12699999809E+01 0.  1.
       -4    1    3    3    0  502 -0.54323780382E+03 -0.77004332118E+03  0.11587692398E+03  0.94947517208E+03  0.12699999809E+01 0. -1.
</event>
<event>
 5   0  0.9140695E-06  0.2000254E+04  0.7818609E-02  0.8606502E-01
        1   -1    0    0  501    0  0.00000000000E+00  0.00000000000E+00  0.15552264966E+04  0.15552264966E+04  0.50400001928E-02 0. -1.
       -1   -1    0    0    0  501  0.00000000000E+00  0.00000000000E+00 -0.64315626553E+03  0.64315626555E+03  0.50400001928E-02 0.  1.
    10030    2    1    2    0    0  0.00000000000E+00  0.00000000000E+00  0.91207023105E+03  0.21983827621E+04  0.20002536496E+04 0.  0.
        1    1    3    3  502    0  0.63546678059E+03  0.31971102510E+03  0.12286776542E+04  0.14197471418E+04  0.50400001928E-02 0. -1.
       -1    1    3    3    0  502 -0.63546678059E+03 -0.31971102510E+03 -0.31660742315E+03  0.77863562031E+03  0.50400001928E-02 0.  1.
</event>
<event>
 5   0  0.2003576E-05  0.2000246E+04  0.7818609E-02  0.8606506E-01
        2   -1    0    0  501    0  0.00000000000E+00  0.00000000000E+00  0.13498344355E+04  0.13498344355E+04  0.25500000920E-02 0.  1.
       -2   -1    0    0    0  501  0.00000000000E+00  0.00000000000E+00 -0.74101354323E+03  0.74101354324E+03  0.25500000920E-02 0. -1.
    10030    2    1    2    0    0  0.00000000000E+00  0.00000000000E+00  0.60882089228E+03  0.20908479788E+04  0.20002455828E+04 0.  0.
        4    1    3    3  502    0  0.41719171024E+03  0.65218389501E+03 -0.35739562518E+03  0.85271683565E+03  0.12699999809E+01 0. -1.
       -4    1    3    3    0  502 -0.41719171024E+03 -0.65218389501E+03  0.96621651746E+03  0.12381311431E+04  0.12699999809E+01 0.  1.
</event>
<event>
 5   0  0.2003576E-05  0.1987739E+04  0.7818609E-02  0.8612375E-01
        2   -1    0    0  501    0  0.00000000000E+00  0.00000000000E+00  0.15606782924E+04  0.15606782924E+04  0.25500000920E-02 0.  1.
       -2   -1    0    0    0  501  0.00000000000E+00  0.00000000000E+00 -0.63291478463E+03  0.63291478464E+03  0.25500000920E-02 0. -1.
    10030    2    1    2    0    0  0.00000000000E+00  0.00000000000E+00  0.92776350772E+03  0.21935930770E+04  0.19877387809E+04 0.  0.
        4    1    3    3  502    0  0.22428623886E+01 -0.80719556835E+03  0.11037622360E+04  0.13674291216E+04  0.12699999809E+01 0.  1.
       -4    1    3    3    0  502 -0.22428623886E+01  0.80719556835E+03 -0.17599872828E+03  0.82616395543E+03  0.12699999809E+01 0. -1.
</event>
<event>
 5   0  0.9140695E-06  0.1983638E+04  0.7818609E-02  0.8614309E-01
        1   -1    0    0  501    0  0.00000000000E+00  0.00000000000E+00  0.14662738472E+04  0.14662738472E+04  0.50400001928E-02 0.  1.
       -1   -1    0    0    0  501  0.00000000000E+00  0.00000000000E+00 -0.67088750226E+03  0.67088750228E+03  0.50400001928E-02 0. -1.
    10030    2    1    2    0    0  0.00000000000E+00  0.00000000000E+00  0.79538634491E+03  0.21371613495E+04  0.19836378692E+04 0.  0.
        1    1    3    3  502    0  0.58064846562E+03  0.13938474706E+03 -0.45550840347E+03  0.75104504125E+03  0.50400001928E-02 0. -1.
       -1    1    3    3    0  502 -0.58064846562E+03 -0.13938474706E+03  0.12508947484E+04  0.13861163082E+04  0.50400001928E-02 0.  1.
</event>
<event>
 5   0  0.9370269E-06  0.1994735E+04  0.7818609E-02  0.8609086E-01
        1   -1    0    0  501    0  0.00000000000E+00  0.00000000000E+00  0.35526005083E+03  0.35526005087E+03  0.50400001928E-02 0. -1.
       -1   -1    0    0    0  501  0.00000000000E+00  0.00000000000E+00 -0.28000401097E+04  0.28000401097E+04  0.50400001928E-02 0.  1.
    10030    2    1    2    0    0  0.00000000000E+00  0.00000000000E+00 -0.24447800589E+04  0.31553001606E+04  0.19947354629E+04 0.  0.
        4    1    3    3  502    0  0.18717089257E+03  0.10298998217E+03 -0.27634216966E+04  0.27716675424E+04  0.12699999809E+01 0.  1.
       -4    1    3    3    0  502 -0.18717089257E+03 -0.10298998217E+03  0.31864163779E+03  0.38363261812E+03  0.12699999809E+01 0. -1.
</event>
<event>
 5   0  0.2003576E-05  0.1999056E+04  0.7818609E-02  0.8607062E-01
        2   -1    0    0  501    0  0.00000000000E+00  0.00000000000E+00  0.64675987850E+03  0.64675987850E+03  0.25500000920E-02 0. -1.
       -2   -1    0    0    0  501  0.00000000000E+00  0.00000000000E+00 -0.15447103065E+04  0.15447103065E+04  0.25500000920E-02 0.  1.
    10030    2    1    2    0    0  0.00000000000E+00  0.00000000000E+00 -0.89795042801E+03  0.21914701850E+04  0.19990564276E+04 0.  0.
        4    1    3    3  502    0 -0.28751620895E+03  0.58280555550E+03  0.38354677309E+03  0.75461091032E+03  0.12699999809E+01 0. -1.
       -4    1    3    3    0  502  0.28751620895E+03 -0.58280555550E+03 -0.12814972011E+04  0.14368592747E+04  0.12699999809E+01 0.  1.
</event>
<event>
 5   0  0.2003576E-05  0.2002810E+04  0.7818609E-02  0.8605308E-01
        2   -1    0    0  501    0  0.00000000000E+00  0.00000000000E+00  0.15724674710E+04  0.15724674710E+04  0.25500000920E-02 0. -1.
       -2   -1    0    0    0  501  0.00000000000E+00  0.00000000000E+00 -0.63773168645E+03  0.63773168645E+03  0.25500000920E-02 0.  1.
    10030    2    1    2    0    0  0.00000000000E+00  0.00000000000E+00  0.93473578450E+03  0.22101991574E+04  0.20028103576E+04 0.  0.
        4    1    3    3  502    0 -0.69245706316E+03  0.68654982961E+03  0.71892685869E+03  0.12114887098E+04  0.12699999809E+01 0.  1.
       -4    1    3    3    0  502  0.69245706316E+03 -0.68654982961E+03  0.21580892581E+03  0.99871044764E+03  0.12699999809E+01 0. -1.
</event>
<event>
 5   0  0.2020029E-05  0.1999900E+04  0.7818609E-02  0.8606668E-01
        2   -1    0    0  501    0  0.00000000000E+00  0.00000000000E+00  0.12314689311E+04  0.12314689311E+04  0.25500000920E-02 0. -1.
       -2   -1    0    0    0  501  0.00000000000E+00  0.00000000000E+00 -0.81195679588E+03  0.81195679589E+03  0.25500000920E-02 0.  1.
    10030    2    1    2    0    0  0.00000000000E+00  0.00000000000E+00  0.41951213524E+03  0.20434257270E+04  0.19998995650E+04 0.  0.
        5    1    3    3  502    0  0.31994643747E+03  0.87867944513E+03  0.57163110948E+03  0.10960052488E+04  0.46999998093E+01 0. -1.
       -5    1    3    3    0  502 -0.31994643747E+03 -0.87867944513E+03 -0.15211897424E+03  0.94742047817E+03  0.46999998093E+01 0.  1.
</event>
<event>
 5   0  0.1999142E-05  0.1999991E+04  0.7818609E-02  0.8606625E-01
       -2   -1    0    0    0  501  0.00000000000E+00  0.00000000000E+00  0.43458883132E+03  0.43458883133E+03  0.25500000920E-02 0.  1.
        2   -1    0    0  501    0  0.00000000000E+00  0.00000000000E+00 -0.23010057995E+04  0.23010057995E+04  0.25500000920E-02 0. -1.
    10030    2    1    2    0    0  0.00000000000E+00  0.00000000000E+00 -0.18664169682E+04  0.27355946308E+04  0.19999914213E+04 0.  0.
        1    1    3    3  502    0 -0.73094583778E+03 -0.57865383948E+03 -0.14280231484E+04  0.17053950264E+04  0.50400001928E-02 0. -1.
       -1    1    3    3    0  502  0.73094583778E+03  0.57865383948E+03 -0.43839381979E+03  0.10301996044E+04  0.50400001928E-02 0.  1.
</event>
<event>
 5   0  0.9342635E-06  0.1998533E+04  0.7818609E-02  0.8607307E-01
       -1   -1    0    0    0  501  0.00000000000E+00  0.00000000000E+00  0.69767057800E+03  0.69767057802E+03  0.50400001928E-02 0.  1.
        1   -1    0    0  501    0  0.00000000000E+00  0.00000000000E+00 -0.14312398106E+04  0.14312398107E+04  0.50400001928E-02 0. -1.
    10030    2    1    2    0    0  0.00000000000E+00  0.00000000000E+00 -0.73356923264E+03  0.21289103887E+04  0.19985333682E+04 0.  0.
        5    1    3    3  502    0  0.24498355438E+03 -0.66564071079E+03 -0.11165606763E+04  0.13228092575E+04  0.46999998093E+01 0. -1.
       -5    1    3    3    0  502 -0.24498355438E+03  0.66564071079E+03  0.38299144368E+03  0.80610113119E+03  0.46999998093E+01 0.  1.
</event>
<event>
 5   0  0.2020029E-05  0.1999269E+04  0.7818609E-02  0.8606962E-01
        2   -1    0    0  501    0  0.00000000000E+00  0.00000000000E+00  0.99094261657E+03  0.99094261657E+03  0.25500000920E-02 0.  1.
       -2   -1    0    0    0  501  0.00000000000E+00  0.00000000000E+00 -0.10084027307E+04  0.10084027307E+04  0.25500000920E-02 0. -1.
    10030    2    1    2    0    0  0.00000000000E+00  0.00000000000E+00 -0.17460114149E+02  0.19993453473E+04  0.19992691070E+04 0.  0.
        5    1    3    3  502    0  0.71524284656E+03 -0.25530577596E+03  0.64128994662E+03  0.99399610382E+03  0.46999998093E+01 0.  1.
       -5    1    3    3    0  502 -0.71524284656E+03  0.25530577596E+03 -0.65875006077E+03  0.10053492435E+04  0.46999998093E+01 0. -1.
</event>
<event>
 5   0  0.9333353E-06  0.1993937E+04  0.7818609E-02  0.8609461E-01
       -1   -1    0    0    0  501  0.00000000000E+00  0.00000000000E+00  0.54520936953E+03  0.54520936955E+03  0.50400001928E-02 0. -1.
        1   -1    0    0  501    0  0.00000000000E+00  0.00000000000E+00 -0.18230541537E+04  0.18230541537E+04  0.50400001928E-02 0.  1.
    10030    2    1    2    0    0  0.00000000000E+00  0.00000000000E+00 -0.12778447841E+04  0.23682635232E+04  0.19939370158E+04 0.  0.
        2    1    3    3  502    0 -0.35745591973E+02  0.41500869306E+02 -0.18212657459E+04  0.18220891819E+04  0.25500000920E-02 0.  1.
       -2    1    3    3    0  502  0.35745591973E+02 -0.41500869306E+02  0.54342096174E+03  0.54617434137E+03  0.25500000920E-02 0. -1.
</event>
<event>
 5   0  0.2020029E-05  0.1998655E+04  0.7818609E-02  0.8607250E-01
        2   -1    0    0  501    0  0.00000000000E+00  0.00000000000E+00  0.86602040248E+03  0.86602040249E+03  0.25500000920E-02 0. -1.
       -2   -1    0    0    0  501  0.00000000000E+00  0.00000000000E+00 -0.11531546841E+04  0.11531546841E+04  0.25500000920E-02 0.  1.
    10030    2    1    2    0    0  0.00000000000E+00  0.00000000000E+00 -0.28713428160E+03  0.20191750866E+04  0.19986550314E+04 0.  0.
        5    1    3    3  502    0 -0.51757285062E+03 -0.79893598567E+03 -0.45074980976E+03  0.10532700726E+04  0.46999998093E+01 0.  1.
       -5    1    3    3    0  502  0.51757285062E+03  0.79893598567E+03  0.16361552815E+03  0.96590501394E+03  0.46999998093E+01 0. -1.
</event>
<event>
 5   0  0.9220260E-06  0.1998166E+04  0.7818609E-02  0.8607478E-01
        1   -1    0    0  501    0  0.00000000000E+00  0.00000000000E+00  0.97627690628E+03  0.97627690630E+03  0.50400001928E-02 0.  1.
       -1   -1    0    0    0  501  0.00000000000E+00  0.00000000000E+00 -0.10224221137E+04  0.10224221137E+04  0.50400001928E-02 0. -1.
    10030    2    1    2    0    0  0.00000000000E+00  0.00000000000E+00 -0.46145207422E+02  0.19986990200E+04  0.19981662575E+04 0.  0.
        3    1    3    3  502    0 -0.74573667452E+03  0.66263548836E+03 -0.77475612605E+02  0.10006055461E+04  0.10100000352E+00 0.  1.
       -3    1    3    3    0  502  0.74573667452E+03 -0.66263548836E+03  0.31330405183E+02  0.99809347390E+03  0.10100000352E+00 0. -1.
</event>
<event>
 5   0  0.9370269E-06  0.2000213E+04  0.7818609E-02  0.8606521E-01
        1   -1    0    0  501    0  0.00000000000E+00  0.00000000000E+00  0.71621498200E+03  0.71621498202E+03  0.50400001928E-02 0. -1.
       -1   -1    0    0    0  501  0.00000000000E+00  0.00000000000E+00 -0.13965264482E+04  0.13965264482E+04  0.50400001928E-02 0.  1.
    10030    2    1    2    0    0  0.00000000000E+00  0.00000000000E+00 -0.68031146618E+03  0.21127414302E+04  0.20002131536E+04 0.  0.
        4    1    3    3  502    0  0.45006479486E+03 -0.54584070318E+02  0.60144008382E+03  0.75317297325E+03  0.12699999809E+01 0. -1.
       -4    1    3    3    0  502 -0.45006479486E+03  0.54584070318E+02 -0.12817515500E+04  0.13595684569E+04  0.12699999809E+01 0.  1.
</event>
<event>
 5   0  0.9220260E-06  0.2000858E+04  0.7818609E-02  0.8606220E-01
        1   -1    0    0  501    0  0.00000000000E+00  0.00000000000E+00  0.12451329024E+04  0.12451329024E+04  0.50400001928E-02 0. -1.
       -1   -1    0    0    0  501  0.00000000000E+00  0.00000000000E+00 -0.80381610625E+03  0.80381610627E+03  0.50400001928E-02 0.  1.
    10030    2    1    2    0    0  0.00000000000E+00  0.00000000000E+00  0.44131679613E+03  0.20489490087E+04  0.20008576975E+04 0.  0.
        3    1    3    3  502    0 -0.70724699423E+03 -0.25631654774E+03  0.89602612064E+03  0.11699398713E+04  0.10100000352E+00 0. -1.
       -3    1    3    3    0  502  0.70724699423E+03  0.25631654774E+03 -0.45470932451E+03  0.87900913732E+03  0.10100000352E+00 0.  1.
</event>
<event>
 5   0  0.9220260E-06  0.2001050E+04  0.7818609E-02  0.8606130E-01
        1   -1    0    0  501    0  0.00000000000E+00  0.00000000000E+00  0.10437935252E+04  0.10437935253E+04  0.50400001928E-02 0.  1.
       -1   -1    0    0    0  501  0.00000000000E+00  0.00000000000E+00 -0.95904962460E+03  0.95904962462E+03  0.50400001928E-02 0. -1.
    10030    2    1    2    0    0  0.00000000000E+00  0.00000000000E+00  0.84743900638E+02  0.20028431499E+04  0.20010495132E+04 0.  0.
        3    1    3    3  502    0  0.85596010034E+03  0.82061194100E+02  0.55434588621E+03  0.10230841142E+04  0.10100000352E+00 0.  1.
       -3    1    3    3    0  502 -0.85596010034E+03 -0.82061194100E+02 -0.46960198557E+03  0.97975903568E+03  0.10100000352E+00 0. -1.
</event>
<event>
 5   0  0.1979765E-05  0.2002077E+04  0.7818609E-02  0.8605650E-01
        2   -1    0    0  501    0  0.00000000000E+00  0.00000000000E+00  0.14775116329E+04  0.14775116329E+04  0.25500000920E-02 0.  1.
       -2   -1    0    0    0  501  0.00000000000E+00  0.00000000000E+00 -0.67822032164E+03  0.67822032164E+03  0.25500000920E-02 0. -1.
    10030    2    1    2    0    0  0.00000000000E+00  0.00000000000E+00  0.79929131123E+03  0.21557319545E+04  0.20020773360E+04 0.  0.
        2    1    3    3  502    0  0.11561715416E+03  0.91543955612E+03 -0.18323167548E+02  0.92289362644E+03  0.25500000920E-02 0. -1.
       -2    1    3    3    0  502 -0.11561715416E+03 -0.91543955612E+03  0.81761447878E+03  0.12328383281E+04  0.25500000920E-02 0.  1.
</event>
<event>
 5   0  0.9342635E-06  0.2012087E+04  0.7818609E-02  0.8600990E-01
        1   -1    0    0  501    0  0.00000000000E+00  0.00000000000E+00  0.87963369505E+03  0.87963369506E+03  0.50400001928E-02 0. -1.
       -1   -1    0    0    0  501  0.00000000000E+00  0.00000000000E+00 -0.11506192341E+04  0.11506192341E+04  0.50400001928E-02 0.  1.
    10030    2    1    2    0    0  0.00000000000E+00  0.00000000000E+00 -0.27098553909E+03  0.20302529292E+04  0.20120869251E+04 0.  0.
        5    1    3    3  502    0 -0.22515595334E+03  0.44947982500E+03 -0.10147810415E+04  0.11324883967E+04  0.46999998093E+01 0.  1.
       -5    1    3    3    0  502  0.22515595334E+03 -0.44947982500E+03  0.74379550243E+03  0.89776453252E+03  0.46999998093E+01 0. -1.
</event>
<event>
 5   0  0.9333353E-06  0.2000422E+04  0.7818609E-02  0.8606424E-01
        1   -1    0    0  501    0  0.00000000000E+00  0.00000000000E+00  0.10935856275E+04  0.10935856275E+04  0.50400001928E-02 0.  1.
       -1   -1    0    0    0  501  0.00000000000E+00  0.00000000000E+00 -0.91480865925E+03  0.91480865926E+03  0.50400001928E-02 0. -1.
    10030    2    1    2    0    0  0.00000000000E+00  0.00000000000E+00  0.17877696821E+03  0.20083942867E+04  0.20004215572E+04 0.  0.
        2    1    3    3  502    0  0.66538365424E+03 -0.24534740494E+03 -0.61875293655E+03  0.94116202268E+03  0.25500000920E-02 0. -1.
       -2    1    3    3    0  502 -0.66538365424E+03  0.24534740494E+03  0.79752990476E+03  0.10672322641E+04  0.25500000920E-02 0.  1.
</event>
<event>
 5   0  0.9220260E-06  0.2001912E+04  0.7818609E-02  0.8605727E-01
        1   -1    0    0  501    0  0.00000000000E+00  0.00000000000E+00  0.13832358576E+04  0.13832358576E+04  0.50400001928E-02 0. -1.
       -1   -1    0    0    0  501  0.00000000000E+00  0.00000000000E+00 -0.72432576472E+03  0.72432576474E+03  0.50400001928E-02 0.  1.
    10030    2    1    2    0    0  0.00000000000E+00  0.00000000000E+00  0.65891009285E+03  0.21075616223E+04  0.20019124560E+04 0.  0.
        3    1    3    3  502    0  0.68663871387E+03 -0.51800484702E+02 -0.43535281551E+03  0.81467054554E+03  0.10100000352E+00 0.  1.
       -3    1    3    3    0  502 -0.68663871387E+03  0.51800484702E+02  0.10942629084E+04  0.12928910768E+04  0.10100000352E+00 0. -1.
</event>
<event>
 5   0  0.1999142E-05  0.1992545E+04  0.7818609E-02  0.8610114E-01
       -2   -1    0    0    0  501  0.00000000000E+00  0.00000000000E+00  0.90292479127E+03  0.90292479127E+03  0.25500000920E-02 0. -1.
        2   -1    0    0  501    0  0.00000000000E+00  0.00000000000E+00 -0.10992708469E+04  0.10992708470E+04  0.25500000920E-02 0.  1.
    10030    2    1    2    0    0  0.00000000000E+00  0.00000000000E+00 -0.19634605568E+03  0.20021956382E+04  0.19925450058E+04 0.  0.
        1    1    3    3  502    0 -0.60139983506E+03 -0.41441882337E+03  0.58270321714E+03  0.93432743836E+03  0.50400001928E-02 0. -1.
       -1    1    3    3    0  502  0.60139983506E+03  0.41441882337E+03 -0.77904927282E+03  0.10678681999E+04  0.50400001928E-02 0.  1.
</event>
<event>
 5   0  0.1979765E-05  0.1998998E+04  0.7818609E-02  0.8607089E-01
       -2   -1    0    0    0  501  0.00000000000E+00  0.00000000000E+00  0.49467702016E+03  0.49467702016E+03  0.25500000920E-02 0. -1.
        2   -1    0    0  501    0  0.00000000000E+00  0.00000000000E+00 -0.20194959333E+04  0.20194959333E+04  0.25500000920E-02 0.  1.
    10030    2    1    2    0    0  0.00000000000E+00  0.00000000000E+00 -0.15248189131E+04  0.25141729534E+04  0.19989979795E+04 0.  0.
        2    1    3    3  502    0 -0.67248780446E+03  0.60254660875E+03 -0.13014638704E+04  0.15840171934E+04  0.25500000920E-02 0.  1.
       -2    1    3    3    0  502  0.67248780446E+03 -0.60254660875E+03 -0.22335504268E+03  0.93015576006E+03  0.25500000920E-02 0. -1.
</event>
<event>
 5   0  0.9220260E-06  0.1999264E+04  0.7818609E-02  0.8606965E-01
        1   -1    0    0  501    0  0.00000000000E+00  0.00000000000E+00  0.11712896016E+04  0.11712896016E+04  0.50400001928E-02 0. -1.
       -1   -1    0    0    0  501  0.00000000000E+00  0.00000000000E+00 -0.85313123456E+03  0.85313123457E+03  0.50400001928E-02 0.  1.
    10030    2    1    2    0    0  0.00000000000E+00  0.00000000000E+00  0.31815836705E+03  0.20244208362E+04  0.19992636083E+04 0.  0.
        3    1    3    3  502    0  0.60422952965E+03  0.49732584537E+03  0.78886804119E+03  0.11111881558E+04  0.10100000352E+00 0. -1.
       -3    1    3    3    0  502 -0.60422952965E+03 -0.49732584537E+03 -0.47070967415E+03  0.91323268038E+03  0.10100000352E+00 0.  1.
</event>
<event>
 5   0  0.1999142E-05  0.2000228E+04  0.7818609E-02  0.8606514E-01
       -2   -1    0    0    0  501  0.00000000000E+00  0.00000000000E+00  0.60800786872E+03  0.60800786872E+03  0.25500000920E-02 0. -1.
        2   -1    0    0  501    0  0.00000000000E+00  0.00000000000E+00 -0.16450907962E+04  0.16450907962E+04  0.25500000920E-02 0.  1.
    10030    2    1    2    0    0  0.00000000000E+00  0.00000000000E+00 -0.10370829275E+04  0.22530986649E+04  0.20002281358E+04 0.  0.
        1    1    3    3  502    0 -0.37611260299E+02 -0.93930599354E+03 -0.90304186927E+03  0.13035317311E+04  0.50400001928E-02 0.  1.
       -1    1    3    3    0  502  0.37611260299E+02  0.93930599354E+03 -0.13404105820E+03  0.94956693377E+03  0.50400001928E-02 0. -1.
</event>
<event>
 5   0  0.9140695E-06  0.1998376E+04  0.7818609E-02  0.8607380E-01
        1   -1    0    0  501    0  0.00000000000E+00  0.00000000000E+00  0.12011382792E+04  0.12011382792E+04  0.50400001928E-02 0. -1.
       -1   -1    0    0    0  501  0.00000000000E+00  0.00000000000E+00 -0.83119209711E+03  0.83119209712E+03  0.50400001928E-02 0.  1.
    10030    2    1    2    0    0  0.00000000000E+00  0.00000000000E+00  0.36994618208E+03  0.20323303763E+04  0.19983759859E+04 0.  0.
        1    1    3    3  502    0 -0.81050347452E+02  0.60382419257E+03  0.99039132481E+03  0.11627758987E+04  0.50400001928E-02 0. -1.
       -1    1    3    3    0  502  0.81050347452E+02 -0.60382419257E+03 -0.62044514273E+03  0.86955447760E+03  0.50400001928E-02 0.  1.
</event>
<event>
 5   0  0.9220260E-06  0.2000068E+04  0.7818609E-02  0.8606589E-01
       -1   -1    0    0    0  501  0.00000000000E+00  0.00000000000E+00  0.11017764461E+04  0.11017764461E+04  0.50400001928E-02 0.  1.
        1   -1    0    0  501    0  0.00000000000E+00  0.00000000000E+00 -0.90768647045E+03  0.90768647046E+03  0.50400001928E-02 0. -1.
    10030    2    1    2    0    0  0.00000000000E+00  0.00000000000E+00  0.19408997560E+03  0.20094629165E+04  0.20000675724E+04 0.  0.
        3    1    3    3  502    0 -0.82147587929E+03 -0.20754791060E+03 -0.43664595077E+03  0.95318332548E+03  0.10100000352E+00 0.  1.
       -3    1    3    3    0  502  0.82147587929E+03  0.20754791060E+03  0.63073592637E+03  0.10562795910E+04  0.10100000352E+00 0. -1.
</event>
<event>
 5   0  0.2003576E-05  0.1987173E+04  0.7818609E-02  0.8612641E-01
        2   -1    0    0  501    0  0.00000000000E+00  0.00000000000E+00  0.13335735753E+04  0.13335735753E+04  0.25500000920E-02 0. -1.
       -2   -1    0    0    0  501  0.00000000000E+00  0.00000000000E+00 -0.74027748950E+03  0.74027748950E+03  0.25500000920E-02 0.  1.
    10030    2    1    2    0    0  0.00000000000E+00  0.00000000000E+00  0.59329608585E+03  0.20738510649E+04  0.19871733678E+04 0.  0.
        4    1    3    3  502    0  0.37895221751E+03 -0.21499978839E+03  0.12285609885E+04  0.13035311303E+04  0.12699999809E+01 0. -1.
       -4    1    3    3    0  502 -0.37895221751E+03  0.21499978839E+03 -0.63526490267E+03  0.77031993459E+03  0.12699999809E+01 0.  1.
</event>
<event>
 5   0  0.7132000E-06  0.1987596E+04  0.7818609E-02  0.8612442E-01
       -4   -1    0    0    0  501  0.00000000000E+00  0.00000000000E+00  0.73538229684E+03  0.73538339348E+03  0.12699999809E+01 0.  1.
        4   -1    0    0  501    0  0.00000000000E+00  0.00000000000E+00 -0.13430190523E+04  0.13430196528E+04  0.12699999809E+01 0. -1.
    10030    2    1    2    0    0  0.00000000000E+00  0.00000000000E+00 -0.60763675544E+03  0.20784030462E+04  0.19875957325E+04 0.  0.
        4    1    3    3  502    0  0.93724060431E+03  0.37608414675E+02  0.39508303641E+02  0.93882738678E+03  0.12699999809E+01 0.  1.
       -4    1    3    3    0  502 -0.93724060431E+03 -0.37608414675E+02 -0.64714505908E+03  0.11395756594E+04  0.12699999809E+01 0. -1.
</event>
<event>
 5   0  0.7132000E-06  0.1999908E+04  0.7818609E-02  0.8606664E-01
        3   -1    0    0  501    0  0.00000000000E+00  0.00000000000E+00  0.94965205818E+03  0.94965206355E+03  0.10100000352E+00 0.  1.
       -3   -1    0    0    0  501  0.00000000000E+00  0.00000000000E+00 -0.10529205343E+04  0.10529205392E+04  0.10100000352E+00 0. -1.
    10030    2    1    2    0    0  0.00000000000E+00  0.00000000000E+00 -0.10326847616E+03  0.20025726027E+04  0.19999081606E+04 0.  0.
        3    1    3    3  502    0  0.26358530509E+03  0.35550424056E+03  0.84624745705E+03  0.95498442232E+03  0.10100000352E+00 0.  1.
       -3    1    3    3    0  502 -0.26358530509E+03 -0.35550424056E+03 -0.94951593320E+03  0.10475881804E+04  0.10100000352E+00 0. -1.
</event>
<event>
 5   0  0.1999142E-05  0.1991764E+04  0.7818609E-02  0.8610481E-01
       -2   -1    0    0    0  501  0.00000000000E+00  0.00000000000E+00  0.86710510246E+03  0.86710510247E+03  0.25500000920E-02 0. -1.
        2   -1    0    0  501    0  0.00000000000E+00  0.00000000000E+00 -0.11437841163E+04  0.11437841163E+04  0.25500000920E-02 0.  1.
    10030    2    1    2    0    0  0.00000000000E+00  0.00000000000E+00 -0.27667901386E+03  0.20108892188E+04  0.19917640858E+04 0.  0.
        1    1    3    3  502    0  0.20100342781E+03 -0.65410902936E+03 -0.86883393085E+03  0.11059536155E+04  0.50400001928E-02 0.  1.
       -1    1    3    3    0  502 -0.20100342781E+03  0.65410902936E+03  0.59215491700E+03  0.90493560325E+03  0.50400001928E-02 0. -1.
</event>
<event>
 5   0  0.2020029E-05  0.2002123E+04  0.7818609E-02  0.8605629E-01
        2   -1    0    0  501    0  0.00000000000E+00  0.00000000000E+00  0.94022755502E+03  0.94022755502E+03  0.25500000920E-02 0. -1.
       -2   -1    0    0    0  501  0.00000000000E+00  0.00000000000E+00 -0.10658315919E+04  0.10658315919E+04  0.25500000920E-02 0.  1.
    10030    2    1    2    0    0  0.00000000000E+00  0.00000000000E+00 -0.12560403689E+03  0.20060591469E+04  0.20021231048E+04 0.  0.
        5    1    3    3  502    0 -0.56955459650E+03  0.62961983339E+02  0.75963167154E+03  0.95153508404E+03  0.46999998093E+01 0. -1.
       -5    1    3    3    0  502  0.56955459650E+03 -0.62961983339E+02 -0.88523570844E+03  0.10545240629E+04  0.46999998093E+01 0.  1.
</event>
<event>
 5   0  0.2003576E-05  0.2000217E+04  0.7818609E-02  0.8606519E-01
       -2   -1    0    0    0  501  0.00000000000E+00  0.00000000000E+00  0.14233622762E+04  0.14233622762E+04  0.25500000920E-02 0. -1.
        2   -1    0    0  501    0  0.00000000000E+00  0.00000000000E+00 -0.70271437033E+03  0.70271437033E+03  0.25500000920E-02 0.  1.
    10030    2    1    2    0    0  0.00000000000E+00  0.00000000000E+00  0.72064790589E+03  0.21260766466E+04  0.20002171139E+04 0.  0.
        4    1    3    3  502    0  0.19933341970E+03  0.51363339381E+02 -0.67995319498E+03  0.71042942302E+03  0.12699999809E+01 0.  1.
       -4    1    3    3    0  502 -0.19933341970E+03 -0.51363339381E+02  0.14006011009E+04  0.14156472235E+04  0.12699999809E+01 0. -1.
</event>
<event>
 5   0  0.9220260E-06  0.1996903E+04  0.7818609E-02  0.8608070E-01
       -1   -1    0    0    0  501  0.00000000000E+00  0.00000000000E+00  0.17361502382E+04  0.17361502382E+04  0.50400001928E-02 0. -1.
        1   -1    0    0  501    0  0.00000000000E+00  0.00000000000E+00 -0.57420466930E+03  0.57420466932E+03  0.50400001928E-02 0.  1.
    10030    2    1    2    0    0  0.00000000000E+00  0.00000000000E+00  0.11619455689E+04  0.23103549075E+04  0.19969031758E+04 0.  0.
        3    1    3    3  502    0  0.54158377500E+03  0.13889634785E+03 -0.37610025691E+03  0.67383721642E+03  0.10100000352E+00 0.  1.
       -3    1    3    3    0  502 -0.54158377500E+03 -0.13889634785E+03  0.15380458258E+04  0.16365176911E+04  0.10100000352E+00 0. -1.
</event>
<event>
 5   0  0.9220260E-06  0.1993938E+04  0.7818609E-02  0.8609460E-01
       -1   -1    0    0    0  501  0.00000000000E+00  0.00000000000E+00  0.73917796740E+03  0.73917796742E+03  0.50400001928E-02 0.  1.
        1   -1    0    0  501    0  0.00000000000E+00  0.00000000000E+00 -0.13446659083E+04  0.13446659084E+04  0.50400001928E-02 0. -1.
    10030    2    1    2    0    0  0.00000000000E+00  0.00000000000E+00 -0.60548794095E+03  0.20838438758E+04  0.19939382267E+04 0.  0.
        3    1    3    3  502    0  0.20638658725E+03  0.96972030557E+03 -0.41232651624E+03  0.10737625718E+04  0.10100000352E+00 0.  1.
       -3    1    3    3    0  502 -0.20638658725E+03 -0.96972030557E+03 -0.19316142471E+03  0.10100813040E+04  0.10100000352E+00 0. -1.
</event>
<event>
 5   0  0.2038882E-05  0.1994670E+04  0.7818609E-02  0.8609117E-01
        2   -1    0    0  501    0  0.00000000000E+00  0.00000000000E+00  0.76994100524E+03  0.76994100524E+03  0.25500000920E-02 0. -1.
       -2   -1    0    0    0  501  0.00000000000E+00  0.00000000000E+00 -0.12918877806E+04  0.12918877806E+04  0.25500000920E-02 0.  1.
    10030    2    1    2    0    0  0.00000000000E+00  0.00000000000E+00 -0.52194677535E+03  0.20618287858E+04  0.19946702750E+04 0.  0.
        3    1    3    3  502    0  0.90869269872E+03  0.35114652310E+03 -0.48182823672E+03  0.10868232429E+04  0.10100000352E+00 0. -1.
       -3    1    3    3    0  502 -0.90869269872E+03 -0.35114652310E+03 -0.40118538630E+02  0.97500554293E+03  0.10100000352E+00 0.  1.
</event>
<event>
 5   0  0.2003576E-05  0.2002589E+04  0.7818609E-02  0.8605411E-01
        2   -1    0    0  501    0  0.00000000000E+00  0.00000000000E+00  0.15532007770E+04  0.15532007770E+04  0.25500000920E-02 0.  1.
       -2   -1    0    0    0  501  0.00000000000E+00  0.00000000000E+00 -0.64549966538E+03  0.64549966539E+03  0.25500000920E-02 0. -1.
    10030    2    1    2    0    0  0.00000000000E+00  0.00000000000E+00  0.90770111166E+03  0.21987004424E+04  0.20025889063E+04 0.  0.
        4    1    3    3  502    0  0.34477318787E+02  0.59951244074E+03  0.13335549024E+04  0.14625232110E+04  0.12699999809E+01 0.  1.
       -4    1    3    3    0  502 -0.34477318787E+02 -0.59951244074E+03 -0.42585379073E+03  0.73617723144E+03  0.12699999809E+01 0. -1.
</event>
<event>
 5   0  0.9333353E-06  0.2000228E+04  0.7818609E-02  0.8606514E-01
        1   -1    0    0  501    0  0.00000000000E+00  0.00000000000E+00  0.75940080444E+03  0.75940080446E+03  0.50400001928E-02 0.  1.
       -1   -1    0    0    0  501  0.00000000000E+00  0.00000000000E+00 -0.13171285075E+04  0.13171285075E+04  0.50400001928E-02 0. -1.
    10030    2    1    2    0    0  0.00000000000E+00  0.00000000000E+00 -0.55772770304E+03  0.20765293120E+04  0.20002284351E+04 0.  0.
        2    1    3    3  502    0  0.56938851543E+03 -0.82133522402E+03 -0.23955639382E+03  0.10277072042E+04  0.25500000920E-02 0. -1.
       -2    1    3    3    0  502 -0.56938851543E+03  0.82133522402E+03 -0.31817130923E+03  0.10488221078E+04  0.25500000920E-02 0.  1.
</event>
<event>
 5   0  0.9140695E-06  0.2001122E+04  0.7818609E-02  0.8606096E-01
       -1   -1    0    0    0  501  0.00000000000E+00  0.00000000000E+00  0.72231050733E+03  0.72231050735E+03  0.50400001928E-02 0. -1.
        1   -1    0    0  501    0  0.00000000000E+00  0.00000000000E+00 -0.13860003338E+04  0.13860003338E+04  0.50400001928E-02 0.  1.
    10030    2    1    2    0    0  0.00000000000E+00  0.00000000000E+00 -0.66368982650E+03  0.21083108412E+04  0.20011222894E+04 0.  0.
        1    1    3    3  502    0  0.41245684288E+03  0.24539469753E+03  0.59312411045E+03  0.76297799132E+03  0.50400001928E-02 0. -1.
       -1    1    3    3    0  502 -0.41245684288E+03 -0.24539469753E+03 -0.12568139369E+04  0.13453328499E+04  0.50400001928E-02 0.  1.
</event>
<event>
 5   0  0.9333353E-06  0.1997725E+04  0.7818609E-02  0.8607685E-01
        1   -1    0    0  501    0  0.00000000000E+00  0.00000000000E+00  0.17583582908E+04  0.17583582908E+04  0.50400001928E-02 0.  1.
       -1   -1    0    0    0  501  0.00000000000E+00  0.00000000000E+00 -0.56741914559E+03  0.56741914562E+03  0.50400001928E-02 0. -1.
    10030    2    1    2    0    0  0.00000000000E+00  0.00000000000E+00  0.11909391452E+04  0.23257774364E+04  0.19977248650E+04 0.  0.
        2    1    3    3  502    0  0.23108624518E+03 -0.19264385715E+03 -0.51341736056E+03  0.59507133567E+03  0.25500000920E-02 0. -1.
       -2    1    3    3    0  502 -0.23108624518E+03  0.19264385715E+03  0.17043565057E+04  0.17307061007E+04  0.25500000920E-02 0.  1.
</event>
<event>
 5   0  0.2003576E-05  0.1991180E+04  0.7818609E-02  0.8610756E-01
       -2   -1    0    0    0  501  0.00000000000E+00  0.00000000000E+00  0.71528373669E+03  0.71528373669E+03  0.25500000920E-02 0. -1.
        2   -1    0    0  501    0  0.00000000000E+00  0.00000000000E+00 -0.13857426553E+04  0.13857426553E+04  0.25500000920E-02 0.  1.
    10030    2    1    2    0    0  0.00000000000E+00  0.00000000000E+00 -0.67045891866E+03  0.21010263920E+04  0.19911797353E+04 0.  0.
        4    1    3    3  502    0 -0.22627712958E+03  0.44360170765E+03 -0.12448869794E+04  0.13407941747E+04  0.12699999809E+01 0.  1.
       -4    1    3    3    0  502  0.22627712958E+03 -0.44360170765E+03  0.57442806078E+03  0.76023221736E+03  0.12699999809E+01 0. -1.
</event>
<event>
 5   0  0.2003576E-05  0.2000089E+04  0.7818609E-02  0.8606579E-01
        2   -1    0    0  501    0  0.00000000000E+00  0.00000000000E+00  0.96964671632E+03  0.96964671632E+03  0.25500000920E-02 0. -1.
       -2   -1    0    0    0  501  0.00000000000E+00  0.00000000000E+00 -0.10313947201E+04  0.10313947201E+04  0.25500000920E-02 0.  1.
    10030    2    1    2    0    0  0.00000000000E+00  0.00000000000E+00 -0.61748003786E+02  0.20010414364E+04  0.20000885016E+04 0.  0.
        4    1    3    3  502    0  0.92677758037E+03  0.24076560952E+03 -0.31945922339E+03  0.10094258618E+04  0.12699999809E+01 0. -1.
       -4    1    3    3    0  502 -0.92677758037E+03 -0.24076560952E+03  0.25771121960E+03  0.99161557461E+03  0.12699999809E+01 0.  1.
</event>
<event>
 5   0  0.2020029E-05  0.2000156E+04  0.7818609E-02  0.8606548E-01
       -2   -1    0    0    0  501  0.00000000000E+00  0.00000000000E+00  0.75746335285E+03  0.75746335285E+03  0.25500000920E-02 0. -1.
        2   -1    0    0  501    0  0.00000000000E+00  0.00000000000E+00 -0.13204020313E+04  0.13204020314E+04  0.25500000920E-02 0.  1.
    10030    2    1    2    0    0  0.00000000000E+00  0.00000000000E+00 -0.56293867850E+03  0.20778653842E+04  0.20001561437E+04 0.  0.
        5    1    3    3  502    0  0.24076049091E+03  0.92085863251E+03 -0.60029325476E+03  0.11253089872E+04  0.46999998093E+01 0.  1.
       -5    1    3    3    0  502 -0.24076049091E+03 -0.92085863251E+03  0.37354576262E+02  0.95255639697E+03  0.46999998093E+01 0. -1.
</event>
<event>
 5   0  0.9220260E-06  0.2012304E+04  0.7818609E-02  0.8600890E-01
       -1   -1    0    0    0  501  0.00000000000E+00  0.00000000000E+00  0.10954770884E+04  0.10954770884E+04  0.50400001928E-02 0. -1.
        1   -1    0    0  501    0  0.00000000000E+00  0.00000000000E+00 -0.92411054569E+03  0.92411054570E+03  0.50400001928E-02 0.  1.
    10030    2    1    2    0    0  0.00000000000E+00  0.00000000000E+00  0.17136654271E+03  0.20195876341E+04  0.20123040824E+04 0.  0.
        3    1    3    3  502    0  0.84795691766E+03  0.42626684453E+02 -0.45617270567E+03  0.96381612148E+03  0.10100000352E+00 0.  1.
       -3    1    3    3    0  502 -0.84795691766E+03 -0.42626684453E+02  0.62753924837E+03  0.10557715126E+04  0.10100000352E+00 0. -1.
</event>
<event>
 5   0  0.9333353E-06  0.1999963E+04  0.7818609E-02  0.8606638E-01
        1   -1    0    0  501    0  0.00000000000E+00  0.00000000000E+00  0.69138870406E+03  0.69138870407E+03  0.50400001928E-02 0. -1.
       -1   -1    0    0    0  501  0.00000000000E+00  0.00000000000E+00 -0.14463114456E+04  0.14463114456E+04  0.50400001928E-02 0.  1.
    10030    2    1    2    0    0  0.00000000000E+00  0.00000000000E+00 -0.75492274151E+03  0.21377001496E+04  0.19999633957E+04 0.  0.
        2    1    3    3  502    0 -0.35088697498E+03  0.93026234134E+03 -0.26306883128E+03  0.10284526741E+04  0.25500000920E-02 0. -1.
       -2    1    3    3    0  502  0.35088697498E+03 -0.93026234134E+03 -0.49185391023E+03  0.11092474755E+04  0.25500000920E-02 0.  1.
</event>
<event>
 5   0  0.1999142E-05  0.2005006E+04  0.7818609E-02  0.8604284E-01
       -2   -1    0    0    0  501  0.00000000000E+00  0.00000000000E+00  0.10387690107E+04  0.10387690108E+04  0.25500000920E-02 0.  1.
        2   -1    0    0  501    0  0.00000000000E+00  0.00000000000E+00 -0.96750283468E+03  0.96750283469E+03  0.25500000920E-02 0. -1.
    10030    2    1    2    0    0  0.00000000000E+00  0.00000000000E+00  0.71266176064E+02  0.20062718454E+04  0.20050056982E+04 0.  0.
        1    1    3    3  502    0 -0.99035532215E+03 -0.12839934376E+03 -0.52296785252E+02  0.10000125046E+04  0.50400001928E-02 0. -1.
       -1    1    3    3    0  502  0.99035532215E+03  0.12839934376E+03  0.12356296132E+03  0.10062593408E+04  0.50400001928E-02 0.  1.
</event>
<event>
 5   0  0.9370269E-06  0.1993939E+04  0.7818609E-02  0.8609460E-01
        1   -1    0    0  501    0  0.00000000000E+00  0.00000000000E+00  0.13040363271E+04  0.13040363271E+04  0.50400001928E-02 0.  1.
       -1   -1    0    0    0  501  0.00000000000E+00  0.00000000000E+00 -0.76220908881E+03  0.76220908883E+03  0.50400001928E-02 0. -1.
    10030    2    1    2    0    0  0.00000000000E+00  0.00000000000E+00  0.54182723832E+03  0.20662454160E+04  0.19939391573E+04 0.  0.
        4    1    3    3  502    0 -0.55268149297E+03 -0.73731949050E+03  0.66530648180E+03  0.11365435281E+04  0.12699999809E+01 0.  1.
       -4    1    3    3    0  502  0.55268149297E+03  0.73731949050E+03 -0.12347924348E+03  0.92970188782E+03  0.12699999809E+01 0. -1.
</event>
<event>
 5   0  0.2003576E-05  0.1999488E+04  0.7818609E-02  0.8606860E-01
        2   -1    0    0  501    0  0.00000000000E+00  0.00000000000E+00  0.14762022663E+04  0.14762022663E+04  0.25500000920E-02 0.  1.
       -2   -1    0    0    0  501  0.00000000000E+00  0.00000000000E+00 -0.67706684364E+03  0.67706684364E+03  0.25500000920E-02 0. -1.
    10030    2    1    2    0    0  0.00000000000E+00  0.00000000000E+00  0.79913542265E+03  0.21532691099E+04  0.19994875434E+04 0.  0.
        4    1    3    3  502    0 -0.34737453014E+03  0.86067089634E+03  0.79971284261E+03  0.12251390531E+04  0.12699999809E+01 0.  1.
       -4    1    3    3    0  502  0.34737453014E+03 -0.86067089634E+03 -0.57741995992E+00  0.92813005679E+03  0.12699999809E+01 0. -1.
</event>
<event>
 5   0  0.7132000E-06  0.1997911E+04  0.7818609E-02  0.8607598E-01
        3   -1    0    0  501    0  0.00000000000E+00  0.00000000000E+00  0.10813695548E+04  0.10813695595E+04  0.10100000352E+00 0.  1.
       -3   -1    0    0    0  501  0.00000000000E+00  0.00000000000E+00 -0.92282269147E+03  0.92282269700E+03  0.10100000352E+00 0. -1.
    10030    2    1    2    0    0  0.00000000000E+00  0.00000000000E+00  0.15854686333E+03  0.20041922565E+04  0.19979112826E+04 0.  0.
        1    1    3    3  502    0  0.79010703074E+02  0.46870176990E+03  0.96066430440E+03  0.10718208554E+04  0.50400001928E-02 0.  1.
       -1    1    3    3    0  502 -0.79010703074E+02 -0.46870176990E+03 -0.80211744107E+03  0.93237140111E+03  0.50400001928E-02 0. -1.
</event>
<event>
 5   0  0.1979765E-05  0.2000731E+04  0.7818609E-02  0.8606279E-01
        2   -1    0    0  501    0  0.00000000000E+00  0.00000000000E+00  0.17968326020E+04  0.17968326020E+04  0.25500000920E-02 0. -1.
       -2   -1    0    0    0  501  0.00000000000E+00  0.00000000000E+00 -0.55694166302E+03  0.55694166303E+03  0.25500000920E-02 0.  1.
    10030    2    1    2    0    0  0.00000000000E+00  0.00000000000E+00  0.12398909390E+04  0.23537742651E+04  0.20007308040E+04 0.  0.
        2    1    3    3  502    0 -0.97964999199E+03 -0.62656419960E+02  0.39337127495E+03  0.10575352920E+04  0.25500000920E-02 0. -1.
       -2    1    3    3    0  502  0.97964999199E+03  0.62656419960E+02  0.84651966407E+03  0.12962389731E+04  0.25500000920E-02 0.  1.
</event>
<event>
 5   0  0.9370269E-06  0.2004818E+04  0.7818609E-02  0.8604371E-01
       -1   -1    0    0    0  501  0.00000000000E+00  0.00000000000E+00  0.15900718428E+04  0.15900718429E+04  0.50400001928E-02 0.  1.
        1   -1    0    0  501    0  0.00000000000E+00  0.00000000000E+00 -0.63193612590E+03  0.63193612592E+03  0.50400001928E-02 0. -1.
    10030    2    1    2    0    0  0.00000000000E+00  0.00000000000E+00  0.95813571694E+03  0.22220079688E+04  0.20048180369E+04 0.  0.
        4    1    3    3  502    0  0.37309431822E+03  0.74072542034E+03 -0.14490420321E+03  0.84194557997E+03  0.12699999809E+01 0. -1.
       -4    1    3    3    0  502 -0.37309431822E+03 -0.74072542034E+03  0.11030399202E+04  0.13800623888E+04  0.12699999809E+01 0.  1.
</event>
<event>
 5   0  0.2003576E-05  0.1999346E+04  0.7818609E-02  0.8606927E-01
        2   -1    0    0  501    0  0.00000000000E+00  0.00000000000E+00  0.21251352011E+04  0.21251352011E+04  0.25500000920E-02 0. -1.
       -2   -1    0    0    0  501  0.00000000000E+00  0.00000000000E+00 -0.47025050588E+03  0.47025050589E+03  0.25500000920E-02 0.  1.
    10030    2    1    2    0    0  0.00000000000E+00  0.00000000000E+00  0.16548846953E+04  0.25953857070E+04  0.19993457964E+04 0.  0.
        4    1    3    3  502    0 -0.96123322748E+03 -0.12935294049E+03  0.11417980231E+04  0.14981341193E+04  0.12699999809E+01 0. -1.
       -4    1    3    3    0  502  0.96123322748E+03  0.12935294049E+03  0.51308667217E+03  0.10972515878E+04  0.12699999809E+01 0.  1.
</event>
<event>
 5   0  0.9220260E-06  0.1998077E+04  0.7818609E-02  0.8607520E-01
        1   -1    0    0  501    0  0.00000000000E+00  0.00000000000E+00  0.28100690804E+04  0.28100690804E+04  0.50400001928E-02 0. -1.
       -1   -1    0    0    0  501  0.00000000000E+00  0.00000000000E+00 -0.35517931722E+03  0.35517931725E+03  0.50400001928E-02 0.  1.
    10030    2    1    2    0    0  0.00000000000E+00  0.00000000000E+00  0.24548897632E+04  0.31652483976E+04  0.19980774934E+04 0.  0.
        3    1    3    3  502    0 -0.63614396485E+03  0.62632787277E+02  0.11178563771E+02  0.63931758974E+03  0.10100000352E+00 0.  1.
       -3    1    3    3    0  502  0.63614396485E+03 -0.62632787277E+02  0.24437111994E+04  0.25259308079E+04  0.10100000352E+00 0. -1.
</event>
<event>
 5   0  0.2020029E-05  0.1999783E+04  0.7818609E-02  0.8606722E-01
        2   -1    0    0  501    0  0.00000000000E+00  0.00000000000E+00  0.95166048878E+03  0.95166048878E+03  0.25500000920E-02 0. -1.
       -2   -1    0    0    0  501  0.00000000000E+00  0.00000000000E+00 -0.10505668948E+04  0.10505668948E+04  0.25500000920E-02 0.  1.
    10030    2    1    2    0    0  0.00000000000E+00  0.00000000000E+00 -0.98906405990E+02  0.20022273836E+04  0.19997829928E+04 0.  0.
        5    1    3    3  502    0  0.24807007062E+03  0.17617963741E+02  0.92018901707E+03  0.95321512248E+03  0.46999998093E+01 0. -1.
       -5    1    3    3    0  502 -0.24807007062E+03 -0.17617963741E+02 -0.10190954231E+04  0.10490122611E+04  0.46999998093E+01 0.  1.
</event>
<event>
 5   0  0.2020029E-05  0.1999718E+04  0.7818609E-02  0.8606752E-01
       -2   -1    0    0    0  501  0.00000000000E+00  0.00000000000E+00  0.91519189932E+03  0.91519189932E+03  0.25500000920E-02 0.  1.
        2   -1    0    0  501    0  0.00000000000E+00  0.00000000000E+00 -0.10923591692E+04  0.10923591692E+04  0.25500000920E-02 0. -1.
    10030    2    1    2    0    0  0.00000000000E+00  0.00000000000E+00 -0.17716726990E+03  0.20075510685E+04  0.19997182430E+04 0.  0.
        5    1    3    3  502    0  0.49728072448E+03 -0.86192192775E+03  0.92591051112E+01  0.99514086918E+03  0.46999998093E+01 0. -1.
       -5    1    3    3    0  502 -0.49728072448E+03  0.86192192775E+03 -0.18642637501E+03  0.10124101994E+04  0.46999998093E+01 0.  1.
</event>
<event>
 5   0  0.1999142E-05  0.2022905E+04  0.7818609E-02  0.8595986E-01
       -2   -1    0    0    0  501  0.00000000000E+00  0.00000000000E+00  0.11931307034E+04  0.11931307034E+04  0.25500000920E-02 0.  1.
        2   -1    0    0  501    0  0.00000000000E+00  0.00000000000E+00 -0.85743858990E+03  0.85743858990E+03  0.25500000920E-02 0. -1.
    10030    2    1    2    0    0  0.00000000000E+00  0.00000000000E+00  0.33569211347E+03  0.20505692933E+04  0.20229051464E+04 0.  0.
        1    1    3    3  502    0 -0.10974067353E+03 -0.92737230189E+03 -0.22602119812E+03  0.96080590328E+03  0.50400001928E-02 0. -1.
       -1    1    3    3    0  502  0.10974067353E+03  0.92737230189E+03  0.56171331159E+03  0.10897633900E+04  0.50400001928E-02 0.  1.
</event>
<event>
 5   0  0.9370269E-06  0.1996216E+04  0.7818609E-02  0.8608392E-01
       -1   -1    0    0    0  501  0.00000000000E+00  0.00000000000E+00  0.57399309530E+03  0.57399309532E+03  0.50400001928E-02 0.  1.
        1   -1    0    0  501    0  0.00000000000E+00  0.00000000000E+00 -0.17355954806E+04  0.17355954806E+04  0.50400001928E-02 0. -1.
    10030    2    1    2    0    0  0.00000000000E+00  0.00000000000E+00 -0.11616023853E+04  0.23095885760E+04  0.19962162430E+04 0.  0.
        4    1    3    3  502    0 -0.84250411673E+03  0.28531204843E+03 -0.56952158346E+02  0.89132559310E+03  0.12699999809E+01 0.  1.
       -4    1    3    3    0  502  0.84250411673E+03 -0.28531204843E+03 -0.11046502270E+04  0.14182629829E+04  0.12699999809E+01 0. -1.
</event>
<event>
 5   0  0.9220260E-06  0.1982546E+04  0.7818609E-02  0.8614825E-01
        1   -1    0    0  501    0  0.00000000000E+00  0.00000000000E+00  0.12767195326E+04  0.12767195326E+04  0.50400001928E-02 0. -1.
       -1   -1    0    0    0  501  0.00000000000E+00  0.00000000000E+00 -0.76964575758E+03  0.76964575760E+03  0.50400001928E-02 0.  1.
    10030    2    1    2    0    0  0.00000000000E+00  0.00000000000E+00  0.50707377501E+03  0.20463652902E+04  0.19825456080E+04 0.  0.
        3    1    3    3  502    0  0.29838128004E+03 -0.31987061993E+03 -0.66463330819E+03  0.79566704490E+03  0.10100000352E+00 0.  1.
       -3    1    3    3    0  502 -0.29838128004E+03  0.31987061993E+03  0.11717070832E+04  0.12506982453E+04  0.10100000352E+00 0. -1.
</event>
<event>
 5   0  0.9220260E-06  0.1998208E+04  0.7818609E-02  0.8607459E-01
        1   -1    0    0  501    0  0.00000000000E+00  0.00000000000E+00  0.24379294903E+04  0.24379294903E+04  0.50400001928E-02 0. -1.
       -1   -1    0    0    0  501  0.00000000000E+00  0.00000000000E+00 -0.40944939762E+03  0.40944939766E+03  0.50400001928E-02 0.  1.
    10030    2    1    2    0    0  0.00000000000E+00  0.00000000000E+00  0.20284800927E+04  0.28473788880E+04  0.19982079585E+04 0.  0.
        3    1    3    3  502    0 -0.14007077588E+03  0.57809298363E+03 -0.12964261333E+03  0.60878447531E+03  0.10100000352E+00 0. -1.
       -3    1    3    3    0  502  0.14007077588E+03 -0.57809298363E+03  0.21581227060E+04  0.22385944126E+04  0.10100000352E+00 0.  1.
</event>
<event>
 5   0  0.2003576E-05  0.2000449E+04  0.7818609E-02  0.8606411E-01
        2   -1    0    0  501    0  0.00000000000E+00  0.00000000000E+00  0.10363047336E+04  0.10363047336E+04  0.25500000920E-02 0.  1.
       -2   -1    0    0    0  501  0.00000000000E+00  0.00000000000E+00 -0.96540006872E+03  0.96540006872E+03  0.25500000920E-02 0. -1.
    10030    2    1    2    0    0  0.00000000000E+00  0.00000000000E+00  0.70904664905E+02  0.20017048023E+04  0.20004486107E+04 0.  0.
        4    1    3    3  502    0 -0.45285852602E+03 -0.48133179357E+02 -0.85564009369E+03  0.96928800177E+03  0.12699999809E+01 0. -1.
       -4    1    3    3    0  502  0.45285852602E+03  0.48133179357E+02  0.92654475859E+03  0.10324168006E+04  0.12699999809E+01 0.  1.
</event>
<event>
 5   0  0.9342635E-06  0.1991891E+04  0.7818609E-02  0.8610421E-01
       -1   -1    0    0    0  501  0.00000000000E+00  0.00000000000E+00  0.79562483489E+03  0.79562483490E+03  0.50400001928E-02 0. -1.
        1   -1    0    0  501    0  0.00000000000E+00  0.00000000000E+00 -0.12467022585E+04  0.12467022585E+04  0.50400001928E-02 0.  1.
    10030    2    1    2    0    0  0.00000000000E+00  0.00000000000E+00 -0.45107742359E+03  0.20423270934E+04  0.19918908390E+04 0.  0.
        5    1    3    3  502    0  0.59897411835E+02  0.47344123479E+03  0.67075288549E+03  0.82320460770E+03  0.46999998093E+01 0. -1.
       -5    1    3    3    0  502 -0.59897411835E+02 -0.47344123479E+03 -0.11218303091E+04  0.12191224857E+04  0.46999998093E+01 0.  1.
</event>
<event>
 5   0  0.9370269E-06  0.1997036E+04  0.7818609E-02  0.8608008E-01
        1   -1    0    0  501    0  0.00000000000E+00  0.00000000000E+00  0.17772508580E+04  0.17772508580E+04  0.50400001928E-02 0.  1.
       -1   -1    0    0    0  501  0.00000000000E+00  0.00000000000E+00 -0.56100015168E+03  0.56100015170E+03  0.50400001928E-02 0. -1.
    10030    2    1    2    0    0  0.00000000000E+00  0.00000000000E+00  0.12162507063E+04  0.23382510097E+04  0.19970358043E+04 0.  0.
        4    1    3    3  502    0 -0.32455759696E+03 -0.72062411763E+03 -0.10638726510E+03  0.79746888073E+03  0.12699999809E+01 0. -1.
       -4    1    3    3    0  502  0.32455759696E+03  0.72062411763E+03  0.13226379714E+04  0.15407821289E+04  0.12699999809E+01 0.  1.
</event>
<event>
 5   0  0.9333353E-06  0.2002750E+04  0.7818609E-02  0.8605336E-01
        1   -1    0    0  501    0  0.00000000000E+00  0.00000000000E+00  0.86864390363E+03  0.86864390364E+03  0.50400001928E-02 0. -1.
       -1   -1    0    0    0  501  0.00000000000E+00  0.00000000000E+00 -0.11543872077E+04  0.11543872077E+04  0.50400001928E-02 0.  1.
    10030    2    1    2    0    0  0.00000000000E+00  0.00000000000E+00 -0.28574330404E+03  0.20230311113E+04  0.20027495204E+04 0.  0.
        2    1    3    3  502    0  0.51458389762E+03 -0.51959156829E+03 -0.83388956395E+03  0.11091184745E+04  0.25500000920E-02 0.  1.
       -2    1    3    3    0  502 -0.51458389762E+03  0.51959156829E+03  0.54814625991E+03  0.91391263685E+03  0.25500000920E-02 0. -1.
</event>
<event>
 5   0  0.2038882E-05  0.2001217E+04  0.7818609E-02  0.8606052E-01
        2   -1    0    0  501    0  0.00000000000E+00  0.00000000000E+00  0.16648120043E+04  0.16648120043E+04  0.25500000920E-02 0.  1.
       -2   -1    0    0    0  501  0.00000000000E+00  0.00000000000E+00 -0.60139972284E+03  0.60139972285E+03  0.25500000920E-02 0. -1.
    10030    2    1    2    0    0  0.00000000000E+00  0.00000000000E+00  0.10634122815E+04  0.22662117272E+04  0.20012171077E+04 0.  0.
        3    1    3    3  502    0 -0.99304280536E+03 -0.98058231101E+02  0.61544403408E+03  0.11723995903E+04  0.10100000352E+00 0. -1.
       -3    1    3    3    0  502  0.99304280536E+03  0.98058231101E+02  0.44796824741E+03  0.10938121369E+04  0.10100000352E+00 0.  1.
</event>
<event>
 5   0  0.2003576E-05  0.2001067E+04  0.7818609E-02  0.8606122E-01
        2   -1    0    0  501    0  0.00000000000E+00  0.00000000000E+00  0.14652639508E+04  0.14652639508E+04  0.25500000920E-02 0. -1.
       -2   -1    0    0    0  501  0.00000000000E+00  0.00000000000E+00 -0.68319917113E+03  0.68319917113E+03  0.25500000920E-02 0.  1.
    10030    2    1    2    0    0  0.00000000000E+00  0.00000000000E+00  0.78206477965E+03  0.21484631219E+04  0.20010668321E+04 0.  0.
        4    1    3    3  502    0  0.83473411768E+02 -0.49947329228E+03 -0.53544507644E+03  0.73698332611E+03  0.12699999809E+01 0.  1.
       -4    1    3    3    0  502 -0.83473411768E+02  0.49947329228E+03  0.13175098561E+04  0.14114797958E+04  0.12699999809E+01 0. -1.
</event>
<event>
 5   0  0.1999142E-05  0.2001954E+04  0.7818609E-02  0.8605708E-01
        2   -1    0    0  501    0  0.00000000000E+00  0.00000000000E+00  0.13444263074E+04  0.13444263074E+04  0.25500000920E-02 0.  1.
       -2   -1    0    0    0  501  0.00000000000E+00  0.00000000000E+00 -0.74526553394E+03  0.74526553394E+03  0.25500000920E-02 0. -1.
    10030    2    1    2    0    0  0.00000000000E+00  0.00000000000E+00  0.59916077342E+03  0.20896918413E+04  0.20019536356E+04 0.  0.
        1    1    3    3  502    0  0.50971696580E+03 -0.60991099796E+03  0.93464534890E+03  0.12269330621E+04  0.50400001928E-02 0.  1.
       -1    1    3    3    0  502 -0.50971696580E+03  0.60991099796E+03 -0.33548457548E+03  0.86275877919E+03  0.50400001928E-02 0. -1.
</event>
<event>
 5   0  0.2038882E-05  0.2002252E+04  0.7818609E-02  0.8605569E-01
       -2   -1    0    0    0  501  0.00000000000E+00  0.00000000000E+00  0.65775208043E+03  0.65775208043E+03  0.25500000920E-02 0.  1.
        2   -1    0    0  501    0  0.00000000000E+00  0.00000000000E+00 -0.15237548355E+04  0.15237548355E+04  0.25500000920E-02 0. -1.
    10030    2    1    2    0    0  0.00000000000E+00  0.00000000000E+00 -0.86600275510E+03  0.21815069160E+04  0.20022516457E+04 0.  0.
        3    1    3    3  502    0 -0.38860668420E+03  0.15002456649E+03 -0.14248481034E+04  0.14844913788E+04  0.10100000352E+00 0. -1.
       -3    1    3    3    0  502  0.38860668420E+03 -0.15002456649E+03  0.55884534833E+03  0.69701553720E+03  0.10100000352E+00 0.  1.
</event>
<event>
 5   0  0.9342635E-06  0.2009522E+04  0.7818609E-02  0.8602181E-01
        1   -1    0    0  501    0  0.00000000000E+00  0.00000000000E+00  0.73340448964E+03  0.73340448965E+03  0.50400001928E-02 0.  1.
       -1   -1    0    0    0  501  0.00000000000E+00  0.00000000000E+00 -0.13765189317E+04  0.13765189317E+04  0.50400001928E-02 0. -1.
    10030    2    1    2    0    0  0.00000000000E+00  0.00000000000E+00 -0.64311444205E+03  0.21099234214E+04  0.20095224951E+04 0.  0.
        5    1    3    3  502    0 -0.73974927122E+03  0.12961664820E+03 -0.10223579789E+04  0.12685690311E+04  0.46999998093E+01 0.  1.
       -5    1    3    3    0  502  0.73974927122E+03 -0.12961664820E+03  0.37924353680E+03  0.84135439024E+03  0.46999998093E+01 0. -1.
</event>
<event>
 5   0  0.9370269E-06  0.1963886E+04  0.7818609E-02  0.8623694E-01
       -1   -1    0    0    0  501  0.00000000000E+00  0.00000000000E+00  0.59232477042E+03  0.59232477044E+03  0.50400001928E-02 0. -1.
        1   -1    0    0  501    0  0.00000000000E+00  0.00000000000E+00 -0.16278430915E+04  0.16278430915E+04  0.50400001928E-02 0.  1.
    10030    2    1    2    0    0  0.00000000000E+00  0.00000000000E+00 -0.10355183211E+04  0.22201678620E+04  0.19638857253E+04 0.  0.
        4    1    3    3  502    0  0.40307152801E+03 -0.10858992515E+03  0.48701828878E+03  0.64144123273E+03  0.12699999809E+01 0. -1.
       -4    1    3    3    0  502 -0.40307152801E+03  0.10858992515E+03 -0.15225366099E+04  0.15787266292E+04  0.12699999809E+01 0.  1.
</event>
<event>
 5   0  0.9342635E-06  0.2003821E+04  0.7818609E-02  0.8604836E-01
        1   -1    0    0  501    0  0.00000000000E+00  0.00000000000E+00  0.10225014513E+04  0.10225014513E+04  0.50400001928E-02 0.  1.
       -1   -1    0    0    0  501  0.00000000000E+00  0.00000000000E+00 -0.98173423904E+03  0.98173423905E+03  0.50400001928E-02 0. -1.
    10030    2    1    2    0    0  0.00000000000E+00  0.00000000000E+00  0.40767212233E+02  0.20042356903E+04  0.20038210341E+04 0.  0.
        5    1    3    3  502    0 -0.66903980647E+03  0.69666587273E+03  0.28660591302E+03  0.10075329475E+04  0.46999998093E+01 0.  1.
       -5    1    3    3    0  502  0.66903980647E+03 -0.69666587273E+03 -0.24583870078E+03  0.99670274288E+03  0.46999998093E+01 0. -1.
</event>
<event>
 5   0  0.9140695E-06  0.2004544E+04  0.7818609E-02  0.8604499E-01
        1   -1    0    0  501    0  0.00000000000E+00  0.00000000000E+00  0.11868778467E+04  0.11868778467E+04  0.50400001928E-02 0.  1.
       -1   -1    0    0    0  501  0.00000000000E+00  0.00000000000E+00 -0.84637998094E+03  0.84637998095E+03  0.50400001928E-02 0. -1.
    10030    2    1    2    0    0  0.00000000000E+00  0.00000000000E+00  0.34049786573E+03  0.20332578276E+04  0.20045444862E+04 0.  0.
        1    1    3    3  502    0 -0.37209172405E+03 -0.44394720428E+03 -0.65939644855E+03  0.87769302588E+03  0.50400001928E-02 0. -1.
       -1    1    3    3    0  502  0.37209172405E+03  0.44394720428E+03  0.99989431428E+03  0.11555648018E+04  0.50400001928E-02 0.  1.
</event>
<event>
 5   0  0.2003576E-05  0.1998370E+04  0.7818609E-02  0.8607383E-01
        2   -1    0    0  501    0  0.00000000000E+00  0.00000000000E+00  0.16209541404E+04  0.16209541404E+04  0.25500000920E-02 0.  1.
       -2   -1    0    0    0  501  0.00000000000E+00  0.00000000000E+00 -0.61591536373E+03  0.61591536374E+03  0.25500000920E-02 0. -1.
    10030    2    1    2    0    0  0.00000000000E+00  0.00000000000E+00  0.10050387767E+04  0.22368695042E+04  0.19983698947E+04 0.  0.
        4    1    3    3  502    0 -0.41877930152E+03  0.55541520545E+03 -0.30037851992E+03  0.75768794498E+03  0.12699999809E+01 0. -1.
       -4    1    3    3    0  502  0.41877930152E+03 -0.55541520545E+03  0.13054172966E+04  0.14791815592E+04  0.12699999809E+01 0.  1.
</event>
<event>
 5   0  0.1999142E-05  0.2001709E+04  0.7818609E-02  0.8605822E-01
       -2   -1    0    0    0  501  0.00000000000E+00  0.00000000000E+00  0.97825434217E+03  0.97825434217E+03  0.25500000920E-02 0. -1.
        2   -1    0    0  501    0  0.00000000000E+00  0.00000000000E+00 -0.10239766818E+04  0.10239766818E+04  0.25500000920E-02 0.  1.
    10030    2    1    2    0    0  0.00000000000E+00  0.00000000000E+00 -0.45722339591E+02  0.20022310239E+04  0.20017089051E+04 0.  0.
        1    1    3    3  502    0  0.66088855947E+03  0.40382932230E+03  0.61122675104E+03  0.98663567278E+03  0.50400001928E-02 0. -1.
       -1    1    3    3    0  502 -0.66088855947E+03 -0.40382932230E+03 -0.65694909063E+03  0.10155953512E+04  0.50400001928E-02 0.  1.
</event>
<event>
 5   0  0.1979765E-05  0.2003855E+04  0.7818609E-02  0.8604820E-01
        2   -1    0    0  501    0  0.00000000000E+00  0.00000000000E+00  0.30084547227E+04  0.30084547227E+04  0.25500000920E-02 0. -1.
       -2   -1    0    0    0  501  0.00000000000E+00  0.00000000000E+00 -0.33367928463E+03  0.33367928464E+03  0.25500000920E-02 0.  1.
    10030    2    1    2    0    0  0.00000000000E+00  0.00000000000E+00  0.26747754380E+04  0.33421340073E+04  0.20038553039E+04 0.  0.
        2    1    3    3  502    0 -0.31322768536E+03 -0.31173696330E+02  0.29238434216E+04  0.29407386378E+04  0.25500000920E-02 0. -1.
       -2    1    3    3    0  502  0.31322768536E+03  0.31173696330E+02 -0.24906798352E+03  0.40139536948E+03  0.25500000920E-02 0.  1.
</event>
<event>
 5   0  0.9220260E-06  0.1998302E+04  0.7818609E-02  0.8607415E-01
       -1   -1    0    0    0  501  0.00000000000E+00  0.00000000000E+00  0.17573924565E+04  0.17573924565E+04  0.50400001928E-02 0. -1.
        1   -1    0    0  501    0  0.00000000000E+00  0.00000000000E+00 -0.56805890860E+03  0.56805890862E+03  0.50400001928E-02 0.  1.
    10030    2    1    2    0    0  0.00000000000E+00  0.00000000000E+00  0.11893335479E+04  0.23254513652E+04  0.19983017198E+04 0.  0.
        3    1    3    3  502    0 -0.78399042346E+03  0.20522375832E+03  0.12747623439E+04  0.15105551359E+04  0.10100000352E+00 0. -1.
       -3    1    3    3    0  502  0.78399042346E+03 -0.20522375832E+03 -0.85428795951E+02  0.81489622925E+03  0.10100000352E+00 0.  1.
</event>
<event>
 5   0  0.2038882E-05  0.1997306E+04  0.7818609E-02  0.8607881E-01
       -2   -1    0    0    0  501  0.00000000000E+00  0.00000000000E+00  0.42083482237E+03  0.42083482238E+03  0.25500000920E-02 0.  1.
        2   -1    0    0  501    0  0.00000000000E+00  0.00000000000E+00 -0.23698327667E+04  0.23698327667E+04  0.25500000920E-02 0. -1.
    10030    2    1    2    0    0  0.00000000000E+00  0.00000000000E+00 -0.19489979444E+04  0.27906675891E+04  0.19973063375E+04 0.  0.
        3    1    3    3  502    0  0.69896627646E+03 -0.20113474623E+03 -0.18351040768E+02  0.72756155250E+03  0.10100000352E+00 0.  1.
       -3    1    3    3    0  502 -0.69896627646E+03  0.20113474623E+03 -0.19306469036E+04  0.20631060366E+04  0.10100000352E+00 0. -1.
</event>
<event>
 5   0  0.2020029E-05  0.2000512E+04  0.7818609E-02  0.8606381E-01
       -2   -1    0    0    0  501  0.00000000000E+00  0.00000000000E+00  0.80101907437E+03  0.80101907437E+03  0.25500000920E-02 0. -1.
        2   -1    0    0  501    0  0.00000000000E+00  0.00000000000E+00 -0.12490485593E+04  0.12490485593E+04  0.25500000920E-02 0.  1.
    10030    2    1    2    0    0  0.00000000000E+00  0.00000000000E+00 -0.44802948495E+03  0.20500676337E+04  0.20005116554E+04 0.  0.
        5    1    3    3  502    0 -0.84740756244E+03 -0.96088699042E+02 -0.75960575764E+03  0.11420838901E+04  0.46999998093E+01 0.  1.
       -5    1    3    3    0  502  0.84740756244E+03  0.96088699042E+02  0.31157627269E+03  0.90798374361E+03  0.46999998093E+01 0. -1.
</event>
<event>
 5   0  0.1999142E-05  0.2004952E+04  0.7818609E-02  0.8604309E-01
        2   -1    0    0  501    0  0.00000000000E+00  0.00000000000E+00  0.10072932942E+04  0.10072932942E+04  0.25500000920E-02 0.  1.
       -2   -1    0    0    0  501  0.00000000000E+00  0.00000000000E+00 -0.99768210996E+03  0.99768210997E+03  0.25500000920E-02 0. -1.
    10030    2    1    2    0    0  0.00000000000E+00  0.00000000000E+00  0.96111842244E+01  0.20049754042E+04  0.20049523676E+04 0.  0.
        1    1    3    3  502    0  0.26983876852E+02 -0.92040749556E+03 -0.39153267410E+03  0.10005877885E+04  0.50400001928E-02 0. -1.
       -1    1    3    3    0  502 -0.26983876852E+02  0.92040749556E+03  0.40114385832E+03  0.10043876157E+04  0.50400001928E-02 0.  1.
</event>
<event>
 5   0  0.9220260E-06  0.1997571E+04  0.7818609E-02  0.8607757E-01
       -1   -1    0    0    0  501  0.00000000000E+00  0.00000000000E+00  0.78448520000E+03  0.78448520001E+03  0.50400001928E-02 0.  1.
        1   -1    0    0  501    0  0.00000000000E+00  0.00000000000E+00 -0.12716267524E+04  0.12716267524E+04  0.50400001928E-02 0. -1.
    10030    2    1    2    0    0  0.00000000000E+00  0.00000000000E+00 -0.48714155243E+03  0.20561119525E+04  0.19975708921E+04 0.  0.
        3    1    3    3  502    0 -0.44649766251E+03  0.45721077742E+03 -0.10336398335E+04  0.12152420225E+04  0.10100000352E+00 0. -1.
       -3    1    3    3    0  502  0.44649766251E+03 -0.45721077742E+03  0.54649828111E+03  0.84086992993E+03  0.10100000352E+00 0.  1.
</event>
<event>
 5   0  0.9370269E-06  0.2010098E+04  0.7818609E-02  0.8601914E-01
        1   -1    0    0  501    0  0.00000000000E+00  0.00000000000E+00  0.97898687283E+03  0.97898687285E+03  0.50400001928E-02 0.  1.
       -1   -1    0    0    0  501  0.00000000000E+00  0.00000000000E+00 -0.10318048492E+04  0.10318048493E+04  0.50400001928E-02 0. -1.
    10030    2    1    2    0    0  0.00000000000E+00  0.00000000000E+00 -0.52817976407E+02  0.20107917221E+04  0.20100979108E+04 0.  0.
        4    1    3    3  502    0 -0.75162646622E+02 -0.42688833451E+03  0.88067779203E+03  0.98156918242E+03  0.12699999809E+01 0.  1.
       -4    1    3    3    0  502  0.75162646622E+02  0.42688833451E+03 -0.93349576844E+03  0.10292225397E+04  0.12699999809E+01 0. -1.
</event>
<event>
 5   0  0.9220260E-06  0.2005554E+04  0.7818609E-02  0.8604028E-01
        1   -1    0    0  501    0  0.00000000000E+00  0.00000000000E+00  0.19883470495E+04  0.19883470495E+04  0.50400001928E-02 0.  1.
       -1   -1    0    0    0  501  0.00000000000E+00  0.00000000000E+00 -0.50572759144E+03  0.50572759146E+03  0.50400001928E-02 0. -1.
    10030    2    1    2    0    0  0.00000000000E+00  0.00000000000E+00  0.14826194581E+04  0.24940746410E+04  0.20055542519E+04 0.  0.
        3    1    3    3  502    0  0.18413539915E+03  0.89747378334E+03  0.12482846940E+04  0.15484120009E+04  0.10100000352E+00 0.  1.
       -3    1    3    3    0  502 -0.18413539915E+03 -0.89747378334E+03  0.23433476404E+03  0.94566264008E+03  0.10100000352E+00 0. -1.
</event>
<event>
 5   0  0.2003576E-05  0.2002060E+04  0.7818609E-02  0.8605658E-01
       -2   -1    0    0    0  501  0.00000000000E+00  0.00000000000E+00  0.11751306945E+04  0.11751306945E+04  0.25500000920E-02 0.  1.
        2   -1    0    0  501    0  0.00000000000E+00  0.00000000000E+00 -0.85272330537E+03  0.85272330538E+03  0.25500000920E-02 0. -1.
    10030    2    1    2    0    0  0.00000000000E+00  0.00000000000E+00  0.32240738916E+03  0.20278539999E+04  0.20020602689E+04 0.  0.
        4    1    3    3  502    0  0.58623747913E+03  0.69970451261E+03 -0.25494101869E+03  0.94776438148E+03  0.12699999809E+01 0.  1.
       -4    1    3    3    0  502 -0.58623747913E+03 -0.69970451261E+03  0.57734840785E+03  0.10800896184E+04  0.12699999809E+01 0. -1.
</event>
<event>
 5   0  0.2020029E-05  0.2024068E+04  0.7818609E-02  0.8595450E-01
       -2   -1    0    0    0  501  0.00000000000E+00  0.00000000000E+00  0.86061905893E+03  0.86061905893E+03  0.25500000920E-02 0. -1.
        2   -1    0    0  501    0  0.00000000000E+00  0.00000000000E+00 -0.11900889957E+04  0.11900889957E+04  0.25500000920E-02 0.  1.
    10030    2    1    2    0    0  0.00000000000E+00  0.00000000000E+00 -0.32946993680E+03  0.20507080547E+04  0.20240684490E+04 0.  0.
        5    1    3    3  502    0  0.83408459353E+03 -0.32016420910E+03  0.31690469670E+03  0.94797305169E+03  0.46999998093E+01 0. -1.
       -5    1    3    3    0  502 -0.83408459353E+03  0.32016420910E+03 -0.64637463350E+03  0.11027350030E+04  0.46999998093E+01 0.  1.
</event>
<event>
 5   0  0.1979765E-05  0.2007709E+04  0.7818609E-02  0.8603025E-01
        2   -1    0    0  501    0  0.00000000000E+00  0.00000000000E+00  0.12564034801E+04  0.12564034801E+04  0.25500000920E-02 0.  1.
       -2   -1    0    0    0  501  0.00000000000E+00  0.00000000000E+00 -0.80207020372E+03  0.80207020373E+03  0.25500000920E-02 0. -1.
    10030    2    1    2    0    0  0.00000000000E+00  0.00000000000E+00  0.45433327634E+03  0.20584736838E+04  0.20077089383E+04 0.  0.
        2    1    3    3  502    0  0.22254886842E+03  0.97868046781E+03  0.24716201521E+03  0.10336500949E+04  0.25500000920E-02 0. -1.
       -2    1    3    3    0  502 -0.22254886842E+03 -0.97868046781E+03  0.20717126112E+03  0.10248235889E+04  0.25500000920E-02 0.  1.
</event>
<event>
 5   0  0.2038882E-05  0.1948528E+04  0.7818609E-02  0.8631071E-01
        2   -1    0    0  501    0  0.00000000000E+00  0.00000000000E+00  0.82283662380E+03  0.82283662380E+03  0.25500000920E-02 0.  1.
       -2   -1    0    0    0  501  0.00000000000E+00  0.00000000000E+00 -0.11535592047E+04  0.11535592047E+04  0.25500000920E-02 0. -1.
    10030    2    1    2    0    0  0.00000000000E+00  0.00000000000E+00 -0.33072258092E+03  0.19763958285E+04  0.19485284308E+04 0.  0.
        3    1    3    3  502    0  0.61167781365E+03  0.42006553887E+03  0.47500457324E+03  0.88104151971E+03  0.10100000352E+00 0.  1.
       -3    1    3    3    0  502 -0.61167781365E+03 -0.42006553887E+03 -0.80572715416E+03  0.10953543088E+04  0.10100000352E+00 0. -1.
</event>
<event>
 5   0  0.1979765E-05  0.1991623E+04  0.7818609E-02  0.8610547E-01
       -2   -1    0    0    0  501  0.00000000000E+00  0.00000000000E+00  0.69755557231E+03  0.69755557231E+03  0.25500000920E-02 0. -1.
        2   -1    0    0  501    0  0.00000000000E+00  0.00000000000E+00 -0.14215935212E+04  0.14215935212E+04  0.25500000920E-02 0.  1.
    10030    2    1    2    0    0  0.00000000000E+00  0.00000000000E+00 -0.72403794889E+03  0.21191490935E+04  0.19916229385E+04 0.  0.
        2    1    3    3  502    0  0.53596758885E+02  0.19938545939E+03 -0.13985696630E+04  0.14137270869E+04  0.25500000920E-02 0.  1.
       -2    1    3    3    0  502 -0.53596758885E+02 -0.19938545939E+03  0.67453171414E+03  0.70542200658E+03  0.25500000920E-02 0. -1.
</event>
<event>
 5   0  0.2038882E-05  0.2001582E+04  0.7818609E-02  0.8605881E-01
        2   -1    0    0  501    0  0.00000000000E+00  0.00000000000E+00  0.32120809688E+04  0.32120809688E+04  0.25500000920E-02 0. -1.
       -2   -1    0    0    0  501  0.00000000000E+00  0.00000000000E+00 -0.31181747065E+03  0.31181747067E+03  0.25500000920E-02 0.  1.
    10030    2    1    2    0    0  0.00000000000E+00  0.00000000000E+00  0.29002634981E+04  0.35238984394E+04  0.20015823373E+04 0.  0.
        3    1    3    3  502    0 -0.55762247317E+03 -0.35322291734E+03  0.27745027988E+04  0.28519423280E+04  0.10100000352E+00 0. -1.
       -3    1    3    3    0  502  0.55762247317E+03  0.35322291734E+03  0.12576069933E+03  0.67195611138E+03  0.10100000352E+00 0.  1.
</event>
<event>
 5   0  0.2038882E-05  0.2000453E+04  0.7818609E-02  0.8606409E-01
        2   -1    0    0  501    0  0.00000000000E+00  0.00000000000E+00  0.11398461903E+04  0.11398461903E+04  0.25500000920E-02 0. -1.
       -2   -1    0    0    0  501  0.00000000000E+00  0.00000000000E+00 -0.87770860538E+03  0.87770860539E+03  0.25500000920E-02 0.  1.
    10030    2    1    2    0    0  0.00000000000E+00  0.00000000000E+00  0.26213758493E+03  0.20175547957E+04  0.20004527588E+04 0.  0.
        3    1    3    3  502    0  0.37592134031E+03 -0.46358529552E+03  0.94056663896E+03  0.11139541251E+04  0.10100000352E+00 0. -1.
       -3    1    3    3    0  502 -0.37592134031E+03  0.46358529552E+03 -0.67842905404E+03  0.90360067059E+03  0.10100000352E+00 0.  1.
</event>
<event>
 5   0  0.2003576E-05  0.1998569E+04  0.7818609E-02  0.8607290E-01
        2   -1    0    0  501    0  0.00000000000E+00  0.00000000000E+00  0.13902530855E+04  0.13902530855E+04  0.25500000920E-02 0. -1.
       -2   -1    0    0    0  501  0.00000000000E+00  0.00000000000E+00 -0.71826438870E+03  0.71826438871E+03  0.25500000920E-02 0.  1.
    10030    2    1    2    0    0  0.00000000000E+00  0.00000000000E+00  0.67198869684E+03  0.21085174743E+04  0.19985687705E+04 0.  0.
        4    1    3    3  502    0 -0.82203154652E+03 -0.56227102315E+03  0.24974671685E+03  0.10267714461E+04  0.12699999809E+01 0.  1.
       -4    1    3    3    0  502  0.82203154652E+03  0.56227102315E+03  0.42224197999E+03  0.10817460282E+04  0.12699999809E+01 0. -1.
</event>
<event>
 5   0  0.9220260E-06  0.1992116E+04  0.7818609E-02  0.8610316E-01
       -1   -1    0    0    0  501  0.00000000000E+00  0.00000000000E+00  0.66362581437E+03  0.66362581439E+03  0.50400001928E-02 0. -1.
        1   -1    0    0  501    0  0.00000000000E+00  0.00000000000E+00 -0.14950165598E+04  0.14950165598E+04  0.50400001928E-02 0.  1.
    10030    2    1    2    0    0  0.00000000000E+00  0.00000000000E+00 -0.83139074541E+03  0.21586423742E+04  0.19921160428E+04 0.  0.
        3    1    3    3  502    0  0.40773557190E+03  0.13074970678E+03 -0.13901987712E+04  0.14546464918E+04  0.10100000352E+00 0.  1.
       -3    1    3    3    0  502 -0.40773557190E+03 -0.13074970678E+03  0.55880802584E+03  0.70399588234E+03  0.10100000352E+00 0. -1.
</event>
<event>
 5   0  0.9333353E-06  0.1996164E+04  0.7818609E-02  0.8608416E-01
       -1   -1    0    0    0  501  0.00000000000E+00  0.00000000000E+00  0.64658490921E+03  0.64658490923E+03  0.50400001928E-02 0. -1.
        1   -1    0    0  501    0  0.00000000000E+00  0.00000000000E+00 -0.15406599750E+04  0.15406599750E+04  0.50400001928E-02 0.  1.
    10030    2    1    2    0    0  0.00000000000E+00  0.00000000000E+00 -0.89407506579E+03  0.21872448842E+04  0.19961638110E+04 0.  0.
        2    1    3    3  502    0  0.25287368597E+03 -0.34112633733E+03  0.54267205477E+03  0.68906112799E+03  0.25500000920E-02 0. -1.
       -2    1    3    3    0  502 -0.25287368597E+03  0.34112633733E+03 -0.14367471206E+04  0.14981837563E+04  0.25500000920E-02 0.  1.
</event>
<event>
 5   0  0.9333353E-06  0.2004455E+04  0.7818609E-02  0.8604541E-01
       -1   -1    0    0    0  501  0.00000000000E+00  0.00000000000E+00  0.69034685782E+03  0.69034685784E+03  0.50400001928E-02 0.  1.
        1   -1    0    0  501    0  0.00000000000E+00  0.00000000000E+00 -0.14550075790E+04  0.14550075790E+04  0.50400001928E-02 0. -1.
    10030    2    1    2    0    0  0.00000000000E+00  0.00000000000E+00 -0.76466072116E+03  0.21453544368E+04  0.20044549486E+04 0.  0.
        2    1    3    3  502    0 -0.97385381349E+03  0.12434312896E+02 -0.12924721658E+03  0.98247173251E+03  0.25500000920E-02 0. -1.
       -2    1    3    3    0  502  0.97385381349E+03 -0.12434312896E+02 -0.63541350458E+03  0.11628827043E+04  0.25500000920E-02 0.  1.
</event>
<event>
 5   0  0.9220260E-06  0.2006677E+04  0.7818609E-02  0.8603505E-01
       -1   -1    0    0    0  501  0.00000000000E+00  0.00000000000E+00  0.50506229611E+03  0.50506229614E+03  0.50400001928E-02 0. -1.
        1   -1    0    0  501    0  0.00000000000E+00  0.00000000000E+00 -0.19931962644E+04  0.19931962644E+04  0.50400001928E-02 0.  1.
    10030    2    1    2    0    0  0.00000000000E+00  0.00000000000E+00 -0.14881339683E+04  0.24982585605E+04  0.20066771359E+04 0.  0.
        3    1    3    3  502    0  0.14606294683E+03 -0.37984169738E+03 -0.18858327845E+04  0.19292432197E+04  0.10100000352E+00 0.  1.
       -3    1    3    3    0  502 -0.14606294683E+03  0.37984169738E+03  0.39769881620E+03  0.56901534084E+03  0.10100000352E+00 0. -1.
</event>
<event>
 5   0  0.1999142E-05  0.1995191E+04  0.7818609E-02  0.8608872E-01
       -2   -1    0    0    0  501  0.00000000000E+00  0.00000000000E+00  0.16062046319E+04  0.16062046319E+04  0.25500000920E-02 0.  1.
        2   -1    0    0  501    0  0.00000000000E+00  0.00000000000E+00 -0.61959514412E+03  0.61959514412E+03  0.25500000920E-02 0. -1.
    10030    2    1    2    0    0  0.00000000000E+00  0.00000000000E+00  0.98660948775E+03  0.22257997760E+04  0.19951908083E+04 0.  0.
        1    1    3    3  502    0  0.54156319706E+03 -0.69677344550E+03  0.10122756243E+04  0.13429392653E+04  0.50400001928E-02 0.  1.
       -1    1    3    3    0  502 -0.54156319706E+03  0.69677344550E+03 -0.25666136511E+02  0.88286051070E+03  0.50400001928E-02 0. -1.
</event>
<event>
 5   0  0.9220260E-06  0.2001480E+04  0.7818609E-02  0.8605929E-01
       -1   -1    0    0    0  501  0.00000000000E+00  0.00000000000E+00  0.72497615189E+03  0.72497615191E+03  0.50400001928E-02 0. -1.
        1   -1    0    0  501    0  0.00000000000E+00  0.00000000000E+00 -0.13813974033E+04  0.13813974033E+04  0.50400001928E-02 0.  1.
    10030    2    1    2    0    0  0.00000000000E+00  0.00000000000E+00 -0.65642125143E+03  0.21063735552E+04  0.20014796264E+04 0.  0.
        3    1    3    3  502    0  0.69735668422E+03  0.61276529220E+03 -0.72155304852E+03  0.11757663290E+04  0.10100000352E+00 0.  1.
       -3    1    3    3    0  502 -0.69735668422E+03 -0.61276529220E+03  0.65131797091E+02  0.93060722625E+03  0.10100000352E+00 0. -1.
</event>
<event>
 5   0  0.2038882E-05  0.2003293E+04  0.7818609E-02  0.8605083E-01
        2   -1    0    0  501    0  0.00000000000E+00  0.00000000000E+00  0.92579109436E+03  0.92579109437E+03  0.25500000920E-02 0. -1.
       -2   -1    0    0    0  501  0.00000000000E+00  0.00000000000E+00 -0.10837166976E+04  0.10837166976E+04  0.25500000920E-02 0.  1.
    10030    2    1    2    0    0  0.00000000000E+00  0.00000000000E+00 -0.15792560328E+03  0.20095077920E+04  0.20032925573E+04 0.  0.
        3    1    3    3  502    0 -0.31507263595E+03 -0.19439912493E+03  0.85464139994E+03  0.93138269170E+03  0.10100000352E+00 0. -1.
       -3    1    3    3    0  502  0.31507263595E+03  0.19439912493E+03 -0.10125670032E+04  0.10781251003E+04  0.10100000352E+00 0.  1.
</event>
<event>
 5   0  0.9140695E-06  0.2002069E+04  0.7818609E-02  0.8605654E-01
       -1   -1    0    0    0  501  0.00000000000E+00  0.00000000000E+00  0.10209826568E+04  0.10209826569E+04  0.50400001928E-02 0. -1.
        1   -1    0    0  501    0  0.00000000000E+00  0.00000000000E+00 -0.98147643762E+03  0.98147643763E+03  0.50400001928E-02 0.  1.
    10030    2    1    2    0    0  0.00000000000E+00  0.00000000000E+00  0.39506219232E+02  0.20024590945E+04  0.20020693504E+04 0.  0.
        1    1    3    3  502    0 -0.74283029690E+02  0.99823450806E+03  0.10789259717E+02  0.10010527008E+04  0.50400001928E-02 0. -1.
       -1    1    3    3    0  502  0.74283029690E+02 -0.99823450806E+03  0.28716959515E+02  0.10014063937E+04  0.50400001928E-02 0.  1.
</event>
<event>
 5   0  0.2003576E-05  0.2000339E+04  0.7818609E-02  0.8606462E-01
       -2   -1    0    0    0  501  0.00000000000E+00  0.00000000000E+00  0.55247686859E+03  0.55247686859E+03  0.25500000920E-02 0. -1.
        2   -1    0    0  501    0  0.00000000000E+00  0.00000000000E+00 -0.18106444460E+04  0.18106444460E+04  0.25500000920E-02 0.  1.
    10030    2    1    2    0    0  0.00000000000E+00  0.00000000000E+00 -0.12581675775E+04  0.23631213146E+04  0.20003391449E+04 0.  0.
        4    1    3    3  502    0  0.73152395916E+03  0.64982478645E+03 -0.38428835405E+03  0.10512272389E+04  0.12699999809E+01 0.  1.
       -4    1    3    3    0  502 -0.73152395916E+03 -0.64982478645E+03 -0.87387922341E+03  0.13118940757E+04  0.12699999809E+01 0. -1.
</event>
<event>
 5   0  0.2003576E-05  0.1998575E+04  0.7818609E-02  0.8607287E-01
       -2   -1    0    0    0  501  0.00000000000E+00  0.00000000000E+00  0.13632421163E+04  0.13632421163E+04  0.25500000920E-02 0. -1.
        2   -1    0    0  501    0  0.00000000000E+00  0.00000000000E+00 -0.73250075725E+03  0.73250075726E+03  0.25500000920E-02 0.  1.
    10030    2    1    2    0    0  0.00000000000E+00  0.00000000000E+00  0.63074135907E+03  0.20957428736E+04  0.19985753751E+04 0.  0.
        4    1    3    3  502    0 -0.52155192537E+03 -0.27813417212E+03  0.11602729316E+04  0.13021558729E+04  0.12699999809E+01 0. -1.
       -4    1    3    3    0  502  0.52155192537E+03  0.27813417212E+03 -0.52953157250E+03  0.79358700074E+03  0.12699999809E+01 0.  1.
</event>
<event>
 5   0  0.9342635E-06  0.1998786E+04  0.7818609E-02  0.8607189E-01
       -1   -1    0    0    0  501  0.00000000000E+00  0.00000000000E+00  0.12412680659E+04  0.12412680659E+04  0.50400001928E-02 0.  1.
        1   -1    0    0  501    0  0.00000000000E+00  0.00000000000E+00 -0.80464984512E+03  0.80464984514E+03  0.50400001928E-02 0. -1.
    10030    2    1    2    0    0  0.00000000000E+00  0.00000000000E+00  0.43661822078E+03  0.20459179110E+04  0.19987857884E+04 0.  0.
        5    1    3    3  502    0  0.77336562495E+03 -0.23488698343E+03  0.81996002805E+03  0.11513569483E+04  0.46999998093E+01 0.  1.
       -5    1    3    3    0  502 -0.77336562495E+03  0.23488698343E+03 -0.38334180727E+03  0.89456096273E+03  0.46999998093E+01 0. -1.
</event>
<event>
 5   0  0.9220260E-06  0.2002633E+04  0.7818609E-02  0.8605391E-01
        1   -1    0    0  501    0  0.00000000000E+00  0.00000000000E+00  0.71411259687E+03  0.71411259689E+03  0.50400001928E-02 0. -1.
       -1   -1    0    0    0  501  0.00000000000E+00  0.00000000000E+00 -0.14040285001E+04  0.14040285001E+04  0.50400001928E-02 0.  1.
    10030    2    1    2    0    0  0.00000000000E+00  0.00000000000E+00 -0.68991590320E+03  0.21181410970E+04  0.20026327055E+04 0.  0.
        3    1    3    3  502    0  0.22766935524E+03  0.92649583780E+02 -0.13716237253E+04  0.13934736936E+04  0.10100000352E+00 0.  1.
       -3    1    3    3    0  502 -0.22766935524E+03 -0.92649583780E+02  0.68170782208E+03  0.72466740341E+03  0.10100000352E+00 0. -1.
</event>
<event>
 5   0  0.9333353E-06  0.1999453E+04  0.7818609E-02  0.8606876E-01
        1   -1    0    0  501    0  0.00000000000E+00  0.00000000000E+00  0.92354990565E+03  0.92354990566E+03  0.50400001928E-02 0. -1.
       -1   -1    0    0    0  501  0.00000000000E+00  0.00000000000E+00 -0.10821865066E+04  0.10821865066E+04  0.50400001928E-02 0.  1.
    10030    2    1    2    0    0  0.00000000000E+00  0.00000000000E+00 -0.15863660097E+03  0.20057364123E+04  0.19994531713E+04 0.  0.
        2    1    3    3  502    0  0.12049142625E+03  0.15636898814E+03 -0.10624408200E+04  0.10806247916E+04  0.25500000920E-02 0.  1.
       -2    1    3    3    0  502 -0.12049142625E+03 -0.15636898814E+03  0.90380421906E+03  0.92511162064E+03  0.25500000920E-02 0. -1.
</event>
<event>
 5   0  0.2003576E-05  0.2000097E+04  0.7818609E-02  0.8606575E-01
        2   -1    0    0  501    0  0.00000000000E+00  0.00000000000E+00  0.11425498104E+04  0.11425498104E+04  0.25500000920E-02 0. -1.
       -2   -1    0    0    0  501  0.00000000000E+00  0.00000000000E+00 -0.87532017653E+03  0.87532017654E+03  0.25500000920E-02 0.  1.
    10030    2    1    2    0    0  0.00000000000E+00  0.00000000000E+00  0.26722963382E+03  0.20178699869E+04  0.20000968994E+04 0.  0.
        4    1    3    3  502    0 -0.31160760243E+03  0.94516857823E+02 -0.82033624817E+03  0.88260178295E+03  0.12699999809E+01 0.  1.
       -4    1    3    3    0  502  0.31160760243E+03 -0.94516857823E+02  0.10875658820E+04  0.11352682039E+04  0.12699999809E+01 0. -1.
</event>
<event>
 5   0  0.9220260E-06  0.2000767E+04  0.7818609E-02  0.8606262E-01
       -1   -1    0    0    0  501  0.00000000000E+00  0.00000000000E+00  0.68268629036E+03  0.68268629038E+03  0.50400001928E-02 0.  1.
        1   -1    0    0  501    0  0.00000000000E+00  0.00000000000E+00 -0.14659257270E+04  0.14659257270E+04  0.50400001928E-02 0. -1.
    10030    2    1    2    0    0  0.00000000000E+00  0.00000000000E+00 -0.78323943666E+03  0.21486120174E+04  0.20007672494E+04 0.  0.
        3    1    3    3  502    0  0.95874129563E+03 -0.16030355381E+03 -0.13775042985E+03  0.98176234010E+03  0.10100000352E+00 0.  1.
       -3    1    3    3    0  502 -0.95874129563E+03  0.16030355381E+03 -0.64548900682E+03  0.11668496773E+04  0.10100000352E+00 0. -1.
</event>
<event>
 5   0  0.1979765E-05  0.2004179E+04  0.7818609E-02  0.8604670E-01
       -2   -1    0    0    0  501  0.00000000000E+00  0.00000000000E+00  0.12995400674E+04  0.12995400674E+04  0.25500000920E-02 0. -1.
        2   -1    0    0  501    0  0.00000000000E+00  0.00000000000E+00 -0.77272185434E+03  0.77272185434E+03  0.25500000920E-02 0.  1.
    10030    2    1    2    0    0  0.00000000000E+00  0.00000000000E+00  0.52681821309E+03  0.20722619218E+04  0.20041786454E+04 0.  0.
        2    1    3    3  502    0 -0.48150098448E+03 -0.87653844859E+03  0.32896774533E+03  0.10527975244E+04  0.25500000920E-02 0. -1.
       -2    1    3    3    0  502  0.48150098448E+03  0.87653844859E+03  0.19785046777E+03  0.10194643974E+04  0.25500000920E-02 0.  1.
</event>
<event>
 5   0  0.2003576E-05  0.2009841E+04  0.7818609E-02  0.8602033E-01
        2   -1    0    0  501    0  0.00000000000E+00  0.00000000000E+00  0.10629686588E+04  0.10629686588E+04  0.25500000920E-02 0. -1.
       -2   -1    0    0    0  501  0.00000000000E+00  0.00000000000E+00 -0.95004256999E+03  0.95004257000E+03  0.25500000920E-02 0.  1.
    10030    2    1    2    0    0  0.00000000000E+00  0.00000000000E+00  0.11292608884E+03  0.20130112288E+04  0.20098412638E+04 0.  0.
        4    1    3    3  502    0  0.52135297482E+03 -0.63689569958E+03  0.63393012593E+03  0.10389004158E+04  0.12699999809E+01 0. -1.
       -4    1    3    3    0  502 -0.52135297482E+03  0.63689569958E+03 -0.52100403709E+03  0.97411081303E+03  0.12699999809E+01 0.  1.
</event>
<event>
 5   0  0.9342635E-06  0.2000906E+04  0.7818609E-02  0.8606197E-01
       -1   -1    0    0    0  501  0.00000000000E+00  0.00000000000E+00  0.51583334576E+03  0.51583334579E+03  0.50400001928E-02 0.  1.
        1   -1    0    0  501    0  0.00000000000E+00  0.00000000000E+00 -0.19403666502E+04  0.19403666502E+04  0.50400001928E-02 0. -1.
    10030    2    1    2    0    0  0.00000000000E+00  0.00000000000E+00 -0.14245333044E+04  0.24561999960E+04  0.20009056162E+04 0.  0.
        5    1    3    3  502    0 -0.63356944455E+03  0.56504822305E+03 -0.13620469449E+04  0.16049559825E+04  0.46999998093E+01 0. -1.
       -5    1    3    3    0  502  0.63356944455E+03 -0.56504822305E+03 -0.62486359492E+02  0.85124401352E+03  0.46999998093E+01 0.  1.
</event>
<event>
 5   0  0.9333353E-06  0.2001961E+04  0.7818609E-02  0.8605704E-01
        1   -1    0    0  501    0  0.00000000000E+00  0.00000000000E+00  0.14430043620E+04  0.14430043620E+04  0.50400001928E-02 0. -1.
       -1   -1    0    0    0  501  0.00000000000E+00  0.00000000000E+00 -0.69435814102E+03  0.69435814104E+03  0.50400001928E-02 0.  1.
    10030    2    1    2    0    0  0.00000000000E+00  0.00000000000E+00  0.74864622100E+03  0.21373625031E+04  0.20019608651E+04 0.  0.
        2    1    3    3  502    0  0.89902130688E+03  0.56698853986E+02 -0.91669396396E+02  0.90545974428E+03  0.25500000920E-02 0.  1.
       -2    1    3    3    0  502 -0.89902130688E+03 -0.56698853986E+02  0.84031561740E+03  0.12319027588E+04  0.25500000920E-02 0. -1.
</event>
<event>
 5   0  0.1979765E-05  0.1995885E+04  0.7818609E-02  0.8608547E-01
        2   -1    0    0  501    0  0.00000000000E+00  0.00000000000E+00  0.11633400322E+04  0.11633400322E+04  0.25500000920E-02 0. -1.
       -2   -1    0    0    0  501  0.00000000000E+00  0.00000000000E+00 -0.85606046714E+03  0.85606046714E+03  0.25500000920E-02 0.  1.
    10030    2    1    2    0    0  0.00000000000E+00  0.00000000000E+00  0.30727956509E+03  0.20194004994E+04  0.19958851785E+04 0.  0.
        2    1    3    3  502    0 -0.32862998589E+03  0.24382260083E+03 -0.76727201083E+03  0.86957085215E+03  0.25500000920E-02 0.  1.
       -2    1    3    3    0  502  0.32862998589E+03 -0.24382260083E+03  0.10745515759E+04  0.11498296472E+04  0.25500000920E-02 0. -1.
</event>
<event>
 5   0  0.2038882E-05  0.1999833E+04  0.7818609E-02  0.8606699E-01
        2   -1    0    0  501    0  0.00000000000E+00  0.00000000000E+00  0.19798545283E+04  0.19798545283E+04  0.25500000920E-02 0.  1.
       -2   -1    0    0    0  501  0.00000000000E+00  0.00000000000E+00 -0.50500303365E+03  0.50500303366E+03  0.25500000920E-02 0. -1.
    10030    2    1    2    0    0  0.00000000000E+00  0.00000000000E+00  0.14748514946E+04  0.24848575620E+04  0.19998325360E+04 0.  0.
        3    1    3    3  502    0  0.24542840773E+03  0.50440862252E+03  0.17659317707E+04  0.18528837499E+04  0.10100000352E+00 0.  1.
       -3    1    3    3    0  502 -0.24542840773E+03 -0.50440862252E+03 -0.29108027605E+03  0.63197381204E+03  0.10100000352E+00 0. -1.
</event>
<event>
 5   0  0.2020029E-05  0.1998538E+04  0.7818609E-02  0.8607304E-01
       -2   -1    0    0    0  501  0.00000000000E+00  0.00000000000E+00  0.69633743633E+03  0.69633743633E+03  0.25500000920E-02 0. -1.
        2   -1    0    0  501    0  0.00000000000E+00  0.00000000000E+00 -0.14339871922E+04  0.14339871922E+04  0.25500000920E-02 0.  1.
    10030    2    1    2    0    0  0.00000000000E+00  0.00000000000E+00 -0.73764975588E+03  0.21303246285E+04  0.19985384311E+04 0.  0.
        5    1    3    3  502    0  0.20464544887E+03 -0.93837288996E+03 -0.66286519231E+03  0.11669772035E+04  0.46999998093E+01 0.  1.
       -5    1    3    3    0  502 -0.20464544887E+03  0.93837288996E+03 -0.74784563575E+02  0.96334742503E+03  0.46999998093E+01 0. -1.
</event>
<event>
 5   0  0.9333353E-06  0.2002054E+04  0.7818609E-02  0.8605661E-01
       -1   -1    0    0    0  501  0.00000000000E+00  0.00000000000E+00  0.62580604907E+03  0.62580604909E+03  0.50400001928E-02 0.  1.
        1   -1    0    0  501    0  0.00000000000E+00  0.00000000000E+00 -0.16012236636E+04  0.16012236636E+04  0.50400001928E-02 0. -1.
    10030    2    1    2    0    0  0.00000000000E+00  0.00000000000E+00 -0.97541761452E+03  0.22270297127E+04  0.20020543995E+04 0.  0.
        2    1    3    3  502    0  0.88821394928E+03  0.44877771509E+03 -0.60818440634E+03  0.11662820111E+04  0.25500000920E-02 0. -1.
       -2    1    3    3    0  502 -0.88821394928E+03 -0.44877771509E+03 -0.36723320817E+03  0.10607477016E+04  0.25500000920E-02 0.  1.
</event>
<event>
 5   0  0.1979765E-05  0.1990898E+04  0.7818609E-02  0.8610888E-01
        2   -1    0    0  501    0  0.00000000000E+00  0.00000000000E+00  0.20117239410E+04  0.20117239410E+04  0.25500000920E-02 0. -1.
       -2   -1    0    0    0  501  0.00000000000E+00  0.00000000000E+00 -0.49257171562E+03  0.49257171563E+03  0.25500000920E-02 0.  1.
    10030    2    1    2    0    0  0.00000000000E+00  0.00000000000E+00  0.15191522253E+04  0.25042956566E+04  0.19908975995E+04 0.  0.
        2    1    3    3  502    0 -0.65569442150E+03  0.72305820925E+03  0.10053283928E+04  0.14012257226E+04  0.25500000920E-02 0. -1.
       -2    1    3    3    0  502  0.65569442150E+03 -0.72305820925E+03  0.51382383253E+03  0.11030699340E+04  0.25500000920E-02 0.  1.
</event>
<event>
 5   0  0.9333353E-06  0.2025564E+04  0.7818609E-02  0.8594761E-01
       -1   -1    0    0    0  501  0.00000000000E+00  0.00000000000E+00  0.11848449442E+04  0.11848449442E+04  0.50400001928E-02 0.  1.
        1   -1    0    0  501    0  0.00000000000E+00  0.00000000000E+00 -0.86570571270E+03  0.86570571272E+03  0.50400001928E-02 0. -1.
    10030    2    1    2    0    0  0.00000000000E+00  0.00000000000E+00  0.31913923145E+03  0.20505506569E+04  0.20255636617E+04 0.  0.
        2    1    3    3  502    0 -0.29371105950E+03  0.60957891764E+03 -0.60330075641E+03  0.90654533587E+03  0.25500000920E-02 0. -1.
       -2    1    3    3    0  502  0.29371105950E+03 -0.60957891764E+03  0.92243998786E+03  0.11440053210E+04  0.25500000920E-02 0.  1.
</event>
<event>
 5   0  0.2020029E-05  0.2002973E+04  0.7818609E-02  0.8605232E-01
       -2   -1    0    0    0  501  0.00000000000E+00  0.00000000000E+00  0.43886670146E+03  0.43886670147E+03  0.25500000920E-02 0. -1.
        2   -1    0    0  501    0  0.00000000000E+00  0.00000000000E+00 -0.22853758813E+04  0.22853758813E+04  0.25500000920E-02 0.  1.
    10030    2    1    2    0    0  0.00000000000E+00  0.00000000000E+00 -0.18465091799E+04  0.27242425828E+04  0.20029731647E+04 0.  0.
        5    1    3    3  502    0 -0.61669815319E+03  0.72851420233E+03 -0.51093191926E+03  0.10826463279E+04  0.46999998093E+01 0. -1.
       -5    1    3    3    0  502  0.61669815319E+03 -0.72851420233E+03 -0.13355772606E+04  0.16415962549E+04  0.46999998093E+01 0.  1.
</event>
<event>
 5   0  0.9140695E-06  0.2000351E+04  0.7818609E-02  0.8606457E-01
       -1   -1    0    0    0  501  0.00000000000E+00  0.00000000000E+00  0.44619066301E+03  0.44619066304E+03  0.50400001928E-02 0. -1.
        1   -1    0    0  501    0  0.00000000000E+00  0.00000000000E+00 -0.22419804437E+04  0.22419804437E+04  0.50400001928E-02 0.  1.
    10030    2    1    2    0    0  0.00000000000E+00  0.00000000000E+00 -0.17957897807E+04  0.26881711067E+04  0.20003507099E+04 0.  0.
        1    1    3    3  502    0  0.94019044586E+03  0.10666513111E+03 -0.46240620176E+03  0.10531642892E+04  0.50400001928E-02 0. -1.
       -1    1    3    3    0  502 -0.94019044586E+03 -0.10666513111E+03 -0.13333835789E+04  0.16350068175E+04  0.50400001928E-02 0.  1.
</event>
<event>
 5   0  0.9333353E-06  0.1992039E+04  0.7818609E-02  0.8610352E-01
        1   -1    0    0  501    0  0.00000000000E+00  0.00000000000E+00  0.18344297120E+04  0.18344297121E+04  0.50400001928E-02 0.  1.
       -1   -1    0    0    0  501  0.00000000000E+00  0.00000000000E+00 -0.54079764532E+03  0.54079764534E+03  0.50400001928E-02 0. -1.
    10030    2    1    2    0    0  0.00000000000E+00  0.00000000000E+00  0.12936320667E+04  0.23752273574E+04  0.19920394261E+04 0.  0.
        2    1    3    3  502    0 -0.10587762667E+03 -0.40631621668E+03  0.17237434124E+04  0.17741460739E+04  0.25500000920E-02 0.  1.
       -2    1    3    3    0  502  0.10587762667E+03  0.40631621668E+03 -0.43011134562E+03  0.60108128353E+03  0.25500000920E-02 0. -1.
</event>
<event>
 5   0  0.9140695E-06  0.1990193E+04  0.7818609E-02  0.8611219E-01
        1   -1    0    0  501    0  0.00000000000E+00  0.00000000000E+00  0.16606047936E+04  0.16606047936E+04  0.50400001928E-02 0. -1.
       -1   -1    0    0    0  501  0.00000000000E+00  0.00000000000E+00 -0.59629917885E+03  0.59629917887E+03  0.50400001928E-02 0.  1.
    10030    2    1    2    0    0  0.00000000000E+00  0.00000000000E+00  0.10643056147E+04  0.22569039725E+04  0.19901932317E+04 0.  0.
        1    1    3    3  502    0  0.21552492668E+03  0.26656015701E+03 -0.52723092752E+03  0.62887022690E+03  0.50400001928E-02 0.  1.
       -1    1    3    3    0  502 -0.21552492668E+03 -0.26656015701E+03  0.15915365423E+04  0.16280337456E+04  0.50400001928E-02 0. -1.
</event>
<event>
 5   0  0.2020029E-05  0.1995632E+04  0.7818609E-02  0.8608665E-01
       -2   -1    0    0    0  501  0.00000000000E+00  0.00000000000E+00  0.99243834012E+03  0.99243834012E+03  0.25500000920E-02 0. -1.
        2   -1    0    0  501    0  0.00000000000E+00  0.00000000000E+00 -0.10032231298E+04  0.10032231298E+04  0.25500000920E-02 0.  1.
    10030    2    1    2    0    0  0.00000000000E+00  0.00000000000E+00 -0.10784789645E+02  0.19956614699E+04  0.19956323285E+04 0.  0.
        5    1    3    3  502    0  0.88722488494E+03  0.22323690253E+03 -0.40365980361E+03  0.99998301893E+03  0.46999998093E+01 0.  1.
       -5    1    3    3    0  502 -0.88722488494E+03 -0.22323690253E+03  0.39287501397E+03  0.99567845096E+03  0.46999998093E+01 0. -1.
</event>
<event>
 5   0  0.9342635E-06  0.2001637E+04  0.7818609E-02  0.8605856E-01
        1   -1    0    0  501    0  0.00000000000E+00  0.00000000000E+00  0.20922390995E+04  0.20922390995E+04  0.50400001928E-02 0.  1.
       -1   -1    0    0    0  501  0.00000000000E+00  0.00000000000E+00 -0.47873961053E+03  0.47873961055E+03  0.50400001928E-02 0. -1.
    10030    2    1    2    0    0  0.00000000000E+00  0.00000000000E+00  0.16134994889E+04  0.25709787100E+04  0.20016370617E+04 0.  0.
        5    1    3    3  502    0 -0.97505274094E+03 -0.17137632785E+03  0.99516392089E+03  0.14037346661E+04  0.46999998093E+01 0.  1.
       -5    1    3    3    0  502  0.97505274094E+03  0.17137632785E+03  0.61833556805E+03  0.11672440439E+04  0.46999998093E+01 0. -1.
</event>
<event>
 5   0  0.9220260E-06  0.1999237E+04  0.7818609E-02  0.8606977E-01
        1   -1    0    0  501    0  0.00000000000E+00  0.00000000000E+00  0.71195017388E+03  0.71195017390E+03  0.50400001928E-02 0. -1.
       -1   -1    0    0    0  501  0.00000000000E+00  0.00000000000E+00 -0.14035213831E+04  0.14035213831E+04  0.50400001928E-02 0.  1.
    10030    2    1    2    0    0  0.00000000000E+00  0.00000000000E+00 -0.69157120924E+03  0.21154715570E+04  0.19992371473E+04 0.  0.
        3    1    3    3  502    0 -0.11562866232E+03 -0.98464045681E+03 -0.21048244352E+03  0.10135036685E+04  0.10100000352E+00 0.  1.
       -3    1    3    3    0  502  0.11562866232E+03  0.98464045681E+03 -0.48108876572E+03  0.11019678886E+04  0.10100000352E+00 0. -1.
</event>
<event>
 5   0  0.1999142E-05  0.1997695E+04  0.7818609E-02  0.8607699E-01
       -2   -1    0    0    0  501  0.00000000000E+00  0.00000000000E+00  0.10010090397E+04  0.10010090397E+04  0.25500000920E-02 0. -1.
        2   -1    0    0  501    0  0.00000000000E+00  0.00000000000E+00 -0.99669040683E+03  0.99669040684E+03  0.25500000920E-02 0.  1.
    10030    2    1    2    0    0  0.00000000000E+00  0.00000000000E+00  0.43186328643E+01  0.19976994465E+04  0.19976947785E+04 0.  0.
        1    1    3    3  502    0 -0.54626558111E+03  0.65688869849E+03 -0.51532354432E+03  0.99773102721E+03  0.50400001928E-02 0.  1.
       -1    1    3    3    0  502  0.54626558111E+03 -0.65688869849E+03  0.51964217719E+03  0.99996841932E+03  0.50400001928E-02 0. -1.
</event>
<event>
 5   0  0.9140695E-06  0.2002041E+04  0.7818609E-02  0.8605667E-01
       -1   -1    0    0    0  501  0.00000000000E+00  0.00000000000E+00  0.11475560083E+04  0.11475560083E+04  0.50400001928E-02 0. -1.
        1   -1    0    0  501    0  0.00000000000E+00  0.00000000000E+00 -0.87319672054E+03  0.87319672055E+03  0.50400001928E-02 0.  1.
    10030    2    1    2    0    0  0.00000000000E+00  0.00000000000E+00  0.27435928777E+03  0.20207527289E+04  0.20020411016E+04 0.  0.
        1    1    3    3  502    0 -0.58395035096E+03  0.43426471720E+03  0.83095987357E+03  0.11045714864E+04  0.50400001928E-02 0. -1.
       -1    1    3    3    0  502  0.58395035096E+03 -0.43426471720E+03 -0.55660058580E+03  0.91618124251E+03  0.50400001928E-02 0.  1.
</event>
<event>
 5   0  0.2038882E-05  0.1997703E+04  0.7818609E-02  0.8607695E-01
        2   -1    0    0  501    0  0.00000000000E+00  0.00000000000E+00  0.63562660150E+03  0.63562660151E+03  0.25500000920E-02 0.  1.
       -2   -1    0    0    0  501  0.00000000000E+00  0.00000000000E+00 -0.15696392091E+04  0.15696392091E+04  0.25500000920E-02 0. -1.
    10030    2    1    2    0    0  0.00000000000E+00  0.00000000000E+00 -0.93401260761E+03  0.22052658106E+04  0.19977031172E+04 0.  0.
        3    1    3    3  502    0 -0.28881329262E+03 -0.95618465094E+03 -0.46865152082E+03  0.11033297163E+04  0.10100000352E+00 0.  1.
       -3    1    3    3    0  502  0.28881329262E+03  0.95618465094E+03 -0.46536108679E+03  0.11019360943E+04  0.10100000352E+00 0. -1.
</event>
<event>
 5   0  0.9140695E-06  0.1990766E+04  0.7818609E-02  0.8610950E-01
        1   -1    0    0  501    0  0.00000000000E+00  0.00000000000E+00  0.63213634363E+03  0.63213634365E+03  0.50400001928E-02 0.  1.
       -1   -1    0    0    0  501  0.00000000000E+00  0.00000000000E+00 -0.15673632619E+04  0.15673632619E+04  0.50400001928E-02 0. -1.
    10030    2    1    2    0    0  0.00000000000E+00  0.00000000000E+00 -0.93522691828E+03  0.21994996056E+04  0.19907659647E+04 0.  0.
        1    1    3    3  502    0 -0.77963945285E+02  0.15755179718E+03  0.61485085060E+03  0.63948613282E+03  0.50400001928E-02 0.  1.
       -1    1    3    3    0  502  0.77963945285E+02 -0.15755179718E+03 -0.15500777689E+04  0.15600134728E+04  0.50400001928E-02 0. -1.
</event>
<event>
 5   0  0.9140695E-06  0.1973494E+04  0.7818609E-02  0.8619114E-01
        1   -1    0    0  501    0  0.00000000000E+00  0.00000000000E+00  0.14921171699E+04  0.14921171699E+04  0.50400001928E-02 0. -1.
       -1   -1    0    0    0  501  0.00000000000E+00  0.00000000000E+00 -0.65254251599E+03  0.65254251601E+03  0.50400001928E-02 0.  1.
    10030    2    1    2    0    0  0.00000000000E+00  0.00000000000E+00  0.83957465386E+03  0.21446596859E+04  0.19734942535E+04 0.  0.
        1    1    3    3  502    0  0.15513588051E+02  0.60486358048E+03 -0.42728485937E+03  0.74072462729E+03  0.50400001928E-02 0.  1.
       -1    1    3    3    0  502 -0.15513588051E+02 -0.60486358048E+03  0.12668595132E+04  0.14039350586E+04  0.50400001928E-02 0. -1.
</event>
<event>
 5   0  0.1999142E-05  0.1998113E+04  0.7818609E-02  0.8607504E-01
       -2   -1    0    0    0  501  0.00000000000E+00  0.00000000000E+00  0.12829440382E+04  0.12829440382E+04  0.25500000920E-02 0. -1.
        2   -1    0    0  501    0  0.00000000000E+00  0.00000000000E+00 -0.77798685042E+03  0.77798685043E+03  0.25500000920E-02 0.  1.
    10030    2    1    2    0    0  0.00000000000E+00  0.00000000000E+00  0.50495718779E+03  0.20609308886E+04  0.19981127011E+04 0.  0.
        1    1    3    3  502    0  0.50043090722E+03 -0.41408640500E+03  0.10354316220E+04  0.12222999990E+04  0.50400001928E-02 0. -1.
       -1    1    3    3    0  502 -0.50043090722E+03  0.41408640500E+03 -0.53047443420E+03  0.83863088965E+03  0.50400001928E-02 0.  1.
</event>
<event>
 5   0  0.9140695E-06  0.2001080E+04  0.7818609E-02  0.8606116E-01
        1   -1    0    0  501    0  0.00000000000E+00  0.00000000000E+00  0.14755429090E+04  0.14755429090E+04  0.50400001928E-02 0. -1.
       -1   -1    0    0    0  501  0.00000000000E+00  0.00000000000E+00 -0.67844879329E+03  0.67844879330E+03  0.50400001928E-02 0.  1.
    10030    2    1    2    0    0  0.00000000000E+00  0.00000000000E+00  0.79709411574E+03  0.21539917023E+04  0.20010800145E+04 0.  0.
        1    1    3    3  502    0 -0.60040916066E+03 -0.33726740917E+03 -0.38275483461E+03  0.78787164496E+03  0.50400001928E-02 0.  1.
       -1    1    3    3    0  502  0.60040916066E+03  0.33726740917E+03  0.11798489504E+04  0.13661200574E+04  0.50400001928E-02 0. -1.
</event>
<event>
 5   0  0.9140695E-06  0.1998123E+04  0.7818609E-02  0.8607499E-01
       -1   -1    0    0    0  501  0.00000000000E+00  0.00000000000E+00  0.46055611135E+03  0.46055611138E+03  0.50400001928E-02 0. -1.
        1   -1    0    0  501    0  0.00000000000E+00  0.00000000000E+00 -0.21672145401E+04  0.21672145401E+04  0.50400001928E-02 0.  1.
    10030    2    1    2    0    0  0.00000000000E+00  0.00000000000E+00 -0.17066584287E+04  0.26277706515E+04  0.19981230203E+04 0.  0.
        1    1    3    3  502    0 -0.70105580899E+03 -0.53648701743E+03 -0.23813105595E+03  0.91433252541E+03  0.50400001928E-02 0. -1.
       -1    1    3    3    0  502  0.70105580899E+03  0.53648701743E+03 -0.14685273728E+04  0.17134381261E+04  0.50400001928E-02 0.  1.
</event>
<event>
 5   0  0.2038882E-05  0.2027034E+04  0.7818609E-02  0.8594085E-01
       -2   -1    0    0    0  501  0.00000000000E+00  0.00000000000E+00  0.45678692723E+03  0.45678692724E+03  0.25500000920E-02 0. -1.
        2   -1    0    0  501    0  0.00000000000E+00  0.00000000000E+00 -0.22487864875E+04  0.22487864875E+04  0.25500000920E-02 0.  1.
    10030    2    1    2    0    0  0.00000000000E+00  0.00000000000E+00 -0.17919995603E+04  0.27055734148E+04  0.20270335662E+04 0.  0.
        3    1    3    3  502    0 -0.87200577856E+02 -0.50871535393E+02  0.45005913850E+03  0.46124298612E+03  0.10100000352E+00 0. -1.
       -3    1    3    3    0  502  0.87200577856E+02  0.50871535393E+02 -0.22420586988E+04  0.22443304287E+04  0.10100000352E+00 0.  1.
</event>
<event>
 5   0  0.2020029E-05  0.2020692E+04  0.7818609E-02  0.8597007E-01
       -2   -1    0    0    0  501  0.00000000000E+00  0.00000000000E+00  0.76237359745E+03  0.76237359745E+03  0.25500000920E-02 0. -1.
        2   -1    0    0  501    0  0.00000000000E+00  0.00000000000E+00 -0.13389743583E+04  0.13389743583E+04  0.25500000920E-02 0.  1.
    10030    2    1    2    0    0  0.00000000000E+00  0.00000000000E+00 -0.57660076086E+03  0.21013479558E+04  0.20206916622E+04 0.  0.
        5    1    3    3  502    0  0.45597052489E+03 -0.45337010409E+03 -0.10987159950E+04  0.12730485060E+04  0.46999998093E+01 0.  1.
       -5    1    3    3    0  502 -0.45597052489E+03  0.45337010409E+03  0.52211523413E+03  0.82829944981E+03  0.46999998093E+01 0. -1.
</event>
<event>
 5   0  0.1979765E-05  0.1973939E+04  0.7818609E-02  0.8618903E-01
       -2   -1    0    0    0  501  0.00000000000E+00  0.00000000000E+00  0.51543637029E+03  0.51543637029E+03  0.25500000920E-02 0.  1.
        2   -1    0    0  501    0  0.00000000000E+00  0.00000000000E+00 -0.18898713693E+04  0.18898713693E+04  0.25500000920E-02 0. -1.
    10030    2    1    2    0    0  0.00000000000E+00  0.00000000000E+00 -0.13744349990E+04  0.24053077396E+04  0.19739386403E+04 0.  0.
        2    1    3    3  502    0  0.16251084861E+03  0.51829589628E+03  0.31692105301E+03  0.62887150187E+03  0.25500000920E-02 0.  1.
       -2    1    3    3    0  502 -0.16251084861E+03 -0.51829589628E+03 -0.16913560520E+04  0.17764362377E+04  0.25500000920E-02 0. -1.
</event>
<event>
 5   0  0.1979765E-05  0.2005804E+04  0.7818609E-02  0.8603912E-01
       -2   -1    0    0    0  501  0.00000000000E+00  0.00000000000E+00  0.65097474943E+03  0.65097474944E+03  0.25500000920E-02 0. -1.
        2   -1    0    0  501    0  0.00000000000E+00  0.00000000000E+00 -0.15450874570E+04  0.15450874570E+04  0.25500000920E-02 0.  1.
    10030    2    1    2    0    0  0.00000000000E+00  0.00000000000E+00 -0.89411270758E+03  0.21960622065E+04  0.20058044971E+04 0.  0.
        2    1    3    3  502    0  0.20076795485E+03 -0.98208672422E+03 -0.48186537337E+03  0.11122033733E+04  0.25500000920E-02 0.  1.
       -2    1    3    3    0  502 -0.20076795485E+03  0.98208672422E+03 -0.41224733421E+03  0.10838588331E+04  0.25500000920E-02 0. -1.
</event>
<event>
 5   0  0.2038882E-05  0.1998652E+04  0.7818609E-02  0.8607251E-01
       -2   -1    0    0    0  501  0.00000000000E+00  0.00000000000E+00  0.39225800811E+03  0.39225800812E+03  0.25500000920E-02 0. -1.
        2   -1    0    0  501    0  0.00000000000E+00  0.00000000000E+00 -0.25459080838E+04  0.25459080838E+04  0.25500000920E-02 0.  1.
    10030    2    1    2    0    0  0.00000000000E+00  0.00000000000E+00 -0.21536500757E+04  0.29381660919E+04  0.19986523798E+04 0.  0.
        3    1    3    3  502    0  0.65982469253E+03 -0.58548215905E+02  0.23136157317E+02  0.66282109987E+03  0.10100000352E+00 0. -1.
       -3    1    3    3    0  502 -0.65982469253E+03  0.58548215905E+02 -0.21767862330E+04  0.22753449921E+04  0.10100000352E+00 0.  1.
</event>
<event>
 5   0  0.9333353E-06  0.1996465E+04  0.7818609E-02  0.8608275E-01
       -1   -1    0    0    0  501  0.00000000000E+00  0.00000000000E+00  0.55982700406E+03  0.55982700408E+03  0.50400001928E-02 0.  1.
        1   -1    0    0  501    0  0.00000000000E+00  0.00000000000E+00 -0.17799570003E+04  0.17799570003E+04  0.50400001928E-02 0. -1.
    10030    2    1    2    0    0  0.00000000000E+00  0.00000000000E+00 -0.12201299962E+04  0.23397840044E+04  0.19964648706E+04 0.  0.
        2    1    3    3  502    0 -0.48766933116E+03 -0.11534411560E+03 -0.16218587541E+04  0.16975133165E+04  0.25500000920E-02 0. -1.
       -2    1    3    3    0  502  0.48766933116E+03  0.11534411560E+03  0.40172875787E+03  0.64227068784E+03  0.25500000920E-02 0.  1.
</event>
<event>
 5   0  0.1999142E-05  0.1991575E+04  0.7818609E-02  0.8610570E-01
       -2   -1    0    0    0  501  0.00000000000E+00  0.00000000000E+00  0.67620704801E+03  0.67620704801E+03  0.25500000920E-02 0. -1.
        2   -1    0    0  501    0  0.00000000000E+00  0.00000000000E+00 -0.14664034293E+04  0.14664034293E+04  0.25500000920E-02 0.  1.
    10030    2    1    2    0    0  0.00000000000E+00  0.00000000000E+00 -0.79019638129E+03  0.21426104773E+04  0.19915745872E+04 0.  0.
        1    1    3    3  502    0  0.13169157067E+03  0.83440507365E+03 -0.96235925914E+03  0.12805115542E+04  0.50400001928E-02 0.  1.
       -1    1    3    3    0  502 -0.13169157067E+03 -0.83440507365E+03  0.17216287785E+03  0.86209892312E+03  0.50400001928E-02 0. -1.
</event>
<event>
 5   0  0.9220260E-06  0.2004129E+04  0.7818609E-02  0.8604693E-01
       -1   -1    0    0    0  501  0.00000000000E+00  0.00000000000E+00  0.82624544823E+03  0.82624544825E+03  0.50400001928E-02 0.  1.
        1   -1    0    0  501    0  0.00000000000E+00  0.00000000000E+00 -0.12152968353E+04  0.12152968353E+04  0.50400001928E-02 0. -1.
    10030    2    1    2    0    0  0.00000000000E+00  0.00000000000E+00 -0.38905138705E+03  0.20415422835E+04  0.20041292158E+04 0.  0.
        3    1    3    3  502    0  0.56134370737E+03 -0.30213476625E+03 -0.98209592008E+03  0.11708563453E+04  0.10100000352E+00 0. -1.
       -3    1    3    3    0  502 -0.56134370737E+03  0.30213476625E+03  0.59304453303E+03  0.87068593829E+03  0.10100000352E+00 0.  1.
</event>
<event>
 5   0  0.9220260E-06  0.2000909E+04  0.7818609E-02  0.8606196E-01
       -1   -1    0    0    0  501  0.00000000000E+00  0.00000000000E+00  0.60195198976E+03  0.60195198978E+03  0.50400001928E-02 0.  1.
        1   -1    0    0  501    0  0.00000000000E+00  0.00000000000E+00 -0.16627721234E+04  0.16627721235E+04  0.50400001928E-02 0. -1.
    10030    2    1    2    0    0  0.00000000000E+00  0.00000000000E+00 -0.10608201337E+04  0.22647241132E+04  0.20009087818E+04 0.  0.
        3    1    3    3  502    0  0.44908027207E+03 -0.80620603157E+03 -0.96770149702E+03  0.13371938729E+04  0.10100000352E+00 0. -1.
       -3    1    3    3    0  502 -0.44908027207E+03  0.80620603157E+03 -0.93118636670E+02  0.92753024037E+03  0.10100000352E+00 0.  1.
</event>
<event>
 5   0  0.9370269E-06  0.2003675E+04  0.7818609E-02  0.8604904E-01
        1   -1    0    0  501    0  0.00000000000E+00  0.00000000000E+00  0.12022587672E+04  0.12022587672E+04  0.50400001928E-02 0. -1.
       -1   -1    0    0    0  501  0.00000000000E+00  0.00000000000E+00 -0.83482714988E+03  0.83482714989E+03  0.50400001928E-02 0.  1.
    10030    2    1    2    0    0  0.00000000000E+00  0.00000000000E+00  0.36743161731E+03  0.20370859171E+04  0.20036748839E+04 0.  0.
        4    1    3    3  502    0  0.13545529865E+03  0.54208857137E+03  0.10291275773E+04  0.11710308879E+04  0.12699999809E+01 0. -1.
       -4    1    3    3    0  502 -0.13545529865E+03 -0.54208857137E+03 -0.66169596002E+03  0.86605502917E+03  0.12699999809E+01 0.  1.
</event>
<event>
 5   0  0.2003576E-05  0.2002717E+04  0.7818609E-02  0.8605352E-01
        2   -1    0    0  501    0  0.00000000000E+00  0.00000000000E+00  0.58356215890E+03  0.58356215890E+03  0.25500000920E-02 0.  1.
       -2   -1    0    0    0  501  0.00000000000E+00  0.00000000000E+00 -0.17182719742E+04  0.17182719742E+04  0.25500000920E-02 0. -1.
    10030    2    1    2    0    0  0.00000000000E+00  0.00000000000E+00 -0.11347098153E+04  0.23018341331E+04  0.20027166578E+04 0.  0.
        4    1    3    3  502    0 -0.28763949183E+03  0.73782741529E+03 -0.12717432705E+04  0.14981516381E+04  0.12699999809E+01 0. -1.
       -4    1    3    3    0  502  0.28763949183E+03 -0.73782741529E+03  0.13703345513E+03  0.80368249498E+03  0.12699999809E+01 0.  1.
</event>
<event>
 5   0  0.9220260E-06  0.2002263E+04  0.7818609E-02  0.8605563E-01
        1   -1    0    0  501    0  0.00000000000E+00  0.00000000000E+00  0.20074891547E+04  0.20074891547E+04  0.50400001928E-02 0.  1.
       -1   -1    0    0    0  501  0.00000000000E+00  0.00000000000E+00 -0.49926274426E+03  0.49926274429E+03  0.50400001928E-02 0. -1.
    10030    2    1    2    0    0  0.00000000000E+00  0.00000000000E+00  0.15082264105E+04  0.25067518990E+04  0.20022632639E+04 0.  0.
        3    1    3    3  502    0 -0.47881064135E+03  0.85113107003E+03  0.47816820489E+03  0.10873493325E+04  0.10100000352E+00 0. -1.
       -3    1    3    3    0  502  0.47881064135E+03 -0.85113107003E+03  0.10300582056E+04  0.14194025665E+04  0.10100000352E+00 0.  1.
</event>
<event>
 5   0  0.2020029E-05  0.1995841E+04  0.7818609E-02  0.8608567E-01
       -2   -1    0    0    0  501  0.00000000000E+00  0.00000000000E+00  0.11153572464E+04  0.11153572465E+04  0.25500000920E-02 0. -1.
        2   -1    0    0  501    0  0.00000000000E+00  0.00000000000E+00 -0.89284907442E+03  0.89284907442E+03  0.25500000920E-02 0.  1.
    10030    2    1    2    0    0  0.00000000000E+00  0.00000000000E+00  0.22250817203E+03  0.20082063209E+04  0.19958413616E+04 0.  0.
        5    1    3    3  502    0 -0.22702597253E+03  0.12040789804E+03  0.10814814481E+04  0.11116038264E+04  0.46999998093E+01 0. -1.
       -5    1    3    3    0  502  0.22702597253E+03 -0.12040789804E+03 -0.85897327611E+03  0.89660249452E+03  0.46999998093E+01 0.  1.
</event>
<event>
 5   0  0.9220260E-06  0.2000344E+04  0.7818609E-02  0.8606460E-01
        1   -1    0    0  501    0  0.00000000000E+00  0.00000000000E+00  0.16949731379E+04  0.16949731379E+04  0.50400001928E-02 0.  1.
       -1   -1    0    0    0  501  0.00000000000E+00  0.00000000000E+00 -0.59018297393E+03  0.59018297395E+03  0.50400001928E-02 0. -1.
    10030    2    1    2    0    0  0.00000000000E+00  0.00000000000E+00  0.11047901640E+04  0.22851561119E+04  0.20003442577E+04 0.  0.
        3    1    3    3  502    0  0.51507337082E+03 -0.74444845957E+03  0.10381963108E+04  0.13774453442E+04  0.10100000352E+00 0.  1.
       -3    1    3    3    0  502 -0.51507337082E+03  0.74444845957E+03  0.66593853204E+02  0.90771076769E+03  0.10100000352E+00 0. -1.
</event>
<event>
 5   0  0.1999142E-05  0.2032443E+04  0.7818609E-02  0.8591601E-01
       -2   -1    0    0    0  501  0.00000000000E+00  0.00000000000E+00  0.55986841586E+03  0.55986841587E+03  0.25500000920E-02 0. -1.
        2   -1    0    0  501    0  0.00000000000E+00  0.00000000000E+00 -0.18445509332E+04  0.18445509332E+04  0.25500000920E-02 0.  1.
    10030    2    1    2    0    0  0.00000000000E+00  0.00000000000E+00 -0.12846825173E+04  0.24044193491E+04  0.20324426771E+04 0.  0.
        1    1    3    3  502    0 -0.92844677351E+03  0.81445521729E+02 -0.11215138531E+04  0.14582318427E+04  0.50400001928E-02 0.  1.
       -1    1    3    3    0  502  0.92844677351E+03 -0.81445521729E+02 -0.16316866423E+03  0.94618750640E+03  0.50400001928E-02 0. -1.
</event>
<event>
 5   0  0.9220260E-06  0.1997290E+04  0.7818609E-02  0.8607889E-01
        1   -1    0    0  501    0  0.00000000000E+00  0.00000000000E+00  0.50512243739E+03  0.50512243742E+03  0.50400001928E-02 0. -1.
       -1   -1    0    0    0  501  0.00000000000E+00  0.00000000000E+00 -0.19743562170E+04  0.19743562170E+04  0.50400001928E-02 0.  1.
    10030    2    1    2    0    0  0.00000000000E+00  0.00000000000E+00 -0.14692337796E+04  0.24794786544E+04  0.19972897883E+04 0.  0.
        3    1    3    3  502    0  0.57246243279E+03 -0.71100142517E+03 -0.12374391458E+04  0.15376904478E+04  0.10100000352E+00 0.  1.
       -3    1    3    3    0  502 -0.57246243279E+03  0.71100142517E+03 -0.23179463374E+03  0.94178820654E+03  0.10100000352E+00 0. -1.
</event>
<event>
 5   0  0.2020029E-05  0.2003590E+04  0.7818609E-02  0.8604944E-01
       -2   -1    0    0    0  501  0.00000000000E+00  0.00000000000E+00  0.84141501154E+03  0.84141501154E+03  0.25500000920E-02 0.  1.
        2   -1    0    0  501    0  0.00000000000E+00  0.00000000000E+00 -0.11927446687E+04  0.11927446687E+04  0.25500000920E-02 0. -1.
    10030    2    1    2    0    0  0.00000000000E+00  0.00000000000E+00 -0.35132965716E+03  0.20341596802E+04  0.20035900471E+04 0.  0.
        5    1    3    3  502    0 -0.76261249583E+01 -0.74765393273E+03 -0.85256568248E+03  0.11339906939E+04  0.46999998093E+01 0. -1.
       -5    1    3    3    0  502  0.76261249583E+01  0.74765393273E+03  0.50123602532E+03  0.90016898635E+03  0.46999998093E+01 0.  1.
</event>
<event>
 5   0  0.2038882E-05  0.2009760E+04  0.7818609E-02  0.8602071E-01
        2   -1    0    0  501    0  0.00000000000E+00  0.00000000000E+00  0.13549234064E+04  0.13549234064E+04  0.25500000920E-02 0.  1.
       -2   -1    0    0    0  501  0.00000000000E+00  0.00000000000E+00 -0.74527018141E+03  0.74527018141E+03  0.25500000920E-02 0. -1.
    10030    2    1    2    0    0  0.00000000000E+00  0.00000000000E+00  0.60965322504E+03  0.21001935879E+04  0.20097601976E+04 0.  0.
        3    1    3    3  502    0  0.59204804472E+03 -0.48472152659E+03  0.98552665501E+03  0.12476933291E+04  0.10100000352E+00 0.  1.
       -3    1    3    3    0  502 -0.59204804472E+03  0.48472152659E+03 -0.37587342997E+03  0.85250025874E+03  0.10100000352E+00 0. -1.
</event>
<event>
 5   0  0.2038882E-05  0.2005176E+04  0.7818609E-02  0.8604205E-01
       -2   -1    0    0    0  501  0.00000000000E+00  0.00000000000E+00  0.57031095218E+03  0.57031095218E+03  0.25500000920E-02 0.  1.
        2   -1    0    0  501    0  0.00000000000E+00  0.00000000000E+00 -0.17625160649E+04  0.17625160649E+04  0.25500000920E-02 0. -1.
    10030    2    1    2    0    0  0.00000000000E+00  0.00000000000E+00 -0.11922051127E+04  0.23328270171E+04  0.20051755187E+04 0.  0.
        3    1    3    3  502    0 -0.44359198501E+03 -0.18536248635E+03  0.42746002046E+03  0.64331576990E+03  0.10100000352E+00 0.  1.
       -3    1    3    3    0  502  0.44359198501E+03  0.18536248635E+03 -0.16196651332E+04  0.16895112472E+04  0.10100000352E+00 0. -1.
</event>
<event>
 5   0  0.9140695E-06  0.1998828E+04  0.7818609E-02  0.8607169E-01
       -1   -1    0    0    0  501  0.00000000000E+00  0.00000000000E+00  0.14053215493E+04  0.14053215493E+04  0.50400001928E-02 0.  1.
        1   -1    0    0  501    0  0.00000000000E+00  0.00000000000E+00 -0.71074733596E+03  0.71074733598E+03  0.50400001928E-02 0. -1.
    10030    2    1    2    0    0  0.00000000000E+00  0.00000000000E+00  0.69457421332E+03  0.21160688853E+04  0.19988282041E+04 0.  0.
        1    1    3    3  502    0 -0.38029003785E+03  0.11165715321E+03  0.13185649900E+04  0.13768447500E+04  0.50400001928E-02 0.  1.
       -1    1    3    3    0  502  0.38029003785E+03 -0.11165715321E+03 -0.62399077668E+03  0.73922413526E+03  0.50400001928E-02 0. -1.
</event>
<event>
 5   0  0.9370269E-06  0.1952448E+04  0.7818609E-02  0.8629181E-01
        1   -1    0    0  501    0  0.00000000000E+00  0.00000000000E+00  0.10171059025E+04  0.10171059025E+04  0.50400001928E-02 0. -1.
       -1   -1    0    0    0  501  0.00000000000E+00  0.00000000000E+00 -0.93698551699E+03  0.93698551701E+03  0.50400001928E-02 0.  1.
    10030    2    1    2    0    0  0.00000000000E+00  0.00000000000E+00  0.80120385497E+02  0.19540914195E+04  0.19524482066E+04 0.  0.
        4    1    3    3  502    0  0.16399812528E+03 -0.65197652800E+03  0.74849991224E+03  0.10060926944E+04  0.12699999809E+01 0. -1.
       -4    1    3    3    0  502 -0.16399812528E+03  0.65197652800E+03 -0.66837952675E+03  0.94799872512E+03  0.12699999809E+01 0.  1.
</event>
<event>
 5   0  0.9140695E-06  0.1994642E+04  0.7818609E-02  0.8609130E-01
       -1   -1    0    0    0  501  0.00000000000E+00  0.00000000000E+00  0.74140068536E+03  0.74140068538E+03  0.50400001928E-02 0. -1.
        1   -1    0    0  501    0  0.00000000000E+00  0.00000000000E+00 -0.13415815435E+04  0.13415815435E+04  0.50400001928E-02 0.  1.
    10030    2    1    2    0    0  0.00000000000E+00  0.00000000000E+00 -0.60018085816E+03  0.20829822289E+04  0.19946422996E+04 0.  0.
        1    1    3    3  502    0  0.17666336832E+03  0.78674565378E+03 -0.91300049076E+03  0.12180921827E+04  0.50400001928E-02 0.  1.
       -1    1    3    3    0  502 -0.17666336832E+03 -0.78674565378E+03  0.31281963260E+03  0.86489004619E+03  0.50400001928E-02 0. -1.
</event>
<event>
 5   0  0.9342635E-06  0.1999330E+04  0.7818609E-02  0.8606934E-01
       -1   -1    0    0    0  501  0.00000000000E+00  0.00000000000E+00  0.10289213415E+04  0.10289213415E+04  0.50400001928E-02 0. -1.
        1   -1    0    0  501    0  0.00000000000E+00  0.00000000000E+00 -0.97124006848E+03  0.97124006850E+03  0.50400001928E-02 0.  1.
    10030    2    1    2    0    0  0.00000000000E+00  0.00000000000E+00  0.57681273030E+02  0.20001614100E+04  0.19993295218E+04 0.  0.
        5    1    3    3  502    0 -0.98906024901E+03  0.14241153070E+03  0.78750017965E+00  0.99927169999E+03  0.46999998093E+01 0.  1.
       -5    1    3    3    0  502  0.98906024901E+03 -0.14241153070E+03  0.56893772850E+02  0.10008897100E+04  0.46999998093E+01 0. -1.
</event>
<event>
 5   0  0.9220260E-06  0.2001036E+04  0.7818609E-02  0.8606137E-01
       -1   -1    0    0    0  501  0.00000000000E+00  0.00000000000E+00  0.54802947654E+03  0.54802947657E+03  0.50400001928E-02 0. -1.
        1   -1    0    0  501    0  0.00000000000E+00  0.00000000000E+00 -0.18266097883E+04  0.18266097883E+04  0.50400001928E-02 0.  1.
    10030    2    1    2    0    0  0.00000000000E+00  0.00000000000E+00 -0.12785803118E+04  0.23746392649E+04  0.20010357380E+04 0.  0.
        3    1    3    3  502    0 -0.89079793499E+03  0.34634221169E+03 -0.99044680988E+03  0.13763933965E+04  0.10100000352E+00 0. -1.
       -3    1    3    3    0  502  0.89079793499E+03 -0.34634221169E+03 -0.28813350188E+03  0.99824586835E+03  0.10100000352E+00 0.  1.
</event>
<event>
 5   0  0.9370269E-06  0.2003886E+04  0.7818609E-02  0.8604806E-01
       -1   -1    0    0    0  501  0.00000000000E+00  0.00000000000E+00  0.63369589886E+03  0.63369589888E+03  0.50400001928E-02 0.  1.
        1   -1    0    0  501    0  0.00000000000E+00  0.00000000000E+00 -0.15841820359E+04  0.15841820359E+04  0.50400001928E-02 0. -1.
    10030    2    1    2    0    0  0.00000000000E+00  0.00000000000E+00 -0.95048613706E+03  0.22178779348E+04  0.20038858842E+04 0.  0.
        4    1    3    3  502    0  0.48412953066E+03 -0.75906826734E+03 -0.96188026838E+03  0.13174905315E+04  0.12699999809E+01 0. -1.
       -4    1    3    3    0  502 -0.48412953066E+03  0.75906826734E+03  0.11394131311E+02  0.90038740333E+03  0.12699999809E+01 0.  1.
</event>
<event>
 5   0  0.9333353E-06  0.1994425E+04  0.7818609E-02  0.8609231E-01
        1   -1    0    0  501    0  0.00000000000E+00  0.00000000000E+00  0.26464215235E+04  0.26464215235E+04  0.50400001928E-02 0. -1.
       -1   -1    0    0    0  501  0.00000000000E+00  0.00000000000E+00 -0.37576522178E+03  0.37576522182E+03  0.50400001928E-02 0.  1.
    10030    2    1    2    0    0  0.00000000000E+00  0.00000000000E+00  0.22706563017E+04  0.30221867453E+04  0.19944254017E+04 0.  0.
        2    1    3    3  502    0 -0.73700433491E+02 -0.93590168150E+03  0.62574558208E+03  0.11282292519E+04  0.25500000920E-02 0.  1.
       -2    1    3    3    0  502  0.73700433491E+02  0.93590168150E+03  0.16449107196E+04  0.18939574934E+04  0.25500000920E-02 0. -1.
</event>
<event>
 5   0  0.1979765E-05  0.2000274E+04  0.7818609E-02  0.8606492E-01
       -2   -1    0    0    0  501  0.00000000000E+00  0.00000000000E+00  0.41408956825E+03  0.41408956826E+03  0.25500000920E-02 0.  1.
        2   -1    0    0  501    0  0.00000000000E+00  0.00000000000E+00 -0.24155993533E+04  0.24155993533E+04  0.25500000920E-02 0. -1.
    10030    2    1    2    0    0  0.00000000000E+00  0.00000000000E+00 -0.20015097850E+04  0.28296889215E+04  0.20002744744E+04 0.  0.
        2    1    3    3  502    0 -0.55869041888E+03  0.44566581658E+03 -0.10983306289E+02  0.71475424955E+03  0.25500000920E-02 0.  1.
       -2    1    3    3    0  502  0.55869041888E+03 -0.44566581658E+03 -0.19905264787E+04  0.21149346720E+04  0.25500000920E-02 0. -1.
</event>
<event>
 5   0  0.9342635E-06  0.1999528E+04  0.7818609E-02  0.8606841E-01
        1   -1    0    0  501    0  0.00000000000E+00  0.00000000000E+00  0.15471501585E+04  0.15471501585E+04  0.50400001928E-02 0. -1.
       -1   -1    0    0    0  501  0.00000000000E+00  0.00000000000E+00 -0.64604450559E+03  0.64604450561E+03  0.50400001928E-02 0.  1.
    10030    2    1    2    0    0  0.00000000000E+00  0.00000000000E+00  0.90110565291E+03  0.21931946641E+04  0.19995278035E+04 0.  0.
        5    1    3    3  502    0 -0.28975780902E+03  0.81030334292E+03 -0.10761090093E+03  0.86726771612E+03  0.46999998093E+01 0.  1.
       -5    1    3    3    0  502  0.28975780902E+03 -0.81030334292E+03  0.10087165538E+04  0.13259269480E+04  0.46999998093E+01 0. -1.
</event>
<event>
 5   0  0.9220260E-06  0.1997318E+04  0.7818609E-02  0.8607876E-01
        1   -1    0    0  501    0  0.00000000000E+00  0.00000000000E+00  0.12978992927E+04  0.12978992927E+04  0.50400001928E-02 0.  1.
       -1   -1    0    0    0  501  0.00000000000E+00  0.00000000000E+00 -0.76841091925E+03  0.76841091927E+03  0.50400001928E-02 0. -1.
    10030    2    1    2    0    0  0.00000000000E+00  0.00000000000E+00  0.52948837340E+03  0.20663102119E+04  0.19973181906E+04 0.  0.
        3    1    3    3  502    0  0.77303188469E+03 -0.63042893440E+03  0.31437033476E+03  0.10458717195E+04  0.10100000352E+00 0.  1.
       -3    1    3    3    0  502 -0.77303188469E+03  0.63042893440E+03  0.21511803865E+03  0.10204384924E+04  0.10100000352E+00 0. -1.
</event>
<event>
 5   0  0.1979765E-05  0.2006547E+04  0.7818609E-02  0.8603566E-01
        2   -1    0    0  501    0  0.00000000000E+00  0.00000000000E+00  0.16816249136E+04  0.16816249136E+04  0.25500000920E-02 0. -1.
       -2   -1    0    0    0  501  0.00000000000E+00  0.00000000000E+00 -0.59856231888E+03  0.59856231889E+03  0.25500000920E-02 0.  1.
    10030    2    1    2    0    0  0.00000000000E+00  0.00000000000E+00  0.10830625947E+04  0.22801872325E+04  0.20065465933E+04 0.  0.
        2    1    3    3  502    0 -0.63827288683E+03  0.36316765732E+03 -0.23526509584E+03  0.77112430303E+03  0.25500000920E-02 0.  1.
       -2    1    3    3    0  502  0.63827288683E+03 -0.36316765732E+03  0.13183276906E+04  0.15090629295E+04  0.25500000920E-02 0. -1.
</event>
<event>
 5   0  0.9333353E-06  0.1999607E+04  0.7818609E-02  0.8606804E-01
        1   -1    0    0  501    0  0.00000000000E+00  0.00000000000E+00  0.12459618226E+04  0.12459618226E+04  0.50400001928E-02 0. -1.
       -1   -1    0    0    0  501  0.00000000000E+00  0.00000000000E+00 -0.80227731190E+03  0.80227731191E+03  0.50400001928E-02 0.  1.
    10030    2    1    2    0    0  0.00000000000E+00  0.00000000000E+00  0.44368451071E+03  0.20482391345E+04  0.19996068632E+04 0.  0.
        2    1    3    3  502    0 -0.98984872635E+03 -0.12974430746E+03  0.16599266237E+03  0.10120215661E+04  0.25500000920E-02 0.  1.
       -2    1    3    3    0  502  0.98984872635E+03  0.12974430746E+03  0.27769184834E+03  0.10362175684E+04  0.25500000920E-02 0. -1.
</event>
<event>
 5   0  0.9342635E-06  0.2004230E+04  0.7818609E-02  0.8604645E-01
        1   -1    0    0  501    0  0.00000000000E+00  0.00000000000E+00  0.21243367648E+04  0.21243367648E+04  0.50400001928E-02 0. -1.
       -1   -1    0    0    0  501  0.00000000000E+00  0.00000000000E+00 -0.47272857164E+03  0.47272857166E+03  0.50400001928E-02 0.  1.
    10030    2    1    2    0    0  0.00000000000E+00  0.00000000000E+00  0.16516081932E+04  0.25970653365E+04  0.20042302109E+04 0.  0.
        5    1    3    3  502    0  0.75072163994E+03 -0.15648143735E+03 -0.10100395139E+02  0.76693776076E+03  0.46999998093E+01 0.  1.
       -5    1    3    3    0  502 -0.75072163994E+03  0.15648143735E+03  0.16617085883E+04  0.18301275757E+04  0.46999998093E+01 0. -1.
</event>
<event>
 5   0  0.1999142E-05  0.2000370E+04  0.7818609E-02  0.8606448E-01
       -2   -1    0    0    0  501  0.00000000000E+00  0.00000000000E+00  0.91343027014E+03  0.91343027015E+03  0.25500000920E-02 0. -1.
        2   -1    0    0  501    0  0.00000000000E+00  0.00000000000E+00 -0.10951789225E+04  0.10951789225E+04  0.25500000920E-02 0.  1.
    10030    2    1    2    0    0  0.00000000000E+00  0.00000000000E+00 -0.18174865238E+03  0.20086091927E+04  0.20003695449E+04 0.  0.
        1    1    3    3  502    0  0.39357444915E+03 -0.85460978012E+03  0.24980309671E+03  0.97347845916E+03  0.50400001928E-02 0.  1.
       -1    1    3    3    0  502 -0.39357444915E+03  0.85460978012E+03 -0.43155174909E+03  0.10351307335E+04  0.50400001928E-02 0. -1.
</event>
<event>
 5   0  0.1979765E-05  0.1997634E+04  0.7818609E-02  0.8607728E-01
        2   -1    0    0  501    0  0.00000000000E+00  0.00000000000E+00  0.22529405607E+04  0.22529405607E+04  0.25500000920E-02 0. -1.
       -2   -1    0    0    0  501  0.00000000000E+00  0.00000000000E+00 -0.44281457386E+03  0.44281457386E+03  0.25500000920E-02 0.  1.
    10030    2    1    2    0    0  0.00000000000E+00  0.00000000000E+00  0.18101259868E+04  0.26957551345E+04  0.19976335143E+04 0.  0.
        2    1    3    3  502    0 -0.99336132034E+02 -0.99338674069E+03  0.86346873123E+03  0.13199481556E+04  0.25500000920E-02 0. -1.
       -2    1    3    3    0  502  0.99336132034E+02  0.99338674069E+03  0.94665725560E+03  0.13758069789E+04  0.25500000920E-02 0.  1.
</event>
<event>
 5   0  0.2003576E-05  0.2023702E+04  0.7818609E-02  0.8595618E-01
        2   -1    0    0  501    0  0.00000000000E+00  0.00000000000E+00  0.80632282176E+03  0.80632282176E+03  0.25500000920E-02 0. -1.
       -2   -1    0    0    0  501  0.00000000000E+00  0.00000000000E+00 -0.12697680062E+04  0.12697680062E+04  0.25500000920E-02 0.  1.
    10030    2    1    2    0    0  0.00000000000E+00  0.00000000000E+00 -0.46344518445E+03  0.20760908280E+04  0.20237024700E+04 0.  0.
        4    1    3    3  502    0 -0.18504643563E+03  0.28026116940E+02 -0.12518558753E+04  0.12657694862E+04  0.12699999809E+01 0.  1.
       -4    1    3    3    0  502  0.18504643563E+03 -0.28026116940E+02  0.78841069089E+03  0.81032134181E+03  0.12699999809E+01 0. -1.
</event>
<event>
 5   0  0.2020029E-05  0.2001739E+04  0.7818609E-02  0.8605808E-01
        2   -1    0    0  501    0  0.00000000000E+00  0.00000000000E+00  0.24504047343E+04  0.24504047343E+04  0.25500000920E-02 0. -1.
       -2   -1    0    0    0  501  0.00000000000E+00  0.00000000000E+00 -0.40880582374E+03  0.40880582375E+03  0.25500000920E-02 0.  1.
    10030    2    1    2    0    0  0.00000000000E+00  0.00000000000E+00  0.20415989106E+04  0.28592105581E+04  0.20017389699E+04 0.  0.
        5    1    3    3  502    0  0.83209134993E+03  0.41184925220E+03  0.15547128342E+04  0.18108423201E+04  0.46999998093E+01 0.  1.
       -5    1    3    3    0  502 -0.83209134993E+03 -0.41184925220E+03  0.48688607638E+03  0.10483682380E+04  0.46999998093E+01 0. -1.
</event>
<event>
 5   0  0.2003576E-05  0.1993821E+04  0.7818609E-02  0.8609515E-01
       -2   -1    0    0    0  501  0.00000000000E+00  0.00000000000E+00  0.77258092419E+03  0.77258092420E+03  0.25500000920E-02 0. -1.
        2   -1    0    0  501    0  0.00000000000E+00  0.00000000000E+00 -0.12863769597E+04  0.12863769597E+04  0.25500000920E-02 0.  1.
    10030    2    1    2    0    0  0.00000000000E+00  0.00000000000E+00 -0.51379603550E+03  0.20589578839E+04  0.19938207546E+04 0.  0.
        4    1    3    3  502    0 -0.69178407439E+03 -0.71554713263E+03 -0.31582159020E+03  0.10441828357E+04  0.12699999809E+01 0. -1.
       -4    1    3    3    0  502  0.69178407439E+03  0.71554713263E+03 -0.19797444530E+03  0.10147750482E+04  0.12699999809E+01 0.  1.
</event>
<event>
 5   0  0.1999142E-05  0.1995546E+04  0.7818609E-02  0.8608706E-01
       -2   -1    0    0    0  501  0.00000000000E+00  0.00000000000E+00  0.35020128308E+03  0.35020128309E+03  0.25500000920E-02 0.  1.
        2   -1    0    0  501    0  0.00000000000E+00  0.00000000000E+00 -0.28427969764E+04  0.28427969764E+04  0.25500000920E-02 0. -1.
    10030    2    1    2    0    0  0.00000000000E+00  0.00000000000E+00 -0.24925956933E+04  0.31929982594E+04  0.19955461896E+04 0.  0.
        1    1    3    3  502    0  0.28509611431E+03 -0.79373644137E+03 -0.20993784137E+04  0.22624515590E+04  0.50400001928E-02 0. -1.
       -1    1    3    3    0  502 -0.28509611431E+03  0.79373644137E+03 -0.39321727954E+03  0.93054670044E+03  0.50400001928E-02 0.  1.
</event>
<event>
 5   0  0.9333353E-06  0.2002225E+04  0.7818609E-02  0.8605581E-01
       -1   -1    0    0    0  501  0.00000000000E+00  0.00000000000E+00  0.75943783040E+03  0.75943783041E+03  0.50400001928E-02 0.  1.
        1   -1    0    0  501    0  0.00000000000E+00  0.00000000000E+00 -0.13196952209E+04  0.13196952209E+04  0.50400001928E-02 0. -1.
    10030    2    1    2    0    0  0.00000000000E+00  0.00000000000E+00 -0.56025739054E+03  0.20791330514E+04  0.20022252375E+04 0.  0.
        2    1    3    3  502    0 -0.92370947465E+03  0.19172048348E+03  0.67747629784E+02  0.94582539546E+03  0.25500000920E-02 0.  1.
       -2    1    3    3    0  502  0.92370947465E+03 -0.19172048348E+03 -0.62800502032E+03  0.11333076559E+04  0.25500000920E-02 0. -1.
</event>
<event>
 5   0  0.1979765E-05  0.1999054E+04  0.7818609E-02  0.8607063E-01
       -2   -1    0    0    0  501  0.00000000000E+00  0.00000000000E+00  0.13760576979E+04  0.13760576979E+04  0.25500000920E-02 0. -1.
        2   -1    0    0  501    0  0.00000000000E+00  0.00000000000E+00 -0.72602672054E+03  0.72602672054E+03  0.25500000920E-02 0.  1.
    10030    2    1    2    0    0  0.00000000000E+00  0.00000000000E+00  0.65003097739E+03  0.21020844185E+04  0.19990544342E+04 0.  0.
        2    1    3    3  502    0  0.20435566848E+03 -0.42276122060E+03 -0.60282506995E+03  0.76412456697E+03  0.25500000920E-02 0.  1.
       -2    1    3    3    0  502 -0.20435566848E+03  0.42276122060E+03  0.12528560473E+04  0.13379598515E+04  0.25500000920E-02 0. -1.
</event>
<event>
 5   0  0.2038882E-05  0.1996145E+04  0.7818609E-02  0.8608425E-01
       -2   -1    0    0    0  501  0.00000000000E+00  0.00000000000E+00  0.11709207002E+04  0.11709207002E+04  0.25500000920E-02 0.  1.
        2   -1    0    0  501    0  0.00000000000E+00  0.00000000000E+00 -0.85073967322E+03  0.85073967323E+03  0.25500000920E-02 0. -1.
    10030    2    1    2    0    0  0.00000000000E+00  0.00000000000E+00  0.32018102702E+03  0.20216603735E+04  0.19961449786E+04 0.  0.
        3    1    3    3  502    0 -0.43286361556E+03 -0.66458920473E+03 -0.45354105902E+03  0.91364611483E+03  0.10100000352E+00 0. -1.
       -3    1    3    3    0  502  0.43286361556E+03  0.66458920473E+03  0.77372208604E+03  0.11080142586E+04  0.10100000352E+00 0.  1.
</event>
<event>
 5   0  0.7132000E-06  0.1966835E+04  0.7818609E-02  0.8622285E-01
        4   -1    0    0  501    0  0.00000000000E+00  0.00000000000E+00  0.66625764650E+03  0.66625885692E+03  0.12699999809E+01 0.  1.
       -4   -1    0    0    0  501  0.00000000000E+00  0.00000000000E+00 -0.14515530668E+04  0.14515536224E+04  0.12699999809E+01 0. -1.
    10030    2    1    2    0    0  0.00000000000E+00  0.00000000000E+00 -0.78529542031E+03  0.21178124793E+04  0.19668352245E+04 0.  0.
        4    1    3    3  502    0  0.50646054809E+03 -0.49401068826E+03  0.34283616525E+03  0.78618515376E+03  0.12699999809E+01 0.  1.
       -4    1    3    3    0  502 -0.50646054809E+03  0.49401068826E+03 -0.11281315856E+04  0.13316273255E+04  0.12699999809E+01 0. -1.
</event>
<event>
 5   0  0.1999142E-05  0.2003546E+04  0.7818609E-02  0.8604965E-01
        2   -1    0    0  501    0  0.00000000000E+00  0.00000000000E+00  0.20263096895E+04  0.20263096895E+04  0.25500000920E-02 0.  1.
       -2   -1    0    0    0  501  0.00000000000E+00  0.00000000000E+00 -0.49525945217E+03  0.49525945217E+03  0.25500000920E-02 0. -1.
    10030    2    1    2    0    0  0.00000000000E+00  0.00000000000E+00  0.15310502373E+04  0.25215691417E+04  0.20035458834E+04 0.  0.
        1    1    3    3  502    0  0.21456838282E+03 -0.54904166322E+03 -0.25387400944E+03  0.64182423728E+03  0.50400001928E-02 0. -1.
       -1    1    3    3    0  502 -0.21456838282E+03  0.54904166322E+03  0.17849242468E+04  0.18797449044E+04  0.50400001928E-02 0.  1.
</event>
<event>
 5   0  0.9140695E-06  0.2000345E+04  0.7818609E-02  0.8606459E-01
        1   -1    0    0  501    0  0.00000000000E+00  0.00000000000E+00  0.12239498431E+04  0.12239498431E+04  0.50400001928E-02 0. -1.
       -1   -1    0    0    0  501  0.00000000000E+00  0.00000000000E+00 -0.81730865886E+03  0.81730865888E+03  0.50400001928E-02 0.  1.
    10030    2    1    2    0    0  0.00000000000E+00  0.00000000000E+00  0.40664118427E+03  0.20412585020E+04  0.20003447751E+04 0.  0.
        1    1    3    3  502    0  0.23230855837E+03  0.14068883180E+03  0.11856012526E+04  0.12163103814E+04  0.50400001928E-02 0. -1.
       -1    1    3    3    0  502 -0.23230855837E+03 -0.14068883180E+03 -0.77896006832E+03  0.82494812064E+03  0.50400001928E-02 0.  1.
</event>
<event>
 5   0  0.1979765E-05  0.1998878E+04  0.7818609E-02  0.8607145E-01
       -2   -1    0    0    0  501  0.00000000000E+00  0.00000000000E+00  0.81375664463E+03  0.81375664463E+03  0.25500000920E-02 0.  1.
        2   -1    0    0  501    0  0.00000000000E+00  0.00000000000E+00 -0.12274901460E+04  0.12274901460E+04  0.25500000920E-02 0. -1.
    10030    2    1    2    0    0  0.00000000000E+00  0.00000000000E+00 -0.41373350142E+03  0.20412467907E+04  0.19988779478E+04 0.  0.
        2    1    3    3  502    0  0.77525555509E+03 -0.51151200515E+03 -0.58375952256E+03  0.10970145338E+04  0.25500000920E-02 0. -1.
       -2    1    3    3    0  502 -0.77525555509E+03  0.51151200515E+03  0.17002602114E+03  0.94423225691E+03  0.25500000920E-02 0.  1.
</event>
<event>
 5   0  0.9220260E-06  0.2000917E+04  0.7818609E-02  0.8606192E-01
        1   -1    0    0  501    0  0.00000000000E+00  0.00000000000E+00  0.27720505342E+04  0.27720505342E+04  0.50400001928E-02 0. -1.
       -1   -1    0    0    0  501  0.00000000000E+00  0.00000000000E+00 -0.36107454322E+03  0.36107454326E+03  0.50400001928E-02 0.  1.
    10030    2    1    2    0    0  0.00000000000E+00  0.00000000000E+00  0.24109759909E+04  0.31331250774E+04  0.20009166704E+04 0.  0.
        3    1    3    3  502    0 -0.50542229425E+03  0.35308009324E+02 -0.14533662193E+03  0.52708736934E+03  0.10100000352E+00 0.  1.
       -3    1    3    3    0  502  0.50542229425E+03 -0.35308009324E+02  0.25563126129E+04  0.26060377081E+04  0.10100000352E+00 0. -1.
</event>
<event>
 5   0  0.2020029E-05  0.2000829E+04  0.7818609E-02  0.8606233E-01
        2   -1    0    0  501    0  0.00000000000E+00  0.00000000000E+00  0.21764830724E+04  0.21764830724E+04  0.25500000920E-02 0.  1.
       -2   -1    0    0    0  501  0.00000000000E+00  0.00000000000E+00 -0.45983785773E+03  0.45983785773E+03  0.25500000920E-02 0. -1.
    10030    2    1    2    0    0  0.00000000000E+00  0.00000000000E+00  0.17166452146E+04  0.26363209301E+04  0.20008291415E+04 0.  0.
        5    1    3    3  502    0 -0.25653647838E+03  0.41710225937E+03 -0.29111888194E+03  0.56969952863E+03  0.46999998093E+01 0. -1.
       -5    1    3    3    0  502  0.25653647838E+03 -0.41710225937E+03  0.20077640966E+04  0.20666214015E+04  0.46999998093E+01 0.  1.
</event>
<event>
 5   0  0.9370269E-06  0.2017601E+04  0.7818609E-02  0.8598435E-01
        1   -1    0    0  501    0  0.00000000000E+00  0.00000000000E+00  0.11809459516E+04  0.11809459516E+04  0.50400001928E-02 0. -1.
       -1   -1    0    0    0  501  0.00000000000E+00  0.00000000000E+00 -0.86174881380E+03  0.86174881381E+03  0.50400001928E-02 0.  1.
    10030    2    1    2    0    0  0.00000000000E+00  0.00000000000E+00  0.31919713777E+03  0.20426947654E+04  0.20176013213E+04 0.  0.
        4    1    3    3  502    0  0.48375104845E+03  0.48275551712E+03 -0.59166071462E+03  0.90395352773E+03  0.12699999809E+01 0.  1.
       -4    1    3    3    0  502 -0.48375104845E+03 -0.48275551712E+03  0.91085785239E+03  0.11387412377E+04  0.12699999809E+01 0. -1.
</event>
<event>
 5   0  0.2003576E-05  0.1995383E+04  0.7818609E-02  0.8608783E-01
        2   -1    0    0  501    0  0.00000000000E+00  0.00000000000E+00  0.22331638444E+04  0.22331638444E+04  0.25500000920E-02 0.  1.
       -2   -1    0    0    0  501  0.00000000000E+00  0.00000000000E+00 -0.44572989198E+03  0.44572989199E+03  0.25500000920E-02 0. -1.
    10030    2    1    2    0    0  0.00000000000E+00  0.00000000000E+00  0.17874339524E+04  0.26788937364E+04  0.19953825489E+04 0.  0.
        4    1    3    3  502    0 -0.92669323983E+03 -0.22045327958E+02  0.39835570960E+03  0.10089277682E+04  0.12699999809E+01 0. -1.
       -4    1    3    3    0  502  0.92669323983E+03  0.22045327958E+02  0.13890782428E+04  0.16699659681E+04  0.12699999809E+01 0.  1.
</event>
<event>
 5   0  0.9140695E-06  0.2001145E+04  0.7818609E-02  0.8606085E-01
       -1   -1    0    0    0  501  0.00000000000E+00  0.00000000000E+00  0.58142170277E+03  0.58142170279E+03  0.50400001928E-02 0. -1.
        1   -1    0    0  501    0  0.00000000000E+00  0.00000000000E+00 -0.17218923058E+04  0.17218923058E+04  0.50400001928E-02 0.  1.
    10030    2    1    2    0    0  0.00000000000E+00  0.00000000000E+00 -0.11404706030E+04  0.23033140086E+04  0.20011452285E+04 0.  0.
        1    1    3    3  502    0 -0.78095963992E+03 -0.35749451214E+03  0.20536482674E+02  0.85914028688E+03  0.50400001928E-02 0. -1.
       -1    1    3    3    0  502  0.78095963992E+03  0.35749451214E+03 -0.11610070857E+04  0.14441737217E+04  0.50400001928E-02 0.  1.
</event>
<event>
 5   0  0.1999142E-05  0.1985545E+04  0.7818609E-02  0.8613409E-01
        2   -1    0    0  501    0  0.00000000000E+00  0.00000000000E+00  0.13132726491E+04  0.13132726491E+04  0.25500000920E-02 0.  1.
       -2   -1    0    0    0  501  0.00000000000E+00  0.00000000000E+00 -0.75048976606E+03  0.75048976607E+03  0.25500000920E-02 0. -1.
    10030    2    1    2    0    0  0.00000000000E+00  0.00000000000E+00  0.56278288300E+03  0.20637624151E+04  0.19855454497E+04 0.  0.
        1    1    3    3  502    0 -0.58828808541E+03  0.69532442164E+03 -0.12918697179E+03  0.91991749438E+03  0.50400001928E-02 0. -1.
       -1    1    3    3    0  502  0.58828808541E+03 -0.69532442164E+03  0.69196985480E+03  0.11438449208E+04  0.50400001928E-02 0.  1.
</event>
<event>
 5   0  0.9370269E-06  0.2002513E+04  0.7818609E-02  0.8605447E-01
        1   -1    0    0  501    0  0.00000000000E+00  0.00000000000E+00  0.15754837172E+04  0.15754837172E+04  0.50400001928E-02 0.  1.
       -1   -1    0    0    0  501  0.00000000000E+00  0.00000000000E+00 -0.63632159456E+03  0.63632159458E+03  0.50400001928E-02 0. -1.
    10030    2    1    2    0    0  0.00000000000E+00  0.00000000000E+00  0.93916212259E+03  0.22118053117E+04  0.20025127327E+04 0.  0.
        4    1    3    3  502    0 -0.57589765848E+03 -0.22279769162E+03 -0.40096719086E+03  0.73625622271E+03  0.12699999809E+01 0. -1.
       -4    1    3    3    0  502  0.57589765848E+03  0.22279769162E+03  0.13401293135E+04  0.14755490890E+04  0.12699999809E+01 0.  1.
</event>
<event>
 5   0  0.7132000E-06  0.1999159E+04  0.7818609E-02  0.8607014E-01
       -3   -1    0    0    0  501  0.00000000000E+00  0.00000000000E+00  0.14270352832E+04  0.14270352868E+04  0.10100000352E+00 0. -1.
        3   -1    0    0  501    0  0.00000000000E+00  0.00000000000E+00 -0.70016406786E+03  0.70016407514E+03  0.10100000352E+00 0.  1.
    10030    2    1    2    0    0  0.00000000000E+00  0.00000000000E+00  0.72687121536E+03  0.21271993619E+04  0.19991586635E+04 0.  0.
        5    1    3    3  502    0 -0.56220848387E+03  0.40720673553E+03 -0.40182158675E+03  0.80210870982E+03  0.46999998093E+01 0.  1.
       -5    1    3    3    0  502  0.56220848387E+03 -0.40720673553E+03  0.11286928021E+04  0.13250906521E+04  0.46999998093E+01 0. -1.
</event>
<event>
 5   0  0.2038882E-05  0.2005271E+04  0.7818609E-02  0.8604160E-01
        2   -1    0    0  501    0  0.00000000000E+00  0.00000000000E+00  0.20292191072E+04  0.20292191072E+04  0.25500000920E-02 0. -1.
       -2   -1    0    0    0  501  0.00000000000E+00  0.00000000000E+00 -0.49540159598E+03  0.49540159598E+03  0.25500000920E-02 0.  1.
    10030    2    1    2    0    0  0.00000000000E+00  0.00000000000E+00  0.15338175112E+04  0.25246207032E+04  0.20052714373E+04 0.  0.
        3    1    3    3  502    0 -0.35061477819E+02  0.63936853026E+03  0.17382575571E+04  0.18524472380E+04  0.10100000352E+00 0. -1.
       -3    1    3    3    0  502  0.35061477819E+02 -0.63936853026E+03 -0.20444004586E+03  0.67217346516E+03  0.10100000352E+00 0.  1.
</event>
<event>
 5   0  0.9220260E-06  0.2001456E+04  0.7818609E-02  0.8605940E-01
       -1   -1    0    0    0  501  0.00000000000E+00  0.00000000000E+00  0.44126793657E+03  0.44126793660E+03  0.50400001928E-02 0. -1.
        1   -1    0    0  501    0  0.00000000000E+00  0.00000000000E+00 -0.22694982185E+04  0.22694982185E+04  0.50400001928E-02 0.  1.
    10030    2    1    2    0    0  0.00000000000E+00  0.00000000000E+00 -0.18282302819E+04  0.27107661551E+04  0.20014562658E+04 0.  0.
        3    1    3    3  502    0  0.40165418248E+02 -0.34603792068E+03 -0.21847251640E+04  0.22123244689E+04  0.10100000352E+00 0.  1.
       -3    1    3    3    0  502 -0.40165418248E+02  0.34603792068E+03  0.35649488208E+03  0.49844168618E+03  0.10100000352E+00 0. -1.
</event>
<event>
 5   0  0.1999142E-05  0.1994870E+04  0.7818609E-02  0.8609023E-01
        2   -1    0    0  501    0  0.00000000000E+00  0.00000000000E+00  0.88561515891E+03  0.88561515892E+03  0.25500000920E-02 0. -1.
       -2   -1    0    0    0  501  0.00000000000E+00  0.00000000000E+00 -0.11233734056E+04  0.11233734056E+04  0.25500000920E-02 0.  1.
    10030    2    1    2    0    0  0.00000000000E+00  0.00000000000E+00 -0.23775824665E+03  0.20089885645E+04  0.19948699377E+04 0.  0.
        1    1    3    3  502    0  0.59400031114E+03 -0.79709095375E+03 -0.36531470485E+02  0.99474866502E+03  0.50400001928E-02 0. -1.
       -1    1    3    3    0  502 -0.59400031114E+03  0.79709095375E+03 -0.20122677616E+03  0.10142398995E+04  0.50400001928E-02 0.  1.
</event>
<event>
 5   0  0.9370269E-06  0.2002322E+04  0.7818609E-02  0.8605536E-01
       -1   -1    0    0    0  501  0.00000000000E+00  0.00000000000E+00  0.14435275904E+04  0.14435275904E+04  0.50400001928E-02 0.  1.
        1   -1    0    0  501    0  0.00000000000E+00  0.00000000000E+00 -0.69435712810E+03  0.69435712812E+03  0.50400001928E-02 0. -1.
    10030    2    1    2    0    0  0.00000000000E+00  0.00000000000E+00  0.74917046227E+03  0.21378847185E+04  0.20023223237E+04 0.  0.
        4    1    3    3  502    0  0.26191721575E+03  0.82736786049E+03  0.90756441014E+03  0.12557121390E+04  0.12699999809E+01 0.  1.
       -4    1    3    3    0  502 -0.26191721575E+03 -0.82736786049E+03 -0.15839394787E+03  0.88217257954E+03  0.12699999809E+01 0. -1.
</event>
<event>
 5   0  0.2038882E-05  0.2007579E+04  0.7818609E-02  0.8603085E-01
        2   -1    0    0  501    0  0.00000000000E+00  0.00000000000E+00  0.96384546525E+03  0.96384546526E+03  0.25500000920E-02 0. -1.
       -2   -1    0    0    0  501  0.00000000000E+00  0.00000000000E+00 -0.10453892572E+04  0.10453892572E+04  0.25500000920E-02 0.  1.
    10030    2    1    2    0    0  0.00000000000E+00  0.00000000000E+00 -0.81543791974E+02  0.20092347225E+04  0.20075793334E+04 0.  0.
        3    1    3    3  502    0  0.47355710604E+03 -0.75690980642E+03  0.41832728733E+03  0.98598504921E+03  0.10100000352E+00 0. -1.
       -3    1    3    3    0  502 -0.47355710604E+03  0.75690980642E+03 -0.49987107931E+03  0.10232496733E+04  0.10100000352E+00 0.  1.
</event>
<event>
 5   0  0.9370269E-06  0.1998485E+04  0.7818609E-02  0.8607329E-01
       -1   -1    0    0    0  501  0.00000000000E+00  0.00000000000E+00  0.64261942085E+03  0.64261942087E+03  0.50400001928E-02 0. -1.
        1   -1    0    0  501    0  0.00000000000E+00  0.00000000000E+00 -0.15537745692E+04  0.15537745692E+04  0.50400001928E-02 0.  1.
    10030    2    1    2    0    0  0.00000000000E+00  0.00000000000E+00 -0.91115514835E+03  0.21963939901E+04  0.19984851401E+04 0.  0.
        4    1    3    3  502    0 -0.70469552025E+02 -0.68268754582E+03 -0.12537604079E+04  0.14293162758E+04  0.12699999809E+01 0.  1.
       -4    1    3    3    0  502  0.70469552025E+02  0.68268754582E+03  0.34260525954E+03  0.76707771428E+03  0.12699999809E+01 0. -1.
</event>
<event>
 5   0  0.9342635E-06  0.1999505E+04  0.7818609E-02  0.8606852E-01
        1   -1    0    0  501    0  0.00000000000E+00  0.00000000000E+00  0.10202937841E+04  0.10202937841E+04  0.50400001928E-02 0. -1.
       -1   -1    0    0    0  501  0.00000000000E+00  0.00000000000E+00 -0.97962460873E+03  0.97962460875E+03  0.50400001928E-02 0.  1.
    10030    2    1    2    0    0  0.00000000000E+00  0.00000000000E+00  0.40669175340E+02  0.19999183928E+04  0.19995048377E+04 0.  0.
        5    1    3    3  502    0  0.37270674289E+03 -0.56163629763E+03  0.75882134140E+03  0.10149766328E+04  0.46999998093E+01 0.  1.
       -5    1    3    3    0  502 -0.37270674289E+03  0.56163629763E+03 -0.71815216606E+03  0.98494176001E+03  0.46999998093E+01 0. -1.
</event>
<event>
 5   0  0.9370269E-06  0.1997484E+04  0.7818609E-02  0.8607798E-01
       -1   -1    0    0    0  501  0.00000000000E+00  0.00000000000E+00  0.73965057862E+03  0.73965057864E+03  0.50400001928E-02 0.  1.
        1   -1    0    0  501    0  0.00000000000E+00  0.00000000000E+00 -0.13485898447E+04  0.13485898447E+04  0.50400001928E-02 0. -1.
    10030    2    1    2    0    0  0.00000000000E+00  0.00000000000E+00 -0.60893926608E+03  0.20882404233E+04  0.19974836760E+04 0.  0.
        4    1    3    3  502    0  0.16186188249E+03 -0.25696031494E+03  0.69020928041E+03  0.75406785910E+03  0.12699999809E+01 0.  1.
       -4    1    3    3    0  502 -0.16186188249E+03  0.25696031494E+03 -0.12991485465E+04  0.13341725643E+04  0.12699999809E+01 0. -1.
</event>
<event>
 5   0  0.9220260E-06  0.2000517E+04  0.7818609E-02  0.8606379E-01
       -1   -1    0    0    0  501  0.00000000000E+00  0.00000000000E+00  0.84672768809E+03  0.84672768811E+03  0.50400001928E-02 0. -1.
        1   -1    0    0  501    0  0.00000000000E+00  0.00000000000E+00 -0.11816278647E+04  0.11816278647E+04  0.50400001928E-02 0.  1.
    10030    2    1    2    0    0  0.00000000000E+00  0.00000000000E+00 -0.33490017660E+03  0.20283555528E+04  0.20005169633E+04 0.  0.
        3    1    3    3  502    0 -0.48479343061E+03 -0.19584499994E+03  0.69713948663E+03  0.87142607741E+03  0.10100000352E+00 0. -1.
       -3    1    3    3    0  502  0.48479343061E+03  0.19584499994E+03 -0.10320396632E+04  0.11569294754E+04  0.10100000352E+00 0.  1.
</event>
<event>
 5   0  0.1979765E-05  0.2011960E+04  0.7818609E-02  0.8601049E-01
       -2   -1    0    0    0  501  0.00000000000E+00  0.00000000000E+00  0.91697915523E+03  0.91697915524E+03  0.25500000920E-02 0. -1.
        2   -1    0    0  501    0  0.00000000000E+00  0.00000000000E+00 -0.11036189278E+04  0.11036189278E+04  0.25500000920E-02 0.  1.
    10030    2    1    2    0    0  0.00000000000E+00  0.00000000000E+00 -0.18663977259E+03  0.20205980831E+04  0.20119597930E+04 0.  0.
        2    1    3    3  502    0 -0.82650267498E+03 -0.16573684904E+03 -0.64469454195E+03  0.10612287347E+04  0.25500000920E-02 0. -1.
       -2    1    3    3    0  502  0.82650267498E+03  0.16573684904E+03  0.45805476936E+03  0.95936934838E+03  0.25500000920E-02 0.  1.
</event>
<event>
 5   0  0.2003576E-05  0.2004393E+04  0.7818609E-02  0.8604570E-01
        2   -1    0    0  501    0  0.00000000000E+00  0.00000000000E+00  0.19725748906E+04  0.19725748906E+04  0.25500000920E-02 0.  1.
       -2   -1    0    0    0  501  0.00000000000E+00  0.00000000000E+00 -0.50918083978E+03  0.50918083978E+03  0.25500000920E-02 0. -1.
    10030    2    1    2    0    0  0.00000000000E+00  0.00000000000E+00  0.14633940508E+04  0.24817557304E+04  0.20043925158E+04 0.  0.
        4    1    3    3  502    0 -0.54046300662E+03 -0.63651008346E+03  0.45495327469E+02  0.83625162816E+03  0.12699999809E+01 0. -1.
       -4    1    3    3    0  502  0.54046300662E+03  0.63651008346E+03  0.14178987234E+04  0.16455041022E+04  0.12699999809E+01 0.  1.
</event>
<event>
 5   0  0.2020029E-05  0.1997746E+04  0.7818609E-02  0.8607675E-01
       -2   -1    0    0    0  501  0.00000000000E+00  0.00000000000E+00  0.86328194444E+03  0.86328194444E+03  0.25500000920E-02 0.  1.
        2   -1    0    0  501    0  0.00000000000E+00  0.00000000000E+00 -0.11557605809E+04  0.11557605809E+04  0.25500000920E-02 0. -1.
    10030    2    1    2    0    0  0.00000000000E+00  0.00000000000E+00 -0.29247863647E+03  0.20190425253E+04  0.19977459714E+04 0.  0.
        5    1    3    3  502    0 -0.49884205467E+02 -0.74640792135E+03 -0.81519561130E+03  0.11064263164E+04  0.46999998093E+01 0. -1.
       -5    1    3    3    0  502  0.49884205467E+02  0.74640792135E+03  0.52271697483E+03  0.91261620892E+03  0.46999998093E+01 0.  1.
</event>
<event>
 5   0  0.2020029E-05  0.1998053E+04  0.7818609E-02  0.8607532E-01
        2   -1    0    0  501    0  0.00000000000E+00  0.00000000000E+00  0.21326524651E+04  0.21326524651E+04  0.25500000920E-02 0. -1.
       -2   -1    0    0    0  501  0.00000000000E+00  0.00000000000E+00 -0.46798697022E+03  0.46798697023E+03  0.25500000920E-02 0.  1.
    10030    2    1    2    0    0  0.00000000000E+00  0.00000000000E+00  0.16646654949E+04  0.26006394353E+04  0.19980526176E+04 0.  0.
        5    1    3    3  502    0 -0.44098031984E+03  0.61263373937E+02 -0.33170722871E+03  0.55521943324E+03  0.46999998093E+01 0.  1.
       -5    1    3    3    0  502  0.44098031984E+03 -0.61263373937E+02  0.19963727236E+04  0.20454200021E+04  0.46999998093E+01 0. -1.
</event>
<event>
 5   0  0.9370269E-06  0.2002242E+04  0.7818609E-02  0.8605573E-01
       -1   -1    0    0    0  501  0.00000000000E+00  0.00000000000E+00  0.81798254352E+03  0.81798254354E+03  0.50400001928E-02 0.  1.
        1   -1    0    0  501    0  0.00000000000E+00  0.00000000000E+00 -0.12252624591E+04  0.12252624591E+04  0.50400001928E-02 0. -1.
    10030    2    1    2    0    0  0.00000000000E+00  0.00000000000E+00 -0.40727991559E+03  0.20432450027E+04  0.20022420461E+04 0.  0.
        4    1    3    3  502    0  0.66372276356E+03 -0.72014865113E+03 -0.41549607509E+03  0.10638517697E+04  0.12699999809E+01 0. -1.
       -4    1    3    3    0  502 -0.66372276356E+03  0.72014865113E+03  0.82161595017E+01  0.97939323296E+03  0.12699999809E+01 0.  1.
</event>
<event>
 5   0  0.9140695E-06  0.2002896E+04  0.7818609E-02  0.8605268E-01
       -1   -1    0    0    0  501  0.00000000000E+00  0.00000000000E+00  0.95159920982E+03  0.95159920983E+03  0.50400001928E-02 0. -1.
        1   -1    0    0  501    0  0.00000000000E+00  0.00000000000E+00 -0.10539077117E+04  0.10539077117E+04  0.50400001928E-02 0.  1.
    10030    2    1    2    0    0  0.00000000000E+00  0.00000000000E+00 -0.10230850183E+03  0.20055069215E+04  0.20028956495E+04 0.  0.
        1    1    3    3  502    0  0.74086104830E+03  0.44774752227E+03  0.45303456024E+03  0.97703288040E+03  0.50400001928E-02 0. -1.
       -1    1    3    3    0  502 -0.74086104830E+03 -0.44774752227E+03 -0.55534306207E+03  0.10284740411E+04  0.50400001928E-02 0.  1.
</event>
<event>
 5   0  0.2038882E-05  0.2001347E+04  0.7818609E-02  0.8605991E-01
        2   -1    0    0  501    0  0.00000000000E+00  0.00000000000E+00  0.16785513471E+04  0.16785513471E+04  0.25500000920E-02 0. -1.
       -2   -1    0    0    0  501  0.00000000000E+00  0.00000000000E+00 -0.59655427312E+03  0.59655427313E+03  0.25500000920E-02 0.  1.
    10030    2    1    2    0    0  0.00000000000E+00  0.00000000000E+00  0.10819970739E+04  0.22751056202E+04  0.20013465255E+04 0.  0.
        3    1    3    3  502    0  0.45651931423E+03 -0.79503769137E+03  0.85074266707E+02  0.92072387610E+03  0.10100000352E+00 0.  1.
       -3    1    3    3    0  502 -0.45651931423E+03  0.79503769137E+03  0.99692280723E+03  0.13543817441E+04  0.10100000352E+00 0. -1.
</event>
<event>
 5   0  0.1999142E-05  0.1998212E+04  0.7818609E-02  0.8607457E-01
        2   -1    0    0  501    0  0.00000000000E+00  0.00000000000E+00  0.12551466832E+04  0.12551466832E+04  0.25500000920E-02 0. -1.
       -2   -1    0    0    0  501  0.00000000000E+00  0.00000000000E+00 -0.79529608221E+03  0.79529608221E+03  0.25500000920E-02 0.  1.
    10030    2    1    2    0    0  0.00000000000E+00  0.00000000000E+00  0.45985060095E+03  0.20504427654E+04  0.19982124409E+04 0.  0.
        1    1    3    3  502    0 -0.23155371938E+03  0.11629611632E+02 -0.76731076507E+03  0.80157231929E+03  0.50400001928E-02 0.  1.
       -1    1    3    3    0  502  0.23155371938E+03 -0.11629611632E+02  0.12271613660E+04  0.12488704461E+04  0.50400001928E-02 0. -1.
</event>
<event>
 5   0  0.7132000E-06  0.2008205E+04  0.7818609E-02  0.8602794E-01
        3   -1    0    0  501    0  0.00000000000E+00  0.00000000000E+00  0.13718071856E+04  0.13718071894E+04  0.10100000352E+00 0. -1.
       -3   -1    0    0    0  501  0.00000000000E+00  0.00000000000E+00 -0.73495863469E+03  0.73495864163E+03  0.10100000352E+00 0.  1.
    10030    2    1    2    0    0  0.00000000000E+00  0.00000000000E+00  0.63684855095E+03  0.21067658310E+04  0.20082047181E+04 0.  0.
        3    1    3    3  502    0 -0.67845820905E+03  0.49054494790E+03 -0.26311171258E+03  0.87759197287E+03  0.10100000352E+00 0.  1.
       -3    1    3    3    0  502  0.67845820905E+03 -0.49054494790E+03  0.89996026353E+03  0.12291738581E+04  0.10100000352E+00 0. -1.
</event>
<event>
 5   0  0.2020029E-05  0.1997912E+04  0.7818609E-02  0.8607598E-01
        2   -1    0    0  501    0  0.00000000000E+00  0.00000000000E+00  0.14729247754E+04  0.14729247754E+04  0.25500000920E-02 0.  1.
       -2   -1    0    0    0  501  0.00000000000E+00  0.00000000000E+00 -0.67750435809E+03  0.67750435810E+03  0.25500000920E-02 0. -1.
    10030    2    1    2    0    0  0.00000000000E+00  0.00000000000E+00  0.79542041728E+03  0.21504291335E+04  0.19979118644E+04 0.  0.
        5    1    3    3  502    0  0.74374385763E+02  0.56452751267E+03 -0.48571903072E+03  0.74844367098E+03  0.46999998093E+01 0. -1.
       -5    1    3    3    0  502 -0.74374385763E+02 -0.56452751267E+03  0.12811394480E+04  0.14019854625E+04  0.46999998093E+01 0.  1.
</event>
<event>
 5   0  0.9220260E-06  0.1996849E+04  0.7818609E-02  0.8608095E-01
       -1   -1    0    0    0  501  0.00000000000E+00  0.00000000000E+00  0.69651831663E+03  0.69651831665E+03  0.50400001928E-02 0.  1.
        1   -1    0    0  501    0  0.00000000000E+00  0.00000000000E+00 -0.14311914267E+04  0.14311914267E+04  0.50400001928E-02 0. -1.
    10030    2    1    2    0    0  0.00000000000E+00  0.00000000000E+00 -0.73467311006E+03  0.21277097434E+04  0.19968485604E+04 0.  0.
        3    1    3    3  502    0 -0.47009865158E+03  0.26691256929E+03 -0.12617606584E+04  0.13726889783E+04  0.10100000352E+00 0. -1.
       -3    1    3    3    0  502  0.47009865158E+03 -0.26691256929E+03  0.52708754833E+03  0.75502076506E+03  0.10100000352E+00 0.  1.
</event>
<event>
 5   0  0.1979765E-05  0.1997665E+04  0.7818609E-02  0.8607713E-01
        2   -1    0    0  501    0  0.00000000000E+00  0.00000000000E+00  0.72155112726E+03  0.72155112727E+03  0.25500000920E-02 0.  1.
       -2   -1    0    0    0  501  0.00000000000E+00  0.00000000000E+00 -0.13826687160E+04  0.13826687160E+04  0.25500000920E-02 0. -1.
    10030    2    1    2    0    0  0.00000000000E+00  0.00000000000E+00 -0.66111758875E+03  0.21042198433E+04  0.19976648074E+04 0.  0.
        2    1    3    3  502    0 -0.41043789033E+03 -0.12440601228E+03  0.61962730116E+03  0.75357422332E+03  0.25500000920E-02 0.  1.
       -2    1    3    3    0  502  0.41043789033E+03  0.12440601228E+03 -0.12807448899E+04  0.13506456200E+04  0.25500000920E-02 0. -1.
</event>
<event>
 5   0  0.9140695E-06  0.1998763E+04  0.7818609E-02  0.8607199E-01
       -1   -1    0    0    0  501  0.00000000000E+00  0.00000000000E+00  0.75493818981E+03  0.75493818983E+03  0.50400001928E-02 0. -1.
        1   -1    0    0  501    0  0.00000000000E+00  0.00000000000E+00 -0.13229730817E+04  0.13229730817E+04  0.50400001928E-02 0.  1.
    10030    2    1    2    0    0  0.00000000000E+00  0.00000000000E+00 -0.56803489187E+03  0.20779112715E+04  0.19987625206E+04 0.  0.
        1    1    3    3  502    0  0.71462767032E+03  0.14778702150E+03  0.42583083207E+03  0.84490568022E+03  0.50400001928E-02 0. -1.
       -1    1    3    3    0  502 -0.71462767032E+03 -0.14778702150E+03 -0.99386572393E+03  0.12330055913E+04  0.50400001928E-02 0.  1.
</event>
<event>
 5   0  0.2038882E-05  0.2002873E+04  0.7818609E-02  0.8605279E-01
        2   -1    0    0  501    0  0.00000000000E+00  0.00000000000E+00  0.11253178604E+04  0.11253178604E+04  0.25500000920E-02 0. -1.
       -2   -1    0    0    0  501  0.00000000000E+00  0.00000000000E+00 -0.89119256810E+03  0.89119256810E+03  0.25500000920E-02 0.  1.
    10030    2    1    2    0    0  0.00000000000E+00  0.00000000000E+00  0.23412529228E+03  0.20165104285E+04  0.20028728506E+04 0.  0.
        3    1    3    3  502    0 -0.62230386132E+02 -0.22109658650E+03  0.10984399247E+04  0.11221972197E+04  0.10100000352E+00 0. -1.
       -3    1    3    3    0  502  0.62230386132E+02  0.22109658650E+03 -0.86431463239E+03  0.89431320882E+03  0.10100000352E+00 0.  1.
</event>
<event>
 5   0  0.1979765E-05  0.1998209E+04  0.7818609E-02  0.8607458E-01
        2   -1    0    0  501    0  0.00000000000E+00  0.00000000000E+00  0.11663583788E+04  0.11663583788E+04  0.25500000920E-02 0.  1.
       -2   -1    0    0    0  501  0.00000000000E+00  0.00000000000E+00 -0.85583459095E+03  0.85583459096E+03  0.25500000920E-02 0. -1.
    10030    2    1    2    0    0  0.00000000000E+00  0.00000000000E+00  0.31052378789E+03  0.20221929698E+04  0.19982090442E+04 0.  0.
        2    1    3    3  502    0  0.38377250730E+03 -0.23258226126E+03 -0.74810798202E+03  0.87237686717E+03  0.25500000920E-02 0. -1.
       -2    1    3    3    0  502 -0.38377250730E+03  0.23258226126E+03  0.10586317699E+04  0.11498161026E+04  0.25500000920E-02 0.  1.
</event>
<event>
 5   0  0.9140695E-06  0.1988283E+04  0.7818609E-02  0.8612118E-01
       -1   -1    0    0    0  501  0.00000000000E+00  0.00000000000E+00  0.45755132239E+03  0.45755132242E+03  0.50400001928E-02 0. -1.
        1   -1    0    0  501    0  0.00000000000E+00  0.00000000000E+00 -0.21600143069E+04  0.21600143069E+04  0.50400001928E-02 0.  1.
    10030    2    1    2    0    0  0.00000000000E+00  0.00000000000E+00 -0.17024629845E+04  0.26175656294E+04  0.19882830810E+04 0.  0.
        1    1    3    3  502    0  0.16609740033E+03  0.70736806580E+03 -0.17444709635E+04  0.18897451864E+04  0.50400001928E-02 0.  1.
       -1    1    3    3    0  502 -0.16609740033E+03 -0.70736806580E+03  0.42007978942E+02  0.72782044299E+03  0.50400001928E-02 0. -1.
</event>
<event>
 5   0  0.2020029E-05  0.2000246E+04  0.7818609E-02  0.8606506E-01
       -2   -1    0    0    0  501  0.00000000000E+00  0.00000000000E+00  0.57343608334E+03  0.57343608334E+03  0.25500000920E-02 0. -1.
        2   -1    0    0  501    0  0.00000000000E+00  0.00000000000E+00 -0.17443029264E+04  0.17443029264E+04  0.25500000920E-02 0.  1.
    10030    2    1    2    0    0  0.00000000000E+00  0.00000000000E+00 -0.11708668430E+04  0.23177390097E+04  0.20002462231E+04 0.  0.
        5    1    3    3  502    0  0.73348239265E+03  0.67601979508E+03 -0.50167610645E+03  0.11165572934E+04  0.46999998093E+01 0. -1.
       -5    1    3    3    0  502 -0.73348239265E+03 -0.67601979508E+03 -0.66919073659E+03  0.12011817163E+04  0.46999998093E+01 0.  1.
</event>
<event>
 5   0  0.1979765E-05  0.2001199E+04  0.7818609E-02  0.8606061E-01
       -2   -1    0    0    0  501  0.00000000000E+00  0.00000000000E+00  0.63716063868E+03  0.63716063869E+03  0.25500000920E-02 0.  1.
        2   -1    0    0  501    0  0.00000000000E+00  0.00000000000E+00 -0.15713445028E+04  0.15713445028E+04  0.25500000920E-02 0. -1.
    10030    2    1    2    0    0  0.00000000000E+00  0.00000000000E+00 -0.93418386414E+03  0.22085051415E+04  0.20011985079E+04 0.  0.
        2    1    3    3  502    0 -0.35989816106E+03 -0.73952363807E+03  0.16183596177E+03  0.83822000461E+03  0.25500000920E-02 0.  1.
       -2    1    3    3    0  502  0.35989816106E+03  0.73952363807E+03 -0.10960198259E+04  0.13702851369E+04  0.25500000920E-02 0. -1.
</event>
<event>
 5   0  0.2020029E-05  0.1996067E+04  0.7818609E-02  0.8608461E-01
       -2   -1    0    0    0  501  0.00000000000E+00  0.00000000000E+00  0.49708144612E+03  0.49708144613E+03  0.25500000920E-02 0.  1.
        2   -1    0    0  501    0  0.00000000000E+00  0.00000000000E+00 -0.20038390956E+04  0.20038390956E+04  0.25500000920E-02 0. -1.
    10030    2    1    2    0    0  0.00000000000E+00  0.00000000000E+00 -0.15067576495E+04  0.25009205417E+04  0.19960673691E+04 0.  0.
        5    1    3    3  502    0 -0.98843979339E+03 -0.11693614697E+03 -0.84512381220E+03  0.13057349025E+04  0.46999998093E+01 0. -1.
       -5    1    3    3    0  502  0.98843979339E+03  0.11693614697E+03 -0.66163383728E+03  0.11951856392E+04  0.46999998093E+01 0.  1.
</event>
<event>
 5   0  0.9140695E-06  0.1999036E+04  0.7818609E-02  0.8607071E-01
       -1   -1    0    0    0  501  0.00000000000E+00  0.00000000000E+00  0.58561835544E+03  0.58561835546E+03  0.50400001928E-02 0.  1.
        1   -1    0    0  501    0  0.00000000000E+00  0.00000000000E+00 -0.17059518204E+04  0.17059518204E+04  0.50400001928E-02 0. -1.
    10030    2    1    2    0    0  0.00000000000E+00  0.00000000000E+00 -0.11203334649E+04  0.22915701758E+04  0.19990364674E+04 0.  0.
        1    1    3    3  502    0  0.69802789229E+03 -0.71530698931E+03 -0.54711296711E+03  0.11394031886E+04  0.50400001928E-02 0. -1.
       -1    1    3    3    0  502 -0.69802789229E+03  0.71530698931E+03 -0.57322049782E+03  0.11521669873E+04  0.50400001928E-02 0.  1.
</event>
<event>
 5   0  0.2003576E-05  0.1998915E+04  0.7818609E-02  0.8607128E-01
       -2   -1    0    0    0  501  0.00000000000E+00  0.00000000000E+00  0.59224185554E+03  0.59224185555E+03  0.25500000920E-02 0.  1.
        2   -1    0    0  501    0  0.00000000000E+00  0.00000000000E+00 -0.16866671604E+04  0.16866671604E+04  0.25500000920E-02 0. -1.
    10030    2    1    2    0    0  0.00000000000E+00  0.00000000000E+00 -0.10944253049E+04  0.22789090160E+04  0.19989145943E+04 0.  0.
        4    1    3    3  502    0  0.59939433213E+02  0.80822991327E+03  0.11959370241E+03  0.81922682751E+03  0.12699999809E+01 0.  1.
       -4    1    3    3    0  502 -0.59939433213E+02 -0.80822991327E+03 -0.12140190073E+04  0.14596821885E+04  0.12699999809E+01 0. -1.
</event>
<event>
 5   0  0.2038882E-05  0.1990099E+04  0.7818609E-02  0.8611264E-01
        2   -1    0    0  501    0  0.00000000000E+00  0.00000000000E+00  0.82539881082E+03  0.82539881082E+03  0.25500000920E-02 0. -1.
       -2   -1    0    0    0  501  0.00000000000E+00  0.00000000000E+00 -0.11995695508E+04  0.11995695508E+04  0.25500000920E-02 0.  1.
    10030    2    1    2    0    0  0.00000000000E+00  0.00000000000E+00 -0.37417074000E+03  0.20249683617E+04  0.19900987722E+04 0.  0.
        3    1    3    3  502    0  0.92340265244E+03  0.15985890006E+03 -0.52745498452E+03  0.10753771884E+04  0.10100000352E+00 0.  1.
       -3    1    3    3    0  502 -0.92340265244E+03 -0.15985890006E+03  0.15328424452E+03  0.94959117324E+03  0.10100000352E+00 0. -1.
</event>
<event>
 5   0  0.2020029E-05  0.1999155E+04  0.7818609E-02  0.8607016E-01
        2   -1    0    0  501    0  0.00000000000E+00  0.00000000000E+00  0.17896087188E+04  0.17896087188E+04  0.25500000920E-02 0.  1.
       -2   -1    0    0    0  501  0.00000000000E+00  0.00000000000E+00 -0.55830910437E+03  0.55830910438E+03  0.25500000920E-02 0. -1.
    10030    2    1    2    0    0  0.00000000000E+00  0.00000000000E+00  0.12312996144E+04  0.23479178232E+04  0.19991546623E+04 0.  0.
        5    1    3    3  502    0  0.50717160241E+02  0.18454366945E+03  0.17678761628E+04  0.17782116896E+04  0.46999998093E+01 0.  1.
       -5    1    3    3    0  502 -0.50717160241E+02 -0.18454366945E+03 -0.53657654839E+03  0.56970613350E+03  0.46999998093E+01 0. -1.
</event>
<event>
 5   0  0.2038882E-05  0.2000228E+04  0.7818609E-02  0.8606514E-01
       -2   -1    0    0    0  501  0.00000000000E+00  0.00000000000E+00  0.78953665223E+03  0.78953665223E+03  0.25500000920E-02 0.  1.
        2   -1    0    0  501    0  0.00000000000E+00  0.00000000000E+00 -0.12668541704E+04  0.12668541704E+04  0.25500000920E-02 0. -1.
    10030    2    1    2    0    0  0.00000000000E+00  0.00000000000E+00 -0.47731751820E+03  0.20563908227E+04  0.20002277876E+04 0.  0.
        3    1    3    3  502    0 -0.57123534889E+03 -0.11876516396E+03  0.59643756050E+03  0.83435769413E+03  0.10100000352E+00 0.  1.
       -3    1    3    3    0  502  0.57123534889E+03  0.11876516396E+03 -0.10737550787E+04  0.12220331285E+04  0.10100000352E+00 0. -1.
</event>
<event>
 5   0  0.9220260E-06  0.1997939E+04  0.7818609E-02  0.8607585E-01
        1   -1    0    0  501    0  0.00000000000E+00  0.00000000000E+00  0.11022512732E+04  0.11022512732E+04  0.50400001928E-02 0. -1.
       -1   -1    0    0    0  501  0.00000000000E+00  0.00000000000E+00 -0.90536510430E+03  0.90536510431E+03  0.50400001928E-02 0.  1.
    10030    2    1    2    0    0  0.00000000000E+00  0.00000000000E+00  0.19688616893E+03  0.20076163776E+04  0.19979387768E+04 0.  0.
        3    1    3    3  502    0 -0.99501890765E+03  0.86474498578E+02  0.78362209803E+02  0.10018388651E+04  0.10100000352E+00 0. -1.
       -3    1    3    3    0  502  0.99501890765E+03 -0.86474498578E+02  0.11852395913E+03  0.10057775125E+04  0.10100000352E+00 0.  1.
</event>
<event>
 5   0  0.9220260E-06  0.2003000E+04  0.7818609E-02  0.8605219E-01
       -1   -1    0    0    0  501  0.00000000000E+00  0.00000000000E+00  0.49988709912E+03  0.49988709914E+03  0.50400001928E-02 0. -1.
        1   -1    0    0  501    0  0.00000000000E+00  0.00000000000E+00 -0.20064577829E+04  0.20064577829E+04  0.50400001928E-02 0.  1.
    10030    2    1    2    0    0  0.00000000000E+00  0.00000000000E+00 -0.15065706838E+04  0.25063448820E+04  0.20030001105E+04 0.  0.
        3    1    3    3  502    0  0.65324310191E+03  0.28099001444E+03  0.12914005795E+03  0.72274414780E+03  0.10100000352E+00 0. -1.
       -3    1    3    3    0  502 -0.65324310191E+03 -0.28099001444E+03 -0.16357107417E+04  0.17836007342E+04  0.10100000352E+00 0.  1.
</event>
<event>
 5   0  0.2003576E-05  0.2000582E+04  0.7818609E-02  0.8606348E-01
        2   -1    0    0  501    0  0.00000000000E+00  0.00000000000E+00  0.17494115174E+04  0.17494115174E+04  0.25500000920E-02 0. -1.
       -2   -1    0    0    0  501  0.00000000000E+00  0.00000000000E+00 -0.57195375732E+03  0.57195375733E+03  0.25500000920E-02 0.  1.
    10030    2    1    2    0    0  0.00000000000E+00  0.00000000000E+00  0.11774577601E+04  0.23213652747E+04  0.20005824057E+04 0.  0.
        4    1    3    3  502    0 -0.60846573612E+03  0.50168548740E+03  0.13027530272E+04  0.15228545377E+04  0.12699999809E+01 0. -1.
       -4    1    3    3    0  502  0.60846573612E+03 -0.50168548740E+03 -0.12529526708E+03  0.79851073703E+03  0.12699999809E+01 0.  1.
</event>
<event>
 5   0  0.9342635E-06  0.1992436E+04  0.7818609E-02  0.8610165E-01
        1   -1    0    0  501    0  0.00000000000E+00  0.00000000000E+00  0.42133245605E+03  0.42133245608E+03  0.50400001928E-02 0. -1.
       -1   -1    0    0    0  501  0.00000000000E+00  0.00000000000E+00 -0.23555037288E+04  0.23555037288E+04  0.50400001928E-02 0.  1.
    10030    2    1    2    0    0  0.00000000000E+00  0.00000000000E+00 -0.19341712728E+04  0.27768361849E+04  0.19924358673E+04 0.  0.
        5    1    3    3  502    0 -0.75580702831E+02  0.18421304450E+03  0.39330143774E+03  0.44085711895E+03  0.46999998093E+01 0. -1.
       -5    1    3    3    0  502  0.75580702831E+02 -0.18421304450E+03 -0.23274727105E+04  0.23359790660E+04  0.46999998093E+01 0.  1.
</event>
<event>
 5   0  0.7132000E-06  0.1998410E+04  0.7818609E-02  0.8607364E-01
        3   -1    0    0  501    0  0.00000000000E+00  0.00000000000E+00  0.13915203394E+04  0.13915203431E+04  0.10100000352E+00 0. -1.
       -3   -1    0    0    0  501  0.00000000000E+00  0.00000000000E+00 -0.71749619637E+03  0.71749620348E+03  0.10100000352E+00 0.  1.
    10030    2    1    2    0    0  0.00000000000E+00  0.00000000000E+00  0.67402414303E+03  0.21090165465E+04  0.19984099300E+04 0.  0.
        1    1    3    3  502    0 -0.11654647563E+03 -0.71516498340E+02 -0.70757540541E+03  0.72066680573E+03  0.50400001928E-02 0.  1.
       -1    1    3    3    0  502  0.11654647563E+03  0.71516498340E+02  0.13815995484E+04  0.13883497408E+04  0.50400001928E-02 0. -1.
</event>
<event>
 5   0  0.9220260E-06  0.2002119E+04  0.7818609E-02  0.8605631E-01
       -1   -1    0    0    0  501  0.00000000000E+00  0.00000000000E+00  0.11058523118E+04  0.11058523118E+04  0.50400001928E-02 0.  1.
        1   -1    0    0  501    0  0.00000000000E+00  0.00000000000E+00 -0.90619676114E+03  0.90619676115E+03  0.50400001928E-02 0. -1.
    10030    2    1    2    0    0  0.00000000000E+00  0.00000000000E+00  0.19965555062E+03  0.20120490729E+04  0.20021186611E+04 0.  0.
        3    1    3    3  502    0  0.27278095776E+03 -0.88700712887E+03 -0.27743889604E+03  0.96858837945E+03  0.10100000352E+00 0. -1.
       -3    1    3    3    0  502 -0.27278095776E+03  0.88700712887E+03  0.47709444666E+03  0.10434606935E+04  0.10100000352E+00 0.  1.
</event>
<event>
 5   0  0.7132000E-06  0.2000371E+04  0.7818609E-02  0.8606447E-01
        3   -1    0    0  501    0  0.00000000000E+00  0.00000000000E+00  0.11862536172E+04  0.11862536215E+04  0.10100000352E+00 0.  1.
       -3   -1    0    0    0  501  0.00000000000E+00  0.00000000000E+00 -0.84330253318E+03  0.84330253923E+03  0.10100000352E+00 0. -1.
    10030    2    1    2    0    0  0.00000000000E+00  0.00000000000E+00  0.34295108405E+03  0.20295561608E+04  0.20003706566E+04 0.  0.
        2    1    3    3  502    0  0.36386655506E+03  0.27164850709E+03 -0.73269379120E+03  0.86199302373E+03  0.25500000920E-02 0. -1.
       -2    1    3    3    0  502 -0.36386655506E+03 -0.27164850709E+03  0.10756448753E+04  0.11675631370E+04  0.25500000920E-02 0.  1.
</event>
<event>
 5   0  0.9220260E-06  0.2001875E+04  0.7818609E-02  0.8605744E-01
        1   -1    0    0  501    0  0.00000000000E+00  0.00000000000E+00  0.11193027303E+04  0.11193027303E+04  0.50400001928E-02 0.  1.
       -1   -1    0    0    0  501  0.00000000000E+00  0.00000000000E+00 -0.89508957655E+03  0.89508957656E+03  0.50400001928E-02 0. -1.
    10030    2    1    2    0    0  0.00000000000E+00  0.00000000000E+00  0.22421315374E+03  0.20143923069E+04  0.20018753277E+04 0.  0.
        3    1    3    3  502    0 -0.85732651324E+03 -0.10564854052E+03  0.62094200747E+03  0.10638323887E+04  0.10100000352E+00 0.  1.
       -3    1    3    3    0  502  0.85732651324E+03  0.10564854052E+03 -0.39672885373E+03  0.95055991816E+03  0.10100000352E+00 0. -1.
</event>
<event>
 5   0  0.1999142E-05  0.2000392E+04  0.7818609E-02  0.8606438E-01
        2   -1    0    0  501    0  0.00000000000E+00  0.00000000000E+00  0.11432973795E+04  0.11432973795E+04  0.25500000920E-02 0. -1.
       -2   -1    0    0    0  501  0.00000000000E+00  0.00000000000E+00 -0.87500555899E+03  0.87500555899E+03  0.25500000920E-02 0.  1.
    10030    2    1    2    0    0  0.00000000000E+00  0.00000000000E+00  0.26829182056E+03  0.20183029385E+04  0.20003915244E+04 0.  0.
        1    1    3    3  502    0  0.17868693684E+03 -0.89021903170E+03  0.55739291463E+03  0.10654134442E+04  0.50400001928E-02 0. -1.
       -1    1    3    3    0  502 -0.17868693684E+03  0.89021903170E+03 -0.28910109407E+03  0.95288949433E+03  0.50400001928E-02 0.  1.
</event>
<event>
 5   0  0.9333353E-06  0.1998839E+04  0.7818609E-02  0.8607164E-01
       -1   -1    0    0    0  501  0.00000000000E+00  0.00000000000E+00  0.58643770341E+03  0.58643770343E+03  0.50400001928E-02 0. -1.
        1   -1    0    0  501    0  0.00000000000E+00  0.00000000000E+00 -0.17032316390E+04  0.17032316390E+04  0.50400001928E-02 0.  1.
    10030    2    1    2    0    0  0.00000000000E+00  0.00000000000E+00 -0.11167939356E+04  0.22896693425E+04  0.19988389138E+04 0.  0.
        2    1    3    3  502    0  0.60663857113E+03 -0.72378923631E+03 -0.93302621853E+03  0.13275613504E+04  0.25500000920E-02 0.  1.
       -2    1    3    3    0  502 -0.60663857113E+03  0.72378923631E+03 -0.18376771710E+03  0.96210799209E+03  0.25500000920E-02 0. -1.
</event>
<event>
 5   0  0.9220260E-06  0.1996971E+04  0.7818609E-02  0.8608038E-01
       -1   -1    0    0    0  501  0.00000000000E+00  0.00000000000E+00  0.14669577614E+04  0.14669577614E+04  0.50400001928E-02 0.  1.
        1   -1    0    0  501    0  0.00000000000E+00  0.00000000000E+00 -0.67961951824E+03  0.67961951826E+03  0.50400001928E-02 0. -1.
    10030    2    1    2    0    0  0.00000000000E+00  0.00000000000E+00  0.78733824312E+03  0.21465772796E+04  0.19969708331E+04 0.  0.
        3    1    3    3  502    0  0.58270283115E+03  0.77318816774E+03  0.13122521284E+03  0.97702742994E+03  0.10100000352E+00 0. -1.
       -3    1    3    3    0  502 -0.58270283115E+03 -0.77318816774E+03  0.65611303028E+03  0.11695498497E+04  0.10100000352E+00 0.  1.
</event>
<event>
 5   0  0.9333353E-06  0.2000244E+04  0.7818609E-02  0.8606506E-01
       -1   -1    0    0    0  501  0.00000000000E+00  0.00000000000E+00  0.10223616446E+04  0.10223616447E+04  0.50400001928E-02 0.  1.
        1   -1    0    0  501    0  0.00000000000E+00  0.00000000000E+00 -0.97836660248E+03  0.97836660249E+03  0.50400001928E-02 0. -1.
    10030    2    1    2    0    0  0.00000000000E+00  0.00000000000E+00  0.43995042162E+02  0.20007282471E+04  0.20002444739E+04 0.  0.
        2    1    3    3  502    0 -0.14304085262E+03 -0.48063738228E+03  0.88752264793E+03  0.10193966006E+04  0.25500000920E-02 0.  1.
       -2    1    3    3    0  502  0.14304085262E+03  0.48063738228E+03 -0.84352760577E+03  0.98133164652E+03  0.25500000920E-02 0. -1.
</event>
<event>
 5   0  0.9220260E-06  0.1998299E+04  0.7818609E-02  0.8607416E-01
       -1   -1    0    0    0  501  0.00000000000E+00  0.00000000000E+00  0.87701302980E+03  0.87701302981E+03  0.50400001928E-02 0. -1.
        1   -1    0    0  501    0  0.00000000000E+00  0.00000000000E+00 -0.11382957270E+04  0.11382957270E+04  0.50400001928E-02 0.  1.
    10030    2    1    2    0    0  0.00000000000E+00  0.00000000000E+00 -0.26128269717E+03  0.20153087568E+04  0.19982994614E+04 0.  0.
        3    1    3    3  502    0 -0.28643583223E+01  0.38018258583E+03 -0.10624938718E+04  0.11284680948E+04  0.10100000352E+00 0.  1.
       -3    1    3    3    0  502  0.28643583223E+01 -0.38018258583E+03  0.80121117467E+03  0.88684066197E+03  0.10100000352E+00 0. -1.
</event>
<event>
 5   0  0.2020029E-05  0.1999847E+04  0.7818609E-02  0.8606692E-01
       -2   -1    0    0    0  501  0.00000000000E+00  0.00000000000E+00  0.45435591318E+03  0.45435591319E+03  0.25500000920E-02 0.  1.
        2   -1    0    0  501    0  0.00000000000E+00  0.00000000000E+00 -0.22005799600E+04  0.22005799600E+04  0.25500000920E-02 0. -1.
    10030    2    1    2    0    0  0.00000000000E+00  0.00000000000E+00 -0.17462240468E+04  0.26549358731E+04  0.19998465114E+04 0.  0.
        5    1    3    3  502    0  0.91077527440E+03  0.35359124352E+03 -0.59059824313E+03  0.11416508848E+04  0.46999998093E+01 0.  1.
       -5    1    3    3    0  502 -0.91077527440E+03 -0.35359124352E+03 -0.11556258036E+04  0.15132849884E+04  0.46999998093E+01 0. -1.
</event>
<event>
 5   0  0.1999142E-05  0.2005498E+04  0.7818609E-02  0.8604054E-01
       -2   -1    0    0    0  501  0.00000000000E+00  0.00000000000E+00  0.88561257213E+03  0.88561257213E+03  0.25500000920E-02 0.  1.
        2   -1    0    0  501    0  0.00000000000E+00  0.00000000000E+00 -0.11353787906E+04  0.11353787906E+04  0.25500000920E-02 0. -1.
    10030    2    1    2    0    0  0.00000000000E+00  0.00000000000E+00 -0.24976621842E+03  0.20209913627E+04  0.20054981736E+04 0.  0.
        1    1    3    3  502    0  0.92499510966E+03 -0.32461966693E+03  0.87725089914E+02  0.98422028656E+03  0.50400001928E-02 0.  1.
       -1    1    3    3    0  502 -0.92499510966E+03  0.32461966693E+03 -0.33749130834E+03  0.10367710761E+04  0.50400001928E-02 0. -1.
</event>
<event>
 5   0  0.9140695E-06  0.2004388E+04  0.7818609E-02  0.8604572E-01
       -1   -1    0    0    0  501  0.00000000000E+00  0.00000000000E+00  0.58505499430E+03  0.58505499432E+03  0.50400001928E-02 0.  1.
        1   -1    0    0  501    0  0.00000000000E+00  0.00000000000E+00 -0.17167494331E+04  0.17167494331E+04  0.50400001928E-02 0. -1.
    10030    2    1    2    0    0  0.00000000000E+00  0.00000000000E+00 -0.11316944388E+04  0.23018044274E+04  0.20043880161E+04 0.  0.
        1    1    3    3  502    0 -0.88446217175E+00 -0.39967326017E+03 -0.16212685653E+04  0.16698057545E+04  0.50400001928E-02 0. -1.
       -1    1    3    3    0  502  0.88446217175E+00  0.39967326017E+03  0.48957412648E+03  0.63199867287E+03  0.50400001928E-02 0.  1.
</event>
<event>
 5   0  0.1979765E-05  0.2038016E+04  0.7818609E-02  0.8589050E-01
        2   -1    0    0  501    0  0.00000000000E+00  0.00000000000E+00  0.15871522105E+04  0.15871522105E+04  0.25500000920E-02 0. -1.
       -2   -1    0    0    0  501  0.00000000000E+00  0.00000000000E+00 -0.65423930480E+03  0.65423930480E+03  0.25500000920E-02 0.  1.
    10030    2    1    2    0    0  0.00000000000E+00  0.00000000000E+00  0.93291290566E+03  0.22413915153E+04  0.20380160537E+04 0.  0.
        2    1    3    3  502    0  0.71460301308E+03  0.25367421093E+03  0.12150976895E+04  0.14322955235E+04  0.25500000920E-02 0. -1.
       -2    1    3    3    0  502 -0.71460301308E+03 -0.25367421093E+03 -0.28218478387E+03  0.80909599174E+03  0.25500000920E-02 0.  1.
</event>
<event>
 5   0  0.2020029E-05  0.1996158E+04  0.7818609E-02  0.8608419E-01
        2   -1    0    0  501    0  0.00000000000E+00  0.00000000000E+00  0.25633657164E+04  0.25633657164E+04  0.25500000920E-02 0.  1.
       -2   -1    0    0    0  501  0.00000000000E+00  0.00000000000E+00 -0.38861462805E+03  0.38861462806E+03  0.25500000920E-02 0. -1.
    10030    2    1    2    0    0  0.00000000000E+00  0.00000000000E+00  0.21747510883E+04  0.29519803444E+04  0.19961577237E+04 0.  0.
        5    1    3    3  502    0 -0.50973678576E+03  0.19321171831E+03 -0.14899895791E+03  0.56514169755E+03  0.46999998093E+01 0. -1.
       -5    1    3    3    0  502  0.50973678576E+03 -0.19321171831E+03  0.23237500462E+04  0.23868386469E+04  0.46999998093E+01 0.  1.
</event>
<event>
 5   0  0.9333353E-06  0.2000345E+04  0.7818609E-02  0.8606459E-01
       -1   -1    0    0    0  501  0.00000000000E+00  0.00000000000E+00  0.64664746370E+03  0.64664746372E+03  0.50400001928E-02 0. -1.
        1   -1    0    0  501    0  0.00000000000E+00  0.00000000000E+00 -0.15469718622E+04  0.15469718622E+04  0.50400001928E-02 0.  1.
    10030    2    1    2    0    0  0.00000000000E+00  0.00000000000E+00 -0.90032439847E+03  0.21936193259E+04  0.20003454013E+04 0.  0.
        2    1    3    3  502    0  0.93719232891E+03  0.25113914587E+03 -0.71640637911E+03  0.12060839241E+04  0.25500000920E-02 0.  1.
       -2    1    3    3    0  502 -0.93719232891E+03 -0.25113914587E+03 -0.18391801936E+03  0.98753540180E+03  0.25500000920E-02 0. -1.
</event>
<event>
 5   0  0.1979765E-05  0.2002582E+04  0.7818609E-02  0.8605415E-01
        2   -1    0    0  501    0  0.00000000000E+00  0.00000000000E+00  0.88568841318E+03  0.88568841319E+03  0.25500000920E-02 0. -1.
       -2   -1    0    0    0  501  0.00000000000E+00  0.00000000000E+00 -0.11319819828E+04  0.11319819828E+04  0.25500000920E-02 0.  1.
    10030    2    1    2    0    0  0.00000000000E+00  0.00000000000E+00 -0.24629356963E+03  0.20176703960E+04  0.20025816599E+04 0.  0.
        2    1    3    3  502    0  0.10359278783E+02  0.86553575517E+03 -0.63025196004E+03  0.10707366582E+04  0.25500000920E-02 0. -1.
       -2    1    3    3    0  502 -0.10359278783E+02 -0.86553575517E+03  0.38395839041E+03  0.94693373777E+03  0.25500000920E-02 0.  1.
</event>
<event>
 5   0  0.2038882E-05  0.2000601E+04  0.7818609E-02  0.8606340E-01
       -2   -1    0    0    0  501  0.00000000000E+00  0.00000000000E+00  0.66366783443E+03  0.66366783444E+03  0.25500000920E-02 0. -1.
        2   -1    0    0  501    0  0.00000000000E+00  0.00000000000E+00 -0.15076830648E+04  0.15076830648E+04  0.25500000920E-02 0.  1.
    10030    2    1    2    0    0  0.00000000000E+00  0.00000000000E+00 -0.84401523039E+03  0.21713508993E+04  0.20006006645E+04 0.  0.
        3    1    3    3  502    0  0.51641331865E+02  0.69492040831E+03  0.35689194558E+03  0.78291319574E+03  0.10100000352E+00 0. -1.
       -3    1    3    3    0  502 -0.51641331865E+02 -0.69492040831E+03 -0.12009071760E+04  0.13884377035E+04  0.10100000352E+00 0.  1.
</event>
<event>
 5   0  0.9342635E-06  0.2008242E+04  0.7818609E-02  0.8602777E-01
        1   -1    0    0  501    0  0.00000000000E+00  0.00000000000E+00  0.84510982424E+03  0.84510982426E+03  0.50400001928E-02 0. -1.
       -1   -1    0    0    0  501  0.00000000000E+00  0.00000000000E+00 -0.11930510548E+04  0.11930510548E+04  0.50400001928E-02 0.  1.
    10030    2    1    2    0    0  0.00000000000E+00  0.00000000000E+00 -0.34794123055E+03  0.20381608791E+04  0.20082421839E+04 0.  0.
        5    1    3    3  502    0 -0.86200146356E+03  0.51474813083E+03 -0.18919123908E+03  0.10216788029E+04  0.46999998093E+01 0.  1.
       -5    1    3    3    0  502  0.86200146356E+03 -0.51474813083E+03 -0.15874999147E+03  0.10164820762E+04  0.46999998093E+01 0. -1.
</event>
<event>
 5   0  0.9342635E-06  0.1997042E+04  0.7818609E-02  0.8608005E-01
       -1   -1    0    0    0  501  0.00000000000E+00  0.00000000000E+00  0.98944749510E+03  0.98944749511E+03  0.50400001928E-02 0. -1.
        1   -1    0    0  501    0  0.00000000000E+00  0.00000000000E+00 -0.10076778764E+04  0.10076778764E+04  0.50400001928E-02 0.  1.
    10030    2    1    2    0    0  0.00000000000E+00  0.00000000000E+00 -0.18230381263E+02  0.19971253715E+04  0.19970421635E+04 0.  0.
        5    1    3    3  502    0 -0.17117510154E+03 -0.96498106956E+03  0.18202853817E+03  0.99681786636E+03  0.46999998093E+01 0. -1.
       -5    1    3    3    0  502  0.17117510154E+03  0.96498106956E+03 -0.20025891943E+03  0.10003075051E+04  0.46999998093E+01 0.  1.
</event>
<event>
 5   0  0.1999142E-05  0.2003348E+04  0.7818609E-02  0.8605057E-01
       -2   -1    0    0    0  501  0.00000000000E+00  0.00000000000E+00  0.93257733724E+03  0.93257733724E+03  0.25500000920E-02 0. -1.
        2   -1    0    0  501    0  0.00000000000E+00  0.00000000000E+00 -0.10758904619E+04  0.10758904619E+04  0.25500000920E-02 0.  1.
    10030    2    1    2    0    0  0.00000000000E+00  0.00000000000E+00 -0.14331312467E+03  0.20084677992E+04  0.20033482594E+04 0.  0.
        1    1    3    3  502    0  0.94778279711E+03 -0.30733763332E+03  0.31574579979E+02  0.99686789770E+03  0.50400001928E-02 0. -1.
       -1    1    3    3    0  502 -0.94778279711E+03  0.30733763332E+03 -0.17488770465E+03  0.10115999014E+04  0.50400001928E-02 0.  1.
</event>
<event>
 5   0  0.9370269E-06  0.1989313E+04  0.7818609E-02  0.8611633E-01
       -1   -1    0    0    0  501  0.00000000000E+00  0.00000000000E+00  0.40298165770E+03  0.40298165773E+03  0.50400001928E-02 0. -1.
        1   -1    0    0  501    0  0.00000000000E+00  0.00000000000E+00 -0.24550544427E+04  0.24550544427E+04  0.50400001928E-02 0.  1.
    10030    2    1    2    0    0  0.00000000000E+00  0.00000000000E+00 -0.20520727850E+04  0.28580361004E+04  0.19893133580E+04 0.  0.
        4    1    3    3  502    0  0.89752903500E+03 -0.29437374749E+03 -0.57828977123E+03  0.11075355273E+04  0.12699999809E+01 0. -1.
       -4    1    3    3    0  502 -0.89752903500E+03  0.29437374749E+03 -0.14737830137E+04  0.17505005731E+04  0.12699999809E+01 0.  1.
</event>
<event>
 5   0  0.9333353E-06  0.2002340E+04  0.7818609E-02  0.8605527E-01
       -1   -1    0    0    0  501  0.00000000000E+00  0.00000000000E+00  0.84050482133E+03  0.84050482135E+03  0.50400001928E-02 0.  1.
        1   -1    0    0  501    0  0.00000000000E+00  0.00000000000E+00 -0.11925469683E+04  0.11925469683E+04  0.50400001928E-02 0. -1.
    10030    2    1    2    0    0  0.00000000000E+00  0.00000000000E+00 -0.35204214692E+03  0.20330517896E+04  0.20023401075E+04 0.  0.
        2    1    3    3  502    0  0.93261357463E+03 -0.31299570118E+03 -0.36490418299E+03  0.10492327918E+04  0.25500000920E-02 0. -1.
       -2    1    3    3    0  502 -0.93261357463E+03  0.31299570118E+03  0.12862036070E+02  0.98381899785E+03  0.25500000920E-02 0.  1.
</event>
<event>
 5   0  0.2003576E-05  0.1999868E+04  0.7818609E-02  0.8606682E-01
        2   -1    0    0  501    0  0.00000000000E+00  0.00000000000E+00  0.16564610351E+04  0.16564610351E+04  0.25500000920E-02 0.  1.
       -2   -1    0    0    0  501  0.00000000000E+00  0.00000000000E+00 -0.60361725006E+03  0.60361725006E+03  0.25500000920E-02 0. -1.
    10030    2    1    2    0    0  0.00000000000E+00  0.00000000000E+00  0.10528437850E+04  0.22600782852E+04  0.19998684505E+04 0.  0.
        4    1    3    3  502    0  0.47073644409E+03 -0.16323640069E+03  0.15061904666E+04  0.15864584006E+04  0.12699999809E+01 0.  1.
       -4    1    3    3    0  502 -0.47073644409E+03  0.16323640069E+03 -0.45334668155E+03  0.67361988456E+03  0.12699999809E+01 0. -1.
</event>
<event>
 5   0  0.1979765E-05  0.1979252E+04  0.7818609E-02  0.8616383E-01
       -2   -1    0    0    0  501  0.00000000000E+00  0.00000000000E+00  0.72709788419E+03  0.72709788419E+03  0.25500000920E-02 0. -1.
        2   -1    0    0  501    0  0.00000000000E+00  0.00000000000E+00 -0.13469429056E+04  0.13469429056E+04  0.25500000920E-02 0.  1.
    10030    2    1    2    0    0  0.00000000000E+00  0.00000000000E+00 -0.61984502137E+03  0.20740407898E+04  0.19792517139E+04 0.  0.
        2    1    3    3  502    0 -0.35565483321E+03  0.45139331271E+03 -0.11541829415E+04  0.12893349238E+04  0.25500000920E-02 0.  1.
       -2    1    3    3    0  502  0.35565483321E+03 -0.45139331271E+03  0.53433792017E+03  0.78470586597E+03  0.25500000920E-02 0. -1.
</event>
<event>
 5   0  0.2020029E-05  0.2000380E+04  0.7818609E-02  0.8606443E-01
        2   -1    0    0  501    0  0.00000000000E+00  0.00000000000E+00  0.25148452064E+04  0.25148452064E+04  0.25500000920E-02 0.  1.
       -2   -1    0    0    0  501  0.00000000000E+00  0.00000000000E+00 -0.39778995884E+03  0.39778995884E+03  0.25500000920E-02 0. -1.
    10030    2    1    2    0    0  0.00000000000E+00  0.00000000000E+00  0.21170552476E+04  0.29126351652E+04  0.20003801350E+04 0.  0.
        5    1    3    3  502    0 -0.48959617634E+03  0.54422323375E+03  0.66201089534E+02  0.73504286834E+03  0.46999998093E+01 0. -1.
       -5    1    3    3    0  502  0.48959617634E+03 -0.54422323375E+03  0.20508541580E+04  0.21775922969E+04  0.46999998093E+01 0.  1.
</event>
<event>
 5   0  0.9333353E-06  0.2000395E+04  0.7818609E-02  0.8606436E-01
       -1   -1    0    0    0  501  0.00000000000E+00  0.00000000000E+00  0.12765510555E+04  0.12765510555E+04  0.50400001928E-02 0. -1.
        1   -1    0    0  501    0  0.00000000000E+00  0.00000000000E+00 -0.78366986468E+03  0.78366986470E+03  0.50400001928E-02 0.  1.
    10030    2    1    2    0    0  0.00000000000E+00  0.00000000000E+00  0.49288119078E+03  0.20602209202E+04  0.20003945540E+04 0.  0.
        2    1    3    3  502    0  0.76463192682E+03 -0.61624138017E+03  0.51085967414E+02  0.98337439372E+03  0.25500000920E-02 0. -1.
       -2    1    3    3    0  502 -0.76463192682E+03  0.61624138017E+03  0.44179522337E+03  0.10768465265E+04  0.25500000920E-02 0.  1.
</event>
<event>
 5   0  0.2003576E-05  0.1999864E+04  0.7818609E-02  0.8606684E-01
       -2   -1    0    0    0  501  0.00000000000E+00  0.00000000000E+00  0.46249222519E+03  0.46249222519E+03  0.25500000920E-02 0. -1.
        2   -1    0    0  501    0  0.00000000000E+00  0.00000000000E+00 -0.21619052331E+04  0.21619052331E+04  0.25500000920E-02 0.  1.
    10030    2    1    2    0    0  0.00000000000E+00  0.00000000000E+00 -0.16994130079E+04  0.26243974583E+04  0.19998643573E+04 0.  0.
        4    1    3    3  502    0  0.51873705500E+03  0.78181782707E+03 -0.13034156387E+04  0.16059953882E+04  0.12699999809E+01 0.  1.
       -4    1    3    3    0  502 -0.51873705500E+03 -0.78181782707E+03 -0.39599736922E+03  0.10184020700E+04  0.12699999809E+01 0. -1.
</event>
<event>
 5   0  0.2038882E-05  0.1994748E+04  0.7818609E-02  0.8609080E-01
       -2   -1    0    0    0  501  0.00000000000E+00  0.00000000000E+00  0.68266420429E+03  0.68266420430E+03  0.25500000920E-02 0. -1.
        2   -1    0    0  501    0  0.00000000000E+00  0.00000000000E+00 -0.14571663811E+04  0.14571663811E+04  0.25500000920E-02 0.  1.
    10030    2    1    2    0    0  0.00000000000E+00  0.00000000000E+00 -0.77450217681E+03  0.21398305854E+04  0.19947484333E+04 0.  0.
        3    1    3    3  502    0  0.84769931612E+03 -0.49674119127E+03 -0.20328652898E+03  0.10033301375E+04  0.10100000352E+00 0. -1.
       -3    1    3    3    0  502 -0.84769931612E+03  0.49674119127E+03 -0.57121564782E+03  0.11365004479E+04  0.10100000352E+00 0.  1.
</event>
<event>
 5   0  0.9220260E-06  0.2004510E+04  0.7818609E-02  0.8604515E-01
        1   -1    0    0  501    0  0.00000000000E+00  0.00000000000E+00  0.88590984695E+03  0.88590984697E+03  0.50400001928E-02 0.  1.
       -1   -1    0    0    0  501  0.00000000000E+00  0.00000000000E+00 -0.11338798440E+04  0.11338798440E+04  0.50400001928E-02 0. -1.
    10030    2    1    2    0    0  0.00000000000E+00  0.00000000000E+00 -0.24796999705E+03  0.20197896910E+04  0.20045102335E+04 0.  0.
        3    1    3    3  502    0 -0.68456829098E+03 -0.34766516095E+03 -0.77310862356E+03  0.10895878869E+04  0.10100000352E+00 0. -1.
       -3    1    3    3    0  502  0.68456829098E+03  0.34766516095E+03  0.52513862651E+03  0.93020180413E+03  0.10100000352E+00 0.  1.
</event>
<event>
 5   0  0.2038882E-05  0.2004531E+04  0.7818609E-02  0.8604505E-01
       -2   -1    0    0    0  501  0.00000000000E+00  0.00000000000E+00  0.95027162456E+03  0.95027162456E+03  0.25500000920E-02 0.  1.
        2   -1    0    0  501    0  0.00000000000E+00  0.00000000000E+00 -0.10571038521E+04  0.10571038521E+04  0.25500000920E-02 0. -1.
    10030    2    1    2    0    0  0.00000000000E+00  0.00000000000E+00 -0.10683222753E+03  0.20073754767E+04  0.20045306631E+04 0.  0.
        3    1    3    3  502    0  0.35943029726E+03  0.89054294034E+03  0.23383399037E+03  0.98840033005E+03  0.10100000352E+00 0.  1.
       -3    1    3    3    0  502 -0.35943029726E+03 -0.89054294034E+03 -0.34066621790E+03  0.10189751466E+04  0.10100000352E+00 0. -1.
</event>
<event>
 5   0  0.9333353E-06  0.1998496E+04  0.7818609E-02  0.8607324E-01
       -1   -1    0    0    0  501  0.00000000000E+00  0.00000000000E+00  0.66262796207E+03  0.66262796209E+03  0.50400001928E-02 0.  1.
        1   -1    0    0  501    0  0.00000000000E+00  0.00000000000E+00 -0.15068731949E+04  0.15068731949E+04  0.50400001928E-02 0. -1.
    10030    2    1    2    0    0  0.00000000000E+00  0.00000000000E+00 -0.84424523287E+03  0.21695011570E+04  0.19984957486E+04 0.  0.
        2    1    3    3  502    0  0.72867417490E+02 -0.86082157480E+03 -0.96725984014E+03  0.12968866730E+04  0.25500000920E-02 0. -1.
       -2    1    3    3    0  502 -0.72867417490E+02  0.86082157480E+03  0.12301460727E+03  0.87261448406E+03  0.25500000920E-02 0.  1.
</event>
<event>
 5   0  0.9140695E-06  0.1991383E+04  0.7818609E-02  0.8610660E-01
        1   -1    0    0  501    0  0.00000000000E+00  0.00000000000E+00  0.13229563780E+04  0.13229563780E+04  0.50400001928E-02 0.  1.
       -1   -1    0    0    0  501  0.00000000000E+00  0.00000000000E+00 -0.74938377800E+03  0.74938377801E+03  0.50400001928E-02 0. -1.
    10030    2    1    2    0    0  0.00000000000E+00  0.00000000000E+00  0.57357260003E+03  0.20723401561E+04  0.19913834876E+04 0.  0.
        1    1    3    3  502    0 -0.22867143601E+03  0.40414207237E+03 -0.62980472536E+03  0.78248030800E+03  0.50400001928E-02 0. -1.
       -1    1    3    3    0  502  0.22867143601E+03 -0.40414207237E+03  0.12033773254E+04  0.12898598480E+04  0.50400001928E-02 0.  1.
</event>
<event>
 5   0  0.2003576E-05  0.1996523E+04  0.7818609E-02  0.8608248E-01
       -2   -1    0    0    0  501  0.00000000000E+00  0.00000000000E+00  0.97972713537E+03  0.97972713538E+03  0.25500000920E-02 0. -1.
        2   -1    0    0  501    0  0.00000000000E+00  0.00000000000E+00 -0.10171461145E+04  0.10171461145E+04  0.25500000920E-02 0.  1.
    10030    2    1    2    0    0  0.00000000000E+00  0.00000000000E+00 -0.37418979148E+02  0.19968732499E+04  0.19965226260E+04 0.  0.
        4    1    3    3  502    0  0.33581017357E+03 -0.38505815824E+03  0.83904579543E+03  0.98236333280E+03  0.12699999809E+01 0. -1.
       -4    1    3    3    0  502 -0.33581017357E+03  0.38505815824E+03 -0.87646477458E+03  0.10145099171E+04  0.12699999809E+01 0.  1.
</event>
<event>
 5   0  0.2003576E-05  0.2000530E+04  0.7818609E-02  0.8606373E-01
        2   -1    0    0  501    0  0.00000000000E+00  0.00000000000E+00  0.16075871572E+04  0.16075871572E+04  0.25500000920E-02 0. -1.
       -2   -1    0    0    0  501  0.00000000000E+00  0.00000000000E+00 -0.62238000547E+03  0.62238000548E+03  0.25500000920E-02 0.  1.
    10030    2    1    2    0    0  0.00000000000E+00  0.00000000000E+00  0.98520715174E+03  0.22299671627E+04  0.20005300335E+04 0.  0.
        4    1    3    3  502    0 -0.86156537301E+02 -0.27031460928E+03 -0.57658841646E+03  0.64261088678E+03  0.12699999809E+01 0.  1.
       -4    1    3    3    0  502  0.86156537301E+02  0.27031460928E+03  0.15617955682E+04  0.15873562759E+04  0.12699999809E+01 0. -1.
</event>
<event>
 5   0  0.2003576E-05  0.2008400E+04  0.7818609E-02  0.8602703E-01
       -2   -1    0    0    0  501  0.00000000000E+00  0.00000000000E+00  0.68862896587E+03  0.68862896588E+03  0.25500000920E-02 0. -1.
        2   -1    0    0  501    0  0.00000000000E+00  0.00000000000E+00 -0.14643847912E+04  0.14643847913E+04  0.25500000920E-02 0.  1.
    10030    2    1    2    0    0  0.00000000000E+00  0.00000000000E+00 -0.77575582538E+03  0.21530137571E+04  0.20084001438E+04 0.  0.
        4    1    3    3  502    0  0.27090572993E+03  0.85726164317E+03 -0.86744711273E+03  0.12493012229E+04  0.12699999809E+01 0.  1.
       -4    1    3    3    0  502 -0.27090572993E+03 -0.85726164317E+03  0.91691287355E+02  0.90371253418E+03  0.12699999809E+01 0. -1.
</event>
<event>
 5   0  0.7132000E-06  0.2002388E+04  0.7818609E-02  0.8605505E-01
        3   -1    0    0  501    0  0.00000000000E+00  0.00000000000E+00  0.83317970306E+03  0.83317970918E+03  0.10100000352E+00 0. -1.
       -3   -1    0    0    0  501  0.00000000000E+00  0.00000000000E+00 -0.12030895893E+04  0.12030895935E+04  0.10100000352E+00 0.  1.
    10030    2    1    2    0    0  0.00000000000E+00  0.00000000000E+00 -0.36990988624E+03  0.20362693027E+04  0.20023884112E+04 0.  0.
        3    1    3    3  502    0 -0.84441167326E+03  0.48496128645E+03  0.51730492959E+02  0.97513823502E+03  0.10100000352E+00 0. -1.
       -3    1    3    3    0  502  0.84441167326E+03 -0.48496128645E+03 -0.42164037920E+03  0.10611310677E+04  0.10100000352E+00 0.  1.
</event>
<event>
 5   0  0.9140695E-06  0.2000592E+04  0.7818609E-02  0.8606344E-01
       -1   -1    0    0    0  501  0.00000000000E+00  0.00000000000E+00  0.68623437087E+03  0.68623437089E+03  0.50400001928E-02 0.  1.
        1   -1    0    0  501    0  0.00000000000E+00  0.00000000000E+00 -0.14580909406E+04  0.14580909406E+04  0.50400001928E-02 0. -1.
    10030    2    1    2    0    0  0.00000000000E+00  0.00000000000E+00 -0.77185656969E+03  0.21443253115E+04  0.20005920317E+04 0.  0.
        1    1    3    3  502    0 -0.55535111307E+03 -0.22685018245E+03  0.47202770077E+03  0.76333872847E+03  0.50400001928E-02 0.  1.
       -1    1    3    3    0  502  0.55535111307E+03  0.22685018245E+03 -0.12438842705E+04  0.13809865830E+04  0.50400001928E-02 0. -1.
</event>
<event>
 5   0  0.7132000E-06  0.1999697E+04  0.7818609E-02  0.8606762E-01
       -3   -1    0    0    0  501  0.00000000000E+00  0.00000000000E+00  0.60215480817E+03  0.60215481664E+03  0.10100000352E+00 0.  1.
        3   -1    0    0  501    0  0.00000000000E+00  0.00000000000E+00 -0.16602001248E+04  0.16602001279E+04  0.10100000352E+00 0. -1.
    10030    2    1    2    0    0  0.00000000000E+00  0.00000000000E+00 -0.10580453166E+04  0.22623549445E+04  0.19996974779E+04 0.  0.
        5    1    3    3  502    0 -0.73099722195E+03  0.27837448581E+03 -0.12335777710E+04  0.14606798075E+04  0.46999998093E+01 0. -1.
       -5    1    3    3    0  502  0.73099722195E+03 -0.27837448581E+03  0.17553245436E+03  0.80167513706E+03  0.46999998093E+01 0.  1.
</event>
<event>
 5   0  0.2038882E-05  0.1999228E+04  0.7818609E-02  0.8606982E-01
       -2   -1    0    0    0  501  0.00000000000E+00  0.00000000000E+00  0.98308890562E+03  0.98308890562E+03  0.25500000920E-02 0.  1.
        2   -1    0    0  501    0  0.00000000000E+00  0.00000000000E+00 -0.10164167065E+04  0.10164167065E+04  0.25500000920E-02 0. -1.
    10030    2    1    2    0    0  0.00000000000E+00  0.00000000000E+00 -0.33327800915E+02  0.19995056122E+04  0.19992278386E+04 0.  0.
        3    1    3    3  502    0 -0.52004968134E+03 -0.74220345254E+03 -0.43851669797E+03  0.10067842572E+04  0.10100000352E+00 0.  1.
       -3    1    3    3    0  502  0.52004968134E+03  0.74220345254E+03  0.40518889705E+03  0.99272135492E+03  0.10100000352E+00 0. -1.
</event>
<event>
 5   0  0.1999142E-05  0.1999679E+04  0.7818609E-02  0.8606771E-01
       -2   -1    0    0    0  501  0.00000000000E+00  0.00000000000E+00  0.10237258368E+04  0.10237258369E+04  0.25500000920E-02 0. -1.
        2   -1    0    0  501    0  0.00000000000E+00  0.00000000000E+00 -0.97651089121E+03  0.97651089121E+03  0.25500000920E-02 0.  1.
    10030    2    1    2    0    0  0.00000000000E+00  0.00000000000E+00  0.47214945639E+02  0.20002367281E+04  0.19996794036E+04 0.  0.
        1    1    3    3  502    0  0.60722643781E+03  0.51611925756E+03 -0.58036242934E+03  0.98586184844E+03  0.50400001928E-02 0.  1.
       -1    1    3    3    0  502 -0.60722643781E+03 -0.51611925756E+03  0.62757737498E+03  0.10143748796E+04  0.50400001928E-02 0. -1.
</event>
<event>
 5   0  0.9333353E-06  0.2012507E+04  0.7818609E-02  0.8600796E-01
       -1   -1    0    0    0  501  0.00000000000E+00  0.00000000000E+00  0.11472689130E+04  0.11472689130E+04  0.50400001928E-02 0.  1.
        1   -1    0    0  501    0  0.00000000000E+00  0.00000000000E+00 -0.88257044161E+03  0.88257044163E+03  0.50400001928E-02 0. -1.
    10030    2    1    2    0    0  0.00000000000E+00  0.00000000000E+00  0.26469847134E+03  0.20298393546E+04  0.20125065279E+04 0.  0.
        2    1    3    3  502    0  0.91707925183E+03 -0.34382922084E+03  0.36518967577E+03  0.10452829218E+04  0.25500000920E-02 0.  1.
       -2    1    3    3    0  502 -0.91707925183E+03  0.34382922084E+03 -0.10049120442E+03  0.98455643282E+03  0.25500000920E-02 0. -1.
</event>
<event>
 5   0  0.9140695E-06  0.1999633E+04  0.7818609E-02  0.8606792E-01
       -1   -1    0    0    0  501  0.00000000000E+00  0.00000000000E+00  0.12202537475E+04  0.12202537476E+04  0.50400001928E-02 0. -1.
        1   -1    0    0  501    0  0.00000000000E+00  0.00000000000E+00 -0.81920086778E+03  0.81920086779E+03  0.50400001928E-02 0.  1.
    10030    2    1    2    0    0  0.00000000000E+00  0.00000000000E+00  0.40105287977E+03  0.20394546154E+04  0.19996328952E+04 0.  0.
        1    1    3    3  502    0 -0.52541299574E+03 -0.21632491115E+03 -0.63852149985E+03  0.85473094543E+03  0.50400001928E-02 0.  1.
       -1    1    3    3    0  502  0.52541299574E+03  0.21632491115E+03  0.10395743796E+04  0.11847236699E+04  0.50400001928E-02 0. -1.
</event>
<event>
 5   0  0.9333353E-06  0.2000226E+04  0.7818609E-02  0.8606515E-01
       -1   -1    0    0    0  501  0.00000000000E+00  0.00000000000E+00  0.10000882821E+04  0.10000882822E+04  0.50400001928E-02 0. -1.
        1   -1    0    0  501    0  0.00000000000E+00  0.00000000000E+00 -0.10001378930E+04  0.10001378930E+04  0.50400001928E-02 0.  1.
    10030    2    1    2    0    0  0.00000000000E+00  0.00000000000E+00 -0.49610841764E-01  0.20002261751E+04  0.20002261745E+04 0.  0.
        2    1    3    3  502    0 -0.32142547013E+03  0.93675565848E+03  0.13926155710E+03  0.10001096329E+04  0.25500000920E-02 0.  1.
       -2    1    3    3    0  502  0.32142547013E+03 -0.93675565848E+03 -0.13931116794E+03  0.10001165422E+04  0.25500000920E-02 0. -1.
</event>
<event>
 5   0  0.2038882E-05  0.1997031E+04  0.7818609E-02  0.8608010E-01
        2   -1    0    0  501    0  0.00000000000E+00  0.00000000000E+00  0.12307319220E+04  0.12307319220E+04  0.25500000920E-02 0.  1.
       -2   -1    0    0    0  501  0.00000000000E+00  0.00000000000E+00 -0.81011364321E+03  0.81011364322E+03  0.25500000920E-02 0. -1.
    10030    2    1    2    0    0  0.00000000000E+00  0.00000000000E+00  0.42061827882E+03  0.20408455652E+04  0.19970305167E+04 0.  0.
        3    1    3    3  502    0 -0.44346552464E+02 -0.77612983303E+03  0.85070656074E+03  0.11524086936E+04  0.10100000352E+00 0.  1.
       -3    1    3    3    0  502  0.44346552464E+02  0.77612983303E+03 -0.43008828192E+03  0.88843687163E+03  0.10100000352E+00 0. -1.
</event>
<event>
 5   0  0.9333353E-06  0.2006217E+04  0.7818609E-02  0.8603720E-01
        1   -1    0    0  501    0  0.00000000000E+00  0.00000000000E+00  0.29323784297E+04  0.29323784297E+04  0.50400001928E-02 0.  1.
       -1   -1    0    0    0  501  0.00000000000E+00  0.00000000000E+00 -0.34314345339E+03  0.34314345342E+03  0.50400001928E-02 0. -1.
    10030    2    1    2    0    0  0.00000000000E+00  0.00000000000E+00  0.25892349763E+04  0.32755218831E+04  0.20062167989E+04 0.  0.
        2    1    3    3  502    0  0.37962973375E+03 -0.47935516180E+03  0.25929121885E+04  0.26640371100E+04  0.25500000920E-02 0.  1.
       -2    1    3    3    0  502 -0.37962973375E+03  0.47935516180E+03 -0.36772122253E+01  0.61148477314E+03  0.25500000920E-02 0. -1.
</event>
<event>
 5   0  0.1979765E-05  0.2007925E+04  0.7818609E-02  0.8602924E-01
        2   -1    0    0  501    0  0.00000000000E+00  0.00000000000E+00  0.82014329030E+03  0.82014329030E+03  0.25500000920E-02 0.  1.
       -2   -1    0    0    0  501  0.00000000000E+00  0.00000000000E+00 -0.12289812266E+04  0.12289812266E+04  0.25500000920E-02 0. -1.
    10030    2    1    2    0    0  0.00000000000E+00  0.00000000000E+00 -0.40883793635E+03  0.20491245169E+04  0.20079250055E+04 0.  0.
        2    1    3    3  502    0 -0.11609235646E+03  0.73695862452E+03  0.48119572160E+03  0.88776954891E+03  0.25500000920E-02 0.  1.
       -2    1    3    3    0  502  0.11609235646E+03 -0.73695862452E+03 -0.89003365795E+03  0.11613549680E+04  0.25500000920E-02 0. -1.
</event>
<event>
 5   0  0.9220260E-06  0.2011171E+04  0.7818609E-02  0.8601416E-01
       -1   -1    0    0    0  501  0.00000000000E+00  0.00000000000E+00  0.18113933887E+04  0.18113933887E+04  0.50400001928E-02 0.  1.
        1   -1    0    0  501    0  0.00000000000E+00  0.00000000000E+00 -0.55824523700E+03  0.55824523702E+03  0.50400001928E-02 0. -1.
    10030    2    1    2    0    0  0.00000000000E+00  0.00000000000E+00  0.12531481517E+04  0.23696386257E+04  0.20111705364E+04 0.  0.
        3    1    3    3  502    0 -0.75654947543E+03  0.56263507657E+03  0.10385809998E+04  0.14027030482E+04  0.10100000352E+00 0. -1.
       -3    1    3    3    0  502  0.75654947543E+03 -0.56263507657E+03  0.21456715190E+03  0.96693557750E+03  0.10100000352E+00 0.  1.
</event>
<event>
 5   0  0.9140695E-06  0.2004043E+04  0.7818609E-02  0.8604733E-01
       -1   -1    0    0    0  501  0.00000000000E+00  0.00000000000E+00  0.10565455201E+04  0.10565455201E+04  0.50400001928E-02 0. -1.
        1   -1    0    0  501    0  0.00000000000E+00  0.00000000000E+00 -0.95031089675E+03  0.95031089677E+03  0.50400001928E-02 0.  1.
    10030    2    1    2    0    0  0.00000000000E+00  0.00000000000E+00  0.10623462333E+03  0.20068564169E+04  0.20040426350E+04 0.  0.
        1    1    3    3  502    0  0.94369607754E+03 -0.87977166060E+02 -0.27252298407E+03  0.98619016695E+03  0.50400001928E-02 0.  1.
       -1    1    3    3    0  502 -0.94369607754E+03  0.87977166060E+02  0.37875760740E+03  0.10206662499E+04  0.50400001928E-02 0. -1.
</event>
<event>
 5   0  0.2003576E-05  0.1995095E+04  0.7818609E-02  0.8608917E-01
       -2   -1    0    0    0  501  0.00000000000E+00  0.00000000000E+00  0.67655944281E+03  0.67655944282E+03  0.25500000920E-02 0. -1.
        2   -1    0    0  501    0  0.00000000000E+00  0.00000000000E+00 -0.14708254628E+04  0.14708254628E+04  0.25500000920E-02 0.  1.
    10030    2    1    2    0    0  0.00000000000E+00  0.00000000000E+00 -0.79426601999E+03  0.21473849056E+04  0.19950948404E+04 0.  0.
        4    1    3    3  502    0  0.50163973096E+03  0.21688414138E+03  0.50108420239E+03  0.74146351309E+03  0.12699999809E+01 0. -1.
       -4    1    3    3    0  502 -0.50163973096E+03 -0.21688414138E+03 -0.12953502224E+04  0.14059213925E+04  0.12699999809E+01 0.  1.
</event>
<event>
 5   0  0.2020029E-05  0.2000531E+04  0.7818609E-02  0.8606372E-01
        2   -1    0    0  501    0  0.00000000000E+00  0.00000000000E+00  0.54641785798E+03  0.54641785798E+03  0.25500000920E-02 0. -1.
       -2   -1    0    0    0  501  0.00000000000E+00  0.00000000000E+00 -0.18310739519E+04  0.18310739519E+04  0.25500000920E-02 0.  1.
    10030    2    1    2    0    0  0.00000000000E+00  0.00000000000E+00 -0.12846560939E+04  0.23774918098E+04  0.20005314360E+04 0.  0.
        5    1    3    3  502    0 -0.61834130439E+03 -0.77594909804E+03 -0.49169039181E+03  0.11073502169E+04  0.46999998093E+01 0. -1.
       -5    1    3    3    0  502  0.61834130439E+03  0.77594909804E+03 -0.79296570207E+03  0.12701415929E+04  0.46999998093E+01 0.  1.
</event>
<event>
 5   0  0.9333353E-06  0.2010574E+04  0.7818609E-02  0.8601693E-01
        1   -1    0    0  501    0  0.00000000000E+00  0.00000000000E+00  0.89006344039E+03  0.89006344040E+03  0.50400001928E-02 0. -1.
       -1   -1    0    0    0  501  0.00000000000E+00  0.00000000000E+00 -0.11354269376E+04  0.11354269376E+04  0.50400001928E-02 0.  1.
    10030    2    1    2    0    0  0.00000000000E+00  0.00000000000E+00 -0.24536349719E+03  0.20254903780E+04  0.20105740537E+04 0.  0.
        2    1    3    3  502    0 -0.49842001401E+03 -0.72590759764E+03  0.36592958008E+03  0.95355587579E+03  0.25500000920E-02 0. -1.
       -2    1    3    3    0  502  0.49842001401E+03  0.72590759764E+03 -0.61129307727E+03  0.10719345022E+04  0.25500000920E-02 0.  1.
</event>
<event>
 5   0  0.9333353E-06  0.1999545E+04  0.7818609E-02  0.8606833E-01
        1   -1    0    0  501    0  0.00000000000E+00  0.00000000000E+00  0.18167613527E+04  0.18167613527E+04  0.50400001928E-02 0.  1.
       -1   -1    0    0    0  501  0.00000000000E+00  0.00000000000E+00 -0.55017960340E+03  0.55017960342E+03  0.50400001928E-02 0. -1.
    10030    2    1    2    0    0  0.00000000000E+00  0.00000000000E+00  0.12665817493E+04  0.23669409561E+04  0.19995449888E+04 0.  0.
        2    1    3    3  502    0 -0.73633438381E+02  0.57162486440E+03 -0.33373699293E+03  0.66600093791E+03  0.25500000920E-02 0. -1.
       -2    1    3    3    0  502  0.73633438381E+02 -0.57162486440E+03  0.16003187422E+04  0.17009400182E+04  0.25500000920E-02 0.  1.
</event>
<event>
 5   0  0.9140695E-06  0.1999817E+04  0.7818609E-02  0.8606706E-01
       -1   -1    0    0    0  501  0.00000000000E+00  0.00000000000E+00  0.10507430161E+04  0.10507430161E+04  0.50400001928E-02 0.  1.
        1   -1    0    0  501    0  0.00000000000E+00  0.00000000000E+00 -0.95153338111E+03  0.95153338112E+03  0.50400001928E-02 0. -1.
    10030    2    1    2    0    0  0.00000000000E+00  0.00000000000E+00  0.99209634951E+02  0.20022763972E+04  0.19998170464E+04 0.  0.
        1    1    3    3  502    0  0.64265237450E+03 -0.46227160306E+03  0.66119146415E+03  0.10314413516E+04  0.50400001928E-02 0.  1.
       -1    1    3    3    0  502 -0.64265237450E+03  0.46227160306E+03 -0.56198182920E+03  0.97083504562E+03  0.50400001928E-02 0. -1.
</event>
<event>
 5   0  0.9342635E-06  0.2004293E+04  0.7818609E-02  0.8604616E-01
        1   -1    0    0  501    0  0.00000000000E+00  0.00000000000E+00  0.16606552647E+04  0.16606552647E+04  0.50400001928E-02 0. -1.
       -1   -1    0    0    0  501  0.00000000000E+00  0.00000000000E+00 -0.60475998902E+03  0.60475998905E+03  0.50400001928E-02 0.  1.
    10030    2    1    2    0    0  0.00000000000E+00  0.00000000000E+00  0.10558952757E+04  0.22654152537E+04  0.20042932517E+04 0.  0.
        5    1    3    3  502    0  0.85580150559E+03  0.25921903939E+03  0.16584274520E+02  0.89436449813E+03  0.46999998093E+01 0.  1.
       -5    1    3    3    0  502 -0.85580150559E+03 -0.25921903939E+03  0.10393110011E+04  0.13710507556E+04  0.46999998093E+01 0. -1.
</event>
<event>
 5   0  0.9220260E-06  0.1995351E+04  0.7818609E-02  0.8608797E-01
       -1   -1    0    0    0  501  0.00000000000E+00  0.00000000000E+00  0.12302724743E+04  0.12302724743E+04  0.50400001928E-02 0. -1.
        1   -1    0    0  501    0  0.00000000000E+00  0.00000000000E+00 -0.80905354402E+03  0.80905354404E+03  0.50400001928E-02 0.  1.
    10030    2    1    2    0    0  0.00000000000E+00  0.00000000000E+00  0.42121893031E+03  0.20393260184E+04  0.19953509020E+04 0.  0.
        3    1    3    3  502    0 -0.17842992713E+02 -0.85345207521E+03 -0.31716000295E+03  0.91065322420E+03  0.10100000352E+00 0.  1.
       -3    1    3    3    0  502  0.17842992713E+02  0.85345207521E+03  0.73837893326E+03  0.11286727942E+04  0.10100000352E+00 0. -1.
</event>
<event>
 5   0  0.1999142E-05  0.1998100E+04  0.7818609E-02  0.8607510E-01
        2   -1    0    0  501    0  0.00000000000E+00  0.00000000000E+00  0.10040885600E+04  0.10040885600E+04  0.25500000920E-02 0. -1.
       -2   -1    0    0    0  501  0.00000000000E+00  0.00000000000E+00 -0.99403631281E+03  0.99403631281E+03  0.25500000920E-02 0.  1.
    10030    2    1    2    0    0  0.00000000000E+00  0.00000000000E+00  0.10052247144E+02  0.19981248728E+04  0.19980995870E+04 0.  0.
        1    1    3    3  502    0 -0.50262720899E+03 -0.47287263992E+03 -0.71738030862E+03  0.99542812499E+03  0.50400001928E-02 0.  1.
       -1    1    3    3    0  502  0.50262720899E+03  0.47287263992E+03  0.72743255577E+03  0.10026967478E+04  0.50400001928E-02 0. -1.
</event>
<event>
 5   0  0.9342635E-06  0.2000779E+04  0.7818609E-02  0.8606257E-01
        1   -1    0    0  501    0  0.00000000000E+00  0.00000000000E+00  0.12560895371E+04  0.12560895371E+04  0.50400001928E-02 0.  1.
       -1   -1    0    0    0  501  0.00000000000E+00  0.00000000000E+00 -0.79674194119E+03  0.79674194120E+03  0.50400001928E-02 0. -1.
    10030    2    1    2    0    0  0.00000000000E+00  0.00000000000E+00  0.45934759591E+03  0.20528314783E+04  0.20007790644E+04 0.  0.
        5    1    3    3  502    0  0.32807502624E+03  0.63793739577E+03 -0.48571754213E+03  0.86633767348E+03  0.46999998093E+01 0. -1.
       -5    1    3    3    0  502 -0.32807502624E+03 -0.63793739577E+03  0.94506513804E+03  0.11864938048E+04  0.46999998093E+01 0.  1.
</event>
<event>
 5   0  0.9140695E-06  0.1982864E+04  0.7818609E-02  0.8614674E-01
       -1   -1    0    0    0  501  0.00000000000E+00  0.00000000000E+00  0.16231573153E+04  0.16231573153E+04  0.50400001928E-02 0.  1.
        1   -1    0    0  501    0  0.00000000000E+00  0.00000000000E+00 -0.60557142046E+03  0.60557142048E+03  0.50400001928E-02 0. -1.
    10030    2    1    2    0    0  0.00000000000E+00  0.00000000000E+00  0.10175858949E+04  0.22287287358E+04  0.19828642728E+04 0.  0.
        1    1    3    3  502    0  0.97483502334E+03 -0.13851302051E+03  0.37844590775E+03  0.10548509301E+04  0.50400001928E-02 0.  1.
       -1    1    3    3    0  502 -0.97483502334E+03  0.13851302051E+03  0.63913998711E+03  0.11738778057E+04  0.50400001928E-02 0. -1.
</event>
<event>
 5   0  0.9140695E-06  0.1993371E+04  0.7818609E-02  0.8609726E-01
       -1   -1    0    0    0  501  0.00000000000E+00  0.00000000000E+00  0.11931699680E+04  0.11931699680E+04  0.50400001928E-02 0. -1.
        1   -1    0    0  501    0  0.00000000000E+00  0.00000000000E+00 -0.83255682663E+03  0.83255682664E+03  0.50400001928E-02 0.  1.
    10030    2    1    2    0    0  0.00000000000E+00  0.00000000000E+00  0.36061314133E+03  0.20257267946E+04  0.19933708157E+04 0.  0.
        1    1    3    3  502    0  0.38560934748E+03 -0.32659146161E+03 -0.69272186093E+03  0.85744978179E+03  0.50400001928E-02 0.  1.
       -1    1    3    3    0  502 -0.38560934748E+03  0.32659146161E+03  0.10533350023E+04  0.11682770128E+04  0.50400001928E-02 0. -1.
</event>
<event>
 5   0  0.9370269E-06  0.2062621E+04  0.7818609E-02  0.8577890E-01
        1   -1    0    0  501    0  0.00000000000E+00  0.00000000000E+00  0.12962170506E+04  0.12962170506E+04  0.50400001928E-02 0.  1.
       -1   -1    0    0    0  501  0.00000000000E+00  0.00000000000E+00 -0.82054238094E+03  0.82054238095E+03  0.50400001928E-02 0. -1.
    10030    2    1    2    0    0  0.00000000000E+00  0.00000000000E+00  0.47567466963E+03  0.21167594315E+04  0.20626206873E+04 0.  0.
        4    1    3    3  502    0  0.92488829803E+03 -0.40718216274E+03  0.44911410279E+03  0.11058574807E+04  0.12699999809E+01 0. -1.
       -4    1    3    3    0  502 -0.92488829803E+03  0.40718216274E+03  0.26560566843E+02  0.10109019508E+04  0.12699999809E+01 0.  1.
</event>
<event>
 5   0  0.9220260E-06  0.2009943E+04  0.7818609E-02  0.8601986E-01
       -1   -1    0    0    0  501  0.00000000000E+00  0.00000000000E+00  0.84488003648E+03  0.84488003649E+03  0.50400001928E-02 0.  1.
        1   -1    0    0  501    0  0.00000000000E+00  0.00000000000E+00 -0.11953980150E+04  0.11953980151E+04  0.50400001928E-02 0. -1.
    10030    2    1    2    0    0  0.00000000000E+00  0.00000000000E+00 -0.35051797857E+03  0.20402780516E+04  0.20099432018E+04 0.  0.
        3    1    3    3  502    0 -0.56022169427E+02  0.99521631266E+03 -0.30515082389E+03  0.10424543290E+04  0.10100000352E+00 0.  1.
       -3    1    3    3    0  502  0.56022169427E+02 -0.99521631266E+03 -0.45367154685E+02  0.99782372259E+03  0.10100000352E+00 0. -1.
</event>
<event>
 5   0  0.1999142E-05  0.1998259E+04  0.7818609E-02  0.8607435E-01
       -2   -1    0    0    0  501  0.00000000000E+00  0.00000000000E+00  0.55299768985E+03  0.55299768986E+03  0.25500000920E-02 0.  1.
        2   -1    0    0  501    0  0.00000000000E+00  0.00000000000E+00 -0.18051782009E+04  0.18051782009E+04  0.25500000920E-02 0. -1.
    10030    2    1    2    0    0  0.00000000000E+00  0.00000000000E+00 -0.12521805111E+04  0.23581758908E+04  0.19982586168E+04 0.  0.
        1    1    3    3  502    0 -0.25547185481E+03 -0.87066902277E+03 -0.13251275263E+03  0.91700057004E+03  0.50400001928E-02 0.  1.
       -1    1    3    3    0  502  0.25547185481E+03  0.87066902277E+03 -0.11196677584E+04  0.14411753207E+04  0.50400001928E-02 0. -1.
</event>
<event>
 5   0  0.2038882E-05  0.1999436E+04  0.7818609E-02  0.8606884E-01
        2   -1    0    0  501    0  0.00000000000E+00  0.00000000000E+00  0.13488710891E+04  0.13488710891E+04  0.25500000920E-02 0.  1.
       -2   -1    0    0    0  501  0.00000000000E+00  0.00000000000E+00 -0.74094276878E+03  0.74094276878E+03  0.25500000920E-02 0. -1.
    10030    2    1    2    0    0  0.00000000000E+00  0.00000000000E+00  0.60792832029E+03  0.20898138579E+04  0.19994362000E+04 0.  0.
        3    1    3    3  502    0 -0.17669620079E+03 -0.32254228837E+03  0.12755976143E+04  0.13275557838E+04  0.10100000352E+00 0.  1.
       -3    1    3    3    0  502  0.17669620079E+03  0.32254228837E+03 -0.66766929401E+03  0.76225807410E+03  0.10100000352E+00 0. -1.
</event>
<event>
 5   0  0.9220260E-06  0.2001504E+04  0.7818609E-02  0.8605918E-01
        1   -1    0    0  501    0  0.00000000000E+00  0.00000000000E+00  0.16335053203E+04  0.16335053203E+04  0.50400001928E-02 0.  1.
       -1   -1    0    0    0  501  0.00000000000E+00  0.00000000000E+00 -0.61310119887E+03  0.61310119889E+03  0.50400001928E-02 0. -1.
    10030    2    1    2    0    0  0.00000000000E+00  0.00000000000E+00  0.10204041215E+04  0.22466065192E+04  0.20015035052E+04 0.  0.
        3    1    3    3  502    0  0.10928455208E+03  0.69718175707E+03  0.13066726975E+04  0.14850586064E+04  0.10100000352E+00 0.  1.
       -3    1    3    3    0  502 -0.10928455208E+03 -0.69718175707E+03 -0.28626857606E+03  0.76154791285E+03  0.10100000352E+00 0. -1.
</event>
<event>
 5   0  0.7132000E-06  0.1982569E+04  0.7818609E-02  0.8614814E-01
       -4   -1    0    0    0  501  0.00000000000E+00  0.00000000000E+00  0.11198085077E+04  0.11198092278E+04  0.12699999809E+01 0.  1.
        4   -1    0    0  501    0  0.00000000000E+00  0.00000000000E+00 -0.87751015459E+03  0.87751107361E+03  0.12699999809E+01 0. -1.
    10030    2    1    2    0    0  0.00000000000E+00  0.00000000000E+00  0.24229835309E+03  0.19973203015E+04  0.19825690139E+04 0.  0.
        4    1    3    3  502    0  0.30432212146E+03 -0.64676720660E+03  0.81308083013E+03  0.10825995670E+04  0.12699999809E+01 0.  1.
       -4    1    3    3    0  502 -0.30432212146E+03  0.64676720660E+03 -0.57078247703E+03  0.91472073451E+03  0.12699999809E+01 0. -1.
</event>
<event>
 5   0  0.9370269E-06  0.2007733E+04  0.7818609E-02  0.8603014E-01
        1   -1    0    0  501    0  0.00000000000E+00  0.00000000000E+00  0.15692749805E+04  0.15692749805E+04  0.50400001928E-02 0.  1.
       -1   -1    0    0    0  501  0.00000000000E+00  0.00000000000E+00 -0.64217399233E+03  0.64217399235E+03  0.50400001928E-02 0. -1.
    10030    2    1    2    0    0  0.00000000000E+00  0.00000000000E+00  0.92710098813E+03  0.22114489728E+04  0.20077326309E+04 0.  0.
        4    1    3    3  502    0  0.51245216007E+03  0.63734280947E+03  0.11048012718E+04  0.13745546683E+04  0.12699999809E+01 0.  1.
       -4    1    3    3    0  502 -0.51245216007E+03 -0.63734280947E+03 -0.17770028369E+03  0.83689430448E+03  0.12699999809E+01 0. -1.
</event>
<event>
 5   0  0.9333353E-06  0.1999528E+04  0.7818609E-02  0.8606842E-01
        1   -1    0    0  501    0  0.00000000000E+00  0.00000000000E+00  0.17526715598E+04  0.17526715598E+04  0.50400001928E-02 0. -1.
       -1   -1    0    0    0  501  0.00000000000E+00  0.00000000000E+00 -0.57028801965E+03  0.57028801967E+03  0.50400001928E-02 0.  1.
    10030    2    1    2    0    0  0.00000000000E+00  0.00000000000E+00  0.11823835402E+04  0.23229595795E+04  0.19995275372E+04 0.  0.
        2    1    3    3  502    0 -0.37312896859E+03 -0.91038272428E+03  0.38498232100E+03  0.10565194363E+04  0.25500000920E-02 0.  1.
       -2    1    3    3    0  502  0.37312896859E+03  0.91038272428E+03  0.79740121919E+03  0.12664401432E+04  0.25500000920E-02 0. -1.
</event>
<event>
 5   0  0.9140695E-06  0.2006743E+04  0.7818609E-02  0.8603475E-01
        1   -1    0    0  501    0  0.00000000000E+00  0.00000000000E+00  0.12788012279E+04  0.12788012279E+04  0.50400001928E-02 0.  1.
       -1   -1    0    0    0  501  0.00000000000E+00  0.00000000000E+00 -0.78726410961E+03  0.78726410962E+03  0.50400001928E-02 0. -1.
    10030    2    1    2    0    0  0.00000000000E+00  0.00000000000E+00  0.49153711825E+03  0.20660653375E+04  0.20067429432E+04 0.  0.
        1    1    3    3  502    0  0.53989831528E+03 -0.30984295573E+03 -0.56442602174E+03  0.84027946667E+03  0.50400001928E-02 0. -1.
       -1    1    3    3    0  502 -0.53989831528E+03  0.30984295573E+03  0.10559631400E+04  0.12257858708E+04  0.50400001928E-02 0.  1.
</event>
<event>
 5   0  0.9342635E-06  0.1997832E+04  0.7818609E-02  0.8607635E-01
        1   -1    0    0  501    0  0.00000000000E+00  0.00000000000E+00  0.11118833526E+04  0.11118833527E+04  0.50400001928E-02 0. -1.
       -1   -1    0    0    0  501  0.00000000000E+00  0.00000000000E+00 -0.89742591922E+03  0.89742591924E+03  0.50400001928E-02 0.  1.
    10030    2    1    2    0    0  0.00000000000E+00  0.00000000000E+00  0.21445743342E+03  0.20093092719E+04  0.19978317645E+04 0.  0.
        5    1    3    3  502    0  0.76688091464E+03 -0.48655111994E+03  0.52551770440E+03  0.10492994221E+04  0.46999998093E+01 0. -1.
       -5    1    3    3    0  502 -0.76688091464E+03  0.48655111994E+03 -0.31106027098E+03  0.96000984981E+03  0.46999998093E+01 0.  1.
</event>
<event>
 5   0  0.2020029E-05  0.1999174E+04  0.7818609E-02  0.8607007E-01
       -2   -1    0    0    0  501  0.00000000000E+00  0.00000000000E+00  0.10807097646E+04  0.10807097646E+04  0.25500000920E-02 0.  1.
        2   -1    0    0  501    0  0.00000000000E+00  0.00000000000E+00 -0.92455392605E+03  0.92455392606E+03  0.25500000920E-02 0. -1.
    10030    2    1    2    0    0  0.00000000000E+00  0.00000000000E+00  0.15615583854E+03  0.20052636907E+04  0.19991742853E+04 0.  0.
        5    1    3    3  502    0 -0.27073463626E+03 -0.67453077579E+03  0.76636287895E+03  0.10562306391E+04  0.46999998093E+01 0.  1.
       -5    1    3    3    0  502  0.27073463626E+03  0.67453077579E+03 -0.61020704041E+03  0.94903305154E+03  0.46999998093E+01 0. -1.
</event>
<event>
 5   0  0.2003576E-05  0.1998977E+04  0.7818609E-02  0.8607099E-01
        2   -1    0    0  501    0  0.00000000000E+00  0.00000000000E+00  0.18344315026E+04  0.18344315026E+04  0.25500000920E-02 0. -1.
       -2   -1    0    0    0  501  0.00000000000E+00  0.00000000000E+00 -0.54457037825E+03  0.54457037825E+03  0.25500000920E-02 0.  1.
    10030    2    1    2    0    0  0.00000000000E+00  0.00000000000E+00  0.12898611243E+04  0.23790018808E+04  0.19989767955E+04 0.  0.
        4    1    3    3  502    0 -0.11359308245E+03  0.21543523957E+03  0.17985759559E+04  0.18149911330E+04  0.12699999809E+01 0. -1.
       -4    1    3    3    0  502  0.11359308245E+03 -0.21543523957E+03 -0.50871483161E+03  0.56401074779E+03  0.12699999809E+01 0.  1.
</event>
<event>
 5   0  0.9342635E-06  0.2000147E+04  0.7818609E-02  0.8606552E-01
        1   -1    0    0  501    0  0.00000000000E+00  0.00000000000E+00  0.70407785734E+03  0.70407785735E+03  0.50400001928E-02 0. -1.
       -1   -1    0    0    0  501  0.00000000000E+00  0.00000000000E+00 -0.14205066912E+04  0.14205066912E+04  0.50400001928E-02 0.  1.
    10030    2    1    2    0    0  0.00000000000E+00  0.00000000000E+00 -0.71642883384E+03  0.21245845485E+04  0.20001473021E+04 0.  0.
        5    1    3    3  502    0  0.36676711278E+03  0.44653555296E+02  0.62890947695E+03  0.72942530476E+03  0.46999998093E+01 0. -1.
       -5    1    3    3    0  502 -0.36676711278E+03 -0.44653555296E+02 -0.13453383108E+04  0.13951592438E+04  0.46999998093E+01 0.  1.
</event>
<event>
 5   0  0.9342635E-06  0.1998723E+04  0.7818609E-02  0.8607218E-01
       -1   -1    0    0    0  501  0.00000000000E+00  0.00000000000E+00  0.72424095877E+03  0.72424095879E+03  0.50400001928E-02 0.  1.
        1   -1    0    0  501    0  0.00000000000E+00  0.00000000000E+00 -0.13789934407E+04  0.13789934408E+04  0.50400001928E-02 0. -1.
    10030    2    1    2    0    0  0.00000000000E+00  0.00000000000E+00 -0.65475248198E+03  0.21032343995E+04  0.19987231241E+04 0.  0.
        5    1    3    3  502    0  0.57464065819E+03  0.14432129410E+03 -0.11742309082E+04  0.13152493443E+04  0.46999998093E+01 0. -1.
       -5    1    3    3    0  502 -0.57464065819E+03 -0.14432129410E+03  0.51947842621E+03  0.78798505523E+03  0.46999998093E+01 0.  1.
</event>
<event>
 5   0  0.1999142E-05  0.1998701E+04  0.7818609E-02  0.8607228E-01
        2   -1    0    0  501    0  0.00000000000E+00  0.00000000000E+00  0.69345540262E+03  0.69345540262E+03  0.25500000920E-02 0.  1.
       -2   -1    0    0    0  501  0.00000000000E+00  0.00000000000E+00 -0.14401807509E+04  0.14401807509E+04  0.25500000920E-02 0. -1.
    10030    2    1    2    0    0  0.00000000000E+00  0.00000000000E+00 -0.74672534827E+03  0.21336361535E+04  0.19987007004E+04 0.  0.
        1    1    3    3  502    0  0.78350465804E+03  0.46699512112E+03 -0.80926457019E+03  0.12193740759E+04  0.50400001928E-02 0. -1.
       -1    1    3    3    0  502 -0.78350465804E+03 -0.46699512112E+03  0.62539221916E+02  0.91426207765E+03  0.50400001928E-02 0.  1.
</event>
<event>
 5   0  0.2003576E-05  0.2000205E+04  0.7818609E-02  0.8606525E-01
        2   -1    0    0  501    0  0.00000000000E+00  0.00000000000E+00  0.58818038990E+03  0.58818038990E+03  0.25500000920E-02 0. -1.
       -2   -1    0    0    0  501  0.00000000000E+00  0.00000000000E+00 -0.17005076471E+04  0.17005076471E+04  0.25500000920E-02 0.  1.
    10030    2    1    2    0    0  0.00000000000E+00  0.00000000000E+00 -0.11123272572E+04  0.22886880370E+04  0.20002052404E+04 0.  0.
        4    1    3    3  502    0  0.95645428200E+03 -0.12318657665E+03 -0.25294592961E+03  0.99697692172E+03  0.12699999809E+01 0.  1.
       -4    1    3    3    0  502 -0.95645428200E+03  0.12318657665E+03 -0.85938132758E+03  0.12917111153E+04  0.12699999809E+01 0. -1.
</event>
<event>
 5   0  0.2003576E-05  0.2022212E+04  0.7818609E-02  0.8596306E-01
        2   -1    0    0  501    0  0.00000000000E+00  0.00000000000E+00  0.20458830608E+04  0.20458830608E+04  0.25500000920E-02 0.  1.
       -2   -1    0    0    0  501  0.00000000000E+00  0.00000000000E+00 -0.49970387449E+03  0.49970387449E+03  0.25500000920E-02 0. -1.
    10030    2    1    2    0    0  0.00000000000E+00  0.00000000000E+00  0.15461791864E+04  0.25455869353E+04  0.20222123452E+04 0.  0.
        4    1    3    3  502    0 -0.18285329051E+03 -0.80816520418E+03  0.43664549054E+02  0.82974365249E+03  0.12699999809E+01 0. -1.
       -4    1    3    3    0  502  0.18285329051E+03  0.80816520418E+03  0.15025146373E+04  0.17158432828E+04  0.12699999809E+01 0.  1.
</event>
<event>
 5   0  0.9370269E-06  0.2000393E+04  0.7818609E-02  0.8606437E-01
        1   -1    0    0  501    0  0.00000000000E+00  0.00000000000E+00  0.10496855973E+04  0.10496855973E+04  0.50400001928E-02 0.  1.
       -1   -1    0    0    0  501  0.00000000000E+00  0.00000000000E+00 -0.95304059434E+03  0.95304059435E+03  0.50400001928E-02 0. -1.
    10030    2    1    2    0    0  0.00000000000E+00  0.00000000000E+00  0.96645002975E+02  0.20027261917E+04  0.20003929470E+04 0.  0.
        4    1    3    3  502    0 -0.69330550392E+02 -0.94014460773E+03 -0.28630194170E+03  0.98521521679E+03  0.12699999809E+01 0. -1.
       -4    1    3    3    0  502  0.69330550392E+02  0.94014460773E+03  0.38294694468E+03  0.10175109749E+04  0.12699999809E+01 0.  1.
</event>
<event>
 5   0  0.9220260E-06  0.1999504E+04  0.7818609E-02  0.8606853E-01
       -1   -1    0    0    0  501  0.00000000000E+00  0.00000000000E+00  0.62626342575E+03  0.62626342577E+03  0.50400001928E-02 0. -1.
        1   -1    0    0  501    0  0.00000000000E+00  0.00000000000E+00 -0.15959805103E+04  0.15959805103E+04  0.50400001928E-02 0.  1.
    10030    2    1    2    0    0  0.00000000000E+00  0.00000000000E+00 -0.96971708454E+03  0.22222439361E+04  0.19995041604E+04 0.  0.
        3    1    3    3  502    0 -0.55469244070E+03  0.80143716595E+03 -0.23754081363E+03  0.10032003205E+04  0.10100000352E+00 0. -1.
       -3    1    3    3    0  502  0.55469244070E+03 -0.80143716595E+03 -0.73217627090E+03  0.12190436156E+04  0.10100000352E+00 0.  1.
</event>
<event>
 5   0  0.9220260E-06  0.1997826E+04  0.7818609E-02  0.8607638E-01
        1   -1    0    0  501    0  0.00000000000E+00  0.00000000000E+00  0.15892979701E+04  0.15892979701E+04  0.50400001928E-02 0. -1.
       -1   -1    0    0    0  501  0.00000000000E+00  0.00000000000E+00 -0.62784147151E+03  0.62784147153E+03  0.50400001928E-02 0.  1.
    10030    2    1    2    0    0  0.00000000000E+00  0.00000000000E+00  0.96145649862E+03  0.22171394417E+04  0.19978259947E+04 0.  0.
        3    1    3    3  502    0  0.20470766583E+03  0.52399758656E+02  0.15642108558E+04  0.15784190111E+04  0.10100000352E+00 0. -1.
       -3    1    3    3    0  502 -0.20470766583E+03 -0.52399758656E+02 -0.60275435714E+03  0.63872043056E+03  0.10100000352E+00 0.  1.
</event>
<event>
 5   0  0.2003576E-05  0.2010223E+04  0.7818609E-02  0.8601856E-01
       -2   -1    0    0    0  501  0.00000000000E+00  0.00000000000E+00  0.70671376021E+03  0.70671376022E+03  0.25500000920E-02 0.  1.
        2   -1    0    0  501    0  0.00000000000E+00  0.00000000000E+00 -0.14295019530E+04  0.14295019530E+04  0.25500000920E-02 0. -1.
    10030    2    1    2    0    0  0.00000000000E+00  0.00000000000E+00 -0.72278819278E+03  0.21362157132E+04  0.20102225752E+04 0.  0.
        4    1    3    3  502    0 -0.41734983133E+03 -0.13771603315E+03 -0.13219855038E+04  0.13931237822E+04  0.12699999809E+01 0. -1.
       -4    1    3    3    0  502  0.41734983133E+03  0.13771603315E+03  0.59919731100E+03  0.74309193099E+03  0.12699999809E+01 0.  1.
</event>
<event>
 5   0  0.9370269E-06  0.1998154E+04  0.7818609E-02  0.8607484E-01
        1   -1    0    0  501    0  0.00000000000E+00  0.00000000000E+00  0.72357917109E+03  0.72357917110E+03  0.50400001928E-02 0.  1.
       -1   -1    0    0    0  501  0.00000000000E+00  0.00000000000E+00 -0.13794684480E+04  0.13794684480E+04  0.50400001928E-02 0. -1.
    10030    2    1    2    0    0  0.00000000000E+00  0.00000000000E+00 -0.65588927691E+03  0.21030476191E+04  0.19981537840E+04 0.  0.
        4    1    3    3  502    0 -0.17913309274E+03 -0.87612461262E+03 -0.79683105876E+03  0.11977580519E+04  0.12699999809E+01 0. -1.
       -4    1    3    3    0  502  0.17913309274E+03  0.87612461262E+03  0.14094178185E+03  0.90528956723E+03  0.12699999809E+01 0.  1.
</event>
<event>
 5   0  0.1999142E-05  0.1999219E+04  0.7818609E-02  0.8606986E-01
        2   -1    0    0  501    0  0.00000000000E+00  0.00000000000E+00  0.18207885786E+04  0.18207885786E+04  0.25500000920E-02 0.  1.
       -2   -1    0    0    0  501  0.00000000000E+00  0.00000000000E+00 -0.54878367715E+03  0.54878367716E+03  0.25500000920E-02 0. -1.
    10030    2    1    2    0    0  0.00000000000E+00  0.00000000000E+00  0.12720049015E+04  0.23695722558E+04  0.19992188990E+04 0.  0.
        1    1    3    3  502    0  0.65928402417E+03  0.19195920154E+03  0.14970149324E+04  0.16469843555E+04  0.50400001928E-02 0.  1.
       -1    1    3    3    0  502 -0.65928402417E+03 -0.19195920154E+03 -0.22501003090E+03  0.72258790026E+03  0.50400001928E-02 0. -1.
</event>
<event>
 5   0  0.9342635E-06  0.1999630E+04  0.7818609E-02  0.8606794E-01
        1   -1    0    0  501    0  0.00000000000E+00  0.00000000000E+00  0.16448384974E+04  0.16448384974E+04  0.50400001928E-02 0. -1.
       -1   -1    0    0    0  501  0.00000000000E+00  0.00000000000E+00 -0.60773746640E+03  0.60773746642E+03  0.50400001928E-02 0.  1.
    10030    2    1    2    0    0  0.00000000000E+00  0.00000000000E+00  0.10371010310E+04  0.22525759638E+04  0.19996299469E+04 0.  0.
        5    1    3    3  502    0 -0.22894805076E+03  0.93232147347E+03  0.20400304025E+03  0.98146822173E+03  0.46999998093E+01 0.  1.
       -5    1    3    3    0  502  0.22894805076E+03 -0.93232147347E+03  0.83309799076E+03  0.12711077421E+04  0.46999998093E+01 0. -1.
</event>
<event>
 5   0  0.2038882E-05  0.1991891E+04  0.7818609E-02  0.8610421E-01
       -2   -1    0    0    0  501  0.00000000000E+00  0.00000000000E+00  0.33473344049E+03  0.33473344050E+03  0.25500000920E-02 0. -1.
        2   -1    0    0  501    0  0.00000000000E+00  0.00000000000E+00 -0.29632744242E+04  0.29632744242E+04  0.25500000920E-02 0.  1.
    10030    2    1    2    0    0  0.00000000000E+00  0.00000000000E+00 -0.26285409837E+04  0.32980078647E+04  0.19918906026E+04 0.  0.
        3    1    3    3  502    0  0.98723725849E+03 -0.87606747366E+02 -0.14764520962E+04  0.17782640831E+04  0.10100000352E+00 0.  1.
       -3    1    3    3    0  502 -0.98723725849E+03  0.87606747366E+02 -0.11520888875E+04  0.15197437816E+04  0.10100000352E+00 0. -1.
</event>
<event>
 5   0  0.1999142E-05  0.1981742E+04  0.7818609E-02  0.8615205E-01
       -2   -1    0    0    0  501  0.00000000000E+00  0.00000000000E+00  0.11133217417E+04  0.11133217417E+04  0.25500000920E-02 0. -1.
        2   -1    0    0  501    0  0.00000000000E+00  0.00000000000E+00 -0.88188800228E+03  0.88188800228E+03  0.25500000920E-02 0.  1.
    10030    2    1    2    0    0  0.00000000000E+00  0.00000000000E+00  0.23143373939E+03  0.19952097440E+04  0.19817417457E+04 0.  0.
        1    1    3    3  502    0  0.16673432446E+03  0.89891735644E+03  0.50037665169E+03  0.10422233649E+04  0.50400001928E-02 0. -1.
       -1    1    3    3    0  502 -0.16673432446E+03 -0.89891735644E+03 -0.26894291230E+03  0.95298637911E+03  0.50400001928E-02 0.  1.
</event>
<event>
 5   0  0.9342635E-06  0.2003602E+04  0.7818609E-02  0.8604938E-01
        1   -1    0    0  501    0  0.00000000000E+00  0.00000000000E+00  0.13019109553E+04  0.13019109553E+04  0.50400001928E-02 0. -1.
       -1   -1    0    0    0  501  0.00000000000E+00  0.00000000000E+00 -0.77087115040E+03  0.77087115042E+03  0.50400001928E-02 0.  1.
    10030    2    1    2    0    0  0.00000000000E+00  0.00000000000E+00  0.53103980493E+03  0.20727821058E+04  0.20036023517E+04 0.  0.
        5    1    3    3  502    0 -0.33291965323E+03  0.94393528539E+03  0.22243847059E+03  0.10253537349E+04  0.46999998093E+01 0. -1.
       -5    1    3    3    0  502  0.33291965323E+03 -0.94393528539E+03  0.30860133435E+03  0.10474283709E+04  0.46999998093E+01 0.  1.
</event>
<event>
 5   0  0.9333353E-06  0.1996872E+04  0.7818609E-02  0.8608085E-01
       -1   -1    0    0    0  501  0.00000000000E+00  0.00000000000E+00  0.67047249064E+03  0.67047249066E+03  0.50400001928E-02 0.  1.
        1   -1    0    0  501    0  0.00000000000E+00  0.00000000000E+00 -0.14868231631E+04  0.14868231632E+04  0.50400001928E-02 0. -1.
    10030    2    1    2    0    0  0.00000000000E+00  0.00000000000E+00 -0.81635067251E+03  0.21572956538E+04  0.19968715826E+04 0.  0.
        2    1    3    3  502    0 -0.36389024391E+03 -0.45050384785E+03 -0.12868454112E+04  0.14111488012E+04  0.25500000920E-02 0. -1.
       -2    1    3    3    0  502  0.36389024391E+03  0.45050384785E+03  0.47049473874E+03  0.74614685266E+03  0.25500000920E-02 0.  1.
</event>
<event>
 5   0  0.1979765E-05  0.1996974E+04  0.7818609E-02  0.8608037E-01
        2   -1    0    0  501    0  0.00000000000E+00  0.00000000000E+00  0.14343914993E+04  0.14343914993E+04  0.25500000920E-02 0. -1.
       -2   -1    0    0    0  501  0.00000000000E+00  0.00000000000E+00 -0.69505159406E+03  0.69505159407E+03  0.25500000920E-02 0.  1.
    10030    2    1    2    0    0  0.00000000000E+00  0.00000000000E+00  0.73933990523E+03  0.21294430934E+04  0.19969738086E+04 0.  0.
        2    1    3    3  502    0 -0.94471877670E+03  0.10064659022E+03  0.69721501300E+03  0.11784447707E+04  0.25500000920E-02 0. -1.
       -2    1    3    3    0  502  0.94471877670E+03 -0.10064659022E+03  0.42124892226E+02  0.95099832268E+03  0.25500000920E-02 0.  1.
</event>
<event>
 5   0  0.1979765E-05  0.1981677E+04  0.7818609E-02  0.8615235E-01
       -2   -1    0    0    0  501  0.00000000000E+00  0.00000000000E+00  0.70014276882E+03  0.70014276883E+03  0.25500000920E-02 0.  1.
        2   -1    0    0  501    0  0.00000000000E+00  0.00000000000E+00 -0.14022297599E+04  0.14022297599E+04  0.25500000920E-02 0. -1.
    10030    2    1    2    0    0  0.00000000000E+00  0.00000000000E+00 -0.70208699106E+03  0.21023725287E+04  0.19816770944E+04 0.  0.
        2    1    3    3  502    0 -0.39055816159E+03  0.80100927953E+03  0.10847624926E+03  0.89772971441E+03  0.25500000920E-02 0.  1.
       -2    1    3    3    0  502  0.39055816159E+03 -0.80100927953E+03 -0.81056324032E+03  0.12046428143E+04  0.25500000920E-02 0. -1.
</event>
<event>
 5   0  0.9220260E-06  0.1999539E+04  0.7818609E-02  0.8606836E-01
        1   -1    0    0  501    0  0.00000000000E+00  0.00000000000E+00  0.94718156465E+03  0.94718156466E+03  0.50400001928E-02 0. -1.
       -1   -1    0    0    0  501  0.00000000000E+00  0.00000000000E+00 -0.10552768855E+04  0.10552768855E+04  0.50400001928E-02 0.  1.
    10030    2    1    2    0    0  0.00000000000E+00  0.00000000000E+00 -0.10809532087E+03  0.20024584502E+04  0.19995387584E+04 0.  0.
        3    1    3    3  502    0 -0.64721685660E+03 -0.72645925071E+03  0.17630145920E+03  0.98879467895E+03  0.10100000352E+00 0. -1.
       -3    1    3    3    0  502  0.64721685660E+03  0.72645925071E+03 -0.28439678007E+03  0.10136637712E+04  0.10100000352E+00 0.  1.
</event>
<event>
 5   0  0.9333353E-06  0.1999694E+04  0.7818609E-02  0.8606764E-01
        1   -1    0    0  501    0  0.00000000000E+00  0.00000000000E+00  0.59455648208E+03  0.59455648210E+03  0.50400001928E-02 0. -1.
       -1   -1    0    0    0  501  0.00000000000E+00  0.00000000000E+00 -0.16814109253E+04  0.16814109253E+04  0.50400001928E-02 0.  1.
    10030    2    1    2    0    0  0.00000000000E+00  0.00000000000E+00 -0.10868544433E+04  0.22759674074E+04  0.19996937413E+04 0.  0.
        2    1    3    3  502    0 -0.91442790777E+03  0.27014175584E+02 -0.84218059827E+02  0.91869518656E+03  0.25500000920E-02 0.  1.
       -2    1    3    3    0  502  0.91442790777E+03 -0.27014175584E+02 -0.10026363834E+04  0.13572722209E+04  0.25500000920E-02 0. -1.
</event>
<event>
 5   0  0.1999142E-05  0.2003937E+04  0.7818609E-02  0.8604782E-01
       -2   -1    0    0    0  501  0.00000000000E+00  0.00000000000E+00  0.85580936798E+03  0.85580936798E+03  0.25500000920E-02 0. -1.
        2   -1    0    0  501    0  0.00000000000E+00  0.00000000000E+00 -0.11730890093E+04  0.11730890093E+04  0.25500000920E-02 0.  1.
    10030    2    1    2    0    0  0.00000000000E+00  0.00000000000E+00 -0.31727964130E+03  0.20288983773E+04  0.20039366892E+04 0.  0.
        1    1    3    3  502    0 -0.52446222745E+03 -0.81381743640E+03  0.10260749251E+03  0.97359526773E+03  0.50400001928E-02 0. -1.
       -1    1    3    3    0  502  0.52446222745E+03  0.81381743640E+03 -0.41988713380E+03  0.10553031095E+04  0.50400001928E-02 0.  1.
</event>
<event>
 5   0  0.9370269E-06  0.2001730E+04  0.7818609E-02  0.8605812E-01
       -1   -1    0    0    0  501  0.00000000000E+00  0.00000000000E+00  0.86038102265E+03  0.86038102266E+03  0.50400001928E-02 0. -1.
        1   -1    0    0  501    0  0.00000000000E+00  0.00000000000E+00 -0.11642877113E+04  0.11642877113E+04  0.50400001928E-02 0.  1.
    10030    2    1    2    0    0  0.00000000000E+00  0.00000000000E+00 -0.30390668863E+03  0.20246687339E+04  0.20017303032E+04 0.  0.
        4    1    3    3  502    0 -0.76727945606E+03 -0.63697322419E+03 -0.65671734917E+02  0.99938333071E+03  0.12699999809E+01 0. -1.
       -4    1    3    3    0  502  0.76727945606E+03  0.63697322419E+03 -0.23823495371E+03  0.10252854032E+04  0.12699999809E+01 0.  1.
</event>
<event>
 5   0  0.1999142E-05  0.1999195E+04  0.7818609E-02  0.8606997E-01
       -2   -1    0    0    0  501  0.00000000000E+00  0.00000000000E+00  0.81375365393E+03  0.81375365393E+03  0.25500000920E-02 0.  1.
        2   -1    0    0  501    0  0.00000000000E+00  0.00000000000E+00 -0.12278839270E+04  0.12278839270E+04  0.25500000920E-02 0. -1.
    10030    2    1    2    0    0  0.00000000000E+00  0.00000000000E+00 -0.41413027308E+03  0.20416375810E+04  0.19991948702E+04 0.  0.
        1    1    3    3  502    0 -0.41502613573E+02  0.21668497268E+03 -0.12027093984E+04  0.12227774701E+04  0.50400001928E-02 0. -1.
       -1    1    3    3    0  502  0.41502613573E+02 -0.21668497268E+03  0.78857912530E+03  0.81886011089E+03  0.50400001928E-02 0.  1.
</event>
<event>
 5   0  0.9140695E-06  0.2031777E+04  0.7818609E-02  0.8591906E-01
        1   -1    0    0  501    0  0.00000000000E+00  0.00000000000E+00  0.92217716018E+03  0.92217716019E+03  0.50400001928E-02 0. -1.
       -1   -1    0    0    0  501  0.00000000000E+00  0.00000000000E+00 -0.11191233049E+04  0.11191233050E+04  0.50400001928E-02 0.  1.
    10030    2    1    2    0    0  0.00000000000E+00  0.00000000000E+00 -0.19694614477E+03  0.20413004652E+04  0.20317774989E+04 0.  0.
        1    1    3    3  502    0 -0.15892275544E+03 -0.55598207902E+03  0.74070070051E+03  0.93968614023E+03  0.50400001928E-02 0. -1.
       -1    1    3    3    0  502  0.15892275544E+03  0.55598207902E+03 -0.93764684528E+03  0.11016143249E+04  0.50400001928E-02 0.  1.
</event>
<event>
 5   0  0.2003576E-05  0.1996547E+04  0.7818609E-02  0.8608237E-01
       -2   -1    0    0    0  501  0.00000000000E+00  0.00000000000E+00  0.63124784677E+03  0.63124784677E+03  0.25500000920E-02 0. -1.
        2   -1    0    0  501    0  0.00000000000E+00  0.00000000000E+00 -0.15786989892E+04  0.15786989892E+04  0.25500000920E-02 0.  1.
    10030    2    1    2    0    0  0.00000000000E+00  0.00000000000E+00 -0.94745114247E+03  0.22099468360E+04  0.19965473575E+04 0.  0.
        4    1    3    3  502    0  0.45255417717E+03 -0.85587242559E+03 -0.74310088758E+03  0.12204603370E+04  0.12699999809E+01 0.  1.
       -4    1    3    3    0  502 -0.45255417717E+03  0.85587242559E+03 -0.20435025488E+03  0.98948649901E+03  0.12699999809E+01 0. -1.
</event>
<event>
 5   0  0.9342635E-06  0.1996265E+04  0.7818609E-02  0.8608369E-01
        1   -1    0    0  501    0  0.00000000000E+00  0.00000000000E+00  0.21036927924E+04  0.21036927924E+04  0.50400001928E-02 0.  1.
       -1   -1    0    0    0  501  0.00000000000E+00  0.00000000000E+00 -0.47358098242E+03  0.47358098245E+03  0.50400001928E-02 0. -1.
    10030    2    1    2    0    0  0.00000000000E+00  0.00000000000E+00  0.16301118100E+04  0.25772737748E+04  0.19962654126E+04 0.  0.
        5    1    3    3  502    0 -0.65383769895E+03 -0.19491166830E+03 -0.12550798749E+03  0.69373528088E+03  0.46999998093E+01 0. -1.
       -5    1    3    3    0  502  0.65383769895E+03  0.19491166830E+03  0.17556197975E+04  0.18835384940E+04  0.46999998093E+01 0.  1.
</event>
<event>
 5   0  0.2038882E-05  0.1999324E+04  0.7818609E-02  0.8606937E-01
       -2   -1    0    0    0  501  0.00000000000E+00  0.00000000000E+00  0.67469977335E+03  0.67469977336E+03  0.25500000920E-02 0. -1.
        2   -1    0    0  501    0  0.00000000000E+00  0.00000000000E+00 -0.14811384137E+04  0.14811384137E+04  0.25500000920E-02 0.  1.
    10030    2    1    2    0    0  0.00000000000E+00  0.00000000000E+00 -0.80643864037E+03  0.21558381871E+04  0.19993236377E+04 0.  0.
        3    1    3    3  502    0  0.64357692201E+02  0.62142897805E+03  0.43826205261E+03  0.76314449764E+03  0.10100000352E+00 0. -1.
       -3    1    3    3    0  502 -0.64357692201E+02 -0.62142897805E+03 -0.12447006930E+04  0.13926936894E+04  0.10100000352E+00 0.  1.
</event>
<event>
 5   0  0.1979765E-05  0.1999804E+04  0.7818609E-02  0.8606712E-01
       -2   -1    0    0    0  501  0.00000000000E+00  0.00000000000E+00  0.49756895425E+03  0.49756895426E+03  0.25500000920E-02 0. -1.
        2   -1    0    0  501    0  0.00000000000E+00  0.00000000000E+00 -0.20093786322E+04  0.20093786322E+04  0.25500000920E-02 0.  1.
    10030    2    1    2    0    0  0.00000000000E+00  0.00000000000E+00 -0.15118096779E+04  0.25069475864E+04  0.19998044151E+04 0.  0.
        2    1    3    3  502    0  0.79018682873E+03 -0.51615343835E+03 -0.34203795483E+03  0.10038922048E+04  0.25500000920E-02 0. -1.
       -2    1    3    3    0  502 -0.79018682873E+03  0.51615343835E+03 -0.11697717231E+04  0.15030553817E+04  0.25500000920E-02 0.  1.
</event>
<event>
 5   0  0.1999142E-05  0.1997554E+04  0.7818609E-02  0.8607765E-01
        2   -1    0    0  501    0  0.00000000000E+00  0.00000000000E+00  0.78970793865E+03  0.78970793865E+03  0.25500000920E-02 0.  1.
       -2   -1    0    0    0  501  0.00000000000E+00  0.00000000000E+00 -0.12631950068E+04  0.12631950068E+04  0.25500000920E-02 0. -1.
    10030    2    1    2    0    0  0.00000000000E+00  0.00000000000E+00 -0.47348706813E+03  0.20529029454E+04  0.19975536287E+04 0.  0.
        1    1    3    3  502    0  0.12741717814E+02  0.34607944043E+02  0.78900797083E+03  0.78986938112E+03  0.50400001928E-02 0.  1.
       -1    1    3    3    0  502 -0.12741717814E+02 -0.34607944043E+02 -0.12624950390E+04  0.12630335643E+04  0.50400001928E-02 0. -1.
</event>
<event>
 5   0  0.9370269E-06  0.1988950E+04  0.7818609E-02  0.8611804E-01
        1   -1    0    0  501    0  0.00000000000E+00  0.00000000000E+00  0.13047619464E+04  0.13047619464E+04  0.50400001928E-02 0. -1.
       -1   -1    0    0    0  501  0.00000000000E+00  0.00000000000E+00 -0.75797757461E+03  0.75797757463E+03  0.50400001928E-02 0.  1.
    10030    2    1    2    0    0  0.00000000000E+00  0.00000000000E+00  0.54678437178E+03  0.20627395210E+04  0.19889497687E+04 0.  0.
        4    1    3    3  502    0  0.59949584378E+03 -0.53609169909E+03  0.88006378484E+03  0.11921843208E+04  0.12699999809E+01 0. -1.
       -4    1    3    3    0  502 -0.59949584378E+03  0.53609169909E+03 -0.33327941306E+03  0.87055520021E+03  0.12699999809E+01 0.  1.
</event>
<event>
 5   0  0.1979765E-05  0.1997542E+04  0.7818609E-02  0.8607771E-01
       -2   -1    0    0    0  501  0.00000000000E+00  0.00000000000E+00  0.74853413781E+03  0.74853413781E+03  0.25500000920E-02 0. -1.
        2   -1    0    0  501    0  0.00000000000E+00  0.00000000000E+00 -0.13326623252E+04  0.13326623252E+04  0.25500000920E-02 0.  1.
    10030    2    1    2    0    0  0.00000000000E+00  0.00000000000E+00 -0.58412818738E+03  0.20811964630E+04  0.19975417338E+04 0.  0.
        2    1    3    3  502    0 -0.39779585107E+03  0.39448966862E+03  0.56941259563E+03  0.79880807572E+03  0.25500000920E-02 0. -1.
       -2    1    3    3    0  502  0.39779585107E+03 -0.39448966862E+03 -0.11535407830E+04  0.12823883873E+04  0.25500000920E-02 0.  1.
</event>
<event>
 5   0  0.9220260E-06  0.2005513E+04  0.7818609E-02  0.8604048E-01
       -1   -1    0    0    0  501  0.00000000000E+00  0.00000000000E+00  0.11731419791E+04  0.11731419791E+04  0.50400001928E-02 0. -1.
        1   -1    0    0  501    0  0.00000000000E+00  0.00000000000E+00 -0.85711746305E+03  0.85711746307E+03  0.50400001928E-02 0.  1.
    10030    2    1    2    0    0  0.00000000000E+00  0.00000000000E+00  0.31602451607E+03  0.20302594422E+04  0.20055128790E+04 0.  0.
        3    1    3    3  502    0  0.90065709076E+03 -0.69244833156E+00  0.60428832658E+03  0.10845958079E+04  0.10100000352E+00 0. -1.
       -3    1    3    3    0  502 -0.90065709076E+03  0.69244833156E+00 -0.28826381051E+03  0.94566363432E+03  0.10100000352E+00 0.  1.
</event>
<event>
 5   0  0.9370269E-06  0.2004658E+04  0.7818609E-02  0.8604446E-01
       -1   -1    0    0    0  501  0.00000000000E+00  0.00000000000E+00  0.89520785069E+03  0.89520785070E+03  0.50400001928E-02 0.  1.
        1   -1    0    0  501    0  0.00000000000E+00  0.00000000000E+00 -0.11222688694E+04  0.11222688694E+04  0.50400001928E-02 0. -1.
    10030    2    1    2    0    0  0.00000000000E+00  0.00000000000E+00 -0.22706101869E+03  0.20174767201E+04  0.20046584771E+04 0.  0.
        4    1    3    3  502    0 -0.80735069359E+03  0.17209958554E+03  0.45863703042E+03  0.94434260115E+03  0.12699999809E+01 0.  1.
       -4    1    3    3    0  502  0.80735069359E+03 -0.17209958554E+03 -0.68569804911E+03  0.10731341189E+04  0.12699999809E+01 0. -1.
</event>
<event>
 5   0  0.9333353E-06  0.2001123E+04  0.7818609E-02  0.8606096E-01
       -1   -1    0    0    0  501  0.00000000000E+00  0.00000000000E+00  0.84383128925E+03  0.84383128927E+03  0.50400001928E-02 0.  1.
        1   -1    0    0  501    0  0.00000000000E+00  0.00000000000E+00 -0.11864016659E+04  0.11864016659E+04  0.50400001928E-02 0. -1.
    10030    2    1    2    0    0  0.00000000000E+00  0.00000000000E+00 -0.34257037666E+03  0.20302329552E+04  0.20011225323E+04 0.  0.
        2    1    3    3  502    0 -0.65406156157E+03 -0.68176761847E+03  0.16292951610E+03  0.95872292094E+03  0.25500000920E-02 0.  1.
       -2    1    3    3    0  502  0.65406156157E+03  0.68176761847E+03 -0.50549989276E+03  0.10715100343E+04  0.25500000920E-02 0. -1.
</event>
<event>
 5   0  0.9342635E-06  0.1991656E+04  0.7818609E-02  0.8610532E-01
       -1   -1    0    0    0  501  0.00000000000E+00  0.00000000000E+00  0.88844998934E+03  0.88844998936E+03  0.50400001928E-02 0.  1.
        1   -1    0    0  501    0  0.00000000000E+00  0.00000000000E+00 -0.11161831701E+04  0.11161831701E+04  0.50400001928E-02 0. -1.
    10030    2    1    2    0    0  0.00000000000E+00  0.00000000000E+00 -0.22773318077E+03  0.20046331595E+04  0.19916555180E+04 0.  0.
        5    1    3    3  502    0 -0.18361544078E+02 -0.91110393874E+03  0.29025090523E+03  0.95640745056E+03  0.46999998093E+01 0.  1.
       -5    1    3    3    0  502  0.18361544078E+02  0.91110393874E+03 -0.51798408600E+03  0.10482257089E+04  0.46999998093E+01 0. -1.
</event>
<event>
 5   0  0.2038882E-05  0.2002703E+04  0.7818609E-02  0.8605358E-01
       -2   -1    0    0    0  501  0.00000000000E+00  0.00000000000E+00  0.13238035430E+04  0.13238035430E+04  0.25500000920E-02 0. -1.
        2   -1    0    0  501    0  0.00000000000E+00  0.00000000000E+00 -0.75744268110E+03  0.75744268111E+03  0.25500000920E-02 0.  1.
    10030    2    1    2    0    0  0.00000000000E+00  0.00000000000E+00  0.56636086191E+03  0.20812462241E+04  0.20027034777E+04 0.  0.
        3    1    3    3  502    0 -0.42383528663E+02 -0.82379781648E+03 -0.30676808783E+03  0.88008288010E+03  0.10100000352E+00 0.  1.
       -3    1    3    3    0  502  0.42383528663E+02  0.82379781648E+03  0.87312894974E+03  0.12011633440E+04  0.10100000352E+00 0. -1.
</event>
<event>
 5   0  0.2003576E-05  0.2015779E+04  0.7818609E-02  0.8599279E-01
       -2   -1    0    0    0  501  0.00000000000E+00  0.00000000000E+00  0.10659652590E+04  0.10659652590E+04  0.25500000920E-02 0. -1.
        2   -1    0    0  501    0  0.00000000000E+00  0.00000000000E+00 -0.95297801011E+03  0.95297801011E+03  0.25500000920E-02 0.  1.
    10030    2    1    2    0    0  0.00000000000E+00  0.00000000000E+00  0.11298724889E+03  0.20189432691E+04  0.20157792055E+04 0.  0.
        4    1    3    3  502    0 -0.39393604072E+03  0.32766843205E+03 -0.81279015061E+03  0.96082342153E+03  0.12699999809E+01 0.  1.
       -4    1    3    3    0  502  0.39393604072E+03 -0.32766843205E+03  0.92577739949E+03  0.10581198476E+04  0.12699999809E+01 0. -1.
</event>
<event>
 5   0  0.2020029E-05  0.2005205E+04  0.7818609E-02  0.8604191E-01
       -2   -1    0    0    0  501  0.00000000000E+00  0.00000000000E+00  0.60074858396E+03  0.60074858396E+03  0.25500000920E-02 0.  1.
        2   -1    0    0  501    0  0.00000000000E+00  0.00000000000E+00 -0.16732660045E+04  0.16732660045E+04  0.25500000920E-02 0. -1.
    10030    2    1    2    0    0  0.00000000000E+00  0.00000000000E+00 -0.10725174205E+04  0.22740145885E+04  0.20052054087E+04 0.  0.
        5    1    3    3  502    0 -0.51347205825E+03  0.57459919560E+03  0.19110545811E+03  0.79395288041E+03  0.46999998093E+01 0.  1.
       -5    1    3    3    0  502  0.51347205825E+03 -0.57459919560E+03 -0.12636228787E+04  0.14800617081E+04  0.46999998093E+01 0. -1.
</event>
<event>
 5   0  0.9333353E-06  0.2013353E+04  0.7818609E-02  0.8600403E-01
        1   -1    0    0  501    0  0.00000000000E+00  0.00000000000E+00  0.15190848058E+04  0.15190848058E+04  0.50400001928E-02 0.  1.
       -1   -1    0    0    0  501  0.00000000000E+00  0.00000000000E+00 -0.66711090514E+03  0.66711090516E+03  0.50400001928E-02 0. -1.
    10030    2    1    2    0    0  0.00000000000E+00  0.00000000000E+00  0.85197390063E+03  0.21861957109E+04  0.20133534611E+04 0.  0.
        2    1    3    3  502    0 -0.90503730868E+03  0.23295117713E+03  0.19642891772E+02  0.93474307926E+03  0.25500000920E-02 0.  1.
       -2    1    3    3    0  502  0.90503730868E+03 -0.23295117713E+03  0.83233100885E+03  0.12514526317E+04  0.25500000920E-02 0. -1.
</event>
<event>
 5   0  0.9333353E-06  0.2001309E+04  0.7818609E-02  0.8606009E-01
        1   -1    0    0  501    0  0.00000000000E+00  0.00000000000E+00  0.15585096667E+04  0.15585096667E+04  0.50400001928E-02 0.  1.
       -1   -1    0    0    0  501  0.00000000000E+00  0.00000000000E+00 -0.64247877597E+03  0.64247877599E+03  0.50400001928E-02 0. -1.
    10030    2    1    2    0    0  0.00000000000E+00  0.00000000000E+00  0.91603089075E+03  0.22009884427E+04  0.20013089547E+04 0.  0.
        2    1    3    3  502    0  0.60661417062E+03 -0.18382230350E+03 -0.39353813235E+03  0.74608555333E+03  0.25500000920E-02 0. -1.
       -2    1    3    3    0  502 -0.60661417062E+03  0.18382230350E+03  0.13095690231E+04  0.14549028894E+04  0.25500000920E-02 0.  1.
</event>
<event>
 5   0  0.7132000E-06  0.1986016E+04  0.7818609E-02  0.8613187E-01
       -3   -1    0    0    0  501  0.00000000000E+00  0.00000000000E+00  0.87368863329E+03  0.87368863913E+03  0.10100000352E+00 0. -1.
        3   -1    0    0  501    0  0.00000000000E+00  0.00000000000E+00 -0.11286225179E+04  0.11286225225E+04  0.10100000352E+00 0.  1.
    10030    2    1    2    0    0  0.00000000000E+00  0.00000000000E+00 -0.25493388464E+03  0.20023111616E+04  0.19860157860E+04 0.  0.
        4    1    3    3  502    0 -0.11827426913E+03  0.35287307571E+03  0.80071428269E+03  0.88297971987E+03  0.12699999809E+01 0. -1.
       -4    1    3    3    0  502  0.11827426913E+03 -0.35287307571E+03 -0.10556481673E+04  0.11193314417E+04  0.12699999809E+01 0.  1.
</event>
<event>
 5   0  0.9342635E-06  0.1979415E+04  0.7818609E-02  0.8616306E-01
       -1   -1    0    0    0  501  0.00000000000E+00  0.00000000000E+00  0.10359380123E+04  0.10359380123E+04  0.50400001928E-02 0. -1.
        1   -1    0    0  501    0  0.00000000000E+00  0.00000000000E+00 -0.94554046738E+03  0.94554046739E+03  0.50400001928E-02 0.  1.
    10030    2    1    2    0    0  0.00000000000E+00  0.00000000000E+00  0.90397544921E+02  0.19814784797E+04  0.19794153807E+04 0.  0.
        5    1    3    3  502    0 -0.32499151250E+03  0.70963310511E+02 -0.88789074285E+03  0.94817052046E+03  0.46999998093E+01 0.  1.
       -5    1    3    3    0  502  0.32499151250E+03 -0.70963310511E+02  0.97828828777E+03  0.10333079592E+04  0.46999998093E+01 0. -1.
</event>
<event>
 5   0  0.9370269E-06  0.1994738E+04  0.7818609E-02  0.8609085E-01
       -1   -1    0    0    0  501  0.00000000000E+00  0.00000000000E+00  0.65542741131E+03  0.65542741133E+03  0.50400001928E-02 0.  1.
        1   -1    0    0  501    0  0.00000000000E+00  0.00000000000E+00 -0.15177048369E+04  0.15177048369E+04  0.50400001928E-02 0. -1.
    10030    2    1    2    0    0  0.00000000000E+00  0.00000000000E+00 -0.86227742561E+03  0.21731322482E+04  0.19947384314E+04 0.  0.
        4    1    3    3  502    0 -0.23907496777E+03  0.49685433047E+03  0.47428540309E+03  0.72730277217E+03  0.12699999809E+01 0.  1.
       -4    1    3    3    0  502  0.23907496777E+03 -0.49685433047E+03 -0.13365628287E+04  0.14458294761E+04  0.12699999809E+01 0. -1.
</event>
<event>
 5   0  0.9140695E-06  0.1975068E+04  0.7818609E-02  0.8618367E-01
        1   -1    0    0  501    0  0.00000000000E+00  0.00000000000E+00  0.14390215777E+04  0.14390215777E+04  0.50400001928E-02 0. -1.
       -1   -1    0    0    0  501  0.00000000000E+00  0.00000000000E+00 -0.67769905939E+03  0.67769905941E+03  0.50400001928E-02 0.  1.
    10030    2    1    2    0    0  0.00000000000E+00  0.00000000000E+00  0.76132251833E+03  0.21167206371E+04  0.19750681707E+04 0.  0.
        1    1    3    3  502    0  0.55998793923E+03  0.78979869960E+03  0.58917928526E+03  0.11333581553E+04  0.50400001928E-02 0.  1.
       -1    1    3    3    0  502 -0.55998793923E+03 -0.78979869960E+03  0.17214323307E+03  0.98336248184E+03  0.50400001928E-02 0. -1.
</event>
<event>
 5   0  0.2003576E-05  0.2000411E+04  0.7818609E-02  0.8606429E-01
        2   -1    0    0  501    0  0.00000000000E+00  0.00000000000E+00  0.12376133967E+04  0.12376133967E+04  0.25500000920E-02 0. -1.
       -2   -1    0    0    0  501  0.00000000000E+00  0.00000000000E+00 -0.80833891856E+03  0.80833891856E+03  0.25500000920E-02 0.  1.
    10030    2    1    2    0    0  0.00000000000E+00  0.00000000000E+00  0.42927447819E+03  0.20459523153E+04  0.20004110325E+04 0.  0.
        4    1    3    3  502    0 -0.39148420956E+03 -0.50804938834E+03 -0.57032174114E+03  0.85827884085E+03  0.12699999809E+01 0.  1.
       -4    1    3    3    0  502  0.39148420956E+03  0.50804938834E+03  0.99959621933E+03  0.11876734745E+04  0.12699999809E+01 0. -1.
</event>
<event>
 5   0  0.2020029E-05  0.1946674E+04  0.7818609E-02  0.8631966E-01
        2   -1    0    0  501    0  0.00000000000E+00  0.00000000000E+00  0.59954386218E+03  0.59954386218E+03  0.25500000920E-02 0.  1.
       -2   -1    0    0    0  501  0.00000000000E+00  0.00000000000E+00 -0.15801763448E+04  0.15801763448E+04  0.25500000920E-02 0. -1.
    10030    2    1    2    0    0  0.00000000000E+00  0.00000000000E+00 -0.98063248259E+03  0.21797202070E+04  0.19466741162E+04 0.  0.
        5    1    3    3  502    0 -0.48771125161E+01 -0.98017492036E+02 -0.15746096063E+04  0.15776719295E+04  0.46999998093E+01 0. -1.
       -5    1    3    3    0  502  0.48771125161E+01  0.98017492036E+02  0.59397712366E+03  0.60204827747E+03  0.46999998093E+01 0.  1.
</event>
<event>
 5   0  0.9342635E-06  0.2048390E+04  0.7818609E-02  0.8584325E-01
       -1   -1    0    0    0  501  0.00000000000E+00  0.00000000000E+00  0.53765183150E+03  0.53765183153E+03  0.50400001928E-02 0.  1.
        1   -1    0    0  501    0  0.00000000000E+00  0.00000000000E+00 -0.19510304679E+04  0.19510304679E+04  0.50400001928E-02 0. -1.
    10030    2    1    2    0    0  0.00000000000E+00  0.00000000000E+00 -0.14133786364E+04  0.24886822994E+04  0.20483897133E+04 0.  0.
        5    1    3    3  502    0 -0.74877743509E+03  0.35487847971E+03 -0.14380287449E+04  0.16596852545E+04  0.46999998093E+01 0. -1.
       -5    1    3    3    0  502  0.74877743509E+03 -0.35487847971E+03  0.24650108556E+02  0.82899704494E+03  0.46999998093E+01 0.  1.
</event>
<event>
 5   0  0.1999142E-05  0.2004976E+04  0.7818609E-02  0.8604298E-01
       -2   -1    0    0    0  501  0.00000000000E+00  0.00000000000E+00  0.12304325289E+04  0.12304325289E+04  0.25500000920E-02 0. -1.
        2   -1    0    0  501    0  0.00000000000E+00  0.00000000000E+00 -0.81677187397E+03  0.81677187398E+03  0.25500000920E-02 0.  1.
    10030    2    1    2    0    0  0.00000000000E+00  0.00000000000E+00  0.41366065490E+03  0.20472044029E+04  0.20049764911E+04 0.  0.
        1    1    3    3  502    0 -0.74977732237E+03 -0.22074294466E+02 -0.47225572844E+03  0.88638523266E+03  0.50400001928E-02 0.  1.
       -1    1    3    3    0  502  0.74977732237E+03  0.22074294466E+02  0.88591638334E+03  0.11608191702E+04  0.50400001928E-02 0. -1.
</event>
<event>
 5   0  0.1979765E-05  0.1999731E+04  0.7818609E-02  0.8606746E-01
       -2   -1    0    0    0  501  0.00000000000E+00  0.00000000000E+00  0.14461290303E+04  0.14461290303E+04  0.25500000920E-02 0. -1.
        2   -1    0    0  501    0  0.00000000000E+00  0.00000000000E+00 -0.69131545482E+03  0.69131545482E+03  0.25500000920E-02 0.  1.
    10030    2    1    2    0    0  0.00000000000E+00  0.00000000000E+00  0.75481357549E+03  0.21374444851E+04  0.19997313303E+04 0.  0.
        2    1    3    3  502    0  0.26437703316E+03 -0.53501325304E+03  0.12348989955E+04  0.13715356086E+04  0.25500000920E-02 0. -1.
       -2    1    3    3    0  502 -0.26437703316E+03  0.53501325304E+03 -0.48008542002E+03  0.76590887651E+03  0.25500000920E-02 0.  1.
</event>
<event>
 5   0  0.1979765E-05  0.1998933E+04  0.7818609E-02  0.8607120E-01
       -2   -1    0    0    0  501  0.00000000000E+00  0.00000000000E+00  0.56301964906E+03  0.56301964906E+03  0.25500000920E-02 0. -1.
        2   -1    0    0  501    0  0.00000000000E+00  0.00000000000E+00 -0.17742427996E+04  0.17742427996E+04  0.25500000920E-02 0.  1.
    10030    2    1    2    0    0  0.00000000000E+00  0.00000000000E+00 -0.12112231505E+04  0.23372624487E+04  0.19989332739E+04 0.  0.
        2    1    3    3  502    0  0.55957669531E+03 -0.76062056221E+03 -0.22266705783E+03  0.97018056888E+03  0.25500000920E-02 0. -1.
       -2    1    3    3    0  502 -0.55957669531E+03  0.76062056221E+03 -0.98855609271E+03  0.13670818798E+04  0.25500000920E-02 0.  1.
</event>
<event>
 5   0  0.9370269E-06  0.2000789E+04  0.7818609E-02  0.8606252E-01
       -1   -1    0    0    0  501  0.00000000000E+00  0.00000000000E+00  0.73206538809E+03  0.73206538811E+03  0.50400001928E-02 0.  1.
        1   -1    0    0  501    0  0.00000000000E+00  0.00000000000E+00 -0.13670768586E+04  0.13670768586E+04  0.50400001928E-02 0. -1.
    10030    2    1    2    0    0  0.00000000000E+00  0.00000000000E+00 -0.63501147054E+03  0.20991422467E+04  0.20007894953E+04 0.  0.
        4    1    3    3  502    0  0.32681716146E+03  0.22388958126E+03  0.64626474967E+03  0.75802093717E+03  0.12699999809E+01 0.  1.
       -4    1    3    3    0  502 -0.32681716146E+03 -0.22388958126E+03 -0.12812762202E+04  0.13411213096E+04  0.12699999809E+01 0. -1.
</event>
<event>
 5   0  0.9140695E-06  0.2004936E+04  0.7818609E-02  0.8604316E-01
       -1   -1    0    0    0  501  0.00000000000E+00  0.00000000000E+00  0.71928039201E+03  0.71928039203E+03  0.50400001928E-02 0.  1.
        1   -1    0    0  501    0  0.00000000000E+00  0.00000000000E+00 -0.13971496113E+04  0.13971496114E+04  0.50400001928E-02 0. -1.
    10030    2    1    2    0    0  0.00000000000E+00  0.00000000000E+00 -0.67786921933E+03  0.21164300034E+04  0.20049362286E+04 0.  0.
        1    1    3    3  502    0 -0.76625660550E+03  0.39002585959E+03 -0.88303248032E+03  0.12324835569E+04  0.50400001928E-02 0. -1.
       -1    1    3    3    0  502  0.76625660550E+03 -0.39002585959E+03  0.20516326099E+03  0.88394644651E+03  0.50400001928E-02 0.  1.
</event>
<event>
 5   0  0.2020029E-05  0.1999798E+04  0.7818609E-02  0.8606715E-01
        2   -1    0    0  501    0  0.00000000000E+00  0.00000000000E+00  0.15743487491E+04  0.15743487491E+04  0.25500000920E-02 0. -1.
       -2   -1    0    0    0  501  0.00000000000E+00  0.00000000000E+00 -0.63505472772E+03  0.63505472773E+03  0.25500000920E-02 0.  1.
    10030    2    1    2    0    0  0.00000000000E+00  0.00000000000E+00  0.93929402135E+03  0.22094034768E+04  0.19997976060E+04 0.  0.
        5    1    3    3  502    0  0.65667564131E+03 -0.14091944942E+03  0.12880255421E+04  0.14526228265E+04  0.46999998093E+01 0. -1.
       -5    1    3    3    0  502 -0.65667564131E+03  0.14091944942E+03 -0.34873152072E+03  0.75678065029E+03  0.46999998093E+01 0.  1.
</event>
<event>
 5   0  0.9342635E-06  0.2000616E+04  0.7818609E-02  0.8606333E-01
        1   -1    0    0  501    0  0.00000000000E+00  0.00000000000E+00  0.11535946396E+04  0.11535946396E+04  0.50400001928E-02 0. -1.
       -1   -1    0    0    0  501  0.00000000000E+00  0.00000000000E+00 -0.86738965785E+03  0.86738965786E+03  0.50400001928E-02 0.  1.
    10030    2    1    2    0    0  0.00000000000E+00  0.00000000000E+00  0.28620498177E+03  0.20209842975E+04  0.20006159649E+04 0.  0.
        5    1    3    3  502    0 -0.13577262882E+03 -0.73337330179E+02  0.11414871505E+04  0.11518800178E+04  0.46999998093E+01 0. -1.
       -5    1    3    3    0  502  0.13577262882E+03  0.73337330179E+02 -0.85528216874E+03  0.86910427964E+03  0.46999998093E+01 0.  1.
</event>
<event>
 5   0  0.1979765E-05  0.1999607E+04  0.7818609E-02  0.8606805E-01
       -2   -1    0    0    0  501  0.00000000000E+00  0.00000000000E+00  0.90154011099E+03  0.90154011099E+03  0.25500000920E-02 0.  1.
        2   -1    0    0  501    0  0.00000000000E+00  0.00000000000E+00 -0.11087766692E+04  0.11087766692E+04  0.25500000920E-02 0. -1.
    10030    2    1    2    0    0  0.00000000000E+00  0.00000000000E+00 -0.20723655823E+03  0.20103167802E+04  0.19996066027E+04 0.  0.
        2    1    3    3  502    0 -0.77106569098E+03 -0.59596602906E+03  0.12093614284E+03  0.98200985650E+03  0.25500000920E-02 0.  1.
       -2    1    3    3    0  502  0.77106569098E+03  0.59596602906E+03 -0.32817270107E+03  0.10283069237E+04  0.25500000920E-02 0. -1.
</event>
<event>
 5   0  0.2003576E-05  0.2003276E+04  0.7818609E-02  0.8605090E-01
       -2   -1    0    0    0  501  0.00000000000E+00  0.00000000000E+00  0.45566134916E+03  0.45566134917E+03  0.25500000920E-02 0.  1.
        2   -1    0    0  501    0  0.00000000000E+00  0.00000000000E+00 -0.22018080742E+04  0.22018080742E+04  0.25500000920E-02 0. -1.
    10030    2    1    2    0    0  0.00000000000E+00  0.00000000000E+00 -0.17461467250E+04  0.26574694234E+04  0.20032761544E+04 0.  0.
        4    1    3    3  502    0  0.42921729928E+03  0.55523671193E+03  0.74988581072E+02  0.70579047632E+03  0.12699999809E+01 0.  1.
       -4    1    3    3    0  502 -0.42921729928E+03 -0.55523671193E+03 -0.18211353061E+04  0.19516789471E+04  0.12699999809E+01 0. -1.
</event>
<event>
 5   0  0.9370269E-06  0.2004637E+04  0.7818609E-02  0.8604456E-01
       -1   -1    0    0    0  501  0.00000000000E+00  0.00000000000E+00  0.64806566047E+03  0.64806566049E+03  0.50400001928E-02 0.  1.
        1   -1    0    0  501    0  0.00000000000E+00  0.00000000000E+00 -0.15502172594E+04  0.15502172594E+04  0.50400001928E-02 0. -1.
    10030    2    1    2    0    0  0.00000000000E+00  0.00000000000E+00 -0.90215159893E+03  0.21982829199E+04  0.20046371962E+04 0.  0.
        4    1    3    3  502    0 -0.30498759205E+03 -0.83896973702E+03 -0.95090517350E+03  0.13042660437E+04  0.12699999809E+01 0. -1.
       -4    1    3    3    0  502  0.30498759205E+03  0.83896973702E+03  0.48753574573E+02  0.89401687616E+03  0.12699999809E+01 0.  1.
</event>
<event>
 5   0  0.2020029E-05  0.1995981E+04  0.7818609E-02  0.8608502E-01
       -2   -1    0    0    0  501  0.00000000000E+00  0.00000000000E+00  0.15305455692E+04  0.15305455693E+04  0.25500000920E-02 0.  1.
        2   -1    0    0  501    0  0.00000000000E+00  0.00000000000E+00 -0.65073833991E+03  0.65073833991E+03  0.25500000920E-02 0. -1.
    10030    2    1    2    0    0  0.00000000000E+00  0.00000000000E+00  0.87980722934E+03  0.21812839092E+04  0.19959806441E+04 0.  0.
        5    1    3    3  502    0  0.22560626493E+03 -0.73391175016E+03  0.11366151416E+04  0.13716561937E+04  0.46999998093E+01 0.  1.
       -5    1    3    3    0  502 -0.22560626493E+03  0.73391175016E+03 -0.25680791223E+03  0.80962771542E+03  0.46999998093E+01 0. -1.
</event>
<event>
 5   0  0.2038882E-05  0.1990025E+04  0.7818609E-02  0.8611299E-01
        2   -1    0    0  501    0  0.00000000000E+00  0.00000000000E+00  0.13400833809E+04  0.13400833809E+04  0.25500000920E-02 0.  1.
       -2   -1    0    0    0  501  0.00000000000E+00  0.00000000000E+00 -0.73879711518E+03  0.73879711519E+03  0.25500000920E-02 0. -1.
    10030    2    1    2    0    0  0.00000000000E+00  0.00000000000E+00  0.60128626574E+03  0.20788804961E+04  0.19900248601E+04 0.  0.
        3    1    3    3  502    0 -0.33025143108E+03  0.69896247747E+02 -0.67715099557E+03  0.75662736812E+03  0.10100000352E+00 0. -1.
       -3    1    3    3    0  502  0.33025143108E+03 -0.69896247747E+02  0.12784372613E+04  0.13222531280E+04  0.10100000352E+00 0.  1.
</event>
<event>
 5   0  0.2003576E-05  0.2001344E+04  0.7818609E-02  0.8605993E-01
       -2   -1    0    0    0  501  0.00000000000E+00  0.00000000000E+00  0.10858628156E+04  0.10858628156E+04  0.25500000920E-02 0.  1.
        2   -1    0    0  501    0  0.00000000000E+00  0.00000000000E+00 -0.92216474849E+03  0.92216474849E+03  0.25500000920E-02 0. -1.
    10030    2    1    2    0    0  0.00000000000E+00  0.00000000000E+00  0.16369806714E+03  0.20080275641E+04  0.20013439587E+04 0.  0.
        4    1    3    3  502    0 -0.56130972408E+03 -0.37947121980E+03  0.82070203362E+03  0.10642464254E+04  0.12699999809E+01 0.  1.
       -4    1    3    3    0  502  0.56130972408E+03  0.37947121980E+03 -0.65700396649E+03  0.94378113876E+03  0.12699999809E+01 0. -1.
</event>
<event>
 5   0  0.9333353E-06  0.1999288E+04  0.7818609E-02  0.8606954E-01
        1   -1    0    0  501    0  0.00000000000E+00  0.00000000000E+00  0.18717820374E+04  0.18717820374E+04  0.50400001928E-02 0. -1.
       -1   -1    0    0    0  501  0.00000000000E+00  0.00000000000E+00 -0.53386972864E+03  0.53386972866E+03  0.50400001928E-02 0.  1.
    10030    2    1    2    0    0  0.00000000000E+00  0.00000000000E+00  0.13379123088E+04  0.24056517661E+04  0.19992876415E+04 0.  0.
        2    1    3    3  502    0 -0.84505647888E+03  0.49213132602E+03  0.41951923048E+03  0.10641005964E+04  0.25500000920E-02 0.  1.
       -2    1    3    3    0  502  0.84505647888E+03 -0.49213132602E+03  0.91839307828E+03  0.13415511696E+04  0.25500000920E-02 0. -1.
</event>
<event>
 5   0  0.2020029E-05  0.2000553E+04  0.7818609E-02  0.8606362E-01
        2   -1    0    0  501    0  0.00000000000E+00  0.00000000000E+00  0.86455279310E+03  0.86455279311E+03  0.25500000920E-02 0. -1.
       -2   -1    0    0    0  501  0.00000000000E+00  0.00000000000E+00 -0.11573076015E+04  0.11573076015E+04  0.25500000920E-02 0.  1.
    10030    2    1    2    0    0  0.00000000000E+00  0.00000000000E+00 -0.29275480840E+03  0.20218603946E+04  0.20005534428E+04 0.  0.
        5    1    3    3  502    0 -0.61954169552E+03  0.75751152357E+03  0.62892689572E+02  0.98062898246E+03  0.46999998093E+01 0.  1.
       -5    1    3    3    0  502  0.61954169552E+03 -0.75751152357E+03 -0.35564749797E+03  0.10412314122E+04  0.46999998093E+01 0. -1.
</event>
<event>
 5   0  0.9220260E-06  0.2002992E+04  0.7818609E-02  0.8605223E-01
       -1   -1    0    0    0  501  0.00000000000E+00  0.00000000000E+00  0.55206708735E+03  0.55206708738E+03  0.50400001928E-02 0. -1.
        1   -1    0    0  501    0  0.00000000000E+00  0.00000000000E+00 -0.18167981734E+04  0.18167981734E+04  0.50400001928E-02 0.  1.
    10030    2    1    2    0    0  0.00000000000E+00  0.00000000000E+00 -0.12647310860E+04  0.23688652608E+04  0.20029922375E+04 0.  0.
        3    1    3    3  502    0  0.60725913947E+03 -0.53516678701E+02 -0.15720930784E+04  0.16861507509E+04  0.10100000352E+00 0.  1.
       -3    1    3    3    0  502 -0.60725913947E+03  0.53516678701E+02  0.30736199240E+03  0.68271450984E+03  0.10100000352E+00 0. -1.
</event>
<event>
 5   0  0.2003576E-05  0.1998120E+04  0.7818609E-02  0.8607500E-01
        2   -1    0    0  501    0  0.00000000000E+00  0.00000000000E+00  0.14055120904E+04  0.14055120904E+04  0.25500000920E-02 0.  1.
       -2   -1    0    0    0  501  0.00000000000E+00  0.00000000000E+00 -0.71014782985E+03  0.71014782985E+03  0.25500000920E-02 0. -1.
    10030    2    1    2    0    0  0.00000000000E+00  0.00000000000E+00  0.69536426057E+03  0.21156599203E+04  0.19981204777E+04 0.  0.
        4    1    3    3  502    0 -0.44815287543E+03  0.28696533043E+03 -0.54759160058E+03  0.76357597825E+03  0.12699999809E+01 0. -1.
       -4    1    3    3    0  502  0.44815287543E+03 -0.28696533043E+03  0.12429558612E+04  0.13520839420E+04  0.12699999809E+01 0.  1.
</event>
<event>
 5   0  0.9140695E-06  0.2001741E+04  0.7818609E-02  0.8605807E-01
       -1   -1    0    0    0  501  0.00000000000E+00  0.00000000000E+00  0.61375215394E+03  0.61375215396E+03  0.50400001928E-02 0.  1.
        1   -1    0    0  501    0  0.00000000000E+00  0.00000000000E+00 -0.16321605527E+04  0.16321605527E+04  0.50400001928E-02 0. -1.
    10030    2    1    2    0    0  0.00000000000E+00  0.00000000000E+00 -0.10184083988E+04  0.22459127067E+04  0.20017412968E+04 0.  0.
        1    1    3    3  502    0  0.72330377928E+03 -0.17818859385E+03 -0.12591889818E+04  0.14630367131E+04  0.50400001928E-02 0. -1.
       -1    1    3    3    0  502 -0.72330377928E+03  0.17818859385E+03  0.24078058300E+03  0.78287599355E+03  0.50400001928E-02 0.  1.
</event>
<event>
 5   0  0.2020029E-05  0.2032137E+04  0.7818609E-02  0.8591741E-01
       -2   -1    0    0    0  501  0.00000000000E+00  0.00000000000E+00  0.83119841741E+03  0.83119841741E+03  0.25500000920E-02 0.  1.
        2   -1    0    0  501    0  0.00000000000E+00  0.00000000000E+00 -0.12420568228E+04  0.12420568228E+04  0.25500000920E-02 0. -1.
    10030    2    1    2    0    0  0.00000000000E+00  0.00000000000E+00 -0.41085840535E+03  0.20732552402E+04  0.20321374613E+04 0.  0.
        5    1    3    3  502    0 -0.61672773986E+03 -0.68297481165E+03  0.23406054564E+03  0.94953363684E+03  0.46999998093E+01 0.  1.
       -5    1    3    3    0  502  0.61672773986E+03  0.68297481165E+03 -0.64491895099E+03  0.11237216033E+04  0.46999998093E+01 0. -1.
</event>
<event>
 5   0  0.9342635E-06  0.1999497E+04  0.7818609E-02  0.8606856E-01
        1   -1    0    0  501    0  0.00000000000E+00  0.00000000000E+00  0.21317083008E+04  0.21317083008E+04  0.50400001928E-02 0. -1.
       -1   -1    0    0    0  501  0.00000000000E+00  0.00000000000E+00 -0.46887130225E+03  0.46887130228E+03  0.50400001928E-02 0.  1.
    10030    2    1    2    0    0  0.00000000000E+00  0.00000000000E+00  0.16628369985E+04  0.26005796030E+04  0.19994967837E+04 0.  0.
        5    1    3    3  502    0  0.51485358686E+03  0.60400424714E+03  0.40733815347E+02  0.79471798783E+03  0.46999998093E+01 0.  1.
       -5    1    3    3    0  502 -0.51485358686E+03 -0.60400424714E+03  0.16221031832E+04  0.18058616152E+04  0.46999998093E+01 0. -1.
</event>
<event>
 5   0  0.9342635E-06  0.1998637E+04  0.7818609E-02  0.8607258E-01
       -1   -1    0    0    0  501  0.00000000000E+00  0.00000000000E+00  0.17384072330E+04  0.17384072330E+04  0.50400001928E-02 0. -1.
        1   -1    0    0  501    0  0.00000000000E+00  0.00000000000E+00 -0.57445570268E+03  0.57445570270E+03  0.50400001928E-02 0.  1.
    10030    2    1    2    0    0  0.00000000000E+00  0.00000000000E+00  0.11639515303E+04  0.23128629357E+04  0.19986374845E+04 0.  0.
        5    1    3    3  502    0  0.68186837339E+03  0.67827644948E+03  0.89594816253E+03  0.13144385191E+04  0.46999998093E+01 0.  1.
       -5    1    3    3    0  502 -0.68186837339E+03 -0.67827644948E+03  0.26800336780E+03  0.99842441662E+03  0.46999998093E+01 0. -1.
</event>
<event>
 5   0  0.2020029E-05  0.2000547E+04  0.7818609E-02  0.8606365E-01
        2   -1    0    0  501    0  0.00000000000E+00  0.00000000000E+00  0.21124106667E+04  0.21124106667E+04  0.25500000920E-02 0. -1.
       -2   -1    0    0    0  501  0.00000000000E+00  0.00000000000E+00 -0.47365192442E+03  0.47365192443E+03  0.25500000920E-02 0.  1.
    10030    2    1    2    0    0  0.00000000000E+00  0.00000000000E+00  0.16387587423E+04  0.25860625911E+04  0.20005473026E+04 0.  0.
        5    1    3    3  502    0  0.48832326199E+03  0.13511179067E+02 -0.30894608210E+03  0.57802416195E+03  0.46999998093E+01 0.  1.
       -5    1    3    3    0  502 -0.48832326199E+03 -0.13511179067E+02  0.19477048243E+04  0.20080384292E+04  0.46999998093E+01 0. -1.
</event>
<event>
 5   0  0.9370269E-06  0.2004468E+04  0.7818609E-02  0.8604535E-01
        1   -1    0    0  501    0  0.00000000000E+00  0.00000000000E+00  0.12942824575E+04  0.12942824575E+04  0.50400001928E-02 0. -1.
       -1   -1    0    0    0  501  0.00000000000E+00  0.00000000000E+00 -0.77608466404E+03  0.77608466406E+03  0.50400001928E-02 0.  1.
    10030    2    1    2    0    0  0.00000000000E+00  0.00000000000E+00  0.51819779343E+03  0.20703671215E+04  0.20044677760E+04 0.  0.
        4    1    3    3  502    0 -0.48684269275E+03 -0.65822674967E+03 -0.33800085081E+03  0.88573384801E+03  0.12699999809E+01 0.  1.
       -4    1    3    3    0  502  0.48684269275E+03  0.65822674967E+03  0.85619864425E+03  0.11846332735E+04  0.12699999809E+01 0. -1.
</event>
<event>
 5   0  0.9370269E-06  0.2000561E+04  0.7818609E-02  0.8606359E-01
        1   -1    0    0  501    0  0.00000000000E+00  0.00000000000E+00  0.20167762905E+04  0.20167762905E+04  0.50400001928E-02 0. -1.
       -1   -1    0    0    0  501  0.00000000000E+00  0.00000000000E+00 -0.49611887310E+03  0.49611887312E+03  0.50400001928E-02 0.  1.
    10030    2    1    2    0    0  0.00000000000E+00  0.00000000000E+00  0.15206574174E+04  0.25128951636E+04  0.20005607020E+04 0.  0.
        4    1    3    3  502    0 -0.30174067575E+03 -0.87077685650E+03  0.27180705175E+03  0.96082280130E+03  0.12699999809E+01 0.  1.
       -4    1    3    3    0  502  0.30174067575E+03  0.87077685650E+03  0.12488503657E+04  0.15520723623E+04  0.12699999809E+01 0. -1.
</event>
<event>
 5   0  0.9342635E-06  0.1999281E+04  0.7818609E-02  0.8606957E-01
       -1   -1    0    0    0  501  0.00000000000E+00  0.00000000000E+00  0.80812281831E+03  0.80812281833E+03  0.50400001928E-02 0.  1.
        1   -1    0    0  501    0  0.00000000000E+00  0.00000000000E+00 -0.12365457280E+04  0.12365457280E+04  0.50400001928E-02 0. -1.
    10030    2    1    2    0    0  0.00000000000E+00  0.00000000000E+00 -0.42842290964E+03  0.20446685463E+04  0.19992806893E+04 0.  0.
        5    1    3    3  502    0  0.13637027571E+03  0.97836831238E+03 -0.57576618053E+02  0.98951430697E+03  0.46999998093E+01 0.  1.
       -5    1    3    3    0  502 -0.13637027571E+03 -0.97836831238E+03 -0.37084629158E+03  0.10551542393E+04  0.46999998093E+01 0. -1.
</event>
<event>
 5   0  0.9370269E-06  0.2000607E+04  0.7818609E-02  0.8606337E-01
       -1   -1    0    0    0  501  0.00000000000E+00  0.00000000000E+00  0.39004567795E+03  0.39004567798E+03  0.50400001928E-02 0.  1.
        1   -1    0    0  501    0  0.00000000000E+00  0.00000000000E+00 -0.25653598951E+04  0.25653598951E+04  0.50400001928E-02 0. -1.
    10030    2    1    2    0    0  0.00000000000E+00  0.00000000000E+00 -0.21753142172E+04  0.29554055731E+04  0.20006074473E+04 0.  0.
        4    1    3    3  502    0  0.28890244013E+02 -0.22908308230E+03 -0.25254528485E+04  0.25359864762E+04  0.12699999809E+01 0. -1.
       -4    1    3    3    0  502 -0.28890244013E+02  0.22908308230E+03  0.35013863131E+03  0.41941909688E+03  0.12699999809E+01 0.  1.
</event>
<event>
 5   0  0.9370269E-06  0.2000692E+04  0.7818609E-02  0.8606297E-01
        1   -1    0    0  501    0  0.00000000000E+00  0.00000000000E+00  0.76593851927E+03  0.76593851929E+03  0.50400001928E-02 0. -1.
       -1   -1    0    0    0  501  0.00000000000E+00  0.00000000000E+00 -0.13064919658E+04  0.13064919658E+04  0.50400001928E-02 0.  1.
    10030    2    1    2    0    0  0.00000000000E+00  0.00000000000E+00 -0.54055344655E+03  0.20724304851E+04  0.20006924019E+04 0.  0.
        4    1    3    3  502    0  0.32017061299E+03 -0.37812352076E+03 -0.11704619340E+04  0.12710111605E+04  0.12699999809E+01 0.  1.
       -4    1    3    3    0  502 -0.32017061299E+03  0.37812352076E+03  0.62990848744E+03  0.80141932459E+03  0.12699999809E+01 0. -1.
</event>
<event>
 5   0  0.9370269E-06  0.2003874E+04  0.7818609E-02  0.8604811E-01
        1   -1    0    0  501    0  0.00000000000E+00  0.00000000000E+00  0.10204379805E+04  0.10204379805E+04  0.50400001928E-02 0. -1.
       -1   -1    0    0    0  501  0.00000000000E+00  0.00000000000E+00 -0.98377189669E+03  0.98377189671E+03  0.50400001928E-02 0.  1.
    10030    2    1    2    0    0  0.00000000000E+00  0.00000000000E+00  0.36666083782E+02  0.20042098772E+04  0.20038744547E+04 0.  0.
        4    1    3    3  502    0  0.36959643257E+03 -0.65477294245E+03  0.68067305432E+03  0.10142221398E+04  0.12699999809E+01 0. -1.
       -4    1    3    3    0  502 -0.36959643257E+03  0.65477294245E+03 -0.64400697054E+03  0.98998773737E+03  0.12699999809E+01 0.  1.
</event>
<event>
 5   0  0.9140695E-06  0.1996503E+04  0.7818609E-02  0.8608258E-01
        1   -1    0    0  501    0  0.00000000000E+00  0.00000000000E+00  0.14994807990E+04  0.14994807990E+04  0.50400001928E-02 0.  1.
       -1   -1    0    0    0  501  0.00000000000E+00  0.00000000000E+00 -0.66456709021E+03  0.66456709023E+03  0.50400001928E-02 0. -1.
    10030    2    1    2    0    0  0.00000000000E+00  0.00000000000E+00  0.83491370878E+03  0.21640478892E+04  0.19965025334E+04 0.  0.
        1    1    3    3  502    0  0.72087882188E+03 -0.67413264992E+03  0.57962687192E+03  0.11445909384E+04  0.50400001928E-02 0. -1.
       -1    1    3    3    0  502 -0.72087882188E+03  0.67413264992E+03  0.25528683686E+03  0.10194569508E+04  0.50400001928E-02 0.  1.
</event>
<event>
 5   0  0.1979765E-05  0.1987826E+04  0.7818609E-02  0.8612333E-01
       -2   -1    0    0    0  501  0.00000000000E+00  0.00000000000E+00  0.14239343624E+04  0.14239343624E+04  0.25500000920E-02 0.  1.
        2   -1    0    0  501    0  0.00000000000E+00  0.00000000000E+00 -0.69375634887E+03  0.69375634887E+03  0.25500000920E-02 0. -1.
    10030    2    1    2    0    0  0.00000000000E+00  0.00000000000E+00  0.73017801355E+03  0.21176907113E+04  0.19878264555E+04 0.  0.
        2    1    3    3  502    0 -0.10658163378E+03  0.30207931725E+03 -0.63725664440E+03  0.71323740045E+03  0.25500000920E-02 0. -1.
       -2    1    3    3    0  502  0.10658163378E+03 -0.30207931725E+03  0.13674346580E+04  0.14044533108E+04  0.25500000920E-02 0.  1.
</event>
<event>
 5   0  0.9140695E-06  0.2000707E+04  0.7818609E-02  0.8606290E-01
       -1   -1    0    0    0  501  0.00000000000E+00  0.00000000000E+00  0.66269972514E+03  0.66269972516E+03  0.50400001928E-02 0. -1.
        1   -1    0    0  501    0  0.00000000000E+00  0.00000000000E+00 -0.15100463685E+04  0.15100463686E+04  0.50400001928E-02 0.  1.
    10030    2    1    2    0    0  0.00000000000E+00  0.00000000000E+00 -0.84734664340E+03  0.21727460937E+04  0.20007071884E+04 0.  0.
        1    1    3    3  502    0 -0.72607987867E+03  0.59237152296E+03 -0.43404518972E+02  0.93807247252E+03  0.50400001928E-02 0. -1.
       -1    1    3    3    0  502  0.72607987867E+03 -0.59237152296E+03 -0.80394212443E+03  0.12346736212E+04  0.50400001928E-02 0.  1.
</event>
<event>
 5   0  0.9370269E-06  0.2000880E+04  0.7818609E-02  0.8606209E-01
        1   -1    0    0  501    0  0.00000000000E+00  0.00000000000E+00  0.15799431768E+04  0.15799431769E+04  0.50400001928E-02 0.  1.
       -1   -1    0    0    0  501  0.00000000000E+00  0.00000000000E+00 -0.63349106456E+03  0.63349106458E+03  0.50400001928E-02 0. -1.
    10030    2    1    2    0    0  0.00000000000E+00  0.00000000000E+00  0.94645211229E+03  0.22134342414E+04  0.20008796916E+04 0.  0.
        4    1    3    3  502    0 -0.15217813031E+03 -0.17875512453E+03 -0.60258909382E+03  0.64670457458E+03  0.12699999809E+01 0. -1.
       -4    1    3    3    0  502  0.15217813031E+03  0.17875512453E+03  0.15490412061E+04  0.15667296669E+04  0.12699999809E+01 0.  1.
</event>
<event>
 5   0  0.2020029E-05  0.1971154E+04  0.7818609E-02  0.8620227E-01
        2   -1    0    0  501    0  0.00000000000E+00  0.00000000000E+00  0.78266512791E+03  0.78266512791E+03  0.25500000920E-02 0.  1.
       -2   -1    0    0    0  501  0.00000000000E+00  0.00000000000E+00 -0.12410959354E+04  0.12410959354E+04  0.25500000920E-02 0. -1.
    10030    2    1    2    0    0  0.00000000000E+00  0.00000000000E+00 -0.45843080746E+03  0.20237610633E+04  0.19711544932E+04 0.  0.
        5    1    3    3  502    0 -0.34045806280E+03 -0.47318605800E+03 -0.10451087508E+04  0.11967000999E+04  0.46999998093E+01 0. -1.
       -5    1    3    3    0  502  0.34045806280E+03  0.47318605800E+03  0.58667794335E+03  0.82706096342E+03  0.46999998093E+01 0.  1.
</event>
<event>
 5   0  0.7132000E-06  0.1991447E+04  0.7818609E-02  0.8610630E-01
        4   -1    0    0  501    0  0.00000000000E+00  0.00000000000E+00  0.76722145641E+03  0.76722250754E+03  0.12699999809E+01 0. -1.
       -4   -1    0    0    0  501  0.00000000000E+00  0.00000000000E+00 -0.12922785973E+04  0.12922792214E+04  0.12699999809E+01 0.  1.
    10030    2    1    2    0    0  0.00000000000E+00  0.00000000000E+00 -0.52505714090E+03  0.20595017289E+04  0.19914473054E+04 0.  0.
        3    1    3    3  502    0  0.59698005472E+03  0.37059716257E+03  0.46708650980E+03  0.84374004318E+03  0.10100000352E+00 0. -1.
       -3    1    3    3    0  502 -0.59698005472E+03 -0.37059716257E+03 -0.99214365069E+03  0.12157616857E+04  0.10100000352E+00 0.  1.
</event>
<event>
 5   0  0.9220260E-06  0.1999405E+04  0.7818609E-02  0.8606899E-01
        1   -1    0    0  501    0  0.00000000000E+00  0.00000000000E+00  0.23588787324E+04  0.23588787324E+04  0.50400001928E-02 0.  1.
       -1   -1    0    0    0  501  0.00000000000E+00  0.00000000000E+00 -0.42367808473E+03  0.42367808476E+03  0.50400001928E-02 0. -1.
    10030    2    1    2    0    0  0.00000000000E+00  0.00000000000E+00  0.19352006477E+04  0.27825568171E+04  0.19994051350E+04 0.  0.
        3    1    3    3  502    0  0.84163348345E+03 -0.53771546933E+03  0.90661359500E+03  0.13488636207E+04  0.10100000352E+00 0. -1.
       -3    1    3    3    0  502 -0.84163348345E+03  0.53771546933E+03  0.10285870527E+04  0.14336931964E+04  0.10100000352E+00 0.  1.
</event>
<event>
 5   0  0.9370269E-06  0.1992656E+04  0.7818609E-02  0.8610062E-01
       -1   -1    0    0    0  501  0.00000000000E+00  0.00000000000E+00  0.94012034473E+03  0.94012034475E+03  0.50400001928E-02 0.  1.
        1   -1    0    0  501    0  0.00000000000E+00  0.00000000000E+00 -0.10558963717E+04  0.10558963717E+04  0.50400001928E-02 0. -1.
    10030    2    1    2    0    0  0.00000000000E+00  0.00000000000E+00 -0.11577602693E+03  0.19960167164E+04  0.19926561780E+04 0.  0.
        4    1    3    3  502    0  0.27022996541E+03 -0.36595764525E+03 -0.94579072203E+03  0.10495098547E+04  0.12699999809E+01 0. -1.
       -4    1    3    3    0  502 -0.27022996541E+03  0.36595764525E+03  0.83001469510E+03  0.94650686173E+03  0.12699999809E+01 0.  1.
</event>
<event>
 5   0  0.9370269E-06  0.2000150E+04  0.7818609E-02  0.8606551E-01
        1   -1    0    0  501    0  0.00000000000E+00  0.00000000000E+00  0.67875497194E+03  0.67875497196E+03  0.50400001928E-02 0.  1.
       -1   -1    0    0    0  501  0.00000000000E+00  0.00000000000E+00 -0.14735065331E+04  0.14735065331E+04  0.50400001928E-02 0. -1.
    10030    2    1    2    0    0  0.00000000000E+00  0.00000000000E+00 -0.79475156116E+03  0.21522615051E+04  0.20001498799E+04 0.  0.
        4    1    3    3  502    0  0.64911440311E+03 -0.60498044782E+03  0.99005824242E+02  0.89283515651E+03  0.12699999809E+01 0.  1.
       -4    1    3    3    0  502 -0.64911440311E+03  0.60498044782E+03 -0.89375738541E+03  0.12594263486E+04  0.12699999809E+01 0. -1.
</event>
<event>
 5   0  0.2003576E-05  0.1993591E+04  0.7818609E-02  0.8609623E-01
        2   -1    0    0  501    0  0.00000000000E+00  0.00000000000E+00  0.17785778847E+04  0.17785778847E+04  0.25500000920E-02 0.  1.
       -2   -1    0    0    0  501  0.00000000000E+00  0.00000000000E+00 -0.55864905184E+03  0.55864905185E+03  0.25500000920E-02 0. -1.
    10030    2    1    2    0    0  0.00000000000E+00  0.00000000000E+00  0.12199288328E+04  0.23372269365E+04  0.19935905787E+04 0.  0.
        4    1    3    3  502    0  0.52453521271E+03 -0.43439301165E+03  0.14632736445E+04  0.16140030513E+04  0.12699999809E+01 0.  1.
       -4    1    3    3    0  502 -0.52453521271E+03  0.43439301165E+03 -0.24334481166E+03  0.72322388525E+03  0.12699999809E+01 0. -1.
</event>
<event>
 5   0  0.7132000E-06  0.1948621E+04  0.7818609E-02  0.8631026E-01
       -3   -1    0    0    0  501  0.00000000000E+00  0.00000000000E+00  0.69157061744E+03  0.69157062482E+03  0.10100000352E+00 0. -1.
        3   -1    0    0  501    0  0.00000000000E+00  0.00000000000E+00 -0.13726454967E+04  0.13726455005E+04  0.10100000352E+00 0.  1.
    10030    2    1    2    0    0  0.00000000000E+00  0.00000000000E+00 -0.68107487931E+03  0.20642161253E+04  0.19486213641E+04 0.  0.
        2    1    3    3  502    0 -0.23239040812E+03 -0.59593122016E+03  0.43800389341E+03  0.77523334010E+03  0.25500000920E-02 0. -1.
       -2    1    3    3    0  502  0.23239040812E+03  0.59593122016E+03 -0.11190787727E+04  0.12889827852E+04  0.25500000920E-02 0.  1.
</event>
<event>
 5   0  0.9220260E-06  0.1995352E+04  0.7818609E-02  0.8608797E-01
        1   -1    0    0  501    0  0.00000000000E+00  0.00000000000E+00  0.11877739032E+04  0.11877739032E+04  0.50400001928E-02 0.  1.
       -1   -1    0    0    0  501  0.00000000000E+00  0.00000000000E+00 -0.83800273116E+03  0.83800273117E+03  0.50400001928E-02 0. -1.
    10030    2    1    2    0    0  0.00000000000E+00  0.00000000000E+00  0.34977117200E+03  0.20257766343E+04  0.19953523748E+04 0.  0.
        3    1    3    3  502    0  0.76063085248E+03  0.27844641452E+03 -0.41646109862E+03  0.91078622979E+03  0.10100000352E+00 0. -1.
       -3    1    3    3    0  502 -0.76063085248E+03 -0.27844641452E+03  0.76623227062E+03  0.11149904046E+04  0.10100000352E+00 0.  1.
</event>
<event>
 5   0  0.1979765E-05  0.1988726E+04  0.7818609E-02  0.8611910E-01
        2   -1    0    0  501    0  0.00000000000E+00  0.00000000000E+00  0.16131610140E+04  0.16131610140E+04  0.25500000920E-02 0. -1.
       -2   -1    0    0    0  501  0.00000000000E+00  0.00000000000E+00 -0.61293206974E+03  0.61293206975E+03  0.25500000920E-02 0.  1.
    10030    2    1    2    0    0  0.00000000000E+00  0.00000000000E+00  0.10002289442E+04  0.22260930837E+04  0.19887263453E+04 0.  0.
        2    1    3    3  502    0  0.34761859321E+03  0.73182881883E+03 -0.14518829838E+03  0.82309886916E+03  0.25500000920E-02 0.  1.
       -2    1    3    3    0  502 -0.34761859321E+03 -0.73182881883E+03  0.11454172426E+04  0.14029942145E+04  0.25500000920E-02 0. -1.
</event>
<event>
 5   0  0.2020029E-05  0.1987475E+04  0.7818609E-02  0.8612499E-01
       -2   -1    0    0    0  501  0.00000000000E+00  0.00000000000E+00  0.76933734481E+03  0.76933734481E+03  0.25500000920E-02 0. -1.
        2   -1    0    0  501    0  0.00000000000E+00  0.00000000000E+00 -0.12835908382E+04  0.12835908382E+04  0.25500000920E-02 0.  1.
    10030    2    1    2    0    0  0.00000000000E+00  0.00000000000E+00 -0.51425349338E+03  0.20529281830E+04  0.19874751493E+04 0.  0.
        5    1    3    3  502    0 -0.77932781013E+03 -0.23180831073E+02 -0.89353663601E+03  0.11858832137E+04  0.46999998093E+01 0.  1.
       -5    1    3    3    0  502  0.77932781013E+03  0.23180831073E+02  0.37928314263E+03  0.86704496934E+03  0.46999998093E+01 0. -1.
</event>
<event>
 5   0  0.2038882E-05  0.1996819E+04  0.7818609E-02  0.8608109E-01
       -2   -1    0    0    0  501  0.00000000000E+00  0.00000000000E+00  0.78714758928E+03  0.78714758929E+03  0.25500000920E-02 0. -1.
        2   -1    0    0  501    0  0.00000000000E+00  0.00000000000E+00 -0.12663724424E+04  0.12663724424E+04  0.25500000920E-02 0.  1.
    10030    2    1    2    0    0  0.00000000000E+00  0.00000000000E+00 -0.47922485307E+03  0.20535200317E+04  0.19968194862E+04 0.  0.
        3    1    3    3  502    0  0.80272613554E+03 -0.59298388366E+02 -0.84709428274E+03  0.11685265430E+04  0.10100000352E+00 0.  1.
       -3    1    3    3    0  502 -0.80272613554E+03  0.59298388366E+02  0.36786942967E+03  0.88499348869E+03  0.10100000352E+00 0. -1.
</event>
<event>
 5   0  0.9333353E-06  0.2000382E+04  0.7818609E-02  0.8606442E-01
        1   -1    0    0  501    0  0.00000000000E+00  0.00000000000E+00  0.13718745890E+04  0.13718745890E+04  0.50400001928E-02 0.  1.
       -1   -1    0    0    0  501  0.00000000000E+00  0.00000000000E+00 -0.72920783611E+03  0.72920783613E+03  0.50400001928E-02 0. -1.
    10030    2    1    2    0    0  0.00000000000E+00  0.00000000000E+00  0.64266675286E+03  0.21010824251E+04  0.20003816641E+04 0.  0.
        2    1    3    3  502    0 -0.18729446135E+02  0.69480540769E+03 -0.43409194487E+03  0.81947615177E+03  0.25500000920E-02 0. -1.
       -2    1    3    3    0  502  0.18729446135E+02 -0.69480540769E+03  0.10767586977E+04  0.12816062733E+04  0.25500000920E-02 0.  1.
</event>
<event>
 5   0  0.2038882E-05  0.1997632E+04  0.7818609E-02  0.8607728E-01
        2   -1    0    0  501    0  0.00000000000E+00  0.00000000000E+00  0.21409396764E+04  0.21409396764E+04  0.25500000920E-02 0.  1.
       -2   -1    0    0    0  501  0.00000000000E+00  0.00000000000E+00 -0.46597935057E+03  0.46597935058E+03  0.25500000920E-02 0. -1.
    10030    2    1    2    0    0  0.00000000000E+00  0.00000000000E+00  0.16749603258E+04  0.26069190270E+04  0.19976322785E+04 0.  0.
        3    1    3    3  502    0  0.89990352162E+03 -0.41195841244E+03  0.10130388579E+04  0.14162569752E+04  0.10100000352E+00 0. -1.
       -3    1    3    3    0  502 -0.89990352162E+03  0.41195841244E+03  0.66192146792E+03  0.11906620518E+04  0.10100000352E+00 0.  1.
</event>
<event>
 5   0  0.9342635E-06  0.2010673E+04  0.7818609E-02  0.8601647E-01
        1   -1    0    0  501    0  0.00000000000E+00  0.00000000000E+00  0.16273955886E+04  0.16273955886E+04  0.50400001928E-02 0. -1.
       -1   -1    0    0    0  501  0.00000000000E+00  0.00000000000E+00 -0.62105433076E+03  0.62105433078E+03  0.50400001928E-02 0.  1.
    10030    2    1    2    0    0  0.00000000000E+00  0.00000000000E+00  0.10063412578E+04  0.22484499194E+04  0.20106726021E+04 0.  0.
        5    1    3    3  502    0 -0.29590605816E+03  0.57799337008E+03 -0.35508188547E+03  0.74009591710E+03  0.46999998093E+01 0.  1.
       -5    1    3    3    0  502  0.29590605816E+03 -0.57799337008E+03  0.13614231433E+04  0.15083540023E+04  0.46999998093E+01 0. -1.
</event>
<event>
 5   0  0.9220260E-06  0.1996746E+04  0.7818609E-02  0.8608144E-01
        1   -1    0    0  501    0  0.00000000000E+00  0.00000000000E+00  0.17132415221E+04  0.17132415221E+04  0.50400001928E-02 0.  1.
       -1   -1    0    0    0  501  0.00000000000E+00  0.00000000000E+00 -0.58179110590E+03  0.58179110593E+03  0.50400001928E-02 0. -1.
    10030    2    1    2    0    0  0.00000000000E+00  0.00000000000E+00  0.11314504161E+04  0.22950326280E+04  0.19967460328E+04 0.  0.
        3    1    3    3  502    0  0.73123721876E+03 -0.22938676462E+02  0.13465592951E+04  0.15324672911E+04  0.10100000352E+00 0.  1.
       -3    1    3    3    0  502 -0.73123721876E+03  0.22938676462E+02 -0.21510887895E+03  0.76256533686E+03  0.10100000352E+00 0. -1.
</event>
<event>
 5   0  0.9370269E-06  0.2000385E+04  0.7818609E-02  0.8606441E-01
        1   -1    0    0  501    0  0.00000000000E+00  0.00000000000E+00  0.82975588020E+03  0.82975588021E+03  0.50400001928E-02 0. -1.
       -1   -1    0    0    0  501  0.00000000000E+00  0.00000000000E+00 -0.12056379043E+04  0.12056379043E+04  0.50400001928E-02 0.  1.
    10030    2    1    2    0    0  0.00000000000E+00  0.00000000000E+00 -0.37588202410E+03  0.20353937845E+04  0.20003851034E+04 0.  0.
        4    1    3    3  502    0  0.51779948123E+03 -0.82482983175E+03  0.43912997090E+02  0.97487974557E+03  0.12699999809E+01 0.  1.
       -4    1    3    3    0  502 -0.51779948123E+03  0.82482983175E+03 -0.41979502119E+03  0.10605140390E+04  0.12699999809E+01 0. -1.
</event>
<event>
 5   0  0.2003576E-05  0.1999759E+04  0.7818609E-02  0.8606733E-01
        2   -1    0    0  501    0  0.00000000000E+00  0.00000000000E+00  0.68941743956E+03  0.68941743956E+03  0.25500000920E-02 0.  1.
       -2   -1    0    0    0  501  0.00000000000E+00  0.00000000000E+00 -0.14501503841E+04  0.14501503841E+04  0.25500000920E-02 0. -1.
    10030    2    1    2    0    0  0.00000000000E+00  0.00000000000E+00 -0.76073294458E+03  0.21395678237E+04  0.19997589503E+04 0.  0.
        4    1    3    3  502    0 -0.65086512174E+03 -0.40545264122E+02  0.43057385815E+03  0.78145043692E+03  0.12699999809E+01 0.  1.
       -4    1    3    3    0  502  0.65086512174E+03  0.40545264122E+02 -0.11913068027E+04  0.13581173868E+04  0.12699999809E+01 0. -1.
</event>
<event>
 5   0  0.9370269E-06  0.1999086E+04  0.7818609E-02  0.8607048E-01
        1   -1    0    0  501    0  0.00000000000E+00  0.00000000000E+00  0.16013325842E+04  0.16013325842E+04  0.50400001928E-02 0.  1.
       -1   -1    0    0    0  501  0.00000000000E+00  0.00000000000E+00 -0.62390907397E+03  0.62390907399E+03  0.50400001928E-02 0. -1.
    10030    2    1    2    0    0  0.00000000000E+00  0.00000000000E+00  0.97742351026E+03  0.22252416582E+04  0.19990857208E+04 0.  0.
        4    1    3    3  502    0  0.52598337202E+03 -0.35140215713E+03  0.13501780092E+04  0.14910145046E+04  0.12699999809E+01 0.  1.
       -4    1    3    3    0  502 -0.52598337202E+03  0.35140215713E+03 -0.37275449893E+03  0.73422715358E+03  0.12699999809E+01 0. -1.
</event>
<event>
 5   0  0.7132000E-06  0.1993356E+04  0.7818609E-02  0.8609733E-01
        4   -1    0    0  501    0  0.00000000000E+00  0.00000000000E+00  0.16334153291E+04  0.16334158229E+04  0.12699999809E+01 0. -1.
       -4   -1    0    0    0  501  0.00000000000E+00  0.00000000000E+00 -0.60815204175E+03  0.60815336782E+03  0.12699999809E+01 0.  1.
    10030    2    1    2    0    0  0.00000000000E+00  0.00000000000E+00  0.10252632874E+04  0.22415691907E+04  0.19933558709E+04 0.  0.
        2    1    3    3  502    0  0.21826230031E+03  0.60191379625E+03  0.13715681056E+04  0.15136504610E+04  0.25500000920E-02 0. -1.
       -2    1    3    3    0  502 -0.21826230031E+03 -0.60191379625E+03 -0.34630481821E+03  0.72791872965E+03  0.25500000920E-02 0.  1.
</event>
<event>
 5   0  0.9220260E-06  0.2001444E+04  0.7818609E-02  0.8605946E-01
       -1   -1    0    0    0  501  0.00000000000E+00  0.00000000000E+00  0.95808514305E+03  0.95808514306E+03  0.50400001928E-02 0.  1.
        1   -1    0    0  501    0  0.00000000000E+00  0.00000000000E+00 -0.10452566300E+04  0.10452566300E+04  0.50400001928E-02 0. -1.
    10030    2    1    2    0    0  0.00000000000E+00  0.00000000000E+00 -0.87171486962E+02  0.20033417731E+04  0.20014443264E+04 0.  0.
        3    1    3    3  502    0  0.37213325838E+03 -0.68483757339E+03 -0.67184246248E+03  0.10290082451E+04  0.10100000352E+00 0. -1.
       -3    1    3    3    0  502 -0.37213325838E+03  0.68483757339E+03  0.58467097552E+03  0.97433352797E+03  0.10100000352E+00 0.  1.
</event>
<event>
 5   0  0.1979765E-05  0.2014623E+04  0.7818609E-02  0.8599815E-01
        2   -1    0    0  501    0  0.00000000000E+00  0.00000000000E+00  0.99914824739E+03  0.99914824739E+03  0.25500000920E-02 0.  1.
       -2   -1    0    0    0  501  0.00000000000E+00  0.00000000000E+00 -0.10155410215E+04  0.10155410215E+04  0.25500000920E-02 0. -1.
    10030    2    1    2    0    0  0.00000000000E+00  0.00000000000E+00 -0.16392774144E+02  0.20146892689E+04  0.20146225769E+04 0.  0.
        2    1    3    3  502    0 -0.43615576156E+03  0.22295621628E+03 -0.88841567995E+03  0.10145066501E+04  0.25500000920E-02 0. -1.
       -2    1    3    3    0  502  0.43615576156E+03 -0.22295621628E+03  0.87202290581E+03  0.10001826188E+04  0.25500000920E-02 0.  1.
</event>
<event>
 5   0  0.2003576E-05  0.2006754E+04  0.7818609E-02  0.8603470E-01
       -2   -1    0    0    0  501  0.00000000000E+00  0.00000000000E+00  0.74712746750E+03  0.74712746751E+03  0.25500000920E-02 0.  1.
        2   -1    0    0  501    0  0.00000000000E+00  0.00000000000E+00 -0.13475145637E+04  0.13475145637E+04  0.25500000920E-02 0. -1.
    10030    2    1    2    0    0  0.00000000000E+00  0.00000000000E+00 -0.60038709624E+03  0.20946420312E+04  0.20067537402E+04 0.  0.
        4    1    3    3  502    0  0.37023563162E+03 -0.19980841614E+03  0.65061586616E+03  0.77479058092E+03  0.12699999809E+01 0.  1.
       -4    1    3    3    0  502 -0.37023563162E+03  0.19980841614E+03 -0.12510029624E+04  0.13198514503E+04  0.12699999809E+01 0. -1.
</event>
<event>
 5   0  0.1979765E-05  0.1998027E+04  0.7818609E-02  0.8607544E-01
        2   -1    0    0  501    0  0.00000000000E+00  0.00000000000E+00  0.89023315966E+03  0.89023315966E+03  0.25500000920E-02 0.  1.
       -2   -1    0    0    0  501  0.00000000000E+00  0.00000000000E+00 -0.11210855080E+04  0.11210855080E+04  0.25500000920E-02 0. -1.
    10030    2    1    2    0    0  0.00000000000E+00  0.00000000000E+00 -0.23085234829E+03  0.20113186676E+04  0.19980265203E+04 0.  0.
        2    1    3    3  502    0  0.56397557210E+03 -0.80468181162E+03  0.65900525920E+02  0.98484726897E+03  0.25500000920E-02 0.  1.
       -2    1    3    3    0  502 -0.56397557210E+03  0.80468181162E+03 -0.29675287421E+03  0.10264713986E+04  0.25500000920E-02 0. -1.
</event>
<event>
 5   0  0.9370269E-06  0.1999638E+04  0.7818609E-02  0.8606790E-01
        1   -1    0    0  501    0  0.00000000000E+00  0.00000000000E+00  0.20075636883E+04  0.20075636883E+04  0.50400001928E-02 0. -1.
       -1   -1    0    0    0  501  0.00000000000E+00  0.00000000000E+00 -0.49793609397E+03  0.49793609399E+03  0.50400001928E-02 0.  1.
    10030    2    1    2    0    0  0.00000000000E+00  0.00000000000E+00  0.15096275943E+04  0.25054997823E+04  0.19996383887E+04 0.  0.
        4    1    3    3  502    0 -0.41026318805E+03 -0.98080551148E+02  0.18906085184E+04  0.19370952121E+04  0.12699999809E+01 0. -1.
       -4    1    3    3    0  502  0.41026318805E+03  0.98080551148E+02 -0.38098092409E+03  0.56840457018E+03  0.12699999809E+01 0.  1.
</event>
<event>
 5   0  0.2020029E-05  0.2010475E+04  0.7818609E-02  0.8601739E-01
       -2   -1    0    0    0  501  0.00000000000E+00  0.00000000000E+00  0.10560059882E+04  0.10560059882E+04  0.25500000920E-02 0. -1.
        2   -1    0    0  501    0  0.00000000000E+00  0.00000000000E+00 -0.95690982266E+03  0.95690982266E+03  0.25500000920E-02 0.  1.
    10030    2    1    2    0    0  0.00000000000E+00  0.00000000000E+00  0.99096165508E+02  0.20129158108E+04  0.20104750711E+04 0.  0.
        5    1    3    3  502    0 -0.63721342217E+03 -0.30135876032E+03  0.76709265204E+03  0.10417827387E+04  0.46999998093E+01 0. -1.
       -5    1    3    3    0  502  0.63721342217E+03  0.30135876032E+03 -0.66799648653E+03  0.97113307215E+03  0.46999998093E+01 0.  1.
</event>
<event>
 5   0  0.9333353E-06  0.1988098E+04  0.7818609E-02  0.8612205E-01
       -1   -1    0    0    0  501  0.00000000000E+00  0.00000000000E+00  0.97994340277E+03  0.97994340279E+03  0.50400001928E-02 0.  1.
        1   -1    0    0  501    0  0.00000000000E+00  0.00000000000E+00 -0.10083581309E+04  0.10083581309E+04  0.50400001928E-02 0. -1.
    10030    2    1    2    0    0  0.00000000000E+00  0.00000000000E+00 -0.28414728080E+02  0.19883015337E+04  0.19880984865E+04 0.  0.
        2    1    3    3  502    0  0.32508926247E+03  0.69752795841E+03  0.61506720999E+03  0.98515783210E+03  0.25500000920E-02 0.  1.
       -2    1    3    3    0  502 -0.32508926247E+03 -0.69752795841E+03 -0.64348193807E+03  0.10031437016E+04  0.25500000920E-02 0. -1.
</event>
<event>
 5   0  0.9140695E-06  0.2000854E+04  0.7818609E-02  0.8606221E-01
        1   -1    0    0  501    0  0.00000000000E+00  0.00000000000E+00  0.20050660746E+04  0.20050660746E+04  0.50400001928E-02 0.  1.
       -1   -1    0    0    0  501  0.00000000000E+00  0.00000000000E+00 -0.49916282934E+03  0.49916282936E+03  0.50400001928E-02 0. -1.
    10030    2    1    2    0    0  0.00000000000E+00  0.00000000000E+00  0.15059032453E+04  0.25042289040E+04  0.20008542724E+04 0.  0.
        1    1    3    3  502    0 -0.83247768562E+02 -0.91133603295E+03  0.12588607281E+04  0.15563399014E+04  0.50400001928E-02 0.  1.
       -1    1    3    3    0  502  0.83247768562E+02  0.91133603295E+03  0.24704251721E+03  0.94788900261E+03  0.50400001928E-02 0. -1.
</event>
<event>
 5   0  0.9342635E-06  0.1996098E+04  0.7818609E-02  0.8608447E-01
        1   -1    0    0  501    0  0.00000000000E+00  0.00000000000E+00  0.73975843939E+03  0.73975843940E+03  0.50400001928E-02 0. -1.
       -1   -1    0    0    0  501  0.00000000000E+00  0.00000000000E+00 -0.13465226177E+04  0.13465226177E+04  0.50400001928E-02 0.  1.
    10030    2    1    2    0    0  0.00000000000E+00  0.00000000000E+00 -0.60676417827E+03  0.20862810571E+04  0.19960976632E+04 0.  0.
        5    1    3    3  502    0  0.37580776457E+03 -0.16633390033E+03  0.64720363420E+03  0.76667664399E+03  0.46999998093E+01 0. -1.
       -5    1    3    3    0  502 -0.37580776457E+03  0.16633390033E+03 -0.12539678125E+04  0.13196044131E+04  0.46999998093E+01 0.  1.
</event>
<event>
 5   0  0.9370269E-06  0.2000291E+04  0.7818609E-02  0.8606485E-01
       -1   -1    0    0    0  501  0.00000000000E+00  0.00000000000E+00  0.84515752774E+03  0.84515752775E+03  0.50400001928E-02 0. -1.
        1   -1    0    0  501    0  0.00000000000E+00  0.00000000000E+00 -0.11835558364E+04  0.11835558364E+04  0.50400001928E-02 0.  1.
    10030    2    1    2    0    0  0.00000000000E+00  0.00000000000E+00 -0.33839830866E+03  0.20287133642E+04  0.20002911035E+04 0.  0.
        4    1    3    3  502    0 -0.64531434459E+03  0.43576143039E+03 -0.80578877058E+03  0.11205426289E+04  0.12699999809E+01 0.  1.
       -4    1    3    3    0  502  0.64531434459E+03 -0.43576143039E+03  0.46739046192E+03  0.90817073524E+03  0.12699999809E+01 0. -1.
</event>
<event>
 5   0  0.1999142E-05  0.2000302E+04  0.7818609E-02  0.8606480E-01
        2   -1    0    0  501    0  0.00000000000E+00  0.00000000000E+00  0.16165856620E+04  0.16165856620E+04  0.25500000920E-02 0.  1.
       -2   -1    0    0    0  501  0.00000000000E+00  0.00000000000E+00 -0.61877447271E+03  0.61877447272E+03  0.25500000920E-02 0. -1.
    10030    2    1    2    0    0  0.00000000000E+00  0.00000000000E+00  0.99781118925E+03  0.22353601347E+04  0.20003019178E+04 0.  0.
        1    1    3    3  502    0  0.96078721257E+02  0.95451773464E+03  0.81491977841E+03  0.12587412251E+04  0.50400001928E-02 0.  1.
       -1    1    3    3    0  502 -0.96078721257E+02 -0.95451773464E+03  0.18289141083E+03  0.97661890961E+03  0.50400001928E-02 0. -1.
</event>
<event>
 5   0  0.9140695E-06  0.1992979E+04  0.7818609E-02  0.8609910E-01
        1   -1    0    0  501    0  0.00000000000E+00  0.00000000000E+00  0.16844333931E+04  0.16844333931E+04  0.50400001928E-02 0. -1.
       -1   -1    0    0    0  501  0.00000000000E+00  0.00000000000E+00 -0.58951087872E+03  0.58951087874E+03  0.50400001928E-02 0.  1.
    10030    2    1    2    0    0  0.00000000000E+00  0.00000000000E+00  0.10949225144E+04  0.22739442719E+04  0.19929794879E+04 0.  0.
        1    1    3    3  502    0  0.22275762157E+03  0.51961240067E+03 -0.38881734287E+03  0.68614643556E+03  0.50400001928E-02 0.  1.
       -1    1    3    3    0  502 -0.22275762157E+03 -0.51961240067E+03  0.14837398573E+04  0.15877978363E+04  0.50400001928E-02 0. -1.
</event>
<event>
 5   0  0.2038882E-05  0.2002999E+04  0.7818609E-02  0.8605220E-01
       -2   -1    0    0    0  501  0.00000000000E+00  0.00000000000E+00  0.87377476112E+03  0.87377476112E+03  0.25500000920E-02 0.  1.
        2   -1    0    0  501    0  0.00000000000E+00  0.00000000000E+00 -0.11478946671E+04  0.11478946671E+04  0.25500000920E-02 0. -1.
    10030    2    1    2    0    0  0.00000000000E+00  0.00000000000E+00 -0.27411990601E+03  0.20216694283E+04  0.20029991399E+04 0.  0.
        3    1    3    3  502    0  0.51507542394E+03 -0.50148468231E+03  0.56672848520E+03  0.91540743119E+03  0.10100000352E+00 0.  1.
       -3    1    3    3    0  502 -0.51507542394E+03  0.50148468231E+03 -0.84084839122E+03  0.11062619971E+04  0.10100000352E+00 0. -1.
</event>
<event>
 5   0  0.1999142E-05  0.1997564E+04  0.7818609E-02  0.8607760E-01
       -2   -1    0    0    0  501  0.00000000000E+00  0.00000000000E+00  0.12592683632E+04  0.12592683632E+04  0.25500000920E-02 0. -1.
        2   -1    0    0  501    0  0.00000000000E+00  0.00000000000E+00 -0.79217900632E+03  0.79217900632E+03  0.25500000920E-02 0.  1.
    10030    2    1    2    0    0  0.00000000000E+00  0.00000000000E+00  0.46708935691E+03  0.20514473696E+04  0.19975644777E+04 0.  0.
        1    1    3    3  502    0 -0.76360369671E+03 -0.34957664780E+03 -0.32165962519E+03  0.89931048744E+03  0.50400001928E-02 0.  1.
       -1    1    3    3    0  502  0.76360369671E+03  0.34957664780E+03  0.78874898211E+03  0.11521368821E+04  0.50400001928E-02 0. -1.
</event>
<event>
 5   0  0.1999142E-05  0.2006864E+04  0.7818609E-02  0.8603418E-01
       -2   -1    0    0    0  501  0.00000000000E+00  0.00000000000E+00  0.36588364821E+03  0.36588364822E+03  0.25500000920E-02 0.  1.
        2   -1    0    0  501    0  0.00000000000E+00  0.00000000000E+00 -0.27519015937E+04  0.27519015937E+04  0.25500000920E-02 0. -1.
    10030    2    1    2    0    0  0.00000000000E+00  0.00000000000E+00 -0.23860179455E+04  0.31177852419E+04  0.20068640159E+04 0.  0.
        1    1    3    3  502    0 -0.99232234612E+03 -0.67553246165E+02 -0.13991631230E+04  0.17166608647E+04  0.50400001928E-02 0.  1.
       -1    1    3    3    0  502  0.99232234612E+03  0.67553246165E+02 -0.98685482248E+03  0.14011243772E+04  0.50400001928E-02 0. -1.
</event>
<event>
 5   0  0.2020029E-05  0.1999908E+04  0.7818609E-02  0.8606664E-01
       -2   -1    0    0    0  501  0.00000000000E+00  0.00000000000E+00  0.34721993416E+03  0.34721993417E+03  0.25500000920E-02 0.  1.
        2   -1    0    0  501    0  0.00000000000E+00  0.00000000000E+00 -0.28797540536E+04  0.28797540536E+04  0.25500000920E-02 0. -1.
    10030    2    1    2    0    0  0.00000000000E+00  0.00000000000E+00 -0.25325341195E+04  0.32269739878E+04  0.19999080108E+04 0.  0.
        5    1    3    3  502    0 -0.24899663597E+03 -0.82269091750E+03 -0.44182372337E+03  0.96646260300E+03  0.46999998093E+01 0.  1.
       -5    1    3    3    0  502  0.24899663597E+03  0.82269091750E+03 -0.20907103961E+04  0.22605113848E+04  0.46999998093E+01 0. -1.
</event>
<event>
 5   0  0.9342635E-06  0.1997950E+04  0.7818609E-02  0.8607580E-01
        1   -1    0    0  501    0  0.00000000000E+00  0.00000000000E+00  0.12417203155E+04  0.12417203155E+04  0.50400001928E-02 0. -1.
       -1   -1    0    0    0  501  0.00000000000E+00  0.00000000000E+00 -0.80368426491E+03  0.80368426493E+03  0.50400001928E-02 0.  1.
    10030    2    1    2    0    0  0.00000000000E+00  0.00000000000E+00  0.43803605062E+03  0.20454045805E+04  0.19979500284E+04 0.  0.
        5    1    3    3  502    0 -0.20093853569E+03 -0.96988294974E+03  0.35202600809E+03  0.10511867730E+04  0.46999998093E+01 0.  1.
       -5    1    3    3    0  502  0.20093853569E+03  0.96988294974E+03  0.86010042530E+02  0.99421780749E+03  0.46999998093E+01 0. -1.
</event>
<event>
 5   0  0.2038882E-05  0.1996769E+04  0.7818609E-02  0.8608133E-01
        2   -1    0    0  501    0  0.00000000000E+00  0.00000000000E+00  0.16807525632E+04  0.16807525632E+04  0.25500000920E-02 0. -1.
       -2   -1    0    0    0  501  0.00000000000E+00  0.00000000000E+00 -0.59305052595E+03  0.59305052595E+03  0.25500000920E-02 0.  1.
    10030    2    1    2    0    0  0.00000000000E+00  0.00000000000E+00  0.10877020372E+04  0.22738030891E+04  0.19967685811E+04 0.  0.
        3    1    3    3  502    0 -0.63003279537E+03 -0.33248607130E+02 -0.33727614939E+03  0.71540338570E+03  0.10100000352E+00 0.  1.
       -3    1    3    3    0  502  0.63003279537E+03  0.33248607130E+02  0.14249781866E+04  0.15583997034E+04  0.10100000352E+00 0. -1.
</event>
<event>
 5   0  0.9333353E-06  0.1999564E+04  0.7818609E-02  0.8606825E-01
        1   -1    0    0  501    0  0.00000000000E+00  0.00000000000E+00  0.80718209759E+03  0.80718209761E+03  0.50400001928E-02 0.  1.
       -1   -1    0    0    0  501  0.00000000000E+00  0.00000000000E+00 -0.12383373367E+04  0.12383373368E+04  0.50400001928E-02 0. -1.
    10030    2    1    2    0    0  0.00000000000E+00  0.00000000000E+00 -0.43115523916E+03  0.20455194344E+04  0.19995636814E+04 0.  0.
        2    1    3    3  502    0 -0.91428525407E+03  0.24393309968E+03 -0.54570617477E+03  0.10923443194E+04  0.25500000920E-02 0. -1.
       -2    1    3    3    0  502  0.91428525407E+03 -0.24393309968E+03  0.11455093561E+03  0.95317511497E+03  0.25500000920E-02 0.  1.
</event>
<event>
 5   0  0.9140695E-06  0.2000095E+04  0.7818609E-02  0.8606576E-01
       -1   -1    0    0    0  501  0.00000000000E+00  0.00000000000E+00  0.99467467925E+03  0.99467467926E+03  0.50400001928E-02 0. -1.
        1   -1    0    0  501    0  0.00000000000E+00  0.00000000000E+00 -0.10054489295E+04  0.10054489295E+04  0.50400001928E-02 0.  1.
    10030    2    1    2    0    0  0.00000000000E+00  0.00000000000E+00 -0.10774250269E+02  0.20001236088E+04  0.20000945893E+04 0.  0.
        1    1    3    3  502    0  0.32674449839E+03  0.12567613936E+03 -0.94217076983E+03  0.10051080632E+04  0.50400001928E-02 0.  1.
       -1    1    3    3    0  502 -0.32674449839E+03 -0.12567613936E+03  0.93139651956E+03  0.99501554556E+03  0.50400001928E-02 0. -1.
</event>
<event>
 5   0  0.9220260E-06  0.2000805E+04  0.7818609E-02  0.8606244E-01
       -1   -1    0    0    0  501  0.00000000000E+00  0.00000000000E+00  0.26355311812E+04  0.26355311812E+04  0.50400001928E-02 0.  1.
        1   -1    0    0  501    0  0.00000000000E+00  0.00000000000E+00 -0.37973560729E+03  0.37973560733E+03  0.50400001928E-02 0. -1.
    10030    2    1    2    0    0  0.00000000000E+00  0.00000000000E+00  0.22557955739E+04  0.30152667886E+04  0.20008048718E+04 0.  0.
        3    1    3    3  502    0  0.22992891700E+02  0.32084014134E+03 -0.29967751795E+03  0.43962904173E+03  0.10100000352E+00 0. -1.
       -3    1    3    3    0  502 -0.22992891700E+02 -0.32084014134E+03  0.25554730919E+04  0.25756377468E+04  0.10100000352E+00 0.  1.
</event>
<event>
 5   0  0.9220260E-06  0.2000804E+04  0.7818609E-02  0.8606245E-01
       -1   -1    0    0    0  501  0.00000000000E+00  0.00000000000E+00  0.10150736274E+04  0.10150736274E+04  0.50400001928E-02 0. -1.
        1   -1    0    0  501    0  0.00000000000E+00  0.00000000000E+00 -0.98594261102E+03  0.98594261103E+03  0.50400001928E-02 0.  1.
    10030    2    1    2    0    0  0.00000000000E+00  0.00000000000E+00  0.29131016348E+02  0.20010162384E+04  0.20008041809E+04 0.  0.
        3    1    3    3  502    0  0.91458444665E+03  0.31630659883E+02  0.41876069476E+03  0.10063924376E+04  0.10100000352E+00 0.  1.
       -3    1    3    3    0  502 -0.91458444665E+03 -0.31630659883E+02 -0.38962967841E+03  0.99462380084E+03  0.10100000352E+00 0. -1.
</event>
<event>
 5   0  0.1979765E-05  0.1999646E+04  0.7818609E-02  0.8606786E-01
       -2   -1    0    0    0  501  0.00000000000E+00  0.00000000000E+00  0.44745910156E+03  0.44745910157E+03  0.25500000920E-02 0. -1.
        2   -1    0    0  501    0  0.00000000000E+00  0.00000000000E+00 -0.22340492694E+04  0.22340492694E+04  0.25500000920E-02 0.  1.
    10030    2    1    2    0    0  0.00000000000E+00  0.00000000000E+00 -0.17865901679E+04  0.26815083710E+04  0.19996456476E+04 0.  0.
        2    1    3    3  502    0 -0.62793902581E+03  0.24490798220E+03  0.97005634288E+02  0.68095332657E+03  0.25500000920E-02 0. -1.
       -2    1    3    3    0  502  0.62793902581E+03 -0.24490798220E+03 -0.18835958021E+04  0.20005550444E+04  0.25500000920E-02 0.  1.
</event>
<event>
 5   0  0.9342635E-06  0.2000257E+04  0.7818609E-02  0.8606501E-01
        1   -1    0    0  501    0  0.00000000000E+00  0.00000000000E+00  0.10457366225E+04  0.10457366226E+04  0.50400001928E-02 0. -1.
       -1   -1    0    0    0  501  0.00000000000E+00  0.00000000000E+00 -0.95650944169E+03  0.95650944170E+03  0.50400001928E-02 0.  1.
    10030    2    1    2    0    0  0.00000000000E+00  0.00000000000E+00  0.89227180854E+02  0.20022460643E+04  0.20002569365E+04 0.  0.
        5    1    3    3  502    0 -0.16448412484E+02 -0.51317400069E+03 -0.81450370239E+03  0.96283772073E+03  0.46999998093E+01 0.  1.
       -5    1    3    3    0  502  0.16448412484E+02  0.51317400069E+03  0.90373088325E+03  0.10394083435E+04  0.46999998093E+01 0. -1.
</event>
<event>
 5   0  0.2020029E-05  0.1989449E+04  0.7818609E-02  0.8611570E-01
        2   -1    0    0  501    0  0.00000000000E+00  0.00000000000E+00  0.18663479528E+04  0.18663479528E+04  0.25500000920E-02 0. -1.
       -2   -1    0    0    0  501  0.00000000000E+00  0.00000000000E+00 -0.53016736449E+03  0.53016736450E+03  0.25500000920E-02 0.  1.
    10030    2    1    2    0    0  0.00000000000E+00  0.00000000000E+00  0.13361805883E+04  0.23965153173E+04  0.19894489442E+04 0.  0.
        5    1    3    3  502    0  0.22612771769E+03  0.85673235227E+03  0.12126106685E+04  0.15018557825E+04  0.46999998093E+01 0.  1.
       -5    1    3    3    0  502 -0.22612771769E+03 -0.85673235227E+03  0.12356991982E+03  0.89465953480E+03  0.46999998093E+01 0. -1.
</event>
<event>
 5   0  0.9333353E-06  0.2002509E+04  0.7818609E-02  0.8605448E-01
       -1   -1    0    0    0  501  0.00000000000E+00  0.00000000000E+00  0.10676934054E+04  0.10676934055E+04  0.50400001928E-02 0. -1.
        1   -1    0    0  501    0  0.00000000000E+00  0.00000000000E+00 -0.93895019118E+03  0.93895019120E+03  0.50400001928E-02 0.  1.
    10030    2    1    2    0    0  0.00000000000E+00  0.00000000000E+00  0.12874321426E+03  0.20066435966E+04  0.20025093530E+04 0.  0.
        2    1    3    3  502    0  0.85510277818E+03  0.36447600543E+03 -0.30850871983E+03  0.97939836124E+03  0.25500000920E-02 0.  1.
       -2    1    3    3    0  502 -0.85510277818E+03 -0.36447600543E+03  0.43725193409E+03  0.10272452354E+04  0.25500000920E-02 0. -1.
</event>
<event>
 5   0  0.7132000E-06  0.1996112E+04  0.7818609E-02  0.8608441E-01
       -4   -1    0    0    0  501  0.00000000000E+00  0.00000000000E+00  0.14605935607E+04  0.14605941129E+04  0.12699999809E+01 0. -1.
        4   -1    0    0  501    0  0.00000000000E+00  0.00000000000E+00 -0.68199233960E+03  0.68199352209E+03  0.12699999809E+01 0.  1.
    10030    2    1    2    0    0  0.00000000000E+00  0.00000000000E+00  0.77860122115E+03  0.21425876350E+04  0.19961116983E+04 0.  0.
        5    1    3    3  502    0 -0.26687197084E+02 -0.68200048118E+03  0.11709225932E+04  0.13553297282E+04  0.46999998093E+01 0.  1.
       -5    1    3    3    0  502  0.26687197084E+02  0.68200048118E+03 -0.39232137207E+03  0.78725790678E+03  0.46999998093E+01 0. -1.
</event>
<event>
 5   0  0.9140695E-06  0.1998569E+04  0.7818609E-02  0.8607290E-01
        1   -1    0    0  501    0  0.00000000000E+00  0.00000000000E+00  0.92013831063E+03  0.92013831064E+03  0.50400001928E-02 0. -1.
       -1   -1    0    0    0  501  0.00000000000E+00  0.00000000000E+00 -0.10852382886E+04  0.10852382886E+04  0.50400001928E-02 0.  1.
    10030    2    1    2    0    0  0.00000000000E+00  0.00000000000E+00 -0.16509997799E+03  0.20053765993E+04  0.19985688135E+04 0.  0.
        1    1    3    3  502    0 -0.16041905765E+03 -0.25579210821E+03 -0.10383731019E+04  0.10813799404E+04  0.50400001928E-02 0.  1.
       -1    1    3    3    0  502  0.16041905765E+03  0.25579210821E+03  0.87327312391E+03  0.92399665889E+03  0.50400001928E-02 0. -1.
</event>
<event>
 5   0  0.9333353E-06  0.2001009E+04  0.7818609E-02  0.8606149E-01
       -1   -1    0    0    0  501  0.00000000000E+00  0.00000000000E+00  0.88029770652E+03  0.88029770653E+03  0.50400001928E-02 0. -1.
        1   -1    0    0  501    0  0.00000000000E+00  0.00000000000E+00 -0.11371253224E+04  0.11371253224E+04  0.50400001928E-02 0.  1.
    10030    2    1    2    0    0  0.00000000000E+00  0.00000000000E+00 -0.25682761588E+03  0.20174230289E+04  0.20010085591E+04 0.  0.
        2    1    3    3  502    0  0.81196618212E+03 -0.45140537862E+03  0.24605312282E+03  0.96104008033E+03  0.25500000920E-02 0.  1.
       -2    1    3    3    0  502 -0.81196618212E+03  0.45140537862E+03 -0.50288073870E+03  0.10563829486E+04  0.25500000920E-02 0. -1.
</event>
<event>
 5   0  0.1999142E-05  0.2000585E+04  0.7818609E-02  0.8606347E-01
       -2   -1    0    0    0  501  0.00000000000E+00  0.00000000000E+00  0.11371650549E+04  0.11371650549E+04  0.25500000920E-02 0. -1.
        2   -1    0    0  501    0  0.00000000000E+00  0.00000000000E+00 -0.87989455325E+03  0.87989455325E+03  0.25500000920E-02 0.  1.
    10030    2    1    2    0    0  0.00000000000E+00  0.00000000000E+00  0.25727050164E+03  0.20170596081E+04  0.20005852523E+04 0.  0.
        1    1    3    3  502    0  0.32818048314E+03 -0.19698312302E+03  0.10604103229E+04  0.11273751963E+04  0.50400001928E-02 0. -1.
       -1    1    3    3    0  502 -0.32818048314E+03  0.19698312302E+03 -0.80313982123E+03  0.88968441188E+03  0.50400001928E-02 0.  1.
</event>
<event>
 5   0  0.1999142E-05  0.2003241E+04  0.7818609E-02  0.8605107E-01
        2   -1    0    0  501    0  0.00000000000E+00  0.00000000000E+00  0.13784653876E+04  0.13784653876E+04  0.25500000920E-02 0. -1.
       -2   -1    0    0    0  501  0.00000000000E+00  0.00000000000E+00 -0.72779766201E+03  0.72779766201E+03  0.25500000920E-02 0.  1.
    10030    2    1    2    0    0  0.00000000000E+00  0.00000000000E+00  0.65066772555E+03  0.21062630496E+04  0.20032412598E+04 0.  0.
        1    1    3    3  502    0  0.89629790667E+03 -0.27744836784E+03 -0.43290626135E+02  0.93925588241E+03  0.50400001928E-02 0.  1.
       -1    1    3    3    0  502 -0.89629790667E+03  0.27744836784E+03  0.69395835169E+03  0.11670071672E+04  0.50400001928E-02 0. -1.
</event>
<event>
 5   0  0.7132000E-06  0.1997957E+04  0.7818609E-02  0.8607577E-01
       -3   -1    0    0    0  501  0.00000000000E+00  0.00000000000E+00  0.19125833455E+04  0.19125833482E+04  0.10100000352E+00 0.  1.
        3   -1    0    0  501    0  0.00000000000E+00  0.00000000000E+00 -0.52178523030E+03  0.52178524008E+03  0.10100000352E+00 0. -1.
    10030    2    1    2    0    0  0.00000000000E+00  0.00000000000E+00  0.13907981152E+04  0.24343685883E+04  0.19979567128E+04 0.  0.
        4    1    3    3  502    0  0.43149215414E+03 -0.45982798575E+03  0.16394488085E+04  0.17565367244E+04  0.12699999809E+01 0.  1.
       -4    1    3    3    0  502 -0.43149215414E+03  0.45982798575E+03 -0.24865069325E+03  0.67783186390E+03  0.12699999809E+01 0. -1.
</event>
<event>
 5   0  0.9370269E-06  0.1994504E+04  0.7818609E-02  0.8609194E-01
       -1   -1    0    0    0  501  0.00000000000E+00  0.00000000000E+00  0.12847664401E+04  0.12847664401E+04  0.50400001928E-02 0.  1.
        1   -1    0    0  501    0  0.00000000000E+00  0.00000000000E+00 -0.77407983564E+03  0.77407983565E+03  0.50400001928E-02 0. -1.
    10030    2    1    2    0    0  0.00000000000E+00  0.00000000000E+00  0.51068660445E+03  0.20588462757E+04  0.19945042440E+04 0.  0.
        4    1    3    3  502    0 -0.86662281693E+02  0.73768145925E+03  0.94226219489E+03  0.11998099613E+04  0.12699999809E+01 0.  1.
       -4    1    3    3    0  502  0.86662281693E+02 -0.73768145925E+03 -0.43157559044E+03  0.85903631446E+03  0.12699999809E+01 0. -1.
</event>
<event>
 5   0  0.2020029E-05  0.2000751E+04  0.7818609E-02  0.8606270E-01
        2   -1    0    0  501    0  0.00000000000E+00  0.00000000000E+00  0.43199747579E+03  0.43199747579E+03  0.25500000920E-02 0.  1.
       -2   -1    0    0    0  501  0.00000000000E+00  0.00000000000E+00 -0.23165661757E+04  0.23165661757E+04  0.25500000920E-02 0. -1.
    10030    2    1    2    0    0  0.00000000000E+00  0.00000000000E+00 -0.18845686999E+04  0.27485636515E+04  0.20007505995E+04 0.  0.
        5    1    3    3  502    0  0.46933009595E+03  0.45720778367E+03 -0.19807452856E+04  0.20863086235E+04  0.46999998093E+01 0. -1.
       -5    1    3    3    0  502 -0.46933009595E+03 -0.45720778367E+03  0.96176585653E+02  0.66225502794E+03  0.46999998093E+01 0.  1.
</event>
<event>
 5   0  0.9342635E-06  0.1999732E+04  0.7818609E-02  0.8606746E-01
        1   -1    0    0  501    0  0.00000000000E+00  0.00000000000E+00  0.72559681654E+03  0.72559681656E+03  0.50400001928E-02 0.  1.
       -1   -1    0    0    0  501  0.00000000000E+00  0.00000000000E+00 -0.13778069147E+04  0.13778069147E+04  0.50400001928E-02 0. -1.
    10030    2    1    2    0    0  0.00000000000E+00  0.00000000000E+00 -0.65221009813E+03  0.21034037312E+04  0.19997322932E+04 0.  0.
        5    1    3    3  502    0 -0.49719019141E+03 -0.81614028906E+03 -0.16879115510E+02  0.95581904794E+03  0.46999998093E+01 0. -1.
       -5    1    3    3    0  502  0.49719019141E+03  0.81614028906E+03 -0.63533098262E+03  0.11475846833E+04  0.46999998093E+01 0.  1.
</event>
<event>
 5   0  0.9333353E-06  0.1999004E+04  0.7818609E-02  0.8607087E-01
        1   -1    0    0  501    0  0.00000000000E+00  0.00000000000E+00  0.83855813334E+03  0.83855813336E+03  0.50400001928E-02 0. -1.
       -1   -1    0    0    0  501  0.00000000000E+00  0.00000000000E+00 -0.11913355081E+04  0.11913355081E+04  0.50400001928E-02 0.  1.
    10030    2    1    2    0    0  0.00000000000E+00  0.00000000000E+00 -0.35277737479E+03  0.20298936415E+04  0.19990038318E+04 0.  0.
        2    1    3    3  502    0  0.46541502517E+03  0.47388841848E+03 -0.93480514519E+03  0.11467528235E+04  0.25500000920E-02 0.  1.
       -2    1    3    3    0  502 -0.46541502517E+03 -0.47388841848E+03  0.58202777040E+03  0.88314081796E+03  0.25500000920E-02 0. -1.
</event>
<event>
 5   0  0.2020029E-05  0.2000547E+04  0.7818609E-02  0.8606365E-01
       -2   -1    0    0    0  501  0.00000000000E+00  0.00000000000E+00  0.68539827701E+03  0.68539827701E+03  0.25500000920E-02 0. -1.
        2   -1    0    0  501    0  0.00000000000E+00  0.00000000000E+00 -0.14598038442E+04  0.14598038442E+04  0.25500000920E-02 0.  1.
    10030    2    1    2    0    0  0.00000000000E+00  0.00000000000E+00 -0.77440556723E+03  0.21452021213E+04  0.20005469648E+04 0.  0.
        5    1    3    3  502    0  0.61008329457E+03 -0.20346979281E+03  0.43430213200E+03  0.77604253411E+03  0.46999998093E+01 0. -1.
       -5    1    3    3    0  502 -0.61008329457E+03  0.20346979281E+03 -0.12087076992E+04  0.13691595871E+04  0.46999998093E+01 0.  1.
</event>
<event>
 5   0  0.1999142E-05  0.2002051E+04  0.7818609E-02  0.8605662E-01
        2   -1    0    0  501    0  0.00000000000E+00  0.00000000000E+00  0.18968983799E+04  0.18968983799E+04  0.25500000920E-02 0. -1.
       -2   -1    0    0    0  501  0.00000000000E+00  0.00000000000E+00 -0.52825838425E+03  0.52825838426E+03  0.25500000920E-02 0.  1.
    10030    2    1    2    0    0  0.00000000000E+00  0.00000000000E+00  0.13686399956E+04  0.24251567642E+04  0.20020514212E+04 0.  0.
        1    1    3    3  502    0 -0.10702613796E+03  0.15440813057E+02  0.18898027930E+04  0.18928939773E+04  0.50400001928E-02 0. -1.
       -1    1    3    3    0  502  0.10702613796E+03 -0.15440813057E+02 -0.52116279734E+03  0.53226278686E+03  0.50400001928E-02 0.  1.
</event>
<event>
 5   0  0.9333353E-06  0.1998428E+04  0.7818609E-02  0.8607356E-01
        1   -1    0    0  501    0  0.00000000000E+00  0.00000000000E+00  0.12958484634E+04  0.12958484635E+04  0.50400001928E-02 0. -1.
       -1   -1    0    0    0  501  0.00000000000E+00  0.00000000000E+00 -0.77048259408E+03  0.77048259409E+03  0.50400001928E-02 0.  1.
    10030    2    1    2    0    0  0.00000000000E+00  0.00000000000E+00  0.52536586937E+03  0.20663310576E+04  0.19984280679E+04 0.  0.
        2    1    3    3  502    0  0.89301749426E+03 -0.44659944548E+03  0.22267217456E+03  0.10229927698E+04  0.25500000920E-02 0.  1.
       -2    1    3    3    0  502 -0.89301749426E+03  0.44659944548E+03  0.30269369481E+03  0.10433382877E+04  0.25500000920E-02 0. -1.
</event>
<event>
 5   0  0.9342635E-06  0.2006293E+04  0.7818609E-02  0.8603684E-01
       -1   -1    0    0    0  501  0.00000000000E+00  0.00000000000E+00  0.10034677489E+04  0.10034677490E+04  0.50400001928E-02 0. -1.
        1   -1    0    0  501    0  0.00000000000E+00  0.00000000000E+00 -0.10028254164E+04  0.10028254164E+04  0.50400001928E-02 0.  1.
    10030    2    1    2    0    0  0.00000000000E+00  0.00000000000E+00  0.64233251049E+00  0.20062931654E+04  0.20062930626E+04 0.  0.
        5    1    3    3  502    0 -0.16031813081E+03  0.15111705425E+03 -0.97832213151E+03  0.10028332614E+04  0.46999998093E+01 0.  1.
       -5    1    3    3    0  502  0.16031813081E+03 -0.15111705425E+03  0.97896446402E+03  0.10034599040E+04  0.46999998093E+01 0. -1.
</event>
<event>
 5   0  0.9220260E-06  0.1998491E+04  0.7818609E-02  0.8607326E-01
        1   -1    0    0  501    0  0.00000000000E+00  0.00000000000E+00  0.60946703907E+03  0.60946703909E+03  0.50400001928E-02 0. -1.
       -1   -1    0    0    0  501  0.00000000000E+00  0.00000000000E+00 -0.16383035038E+04  0.16383035038E+04  0.50400001928E-02 0.  1.
    10030    2    1    2    0    0  0.00000000000E+00  0.00000000000E+00 -0.10288364647E+04  0.22477705429E+04  0.19984914166E+04 0.  0.
        3    1    3    3  502    0 -0.64194843745E+03 -0.24298121660E+03  0.30235394784E+03  0.75003705771E+03  0.10100000352E+00 0. -1.
       -3    1    3    3    0  502  0.64194843745E+03  0.24298121660E+03 -0.13311904126E+04  0.14977334852E+04  0.10100000352E+00 0.  1.
</event>
<event>
 5   0  0.9220260E-06  0.1999723E+04  0.7818609E-02  0.8606750E-01
       -1   -1    0    0    0  501  0.00000000000E+00  0.00000000000E+00  0.60249201223E+03  0.60249201225E+03  0.50400001928E-02 0.  1.
        1   -1    0    0  501    0  0.00000000000E+00  0.00000000000E+00 -0.16593131185E+04  0.16593131185E+04  0.50400001928E-02 0. -1.
    10030    2    1    2    0    0  0.00000000000E+00  0.00000000000E+00 -0.10568211063E+04  0.22618051308E+04  0.19997228805E+04 0.  0.
        3    1    3    3  502    0 -0.66927838950E+03  0.38219434914E+03 -0.12488489784E+04  0.14675250813E+04  0.10100000352E+00 0. -1.
       -3    1    3    3    0  502  0.66927838950E+03 -0.38219434914E+03  0.19202787210E+03  0.79428004950E+03  0.10100000352E+00 0.  1.
</event>
<event>
 5   0  0.9342635E-06  0.2000270E+04  0.7818609E-02  0.8606495E-01
        1   -1    0    0  501    0  0.00000000000E+00  0.00000000000E+00  0.24718348289E+04  0.24718348289E+04  0.50400001928E-02 0.  1.
       -1   -1    0    0    0  501  0.00000000000E+00  0.00000000000E+00 -0.40466687031E+03  0.40466687035E+03  0.50400001928E-02 0. -1.
    10030    2    1    2    0    0  0.00000000000E+00  0.00000000000E+00  0.20671679585E+04  0.28765016992E+04  0.20002696460E+04 0.  0.
        5    1    3    3  502    0 -0.17036937743E+03 -0.17550157598E+03 -0.36097620063E+03  0.43606471464E+03  0.46999998093E+01 0. -1.
       -5    1    3    3    0  502  0.17036937743E+03  0.17550157598E+03  0.24281441592E+04  0.24404369846E+04  0.46999998093E+01 0.  1.
</event>
<event>
 5   0  0.9370269E-06  0.2000256E+04  0.7818609E-02  0.8606501E-01
        1   -1    0    0  501    0  0.00000000000E+00  0.00000000000E+00  0.11879744739E+04  0.11879744739E+04  0.50400001928E-02 0. -1.
       -1   -1    0    0    0  501  0.00000000000E+00  0.00000000000E+00 -0.84198458722E+03  0.84198458724E+03  0.50400001928E-02 0.  1.
    10030    2    1    2    0    0  0.00000000000E+00  0.00000000000E+00  0.34598988671E+03  0.20299590612E+04  0.20002561807E+04 0.  0.
        4    1    3    3  502    0  0.87249882685E+03 -0.38760862376E+03 -0.12935517918E+03  0.96344642993E+03  0.12699999809E+01 0.  1.
       -4    1    3    3    0  502 -0.87249882685E+03  0.38760862376E+03  0.47534506590E+03  0.10665126313E+04  0.12699999809E+01 0. -1.
</event>
<event>
 5   0  0.9342635E-06  0.1997949E+04  0.7818609E-02  0.8607580E-01
        1   -1    0    0  501    0  0.00000000000E+00  0.00000000000E+00  0.13875523873E+04  0.13875523873E+04  0.50400001928E-02 0.  1.
       -1   -1    0    0    0  501  0.00000000000E+00  0.00000000000E+00 -0.71921589215E+03  0.71921589217E+03  0.50400001928E-02 0. -1.
    10030    2    1    2    0    0  0.00000000000E+00  0.00000000000E+00  0.66833649517E+03  0.21067682795E+04  0.19979486762E+04 0.  0.
        5    1    3    3  502    0 -0.16425649572E+03 -0.12672965816E+03 -0.69623790098E+03  0.72650527005E+03  0.46999998093E+01 0. -1.
       -5    1    3    3    0  502  0.16425649572E+03  0.12672965816E+03  0.13645743961E+04  0.13802630095E+04  0.46999998093E+01 0.  1.
</event>
<event>
 5   0  0.2003576E-05  0.1999558E+04  0.7818609E-02  0.8606827E-01
       -2   -1    0    0    0  501  0.00000000000E+00  0.00000000000E+00  0.71482469246E+03  0.71482469246E+03  0.25500000920E-02 0.  1.
        2   -1    0    0  501    0  0.00000000000E+00  0.00000000000E+00 -0.13983258173E+04  0.13983258173E+04  0.25500000920E-02 0. -1.
    10030    2    1    2    0    0  0.00000000000E+00  0.00000000000E+00 -0.68350112481E+03  0.21131505097E+04  0.19995577734E+04 0.  0.
        4    1    3    3  502    0  0.28571701608E+03  0.22155056203E+03  0.64331630968E+03  0.73795416660E+03  0.12699999809E+01 0.  1.
       -4    1    3    3    0  502 -0.28571701608E+03 -0.22155056203E+03 -0.13268174345E+04  0.13751963431E+04  0.12699999809E+01 0. -1.
</event>
<event>
 5   0  0.9220260E-06  0.1998785E+04  0.7818609E-02  0.8607189E-01
       -1   -1    0    0    0  501  0.00000000000E+00  0.00000000000E+00  0.69414113572E+03  0.69414113574E+03  0.50400001928E-02 0.  1.
        1   -1    0    0  501    0  0.00000000000E+00  0.00000000000E+00 -0.14388796166E+04  0.14388796166E+04  0.50400001928E-02 0. -1.
    10030    2    1    2    0    0  0.00000000000E+00  0.00000000000E+00 -0.74473848092E+03  0.21330207524E+04  0.19987851623E+04 0.  0.
        3    1    3    3  502    0 -0.43505974487E+03 -0.37892571421E+02  0.58693017376E+03  0.73157355587E+03  0.10100000352E+00 0.  1.
       -3    1    3    3    0  502  0.43505974487E+03  0.37892571421E+02 -0.13316686547E+04  0.14014471965E+04  0.10100000352E+00 0. -1.
</event>
<event>
 5   0  0.2038882E-05  0.1979089E+04  0.7818609E-02  0.8616460E-01
        2   -1    0    0  501    0  0.00000000000E+00  0.00000000000E+00  0.92452100468E+03  0.92452100468E+03  0.25500000920E-02 0.  1.
       -2   -1    0    0    0  501  0.00000000000E+00  0.00000000000E+00 -0.10591407707E+04  0.10591407707E+04  0.25500000920E-02 0. -1.
    10030    2    1    2    0    0  0.00000000000E+00  0.00000000000E+00 -0.13461976605E+03  0.19836617754E+04  0.19790885675E+04 0.  0.
        3    1    3    3  502    0  0.92289497188E+03 -0.35236934182E+03 -0.12487601256E+03  0.99573757129E+03  0.10100000352E+00 0. -1.
       -3    1    3    3    0  502 -0.92289497188E+03  0.35236934182E+03 -0.97437534983E+01  0.98792420413E+03  0.10100000352E+00 0.  1.
</event>
<event>
 5   0  0.2038882E-05  0.1998711E+04  0.7818609E-02  0.8607224E-01
       -2   -1    0    0    0  501  0.00000000000E+00  0.00000000000E+00  0.89635661642E+03  0.89635661642E+03  0.25500000920E-02 0.  1.
        2   -1    0    0  501    0  0.00000000000E+00  0.00000000000E+00 -0.11141897229E+04  0.11141897229E+04  0.25500000920E-02 0. -1.
    10030    2    1    2    0    0  0.00000000000E+00  0.00000000000E+00 -0.21783310644E+03  0.20105463393E+04  0.19987109146E+04 0.  0.
        3    1    3    3  502    0 -0.95533337599E+03  0.29174488133E+03 -0.78167837795E+02  0.10019416930E+04  0.10100000352E+00 0.  1.
       -3    1    3    3    0  502  0.95533337599E+03 -0.29174488133E+03 -0.13966526864E+03  0.10086046463E+04  0.10100000352E+00 0. -1.
</event>
<event>
 5   0  0.9333353E-06  0.2001190E+04  0.7818609E-02  0.8606065E-01
       -1   -1    0    0    0  501  0.00000000000E+00  0.00000000000E+00  0.54529696259E+03  0.54529696261E+03  0.50400001928E-02 0. -1.
        1   -1    0    0  501    0  0.00000000000E+00  0.00000000000E+00 -0.18360451924E+04  0.18360451924E+04  0.50400001928E-02 0.  1.
    10030    2    1    2    0    0  0.00000000000E+00  0.00000000000E+00 -0.12907482298E+04  0.23813421550E+04  0.20011895129E+04 0.  0.
        2    1    3    3  502    0  0.92708555832E+03  0.65161786049E+02 -0.10865540072E+04  0.14298018399E+04  0.25500000920E-02 0.  1.
       -2    1    3    3    0  502 -0.92708555832E+03 -0.65161786049E+02 -0.20419422266E+03  0.95154031516E+03  0.25500000920E-02 0. -1.
</event>
<event>
 5   0  0.2020029E-05  0.1996550E+04  0.7818609E-02  0.8608236E-01
       -2   -1    0    0    0  501  0.00000000000E+00  0.00000000000E+00  0.42874854229E+03  0.42874854229E+03  0.25500000920E-02 0.  1.
        2   -1    0    0  501    0  0.00000000000E+00  0.00000000000E+00 -0.23243287584E+04  0.23243287584E+04  0.25500000920E-02 0. -1.
    10030    2    1    2    0    0  0.00000000000E+00  0.00000000000E+00 -0.18955802161E+04  0.27530773007E+04  0.19965495907E+04 0.  0.
        5    1    3    3  502    0 -0.99050816434E+03 -0.32413337515E+02 -0.11131074815E+04  0.14903648558E+04  0.46999998093E+01 0. -1.
       -5    1    3    3    0  502  0.99050816434E+03  0.32413337515E+02 -0.78247273463E+03  0.12627124449E+04  0.46999998093E+01 0.  1.
</event>
<event>
 5   0  0.9342635E-06  0.1992759E+04  0.7818609E-02  0.8610014E-01
        1   -1    0    0  501    0  0.00000000000E+00  0.00000000000E+00  0.10211510598E+04  0.10211510598E+04  0.50400001928E-02 0. -1.
       -1   -1    0    0    0  501  0.00000000000E+00  0.00000000000E+00 -0.97220840323E+03  0.97220840324E+03  0.50400001928E-02 0.  1.
    10030    2    1    2    0    0  0.00000000000E+00  0.00000000000E+00  0.48942656587E+02  0.19933594631E+04  0.19927585316E+04 0.  0.
        5    1    3    3  502    0  0.89626357715E+03 -0.42151686249E+03  0.13306135945E+03  0.99934592632E+03  0.46999998093E+01 0. -1.
       -5    1    3    3    0  502 -0.89626357715E+03  0.42151686249E+03 -0.84118702862E+02  0.99401353675E+03  0.46999998093E+01 0.  1.
</event>
<event>
 5   0  0.9333353E-06  0.1997043E+04  0.7818609E-02  0.8608004E-01
       -1   -1    0    0    0  501  0.00000000000E+00  0.00000000000E+00  0.90251329796E+03  0.90251329798E+03  0.50400001928E-02 0.  1.
        1   -1    0    0  501    0  0.00000000000E+00  0.00000000000E+00 -0.11047431937E+04  0.11047431937E+04  0.50400001928E-02 0. -1.
    10030    2    1    2    0    0  0.00000000000E+00  0.00000000000E+00 -0.20222989575E+03  0.20072564917E+04  0.19970432376E+04 0.  0.
        2    1    3    3  502    0 -0.22344367169E+03  0.43935773266E+03 -0.97393560527E+03  0.10915644071E+04  0.25500000920E-02 0. -1.
       -2    1    3    3    0  502  0.22344367169E+03 -0.43935773266E+03  0.77170570952E+03  0.91569208459E+03  0.25500000920E-02 0.  1.
</event>
<event>
 5   0  0.2020029E-05  0.1999101E+04  0.7818609E-02  0.8607041E-01
        2   -1    0    0  501    0  0.00000000000E+00  0.00000000000E+00  0.20055342900E+04  0.20055342900E+04  0.25500000920E-02 0.  1.
       -2   -1    0    0    0  501  0.00000000000E+00  0.00000000000E+00 -0.49817205395E+03  0.49817205395E+03  0.25500000920E-02 0. -1.
    10030    2    1    2    0    0  0.00000000000E+00  0.00000000000E+00  0.15073622361E+04  0.25037063440E+04  0.19991009344E+04 0.  0.
        5    1    3    3  502    0 -0.95286194363E+02 -0.55663096287E+03 -0.27921039529E+03  0.62999843056E+03  0.46999998093E+01 0. -1.
       -5    1    3    3    0  502  0.95286194363E+02  0.55663096287E+03  0.17865726313E+04  0.18737079134E+04  0.46999998093E+01 0.  1.
</event>
<event>
 5   0  0.1999142E-05  0.2000501E+04  0.7818609E-02  0.8606387E-01
       -2   -1    0    0    0  501  0.00000000000E+00  0.00000000000E+00  0.72974718611E+03  0.72974718612E+03  0.25500000920E-02 0.  1.
        2   -1    0    0  501    0  0.00000000000E+00  0.00000000000E+00 -0.13710235424E+04  0.13710235424E+04  0.25500000920E-02 0. -1.
    10030    2    1    2    0    0  0.00000000000E+00  0.00000000000E+00 -0.64127635627E+03  0.21007707285E+04  0.20005005095E+04 0.  0.
        1    1    3    3  502    0  0.23084600936E+03  0.53528843114E+03  0.53292285633E+03  0.78982932041E+03  0.50400001928E-02 0.  1.
       -1    1    3    3    0  502 -0.23084600936E+03 -0.53528843114E+03 -0.11741992126E+04  0.13109414081E+04  0.50400001928E-02 0. -1.
</event>
<event>
 5   0  0.9333353E-06  0.1999911E+04  0.7818609E-02  0.8606662E-01
        1   -1    0    0  501    0  0.00000000000E+00  0.00000000000E+00  0.14157574282E+04  0.14157574283E+04  0.50400001928E-02 0. -1.
       -1   -1    0    0    0  501  0.00000000000E+00  0.00000000000E+00 -0.70627305926E+03  0.70627305927E+03  0.50400001928E-02 0.  1.
    10030    2    1    2    0    0  0.00000000000E+00  0.00000000000E+00  0.70948436899E+03  0.21220304875E+04  0.19999113281E+04 0.  0.
        2    1    3    3  502    0  0.79241232206E+03 -0.41558109354E+03  0.82841635805E+03  0.12193845151E+04  0.25500000920E-02 0.  1.
       -2    1    3    3    0  502 -0.79241232206E+03  0.41558109354E+03 -0.11893198906E+03  0.90264597240E+03  0.25500000920E-02 0. -1.
</event>
<event>
 5   0  0.1999142E-05  0.2000853E+04  0.7818609E-02  0.8606222E-01
        2   -1    0    0  501    0  0.00000000000E+00  0.00000000000E+00  0.14145378743E+04  0.14145378743E+04  0.25500000920E-02 0.  1.
       -2   -1    0    0    0  501  0.00000000000E+00  0.00000000000E+00 -0.70754751839E+03  0.70754751840E+03  0.25500000920E-02 0. -1.
    10030    2    1    2    0    0  0.00000000000E+00  0.00000000000E+00  0.70699035593E+03  0.21220853927E+04  0.20008525809E+04 0.  0.
        1    1    3    3  502    0  0.17556887133E+02 -0.99441354179E+03  0.23884231360E+03  0.10228451433E+04  0.50400001928E-02 0. -1.
       -1    1    3    3    0  502 -0.17556887133E+02  0.99441354179E+03  0.46814804233E+03  0.10992402494E+04  0.50400001928E-02 0.  1.
</event>
<event>
 5   0  0.9370269E-06  0.1998328E+04  0.7818609E-02  0.8607403E-01
        1   -1    0    0  501    0  0.00000000000E+00  0.00000000000E+00  0.12920952183E+04  0.12920952183E+04  0.50400001928E-02 0.  1.
       -1   -1    0    0    0  501  0.00000000000E+00  0.00000000000E+00 -0.77264354674E+03  0.77264354675E+03  0.50400001928E-02 0. -1.
    10030    2    1    2    0    0  0.00000000000E+00  0.00000000000E+00  0.51945167156E+03  0.20647387651E+04  0.19983283336E+04 0.  0.
        4    1    3    3  502    0 -0.57246955164E+03  0.71356807803E+03  0.67485749513E+03  0.11368091490E+04  0.12699999809E+01 0.  1.
       -4    1    3    3    0  502  0.57246955164E+03 -0.71356807803E+03 -0.15540582357E+03  0.92792961610E+03  0.12699999809E+01 0. -1.
</event>
<event>
 5   0  0.2038882E-05  0.1999416E+04  0.7818609E-02  0.8606894E-01
        2   -1    0    0  501    0  0.00000000000E+00  0.00000000000E+00  0.16925069319E+04  0.16925069319E+04  0.25500000920E-02 0.  1.
       -2   -1    0    0    0  501  0.00000000000E+00  0.00000000000E+00 -0.59049464872E+03  0.59049464873E+03  0.25500000920E-02 0. -1.
    10030    2    1    2    0    0  0.00000000000E+00  0.00000000000E+00  0.11020122832E+04  0.22830015806E+04  0.19994162010E+04 0.  0.
        3    1    3    3  502    0  0.32745580998E+03  0.46213692953E+03  0.14916296518E+04  0.15955428159E+04  0.10100000352E+00 0.  1.
       -3    1    3    3    0  502 -0.32745580998E+03 -0.46213692953E+03 -0.38961736858E+03  0.68745876474E+03  0.10100000352E+00 0. -1.
</event>
<event>
 5   0  0.9370269E-06  0.2000284E+04  0.7818609E-02  0.8606488E-01
        1   -1    0    0  501    0  0.00000000000E+00  0.00000000000E+00  0.13024598426E+04  0.13024598426E+04  0.50400001928E-02 0. -1.
       -1   -1    0    0    0  501  0.00000000000E+00  0.00000000000E+00 -0.76799632792E+03  0.76799632793E+03  0.50400001928E-02 0.  1.
    10030    2    1    2    0    0  0.00000000000E+00  0.00000000000E+00  0.53446351467E+03  0.20704561705E+04  0.20002843562E+04 0.  0.
        4    1    3    3  502    0  0.18054530791E+03  0.96246435021E+03  0.56754905433E+02  0.98089600153E+03  0.12699999809E+01 0.  1.
       -4    1    3    3    0  502 -0.18054530791E+03 -0.96246435021E+03  0.47770860923E+03  0.10895601690E+04  0.12699999809E+01 0. -1.
</event>
<event>
 5   0  0.2038882E-05  0.1997519E+04  0.7818609E-02  0.8607781E-01
        2   -1    0    0  501    0  0.00000000000E+00  0.00000000000E+00  0.26143037676E+04  0.26143037676E+04  0.25500000920E-02 0. -1.
       -2   -1    0    0    0  501  0.00000000000E+00  0.00000000000E+00 -0.38156260385E+03  0.38156260386E+03  0.25500000920E-02 0.  1.
    10030    2    1    2    0    0  0.00000000000E+00  0.00000000000E+00  0.22327411637E+04  0.29958663714E+04  0.19975190140E+04 0.  0.
        3    1    3    3  502    0  0.23011753602E+03  0.95364635705E+02  0.25669680791E+04  0.25790257121E+04  0.10100000352E+00 0. -1.
       -3    1    3    3    0  502 -0.23011753602E+03 -0.95364635705E+02 -0.33422691539E+03  0.41684065936E+03  0.10100000352E+00 0.  1.
</event>
<event>
 5   0  0.2003576E-05  0.2001232E+04  0.7818609E-02  0.8606045E-01
        2   -1    0    0  501    0  0.00000000000E+00  0.00000000000E+00  0.99960344647E+03  0.99960344648E+03  0.25500000920E-02 0. -1.
       -2   -1    0    0    0  501  0.00000000000E+00  0.00000000000E+00 -0.10016298788E+04  0.10016298788E+04  0.25500000920E-02 0.  1.
    10030    2    1    2    0    0  0.00000000000E+00  0.00000000000E+00 -0.20264323398E+01  0.20012333253E+04  0.20012322993E+04 0.  0.
        4    1    3    3  502    0  0.53819602011E+03  0.69956893774E+03  0.47034613630E+03  0.10001393681E+04  0.12699999809E+01 0. -1.
       -4    1    3    3    0  502 -0.53819602011E+03 -0.69956893774E+03 -0.47237256864E+03  0.10010939572E+04  0.12699999809E+01 0.  1.
</event>
<event>
 5   0  0.1979765E-05  0.2002246E+04  0.7818609E-02  0.8605571E-01
        2   -1    0    0  501    0  0.00000000000E+00  0.00000000000E+00  0.19534575565E+04  0.19534575565E+04  0.25500000920E-02 0. -1.
       -2   -1    0    0    0  501  0.00000000000E+00  0.00000000000E+00 -0.51306342170E+03  0.51306342170E+03  0.25500000920E-02 0.  1.
    10030    2    1    2    0    0  0.00000000000E+00  0.00000000000E+00  0.14403941348E+04  0.24665209783E+04  0.20022463566E+04 0.  0.
        2    1    3    3  502    0 -0.40684042366E+03  0.77221725211E+03  0.11618910265E+03  0.88053308987E+03  0.25500000920E-02 0.  1.
       -2    1    3    3    0  502  0.40684042366E+03 -0.77221725211E+03  0.13242050322E+04  0.15859878884E+04  0.25500000920E-02 0. -1.
</event>
<event>
 5   0  0.1979765E-05  0.2000690E+04  0.7818609E-02  0.8606298E-01
       -2   -1    0    0    0  501  0.00000000000E+00  0.00000000000E+00  0.93599058047E+03  0.93599058048E+03  0.25500000920E-02 0. -1.
        2   -1    0    0  501    0  0.00000000000E+00  0.00000000000E+00 -0.10691246565E+04  0.10691246566E+04  0.25500000920E-02 0.  1.
    10030    2    1    2    0    0  0.00000000000E+00  0.00000000000E+00 -0.13313407607E+03  0.20051152370E+04  0.20006904887E+04 0.  0.
        2    1    3    3  502    0  0.61923689881E+02  0.56506987492E+01 -0.10671859383E+04  0.10689959310E+04  0.25500000920E-02 0.  1.
       -2    1    3    3    0  502 -0.61923689881E+02 -0.56506987492E+01  0.93405186219E+03  0.93611930598E+03  0.25500000920E-02 0. -1.
</event>
<event>
 5   0  0.9370269E-06  0.2003358E+04  0.7818609E-02  0.8605052E-01
       -1   -1    0    0    0  501  0.00000000000E+00  0.00000000000E+00  0.46489246121E+03  0.46489246124E+03  0.50400001928E-02 0.  1.
        1   -1    0    0  501    0  0.00000000000E+00  0.00000000000E+00 -0.21582644538E+04  0.21582644538E+04  0.50400001928E-02 0. -1.
    10030    2    1    2    0    0  0.00000000000E+00  0.00000000000E+00 -0.16933719925E+04  0.26231569150E+04  0.20033580548E+04 0.  0.
        4    1    3    3  502    0 -0.39698381284E+03 -0.72565017695E+03 -0.15864508413E+04  0.17891316921E+04  0.12699999809E+01 0. -1.
       -4    1    3    3    0  502  0.39698381284E+03  0.72565017695E+03 -0.10692115128E+03  0.83402522292E+03  0.12699999809E+01 0.  1.
</event>
<event>
 5   0  0.1979765E-05  0.1992800E+04  0.7818609E-02  0.8609994E-01
       -2   -1    0    0    0  501  0.00000000000E+00  0.00000000000E+00  0.41600071938E+03  0.41600071939E+03  0.25500000920E-02 0.  1.
        2   -1    0    0  501    0  0.00000000000E+00  0.00000000000E+00 -0.23865658781E+04  0.23865658781E+04  0.25500000920E-02 0. -1.
    10030    2    1    2    0    0  0.00000000000E+00  0.00000000000E+00 -0.19705651588E+04  0.28025665975E+04  0.19928001627E+04 0.  0.
        2    1    3    3  502    0  0.21197971484E+03  0.96402413160E+03 -0.11767481925E+04  0.15359082767E+04  0.25500000920E-02 0.  1.
       -2    1    3    3    0  502 -0.21197971484E+03 -0.96402413160E+03 -0.79381696621E+03  0.12666583208E+04  0.25500000920E-02 0. -1.
</event>
<event>
 5   0  0.2020029E-05  0.2000033E+04  0.7818609E-02  0.8606605E-01
        2   -1    0    0  501    0  0.00000000000E+00  0.00000000000E+00  0.10014829077E+04  0.10014829077E+04  0.25500000920E-02 0.  1.
       -2   -1    0    0    0  501  0.00000000000E+00  0.00000000000E+00 -0.99855199009E+03  0.99855199009E+03  0.25500000920E-02 0. -1.
    10030    2    1    2    0    0  0.00000000000E+00  0.00000000000E+00  0.29309176607E+01  0.20000348978E+04  0.20000327503E+04 0.  0.
        5    1    3    3  502    0  0.82180257577E+03  0.19042337823E+03 -0.53555478602E+03  0.99923048159E+03  0.46999998093E+01 0. -1.
       -5    1    3    3    0  502 -0.82180257577E+03 -0.19042337823E+03  0.53848570368E+03  0.10008044162E+04  0.46999998093E+01 0.  1.
</event>
<event>
 5   0  0.2020029E-05  0.1996428E+04  0.7818609E-02  0.8608292E-01
       -2   -1    0    0    0  501  0.00000000000E+00  0.00000000000E+00  0.15120454774E+04  0.15120454774E+04  0.25500000920E-02 0. -1.
        2   -1    0    0  501    0  0.00000000000E+00  0.00000000000E+00 -0.65899555009E+03  0.65899555010E+03  0.25500000920E-02 0.  1.
    10030    2    1    2    0    0  0.00000000000E+00  0.00000000000E+00  0.85304992734E+03  0.21710410275E+04  0.19964280515E+04 0.  0.
        5    1    3    3  502    0  0.14558108256E+03 -0.86341961595E+03  0.94773831889E+03  0.12903167425E+04  0.46999998093E+01 0. -1.
       -5    1    3    3    0  502 -0.14558108256E+03  0.86341961595E+03 -0.94688391553E+02  0.88072428506E+03  0.46999998093E+01 0.  1.
</event>
<event>
 5   0  0.2038882E-05  0.1987852E+04  0.7818609E-02  0.8612321E-01
        2   -1    0    0  501    0  0.00000000000E+00  0.00000000000E+00  0.20873438410E+04  0.20873438410E+04  0.25500000920E-02 0.  1.
       -2   -1    0    0    0  501  0.00000000000E+00  0.00000000000E+00 -0.47327558405E+03  0.47327558406E+03  0.25500000920E-02 0. -1.
    10030    2    1    2    0    0  0.00000000000E+00  0.00000000000E+00  0.16140682569E+04  0.25606194250E+04  0.19878519819E+04 0.  0.
        3    1    3    3  502    0 -0.61153175201E+03  0.73407036159E+03  0.11599416316E+04  0.15027624491E+04  0.10100000352E+00 0.  1.
       -3    1    3    3    0  502  0.61153175201E+03 -0.73407036159E+03  0.45412662528E+03  0.10578569759E+04  0.10100000352E+00 0. -1.
</event>
<event>
 5   0  0.9342635E-06  0.1999552E+04  0.7818609E-02  0.8606830E-01
       -1   -1    0    0    0  501  0.00000000000E+00  0.00000000000E+00  0.98153292109E+03  0.98153292111E+03  0.50400001928E-02 0. -1.
        1   -1    0    0  501    0  0.00000000000E+00  0.00000000000E+00 -0.10183582741E+04  0.10183582741E+04  0.50400001928E-02 0.  1.
    10030    2    1    2    0    0  0.00000000000E+00  0.00000000000E+00 -0.36825353035E+02  0.19998911953E+04  0.19995521214E+04 0.  0.
        5    1    3    3  502    0  0.30322479094E+03 -0.48328237497E+03 -0.83954090517E+03  0.10150655886E+04  0.46999998093E+01 0.  1.
       -5    1    3    3    0  502 -0.30322479094E+03  0.48328237497E+03  0.80271555214E+03  0.98482560661E+03  0.46999998093E+01 0. -1.
</event>
<event>
 5   0  0.9140695E-06  0.1997510E+04  0.7818609E-02  0.8607786E-01
       -1   -1    0    0    0  501  0.00000000000E+00  0.00000000000E+00  0.11165351284E+04  0.11165351284E+04  0.50400001928E-02 0. -1.
        1   -1    0    0  501    0  0.00000000000E+00  0.00000000000E+00 -0.89339922849E+03  0.89339922850E+03  0.50400001928E-02 0.  1.
    10030    2    1    2    0    0  0.00000000000E+00  0.00000000000E+00  0.22313589994E+03  0.20099343569E+04  0.19975100724E+04 0.  0.
        1    1    3    3  502    0 -0.35083816581E+01  0.86264745256E+03  0.61802620340E+03  0.10611924068E+04  0.50400001928E-02 0. -1.
       -1    1    3    3    0  502  0.35083816581E+01 -0.86264745256E+03 -0.39489030346E+03  0.94874195013E+03  0.50400001928E-02 0.  1.
</event>
<event>
 5   0  0.2038882E-05  0.1998189E+04  0.7818609E-02  0.8607468E-01
        2   -1    0    0  501    0  0.00000000000E+00  0.00000000000E+00  0.16708468242E+04  0.16708468242E+04  0.25500000920E-02 0. -1.
       -2   -1    0    0    0  501  0.00000000000E+00  0.00000000000E+00 -0.59741574335E+03  0.59741574335E+03  0.25500000920E-02 0.  1.
    10030    2    1    2    0    0  0.00000000000E+00  0.00000000000E+00  0.10734310808E+04  0.22682625675E+04  0.19981893779E+04 0.  0.
        3    1    3    3  502    0 -0.46998767376E+02 -0.68886146628E+03 -0.28300064151E+03  0.74620933869E+03  0.10100000352E+00 0.  1.
       -3    1    3    3    0  502  0.46998767376E+02  0.68886146628E+03  0.13564317223E+04  0.15220532288E+04  0.10100000352E+00 0. -1.
</event>
<event>
 5   0  0.9333353E-06  0.1996153E+04  0.7818609E-02  0.8608421E-01
       -1   -1    0    0    0  501  0.00000000000E+00  0.00000000000E+00  0.77216967251E+03  0.77216967253E+03  0.50400001928E-02 0.  1.
        1   -1    0    0  501    0  0.00000000000E+00  0.00000000000E+00 -0.12900746261E+04  0.12900746261E+04  0.50400001928E-02 0. -1.
    10030    2    1    2    0    0  0.00000000000E+00  0.00000000000E+00 -0.51790495362E+03  0.20622442987E+04  0.19961528014E+04 0.  0.
        2    1    3    3  502    0 -0.66888123307E+03 -0.53769986562E+03  0.26746037760E+03  0.89892063222E+03  0.25500000920E-02 0.  1.
       -2    1    3    3    0  502  0.66888123307E+03  0.53769986562E+03 -0.78536533122E+03  0.11633236665E+04  0.25500000920E-02 0. -1.
</event>
<event>
 5   0  0.2003576E-05  0.1998770E+04  0.7818609E-02  0.8607196E-01
        2   -1    0    0  501    0  0.00000000000E+00  0.00000000000E+00  0.20213658792E+04  0.20213658792E+04  0.25500000920E-02 0.  1.
       -2   -1    0    0    0  501  0.00000000000E+00  0.00000000000E+00 -0.49410655321E+03  0.49410655321E+03  0.25500000920E-02 0. -1.
    10030    2    1    2    0    0  0.00000000000E+00  0.00000000000E+00  0.15272593260E+04  0.25154724324E+04  0.19987697490E+04 0.  0.
        4    1    3    3  502    0  0.93296378788E+03  0.21326038896E+03  0.11259125687E+04  0.14776948765E+04  0.12699999809E+01 0.  1.
       -4    1    3    3    0  502 -0.93296378788E+03 -0.21326038896E+03  0.40134675736E+03  0.10377775559E+04  0.12699999809E+01 0. -1.
</event>
<event>
 5   0  0.9370269E-06  0.2010361E+04  0.7818609E-02  0.8601792E-01
       -1   -1    0    0    0  501  0.00000000000E+00  0.00000000000E+00  0.73250043063E+03  0.73250043065E+03  0.50400001928E-02 0.  1.
        1   -1    0    0  501    0  0.00000000000E+00  0.00000000000E+00 -0.13793682476E+04  0.13793682476E+04  0.50400001928E-02 0. -1.
    10030    2    1    2    0    0  0.00000000000E+00  0.00000000000E+00 -0.64686781701E+03  0.21118686783E+04  0.20103609978E+04 0.  0.
        4    1    3    3  502    0 -0.24241551312E+03  0.37369219863E+03  0.62316109971E+03  0.76599119408E+03  0.12699999809E+01 0.  1.
       -4    1    3    3    0  502  0.24241551312E+03 -0.37369219863E+03 -0.12700289167E+04  0.13458774842E+04  0.12699999809E+01 0. -1.
</event>
<event>
 5   0  0.2003576E-05  0.2005248E+04  0.7818609E-02  0.8604171E-01
       -2   -1    0    0    0  501  0.00000000000E+00  0.00000000000E+00  0.50634152403E+03  0.50634152404E+03  0.25500000920E-02 0. -1.
        2   -1    0    0  501    0  0.00000000000E+00  0.00000000000E+00 -0.19853296233E+04  0.19853296233E+04  0.25500000920E-02 0.  1.
    10030    2    1    2    0    0  0.00000000000E+00  0.00000000000E+00 -0.14789880993E+04  0.24916711473E+04  0.20052479420E+04 0.  0.
        4    1    3    3  502    0 -0.23394563849E+02 -0.90861826671E+03 -0.21360615518E+03  0.93368284907E+03  0.12699999809E+01 0. -1.
       -4    1    3    3    0  502  0.23394563849E+02  0.90861826671E+03 -0.12653819441E+04  0.15579882983E+04  0.12699999809E+01 0.  1.
</event>
<event>
 5   0  0.1999142E-05  0.1999675E+04  0.7818609E-02  0.8606773E-01
       -2   -1    0    0    0  501  0.00000000000E+00  0.00000000000E+00  0.60436023934E+03  0.60436023935E+03  0.25500000920E-02 0.  1.
        2   -1    0    0  501    0  0.00000000000E+00  0.00000000000E+00 -0.16541049567E+04  0.16541049567E+04  0.25500000920E-02 0. -1.
    10030    2    1    2    0    0  0.00000000000E+00  0.00000000000E+00 -0.10497447173E+04  0.22584651960E+04  0.19996752411E+04 0.  0.
        1    1    3    3  502    0  0.15613652270E+02 -0.44580436929E+03 -0.15354882439E+04  0.15989713784E+04  0.50400001928E-02 0. -1.
       -1    1    3    3    0  502 -0.15613652270E+02  0.44580436929E+03  0.48574352657E+03  0.65949381760E+03  0.50400001928E-02 0.  1.
</event>
<event>
 5   0  0.1979765E-05  0.2000192E+04  0.7818609E-02  0.8606531E-01
       -2   -1    0    0    0  501  0.00000000000E+00  0.00000000000E+00  0.35875575998E+03  0.35875575999E+03  0.25500000920E-02 0. -1.
        2   -1    0    0  501    0  0.00000000000E+00  0.00000000000E+00 -0.27879473958E+04  0.27879473958E+04  0.25500000920E-02 0.  1.
    10030    2    1    2    0    0  0.00000000000E+00  0.00000000000E+00 -0.24291916359E+04  0.31467031558E+04  0.20001921776E+04 0.  0.
        2    1    3    3  502    0  0.25965547637E+03 -0.66687591246E+03 -0.23136401306E+04  0.24217917134E+04  0.25500000920E-02 0.  1.
       -2    1    3    3    0  502 -0.25965547637E+03  0.66687591246E+03 -0.11555150525E+03  0.72491144245E+03  0.25500000920E-02 0. -1.
</event>
<event>
 5   0  0.9220260E-06  0.1997366E+04  0.7818609E-02  0.8607853E-01
        1   -1    0    0  501    0  0.00000000000E+00  0.00000000000E+00  0.15357349928E+04  0.15357349928E+04  0.50400001928E-02 0.  1.
       -1   -1    0    0    0  501  0.00000000000E+00  0.00000000000E+00 -0.64944016893E+03  0.64944016895E+03  0.50400001928E-02 0. -1.
    10030    2    1    2    0    0  0.00000000000E+00  0.00000000000E+00  0.88629482383E+03  0.21851751617E+04  0.19973662590E+04 0.  0.
        3    1    3    3  502    0  0.97124451574E+03 -0.81176793382E+02  0.68149096106E+03  0.11892583913E+04  0.10100000352E+00 0. -1.
       -3    1    3    3    0  502 -0.97124451574E+03  0.81176793382E+02  0.20480386277E+03  0.99591677039E+03  0.10100000352E+00 0.  1.
</event>
<event>
 5   0  0.7132000E-06  0.2005502E+04  0.7818609E-02  0.8604053E-01
        3   -1    0    0  501    0  0.00000000000E+00  0.00000000000E+00  0.14984001883E+04  0.14984001917E+04  0.10100000352E+00 0.  1.
       -3   -1    0    0    0  501  0.00000000000E+00  0.00000000000E+00 -0.67105524330E+03  0.67105525090E+03  0.10100000352E+00 0. -1.
    10030    2    1    2    0    0  0.00000000000E+00  0.00000000000E+00  0.82734494500E+03  0.21694554426E+04  0.20055017475E+04 0.  0.
        5    1    3    3  502    0 -0.48640673603E+02 -0.64355390778E+03  0.12438490406E+04  0.14013243997E+04  0.46999998093E+01 0.  1.
       -5    1    3    3    0  502  0.48640673603E+02  0.64355390778E+03 -0.41650409564E+03  0.76813104288E+03  0.46999998093E+01 0. -1.
</event>
<event>
 5   0  0.9140695E-06  0.2001967E+04  0.7818609E-02  0.8605702E-01
       -1   -1    0    0    0  501  0.00000000000E+00  0.00000000000E+00  0.88587627193E+03  0.88587627194E+03  0.50400001928E-02 0.  1.
        1   -1    0    0  501    0  0.00000000000E+00  0.00000000000E+00 -0.11310468212E+04  0.11310468212E+04  0.50400001928E-02 0. -1.
    10030    2    1    2    0    0  0.00000000000E+00  0.00000000000E+00 -0.24517054924E+03  0.20169230931E+04  0.20019665745E+04 0.  0.
        1    1    3    3  502    0  0.50638961083E+03 -0.58236838780E+02 -0.99050002096E+03  0.11139624136E+04  0.50400001928E-02 0. -1.
       -1    1    3    3    0  502 -0.50638961083E+03  0.58236838780E+02  0.74532947172E+03  0.90296067953E+03  0.50400001928E-02 0.  1.
</event>
<event>
 5   0  0.9333353E-06  0.1999459E+04  0.7818609E-02  0.8606873E-01
        1   -1    0    0  501    0  0.00000000000E+00  0.00000000000E+00  0.14287474339E+04  0.14287474340E+04  0.50400001928E-02 0. -1.
       -1   -1    0    0    0  501  0.00000000000E+00  0.00000000000E+00 -0.69953542999E+03  0.69953543001E+03  0.50400001928E-02 0.  1.
    10030    2    1    2    0    0  0.00000000000E+00  0.00000000000E+00  0.72921200395E+03  0.21282828640E+04  0.19994593775E+04 0.  0.
        2    1    3    3  502    0  0.54355595975E+03 -0.23624422154E+03  0.12215838853E+04  0.13577671385E+04  0.25500000920E-02 0. -1.
       -2    1    3    3    0  502 -0.54355595975E+03  0.23624422154E+03 -0.49237188136E+03  0.77051572544E+03  0.25500000920E-02 0.  1.
</event>
<event>
 5   0  0.1979765E-05  0.1998123E+04  0.7818609E-02  0.8607499E-01
        2   -1    0    0  501    0  0.00000000000E+00  0.00000000000E+00  0.17976303067E+04  0.17976303067E+04  0.25500000920E-02 0. -1.
       -2   -1    0    0    0  501  0.00000000000E+00  0.00000000000E+00 -0.55524429714E+03  0.55524429715E+03  0.25500000920E-02 0.  1.
    10030    2    1    2    0    0  0.00000000000E+00  0.00000000000E+00  0.12423860096E+04  0.23528746039E+04  0.19981230955E+04 0.  0.
        2    1    3    3  502    0 -0.11618413528E+03 -0.47701400218E+03  0.16457786119E+04  0.17174482091E+04  0.25500000920E-02 0. -1.
       -2    1    3    3    0  502  0.11618413528E+03  0.47701400218E+03 -0.40339260232E+03  0.63542639477E+03  0.25500000920E-02 0.  1.
</event>
<event>
 5   0  0.2020029E-05  0.1998912E+04  0.7818609E-02  0.8607130E-01
        2   -1    0    0  501    0  0.00000000000E+00  0.00000000000E+00  0.13133676215E+04  0.13133676215E+04  0.25500000920E-02 0. -1.
       -2   -1    0    0    0  501  0.00000000000E+00  0.00000000000E+00 -0.76057322905E+03  0.76057322906E+03  0.25500000920E-02 0.  1.
    10030    2    1    2    0    0  0.00000000000E+00  0.00000000000E+00  0.55279439244E+03  0.20739408506E+04  0.19989119569E+04 0.  0.
        5    1    3    3  502    0  0.24970363296E+03  0.79607931699E+03 -0.29452608410E+03  0.88479482789E+03  0.46999998093E+01 0.  1.
       -5    1    3    3    0  502 -0.24970363296E+03 -0.79607931699E+03  0.84732047654E+03  0.11891460227E+04  0.46999998093E+01 0. -1.
</event>
<event>
 5   0  0.9140695E-06  0.2002240E+04  0.7818609E-02  0.8605574E-01
       -1   -1    0    0    0  501  0.00000000000E+00  0.00000000000E+00  0.46608918132E+03  0.46608918134E+03  0.50400001928E-02 0. -1.
        1   -1    0    0  501    0  0.00000000000E+00  0.00000000000E+00 -0.21503206116E+04  0.21503206116E+04  0.50400001928E-02 0.  1.
    10030    2    1    2    0    0  0.00000000000E+00  0.00000000000E+00 -0.16842314303E+04  0.26164097929E+04  0.20022399192E+04 0.  0.
        1    1    3    3  502    0 -0.35919967562E+03  0.86981931270E+03 -0.39584653870E+03  0.10209331643E+04  0.50400001928E-02 0. -1.
       -1    1    3    3    0  502  0.35919967562E+03 -0.86981931270E+03 -0.12883848916E+04  0.15954766286E+04  0.50400001928E-02 0.  1.
</event>
<event>
 5   0  0.1999142E-05  0.2009700E+04  0.7818609E-02  0.8602099E-01
        2   -1    0    0  501    0  0.00000000000E+00  0.00000000000E+00  0.25394582387E+04  0.25394582387E+04  0.25500000920E-02 0.  1.
       -2   -1    0    0    0  501  0.00000000000E+00  0.00000000000E+00 -0.39761361723E+03  0.39761361724E+03  0.25500000920E-02 0. -1.
    10030    2    1    2    0    0  0.00000000000E+00  0.00000000000E+00  0.21418446215E+04  0.29370718560E+04  0.20096996553E+04 0.  0.
        1    1    3    3  502    0  0.91758956035E+03  0.37337302885E+03  0.13169720112E+04  0.16479664130E+04  0.50400001928E-02 0.  1.
       -1    1    3    3    0  502 -0.91758956035E+03 -0.37337302885E+03  0.82487261031E+03  0.12891054430E+04  0.50400001928E-02 0. -1.
</event>
<event>
 5   0  0.9140695E-06  0.1995823E+04  0.7818609E-02  0.8608576E-01
       -1   -1    0    0    0  501  0.00000000000E+00  0.00000000000E+00  0.71931930514E+03  0.71931930516E+03  0.50400001928E-02 0. -1.
        1   -1    0    0  501    0  0.00000000000E+00  0.00000000000E+00 -0.13844020048E+04  0.13844020048E+04  0.50400001928E-02 0.  1.
    10030    2    1    2    0    0  0.00000000000E+00  0.00000000000E+00 -0.66508269969E+03  0.21037213100E+04  0.19958227258E+04 0.  0.
        1    1    3    3  502    0 -0.54371124822E+03  0.38386521792E+02  0.54855103554E+03  0.77330697987E+03  0.50400001928E-02 0. -1.
       -1    1    3    3    0  502  0.54371124822E+03 -0.38386521792E+02 -0.12136337352E+04  0.13304143301E+04  0.50400001928E-02 0.  1.
</event>
<event>
 5   0  0.2020029E-05  0.1999558E+04  0.7818609E-02  0.8606827E-01
       -2   -1    0    0    0  501  0.00000000000E+00  0.00000000000E+00  0.62429836857E+03  0.62429836858E+03  0.25500000920E-02 0. -1.
        2   -1    0    0  501    0  0.00000000000E+00  0.00000000000E+00 -0.16010899013E+04  0.16010899013E+04  0.25500000920E-02 0.  1.
    10030    2    1    2    0    0  0.00000000000E+00  0.00000000000E+00 -0.97679153274E+03  0.22253882699E+04  0.19995577644E+04 0.  0.
        5    1    3    3  502    0 -0.83894183199E+03 -0.29658273466E+03  0.18879174465E+02  0.89003552131E+03  0.46999998093E+01 0. -1.
       -5    1    3    3    0  502  0.83894183199E+03  0.29658273466E+03 -0.99567070720E+03  0.13353527486E+04  0.46999998093E+01 0.  1.
</event>
<event>
 5   0  0.1999142E-05  0.2019604E+04  0.7818609E-02  0.8597510E-01
        2   -1    0    0  501    0  0.00000000000E+00  0.00000000000E+00  0.13502360930E+04  0.13502360930E+04  0.25500000920E-02 0.  1.
       -2   -1    0    0    0  501  0.00000000000E+00  0.00000000000E+00 -0.75520117985E+03  0.75520117986E+03  0.25500000920E-02 0. -1.
    10030    2    1    2    0    0  0.00000000000E+00  0.00000000000E+00  0.59503491313E+03  0.21054372728E+04  0.20196038131E+04 0.  0.
        1    1    3    3  502    0 -0.57620177812E+03 -0.20373409173E+03 -0.54050212205E+03  0.81587904324E+03  0.50400001928E-02 0. -1.
       -1    1    3    3    0  502  0.57620177812E+03  0.20373409173E+03  0.11355370352E+04  0.12895582296E+04  0.50400001928E-02 0.  1.
</event>
<event>
 5   0  0.2020029E-05  0.2004493E+04  0.7818609E-02  0.8604523E-01
       -2   -1    0    0    0  501  0.00000000000E+00  0.00000000000E+00  0.73344176238E+03  0.73344176238E+03  0.25500000920E-02 0. -1.
        2   -1    0    0  501    0  0.00000000000E+00  0.00000000000E+00 -0.13695681533E+04  0.13695681533E+04  0.25500000920E-02 0.  1.
    10030    2    1    2    0    0  0.00000000000E+00  0.00000000000E+00 -0.63612639089E+03  0.21030099156E+04  0.20044934323E+04 0.  0.
        5    1    3    3  502    0 -0.71895165149E+03 -0.32328085812E+03  0.33128591147E+03  0.85508738474E+03  0.46999998093E+01 0. -1.
       -5    1    3    3    0  502  0.71895165149E+03  0.32328085812E+03 -0.96741230236E+03  0.12479225309E+04  0.46999998093E+01 0.  1.
</event>
<event>
 5   0  0.2020029E-05  0.2001626E+04  0.7818609E-02  0.8605861E-01
        2   -1    0    0  501    0  0.00000000000E+00  0.00000000000E+00  0.84222096371E+03  0.84222096371E+03  0.25500000920E-02 0.  1.
       -2   -1    0    0    0  501  0.00000000000E+00  0.00000000000E+00 -0.11892677707E+04  0.11892677707E+04  0.25500000920E-02 0. -1.
    10030    2    1    2    0    0  0.00000000000E+00  0.00000000000E+00 -0.34704680695E+03  0.20314887344E+04  0.20016255873E+04 0.  0.
        5    1    3    3  502    0  0.24498385622E+03 -0.93853447386E+03  0.76608656282E+02  0.97301337331E+03  0.46999998093E+01 0.  1.
       -5    1    3    3    0  502 -0.24498385622E+03  0.93853447386E+03 -0.42365546323E+03  0.10584753611E+04  0.46999998093E+01 0. -1.
</event>
<event>
 5   0  0.9333353E-06  0.1998057E+04  0.7818609E-02  0.8607530E-01
        1   -1    0    0  501    0  0.00000000000E+00  0.00000000000E+00  0.87951956217E+03  0.87951956218E+03  0.50400001928E-02 0.  1.
       -1   -1    0    0    0  501  0.00000000000E+00  0.00000000000E+00 -0.11347758052E+04  0.11347758052E+04  0.50400001928E-02 0. -1.
    10030    2    1    2    0    0  0.00000000000E+00  0.00000000000E+00 -0.25525624306E+03  0.20142953674E+04  0.19980565752E+04 0.  0.
        2    1    3    3  502    0 -0.37294908510E+03  0.42443613197E+03 -0.95822986343E+03  0.11124034886E+04  0.25500000920E-02 0. -1.
       -2    1    3    3    0  502  0.37294908510E+03 -0.42443613197E+03  0.70297362037E+03  0.90189187885E+03  0.25500000920E-02 0.  1.
</event>
<event>
 5   0  0.1999142E-05  0.1998768E+04  0.7818609E-02  0.8607197E-01
       -2   -1    0    0    0  501  0.00000000000E+00  0.00000000000E+00  0.64140956924E+03  0.64140956924E+03  0.25500000920E-02 0.  1.
        2   -1    0    0  501    0  0.00000000000E+00  0.00000000000E+00 -0.15571466600E+04  0.15571466600E+04  0.25500000920E-02 0. -1.
    10030    2    1    2    0    0  0.00000000000E+00  0.00000000000E+00 -0.91573709072E+03  0.21985562292E+04  0.19987683892E+04 0.  0.
        1    1    3    3  502    0  0.27772324969E+03  0.47828494574E+03  0.45772931329E+03  0.71791560578E+03  0.50400001928E-02 0.  1.
       -1    1    3    3    0  502 -0.27772324969E+03 -0.47828494574E+03 -0.13734664040E+04  0.14806406234E+04  0.50400001928E-02 0. -1.
</event>
<event>
 5   0  0.9333353E-06  0.2005056E+04  0.7818609E-02  0.8604261E-01
        1   -1    0    0  501    0  0.00000000000E+00  0.00000000000E+00  0.14815605210E+04  0.14815605210E+04  0.50400001928E-02 0.  1.
       -1   -1    0    0    0  501  0.00000000000E+00  0.00000000000E+00 -0.67838081874E+03  0.67838081876E+03  0.50400001928E-02 0. -1.
    10030    2    1    2    0    0  0.00000000000E+00  0.00000000000E+00  0.80317970223E+03  0.21599413397E+04  0.20050558489E+04 0.  0.
        2    1    3    3  502    0 -0.66467947053E+03  0.14045760583E+03  0.11957887503E+04  0.13752955584E+04  0.25500000920E-02 0.  1.
       -2    1    3    3    0  502  0.66467947053E+03 -0.14045760583E+03 -0.39260904807E+03  0.78464578136E+03  0.25500000920E-02 0. -1.
</event>
<event>
 5   0  0.2003576E-05  0.2001061E+04  0.7818609E-02  0.8606125E-01
        2   -1    0    0  501    0  0.00000000000E+00  0.00000000000E+00  0.21594839719E+04  0.21594839719E+04  0.25500000920E-02 0.  1.
       -2   -1    0    0    0  501  0.00000000000E+00  0.00000000000E+00 -0.46356499808E+03  0.46356499808E+03  0.25500000920E-02 0. -1.
    10030    2    1    2    0    0  0.00000000000E+00  0.00000000000E+00  0.16959189739E+04  0.26230489700E+04  0.20010609019E+04 0.  0.
        4    1    3    3  502    0  0.37531050634E+03 -0.54001364941E+03 -0.14046728230E+03  0.67246218333E+03  0.12699999809E+01 0. -1.
       -4    1    3    3    0  502 -0.37531050634E+03  0.54001364941E+03  0.18363862562E+04  0.19505867867E+04  0.12699999809E+01 0.  1.
</event>
<event>
 5   0  0.9220260E-06  0.2002007E+04  0.7818609E-02  0.8605683E-01
       -1   -1    0    0    0  501  0.00000000000E+00  0.00000000000E+00  0.55656866237E+03  0.55656866239E+03  0.50400001928E-02 0. -1.
        1   -1    0    0  501    0  0.00000000000E+00  0.00000000000E+00 -0.18003307116E+04  0.18003307116E+04  0.50400001928E-02 0.  1.
    10030    2    1    2    0    0  0.00000000000E+00  0.00000000000E+00 -0.12437620492E+04  0.23568993740E+04  0.20020066493E+04 0.  0.
        3    1    3    3  502    0  0.78582125968E+03  0.59216401251E+03 -0.40533280840E+03  0.10641747815E+04  0.10100000352E+00 0.  1.
       -3    1    3    3    0  502 -0.78582125968E+03 -0.59216401251E+03 -0.83842924081E+03  0.12927245925E+04  0.10100000352E+00 0. -1.
</event>
<event>
 5   0  0.2038882E-05  0.1997403E+04  0.7818609E-02  0.8607836E-01
        2   -1    0    0  501    0  0.00000000000E+00  0.00000000000E+00  0.16509369619E+04  0.16509369619E+04  0.25500000920E-02 0. -1.
       -2   -1    0    0    0  501  0.00000000000E+00  0.00000000000E+00 -0.60414440776E+03  0.60414440777E+03  0.25500000920E-02 0.  1.
    10030    2    1    2    0    0  0.00000000000E+00  0.00000000000E+00  0.10467925541E+04  0.22550813697E+04  0.19974026465E+04 0.  0.
        3    1    3    3  502    0  0.95135461725E+03  0.13022867831E+03  0.21344490189E+03  0.98366348552E+03  0.10100000352E+00 0.  1.
       -3    1    3    3    0  502 -0.95135461725E+03 -0.13022867831E+03  0.83334765225E+03  0.12714178841E+04  0.10100000352E+00 0. -1.
</event>
<event>
 5   0  0.9370269E-06  0.2004166E+04  0.7818609E-02  0.8604676E-01
        1   -1    0    0  501    0  0.00000000000E+00  0.00000000000E+00  0.10251574176E+04  0.10251574176E+04  0.50400001928E-02 0. -1.
       -1   -1    0    0    0  501  0.00000000000E+00  0.00000000000E+00 -0.97952764755E+03  0.97952764756E+03  0.50400001928E-02 0.  1.
    10030    2    1    2    0    0  0.00000000000E+00  0.00000000000E+00  0.45629770003E+02  0.20046850651E+04  0.20041656954E+04 0.  0.
        4    1    3    3  502    0 -0.91899963380E+03 -0.18362777734E+02  0.42200589371E+03  0.10114287448E+04  0.12699999809E+01 0. -1.
       -4    1    3    3    0  502  0.91899963380E+03  0.18362777734E+02 -0.37637612370E+03  0.99325632035E+03  0.12699999809E+01 0.  1.
</event>
<event>
 5   0  0.1999142E-05  0.2002445E+04  0.7818609E-02  0.8605479E-01
       -2   -1    0    0    0  501  0.00000000000E+00  0.00000000000E+00  0.43760477490E+03  0.43760477491E+03  0.25500000920E-02 0.  1.
        2   -1    0    0  501    0  0.00000000000E+00  0.00000000000E+00 -0.22907570805E+04  0.22907570805E+04  0.25500000920E-02 0. -1.
    10030    2    1    2    0    0  0.00000000000E+00  0.00000000000E+00 -0.18531523056E+04  0.27283618554E+04  0.20024447424E+04 0.  0.
        1    1    3    3  502    0  0.57062330446E+02 -0.53887435481E+03  0.22053282569E+03  0.58504393601E+03  0.50400001928E-02 0.  1.
       -1    1    3    3    0  502 -0.57062330446E+02  0.53887435481E+03 -0.20736851313E+04  0.21433179194E+04  0.50400001928E-02 0. -1.
</event>
<event>
 5   0  0.9342635E-06  0.2002276E+04  0.7818609E-02  0.8605557E-01
       -1   -1    0    0    0  501  0.00000000000E+00  0.00000000000E+00  0.55842400533E+03  0.55842400536E+03  0.50400001928E-02 0.  1.
        1   -1    0    0  501    0  0.00000000000E+00  0.00000000000E+00 -0.17948313805E+04  0.17948313805E+04  0.50400001928E-02 0. -1.
    10030    2    1    2    0    0  0.00000000000E+00  0.00000000000E+00 -0.12364073752E+04  0.23532553859E+04  0.20022756338E+04 0.  0.
        5    1    3    3  502    0 -0.20163887320E+03  0.92456242918E+03 -0.10022574497E+04  0.13784106812E+04  0.46999998093E+01 0. -1.
       -5    1    3    3    0  502  0.20163887320E+03 -0.92456242918E+03 -0.23414992553E+03  0.97484470469E+03  0.46999998093E+01 0.  1.
</event>
<event>
 5   0  0.9370269E-06  0.1950710E+04  0.7818609E-02  0.8630019E-01
       -1   -1    0    0    0  501  0.00000000000E+00  0.00000000000E+00  0.75505402631E+03  0.75505402632E+03  0.50400001928E-02 0. -1.
        1   -1    0    0  501    0  0.00000000000E+00  0.00000000000E+00 -0.12599326629E+04  0.12599326629E+04  0.50400001928E-02 0.  1.
    10030    2    1    2    0    0  0.00000000000E+00  0.00000000000E+00 -0.50487863659E+03  0.20149866892E+04  0.19507098503E+04 0.  0.
        4    1    3    3  502    0 -0.21605067384E+02  0.47971297277E+03  0.62448898564E+03  0.78776863435E+03  0.12699999809E+01 0. -1.
       -4    1    3    3    0  502  0.21605067384E+02 -0.47971297277E+03 -0.11293676222E+04  0.12272180549E+04  0.12699999809E+01 0.  1.
</event>
<event>
 5   0  0.2038882E-05  0.2002123E+04  0.7818609E-02  0.8605629E-01
       -2   -1    0    0    0  501  0.00000000000E+00  0.00000000000E+00  0.65808604180E+03  0.65808604180E+03  0.25500000920E-02 0.  1.
        2   -1    0    0  501    0  0.00000000000E+00  0.00000000000E+00 -0.15227857303E+04  0.15227857303E+04  0.25500000920E-02 0. -1.
    10030    2    1    2    0    0  0.00000000000E+00  0.00000000000E+00 -0.86469968852E+03  0.21808717721E+04  0.20021229071E+04 0.  0.
        3    1    3    3  502    0  0.52436042669E+03  0.40312164230E+03  0.38617921791E+03  0.76589510647E+03  0.10100000352E+00 0.  1.
       -3    1    3    3    0  502 -0.52436042669E+03 -0.40312164230E+03 -0.12508789064E+04  0.14149766656E+04  0.10100000352E+00 0. -1.
</event>
<event>
 5   0  0.9342635E-06  0.1999549E+04  0.7818609E-02  0.8606832E-01
        1   -1    0    0  501    0  0.00000000000E+00  0.00000000000E+00  0.68486780532E+03  0.68486780534E+03  0.50400001928E-02 0. -1.
       -1   -1    0    0    0  501  0.00000000000E+00  0.00000000000E+00 -0.14594766707E+04  0.14594766707E+04  0.50400001928E-02 0.  1.
    10030    2    1    2    0    0  0.00000000000E+00  0.00000000000E+00 -0.77460886537E+03  0.21443444760E+04  0.19995485334E+04 0.  0.
        5    1    3    3  502    0  0.76405271983E+03 -0.31442706130E+03  0.21638535265E+03  0.85409931882E+03  0.46999998093E+01 0. -1.
       -5    1    3    3    0  502 -0.76405271983E+03  0.31442706130E+03 -0.99099421802E+03  0.12902451572E+04  0.46999998093E+01 0.  1.
</event>
<event>
 5   0  0.9220260E-06  0.2000957E+04  0.7818609E-02  0.8606174E-01
        1   -1    0    0  501    0  0.00000000000E+00  0.00000000000E+00  0.25212031243E+04  0.25212031243E+04  0.50400001928E-02 0.  1.
       -1   -1    0    0    0  501  0.00000000000E+00  0.00000000000E+00 -0.39701557657E+03  0.39701557660E+03  0.50400001928E-02 0. -1.
    10030    2    1    2    0    0  0.00000000000E+00  0.00000000000E+00  0.21241875478E+04  0.29182187009E+04  0.20009566833E+04 0.  0.
        3    1    3    3  502    0 -0.86430183208E+03  0.34339545716E+03  0.15999666282E+04  0.18506299788E+04  0.10100000352E+00 0.  1.
       -3    1    3    3    0  502  0.86430183208E+03 -0.34339545716E+03  0.52422091962E+03  0.10675887222E+04  0.10100000352E+00 0. -1.
</event>
<event>
 5   0  0.9333353E-06  0.1997282E+04  0.7818609E-02  0.8607892E-01
       -1   -1    0    0    0  501  0.00000000000E+00  0.00000000000E+00  0.69192550702E+03  0.69192550703E+03  0.50400001928E-02 0. -1.
        1   -1    0    0  501    0  0.00000000000E+00  0.00000000000E+00 -0.14413167384E+04  0.14413167384E+04  0.50400001928E-02 0.  1.
    10030    2    1    2    0    0  0.00000000000E+00  0.00000000000E+00 -0.74939123136E+03  0.21332422454E+04  0.19972819681E+04 0.  0.
        2    1    3    3  502    0 -0.48867996306E+03  0.85322576165E+03 -0.56116993111E+03  0.11321280838E+04  0.25500000920E-02 0.  1.
       -2    1    3    3    0  502  0.48867996306E+03 -0.85322576165E+03 -0.18822130024E+03  0.10011141616E+04  0.25500000920E-02 0. -1.
</event>
<event>
 5   0  0.1979765E-05  0.1998810E+04  0.7818609E-02  0.8607177E-01
       -2   -1    0    0    0  501  0.00000000000E+00  0.00000000000E+00  0.54887726554E+03  0.54887726554E+03  0.25500000920E-02 0.  1.
        2   -1    0    0  501    0  0.00000000000E+00  0.00000000000E+00 -0.18197334784E+04  0.18197334784E+04  0.25500000920E-02 0. -1.
    10030    2    1    2    0    0  0.00000000000E+00  0.00000000000E+00 -0.12708562129E+04  0.23686107440E+04  0.19988099816E+04 0.  0.
        2    1    3    3  502    0  0.70544553745E+03 -0.68595520343E+03 -0.84279609467E+03  0.12955667503E+04  0.25500000920E-02 0.  1.
       -2    1    3    3    0  502 -0.70544553745E+03  0.68595520343E+03 -0.42806011821E+03  0.10730439936E+04  0.25500000920E-02 0. -1.
</event>
<event>
 5   0  0.9333353E-06  0.2000087E+04  0.7818609E-02  0.8606580E-01
        1   -1    0    0  501    0  0.00000000000E+00  0.00000000000E+00  0.11981620562E+04  0.11981620562E+04  0.50400001928E-02 0.  1.
       -1   -1    0    0    0  501  0.00000000000E+00  0.00000000000E+00 -0.83468447798E+03  0.83468447799E+03  0.50400001928E-02 0. -1.
    10030    2    1    2    0    0  0.00000000000E+00  0.00000000000E+00  0.36347757821E+03  0.20328465342E+04  0.20000872685E+04 0.  0.
        2    1    3    3  502    0 -0.50956532699E+02  0.91031974789E+03  0.59933159475E+03  0.10910898094E+04  0.25500000920E-02 0. -1.
       -2    1    3    3    0  502  0.50956532699E+02 -0.91031974789E+03 -0.23585401654E+03  0.94175672483E+03  0.25500000920E-02 0.  1.
</event>
<event>
 5   0  0.9333353E-06  0.2000987E+04  0.7818609E-02  0.8606159E-01
        1   -1    0    0  501    0  0.00000000000E+00  0.00000000000E+00  0.26359424123E+04  0.26359424123E+04  0.50400001928E-02 0. -1.
       -1   -1    0    0    0  501  0.00000000000E+00  0.00000000000E+00 -0.37974559301E+03  0.37974559305E+03  0.50400001928E-02 0.  1.
    10030    2    1    2    0    0  0.00000000000E+00  0.00000000000E+00  0.22561968193E+04  0.30156880053E+04  0.20009872709E+04 0.  0.
        2    1    3    3  502    0 -0.79214197422E+03 -0.50426884189E+03  0.16484552118E+04  0.18971506418E+04  0.25500000920E-02 0.  1.
       -2    1    3    3    0  502  0.79214197422E+03  0.50426884189E+03  0.60774160742E+03  0.11185373635E+04  0.25500000920E-02 0. -1.
</event>
<event>
 5   0  0.9220260E-06  0.2004495E+04  0.7818609E-02  0.8604522E-01
       -1   -1    0    0    0  501  0.00000000000E+00  0.00000000000E+00  0.88706945383E+03  0.88706945384E+03  0.50400001928E-02 0. -1.
        1   -1    0    0  501    0  0.00000000000E+00  0.00000000000E+00 -0.11323803866E+04  0.11323803866E+04  0.50400001928E-02 0.  1.
    10030    2    1    2    0    0  0.00000000000E+00  0.00000000000E+00 -0.24531093275E+03  0.20194498404E+04  0.20044949998E+04 0.  0.
        3    1    3    3  502    0 -0.21942989621E+03  0.94985973590E+03 -0.35702174546E+03  0.10381943624E+04  0.10100000352E+00 0.  1.
       -3    1    3    3    0  502  0.21942989621E+03 -0.94985973590E+03  0.11171081271E+03  0.98125547800E+03  0.10100000352E+00 0. -1.
</event>
<event>
 5   0  0.1999142E-05  0.1993091E+04  0.7818609E-02  0.8609858E-01
       -2   -1    0    0    0  501  0.00000000000E+00  0.00000000000E+00  0.58731346453E+03  0.58731346453E+03  0.25500000920E-02 0.  1.
        2   -1    0    0  501    0  0.00000000000E+00  0.00000000000E+00 -0.16909253878E+04  0.16909253878E+04  0.25500000920E-02 0. -1.
    10030    2    1    2    0    0  0.00000000000E+00  0.00000000000E+00 -0.11036119233E+04  0.22782388523E+04  0.19930913153E+04 0.  0.
        1    1    3    3  502    0  0.73222835380E+03  0.66155674804E+03 -0.71055483191E+03  0.12160196800E+04  0.50400001928E-02 0. -1.
       -1    1    3    3    0  502 -0.73222835380E+03 -0.66155674804E+03 -0.39305709137E+03  0.10622191723E+04  0.50400001928E-02 0.  1.
</event>
<event>
 5   0  0.2003576E-05  0.1986440E+04  0.7818609E-02  0.8612987E-01
       -2   -1    0    0    0  501  0.00000000000E+00  0.00000000000E+00  0.71705343711E+03  0.71705343712E+03  0.25500000920E-02 0. -1.
        2   -1    0    0  501    0  0.00000000000E+00  0.00000000000E+00 -0.13757489044E+04  0.13757489044E+04  0.25500000920E-02 0.  1.
    10030    2    1    2    0    0  0.00000000000E+00  0.00000000000E+00 -0.65869546729E+03  0.20928023415E+04  0.19864395088E+04 0.  0.
        4    1    3    3  502    0 -0.73975783495E+03 -0.26127193556E+03  0.31234576883E+03  0.84443245490E+03  0.12699999809E+01 0. -1.
       -4    1    3    3    0  502  0.73975783495E+03  0.26127193556E+03 -0.97104123612E+03  0.12483698866E+04  0.12699999809E+01 0.  1.
</event>
<event>
 5   0  0.9140695E-06  0.1996480E+04  0.7818609E-02  0.8608268E-01
        1   -1    0    0  501    0  0.00000000000E+00  0.00000000000E+00  0.18097678082E+04  0.18097678082E+04  0.50400001928E-02 0. -1.
       -1   -1    0    0    0  501  0.00000000000E+00  0.00000000000E+00 -0.55061382079E+03  0.55061382081E+03  0.50400001928E-02 0.  1.
    10030    2    1    2    0    0  0.00000000000E+00  0.00000000000E+00  0.12591539874E+04  0.23603816290E+04  0.19964800702E+04 0.  0.
        1    1    3    3  502    0 -0.64771431685E+03  0.29711614073E+03 -0.19689030975E+03  0.73930888770E+03  0.50400001928E-02 0. -1.
       -1    1    3    3    0  502  0.64771431685E+03 -0.29711614073E+03  0.14560442971E+04  0.16210727413E+04  0.50400001928E-02 0.  1.
</event>
<event>
 5   0  0.1999142E-05  0.1996233E+04  0.7818609E-02  0.8608384E-01
       -2   -1    0    0    0  501  0.00000000000E+00  0.00000000000E+00  0.71092748220E+03  0.71092748220E+03  0.25500000920E-02 0.  1.
        2   -1    0    0  501    0  0.00000000000E+00  0.00000000000E+00 -0.14013193519E+04  0.14013193519E+04  0.25500000920E-02 0. -1.
    10030    2    1    2    0    0  0.00000000000E+00  0.00000000000E+00 -0.69039186973E+03  0.21122468341E+04  0.19962328909E+04 0.  0.
        1    1    3    3  502    0 -0.79189231802E+03  0.49688993549E+03  0.24756720270E+02  0.93520369255E+03  0.50400001928E-02 0.  1.
       -1    1    3    3    0  502  0.79189231802E+03 -0.49688993549E+03 -0.71514859000E+03  0.11770431416E+04  0.50400001928E-02 0. -1.
</event>
<event>
 5   0  0.2003576E-05  0.1995323E+04  0.7818609E-02  0.8608810E-01
        2   -1    0    0  501    0  0.00000000000E+00  0.00000000000E+00  0.12095566843E+04  0.12095566843E+04  0.25500000920E-02 0. -1.
       -2   -1    0    0    0  501  0.00000000000E+00  0.00000000000E+00 -0.82288703150E+03  0.82288703150E+03  0.25500000920E-02 0.  1.
    10030    2    1    2    0    0  0.00000000000E+00  0.00000000000E+00  0.38666965276E+03  0.20324437158E+04  0.19953230409E+04 0.  0.
        4    1    3    3  502    0 -0.17973971324E+03 -0.55511692963E+03 -0.63095784891E+03  0.85940129746E+03  0.12699999809E+01 0.  1.
       -4    1    3    3    0  502  0.17973971324E+03  0.55511692963E+03  0.10176275017E+04  0.11730424183E+04  0.12699999809E+01 0. -1.
</event>
<event>
 5   0  0.2020029E-05  0.2006607E+04  0.7818609E-02  0.8603538E-01
       -2   -1    0    0    0  501  0.00000000000E+00  0.00000000000E+00  0.83913054890E+03  0.83913054890E+03  0.25500000920E-02 0. -1.
        2   -1    0    0  501    0  0.00000000000E+00  0.00000000000E+00 -0.11995967049E+04  0.11995967049E+04  0.25500000920E-02 0.  1.
    10030    2    1    2    0    0  0.00000000000E+00  0.00000000000E+00 -0.36046615600E+03  0.20387272538E+04  0.20066073273E+04 0.  0.
        5    1    3    3  502    0  0.78957044391E+03  0.61519170458E+03 -0.24998943513E+03  0.10316972070E+04  0.46999998093E+01 0. -1.
       -5    1    3    3    0  502 -0.78957044391E+03 -0.61519170458E+03 -0.11047672086E+03  0.10070300468E+04  0.46999998093E+01 0.  1.
</event>
<event>
 5   0  0.1999142E-05  0.2005138E+04  0.7818609E-02  0.8604222E-01
        2   -1    0    0  501    0  0.00000000000E+00  0.00000000000E+00  0.22839700660E+04  0.22839700660E+04  0.25500000920E-02 0. -1.
       -2   -1    0    0    0  501  0.00000000000E+00  0.00000000000E+00 -0.44008655748E+03  0.44008655748E+03  0.25500000920E-02 0.  1.
    10030    2    1    2    0    0  0.00000000000E+00  0.00000000000E+00  0.18438835085E+04  0.27240566235E+04  0.20051379242E+04 0.  0.
        1    1    3    3  502    0  0.24123834325E+03  0.49986456931E+03  0.20562065062E+04  0.21297994559E+04  0.50400001928E-02 0. -1.
       -1    1    3    3    0  502 -0.24123834325E+03 -0.49986456931E+03 -0.21232299770E+03  0.59425716763E+03  0.50400001928E-02 0.  1.
</event>
<event>
 5   0  0.2020029E-05  0.1996746E+04  0.7818609E-02  0.8608144E-01
        2   -1    0    0  501    0  0.00000000000E+00  0.00000000000E+00  0.18621052682E+04  0.18621052682E+04  0.25500000920E-02 0.  1.
       -2   -1    0    0    0  501  0.00000000000E+00  0.00000000000E+00 -0.53528040976E+03  0.53528040976E+03  0.25500000920E-02 0. -1.
    10030    2    1    2    0    0  0.00000000000E+00  0.00000000000E+00  0.13268248584E+04  0.23973856779E+04  0.19967458236E+04 0.  0.
        5    1    3    3  502    0 -0.43981063122E+03  0.36527900236E+03 -0.31925942888E+03  0.65483647869E+03  0.46999998093E+01 0. -1.
       -5    1    3    3    0  502  0.43981063122E+03 -0.36527900236E+03  0.16460842873E+04  0.17425491992E+04  0.46999998093E+01 0.  1.
</event>
<event>
 5   0  0.1999142E-05  0.2007244E+04  0.7818609E-02  0.8603241E-01
       -2   -1    0    0    0  501  0.00000000000E+00  0.00000000000E+00  0.45719722600E+03  0.45719722601E+03  0.25500000920E-02 0.  1.
        2   -1    0    0  501    0  0.00000000000E+00  0.00000000000E+00 -0.22031135132E+04  0.22031135132E+04  0.25500000920E-02 0. -1.
    10030    2    1    2    0    0  0.00000000000E+00  0.00000000000E+00 -0.17459162872E+04  0.26603107392E+04  0.20072442670E+04 0.  0.
        1    1    3    3  502    0 -0.61065086370E+03  0.20229731362E+03 -0.18939448233E+04  0.20002114073E+04  0.50400001928E-02 0. -1.
       -1    1    3    3    0  502  0.61065086370E+03 -0.20229731362E+03  0.14802853606E+03  0.66009933188E+03  0.50400001928E-02 0.  1.
</event>
<event>
 5   0  0.9370269E-06  0.1998423E+04  0.7818609E-02  0.8607359E-01
        1   -1    0    0  501    0  0.00000000000E+00  0.00000000000E+00  0.13828290336E+04  0.13828290336E+04  0.50400001928E-02 0.  1.
       -1   -1    0    0    0  501  0.00000000000E+00  0.00000000000E+00 -0.72201487876E+03  0.72201487878E+03  0.50400001928E-02 0. -1.
    10030    2    1    2    0    0  0.00000000000E+00  0.00000000000E+00  0.66081415487E+03  0.21048439124E+04  0.19984225150E+04 0.  0.
        4    1    3    3  502    0 -0.82043542817E+03 -0.92898804534E+02 -0.26230103737E+03  0.86634169171E+03  0.12699999809E+01 0. -1.
       -4    1    3    3    0  502  0.82043542817E+03  0.92898804534E+02  0.92311519224E+03  0.12385022207E+04  0.12699999809E+01 0.  1.
</event>
<event>
 5   0  0.9220260E-06  0.2001329E+04  0.7818609E-02  0.8605999E-01
       -1   -1    0    0    0  501  0.00000000000E+00  0.00000000000E+00  0.71017172702E+03  0.71017172704E+03  0.50400001928E-02 0. -1.
        1   -1    0    0  501    0  0.00000000000E+00  0.00000000000E+00 -0.14099827339E+04  0.14099827339E+04  0.50400001928E-02 0.  1.
    10030    2    1    2    0    0  0.00000000000E+00  0.00000000000E+00 -0.69981100687E+03  0.21201544609E+04  0.20013294314E+04 0.  0.
        3    1    3    3  502    0  0.84627186832E+03 -0.42995990266E+03 -0.68539118535E+03  0.11708128288E+04  0.10100000352E+00 0.  1.
       -3    1    3    3    0  502 -0.84627186832E+03  0.42995990266E+03 -0.14419821519E+02  0.94934163211E+03  0.10100000352E+00 0. -1.
</event>
<event>
 5   0  0.1999142E-05  0.2003155E+04  0.7818609E-02  0.8605147E-01
       -2   -1    0    0    0  501  0.00000000000E+00  0.00000000000E+00  0.86005796410E+03  0.86005796411E+03  0.25500000920E-02 0.  1.
        2   -1    0    0  501    0  0.00000000000E+00  0.00000000000E+00 -0.11663835986E+04  0.11663835986E+04  0.25500000920E-02 0. -1.
    10030    2    1    2    0    0  0.00000000000E+00  0.00000000000E+00 -0.30632563449E+03  0.20264415627E+04  0.20031550146E+04 0.  0.
        1    1    3    3  502    0  0.33810248791E+03 -0.93366093048E+03 -0.28553299387E+03  0.10332304274E+04  0.50400001928E-02 0.  1.
       -1    1    3    3    0  502 -0.33810248791E+03  0.93366093048E+03 -0.20792640626E+02  0.99321113534E+03  0.50400001928E-02 0. -1.
</event>
<event>
 5   0  0.9333353E-06  0.2002076E+04  0.7818609E-02  0.8605651E-01
        1   -1    0    0  501    0  0.00000000000E+00  0.00000000000E+00  0.12469862464E+04  0.12469862464E+04  0.50400001928E-02 0. -1.
       -1   -1    0    0    0  501  0.00000000000E+00  0.00000000000E+00 -0.80359930819E+03  0.80359930821E+03  0.50400001928E-02 0.  1.
    10030    2    1    2    0    0  0.00000000000E+00  0.00000000000E+00  0.44338693816E+03  0.20505855546E+04  0.20020762073E+04 0.  0.
        2    1    3    3  502    0  0.61738513969E+03 -0.63751181072E+03  0.69604728495E+03  0.11278597175E+04  0.25500000920E-02 0. -1.
       -2    1    3    3    0  502 -0.61738513969E+03  0.63751181072E+03 -0.25266034679E+03  0.92272583705E+03  0.25500000920E-02 0.  1.
</event>
<event>
 5   0  0.1979765E-05  0.2001299E+04  0.7818609E-02  0.8606013E-01
       -2   -1    0    0    0  501  0.00000000000E+00  0.00000000000E+00  0.97931992059E+03  0.97931992059E+03  0.25500000920E-02 0. -1.
        2   -1    0    0  501    0  0.00000000000E+00  0.00000000000E+00 -0.10224439484E+04  0.10224439484E+04  0.25500000920E-02 0.  1.
    10030    2    1    2    0    0  0.00000000000E+00  0.00000000000E+00 -0.43124027806E+02  0.20017638690E+04  0.20012993043E+04 0.  0.
        2    1    3    3  502    0 -0.28274636964E+03 -0.13045520272E+03 -0.97274840745E+03  0.10213733566E+04  0.25500000920E-02 0.  1.
       -2    1    3    3    0  502  0.28274636964E+03  0.13045520272E+03  0.92962437964E+03  0.98039051234E+03  0.25500000920E-02 0. -1.
</event>
<event>
 5   0  0.9370269E-06  0.2015319E+04  0.7818609E-02  0.8599492E-01
       -1   -1    0    0    0  501  0.00000000000E+00  0.00000000000E+00  0.87476164269E+03  0.87476164270E+03  0.50400001928E-02 0. -1.
        1   -1    0    0  501    0  0.00000000000E+00  0.00000000000E+00 -0.11607475716E+04  0.11607475716E+04  0.50400001928E-02 0.  1.
    10030    2    1    2    0    0  0.00000000000E+00  0.00000000000E+00 -0.28598592892E+03  0.20355092143E+04  0.20153187862E+04 0.  0.
        4    1    3    3  502    0  0.85516463149E+03 -0.42410701158E+03  0.18304521725E+03  0.97194674169E+03  0.12699999809E+01 0.  1.
       -4    1    3    3    0  502 -0.85516463149E+03  0.42410701158E+03 -0.46903114618E+03  0.10635624726E+04  0.12699999809E+01 0. -1.
</event>
<event>
 5   0  0.2020029E-05  0.1996094E+04  0.7818609E-02  0.8608449E-01
       -2   -1    0    0    0  501  0.00000000000E+00  0.00000000000E+00  0.85210416298E+03  0.85210416298E+03  0.25500000920E-02 0. -1.
        2   -1    0    0  501    0  0.00000000000E+00  0.00000000000E+00 -0.11689865087E+04  0.11689865087E+04  0.25500000920E-02 0.  1.
    10030    2    1    2    0    0  0.00000000000E+00  0.00000000000E+00 -0.31688234573E+03  0.20210906717E+04  0.19960944572E+04 0.  0.
        5    1    3    3  502    0 -0.80015382748E+03 -0.94319414322E+02  0.43794568698E+03  0.91703915636E+03  0.46999998093E+01 0. -1.
       -5    1    3    3    0  502  0.80015382748E+03  0.94319414322E+02 -0.75482803272E+03  0.11040515153E+04  0.46999998093E+01 0.  1.
</event>
<event>
 5   0  0.9370269E-06  0.1999035E+04  0.7818609E-02  0.8607072E-01
       -1   -1    0    0    0  501  0.00000000000E+00  0.00000000000E+00  0.36664044462E+03  0.36664044466E+03  0.50400001928E-02 0.  1.
        1   -1    0    0  501    0  0.00000000000E+00  0.00000000000E+00 -0.27248360424E+04  0.27248360424E+04  0.50400001928E-02 0. -1.
    10030    2    1    2    0    0  0.00000000000E+00  0.00000000000E+00 -0.23581955978E+04  0.30914764871E+04  0.19990348653E+04 0.  0.
        4    1    3    3  502    0  0.77476708542E+03 -0.63016921173E+03 -0.11161611377E+04  0.14977298055E+04  0.12699999809E+01 0. -1.
       -4    1    3    3    0  502 -0.77476708542E+03  0.63016921173E+03 -0.12420344601E+04  0.15937466816E+04  0.12699999809E+01 0.  1.
</event>
<event>
 5   0  0.1999142E-05  0.1998592E+04  0.7818609E-02  0.8607279E-01
        2   -1    0    0  501    0  0.00000000000E+00  0.00000000000E+00  0.10138745813E+04  0.10138745813E+04  0.25500000920E-02 0. -1.
       -2   -1    0    0    0  501  0.00000000000E+00  0.00000000000E+00 -0.98492718962E+03  0.98492718963E+03  0.25500000920E-02 0.  1.
    10030    2    1    2    0    0  0.00000000000E+00  0.00000000000E+00  0.28947391683E+02  0.19988017709E+04  0.19985921465E+04 0.  0.
        1    1    3    3  502    0  0.18168113219E+03  0.93378861880E+03 -0.29153784676E+03  0.99496911234E+03  0.50400001928E-02 0.  1.
       -1    1    3    3    0  502 -0.18168113219E+03 -0.93378861880E+03  0.32048523844E+03  0.10038326586E+04  0.50400001928E-02 0. -1.
</event>
<event>
 5   0  0.9333353E-06  0.1997367E+04  0.7818609E-02  0.8607852E-01
        1   -1    0    0  501    0  0.00000000000E+00  0.00000000000E+00  0.78836702971E+03  0.78836702973E+03  0.50400001928E-02 0.  1.
       -1   -1    0    0    0  501  0.00000000000E+00  0.00000000000E+00 -0.12651076191E+04  0.12651076191E+04  0.50400001928E-02 0. -1.
    10030    2    1    2    0    0  0.00000000000E+00  0.00000000000E+00 -0.47674058934E+03  0.20534746488E+04  0.19973674033E+04 0.  0.
        2    1    3    3  502    0 -0.34498320841E+03 -0.52892687020E+02 -0.12003676301E+04  0.12500773968E+04  0.25500000920E-02 0. -1.
       -2    1    3    3    0  502  0.34498320841E+03  0.52892687020E+02  0.72362704078E+03  0.80339725204E+03  0.25500000920E-02 0.  1.
</event>
<event>
 5   0  0.9333353E-06  0.1994008E+04  0.7818609E-02  0.8609427E-01
        1   -1    0    0  501    0  0.00000000000E+00  0.00000000000E+00  0.19644461669E+04  0.19644461669E+04  0.50400001928E-02 0.  1.
       -1   -1    0    0    0  501  0.00000000000E+00  0.00000000000E+00 -0.50600342939E+03  0.50600342942E+03  0.50400001928E-02 0. -1.
    10030    2    1    2    0    0  0.00000000000E+00  0.00000000000E+00  0.14584427375E+04  0.24704495963E+04  0.19940075199E+04 0.  0.
        2    1    3    3  502    0 -0.64742067261E+03 -0.47181284886E+03  0.14645443888E+04  0.16693265584E+04  0.25500000920E-02 0.  1.
       -2    1    3    3    0  502  0.64742067261E+03  0.47181284886E+03 -0.61016513826E+01  0.80112303788E+03  0.25500000920E-02 0. -1.
</event>
<event>
 5   0  0.9220260E-06  0.1999964E+04  0.7818609E-02  0.8606638E-01
        1   -1    0    0  501    0  0.00000000000E+00  0.00000000000E+00  0.86538787573E+03  0.86538787574E+03  0.50400001928E-02 0.  1.
       -1   -1    0    0    0  501  0.00000000000E+00  0.00000000000E+00 -0.11555094432E+04  0.11555094432E+04  0.50400001928E-02 0. -1.
    10030    2    1    2    0    0  0.00000000000E+00  0.00000000000E+00 -0.29012156748E+03  0.20208973190E+04  0.19999638621E+04 0.  0.
        3    1    3    3  502    0 -0.71590435437E+03 -0.63681172747E+03  0.14414401241E+03  0.96893019736E+03  0.10100000352E+00 0.  1.
       -3    1    3    3    0  502  0.71590435437E+03  0.63681172747E+03 -0.43426557988E+03  0.10519671216E+04  0.10100000352E+00 0. -1.
</event>
<event>
 5   0  0.9342635E-06  0.2000692E+04  0.7818609E-02  0.8606297E-01
        1   -1    0    0  501    0  0.00000000000E+00  0.00000000000E+00  0.14116388756E+04  0.14116388756E+04  0.50400001928E-02 0.  1.
       -1   -1    0    0    0  501  0.00000000000E+00  0.00000000000E+00 -0.70888651401E+03  0.70888651402E+03  0.50400001928E-02 0. -1.
    10030    2    1    2    0    0  0.00000000000E+00  0.00000000000E+00  0.70275236160E+03  0.21205253896E+04  0.20006916420E+04 0.  0.
        5    1    3    3  502    0 -0.54947772912E+03 -0.54150754172E+02  0.12354919748E+04  0.13532629414E+04  0.46999998093E+01 0.  1.
       -5    1    3    3    0  502  0.54947772912E+03  0.54150754172E+02 -0.53273961317E+03  0.76726244819E+03  0.46999998093E+01 0. -1.
</event>
<event>
 5   0  0.9370269E-06  0.1999382E+04  0.7818609E-02  0.8606909E-01
        1   -1    0    0  501    0  0.00000000000E+00  0.00000000000E+00  0.77527202118E+03  0.77527202120E+03  0.50400001928E-02 0. -1.
       -1   -1    0    0    0  501  0.00000000000E+00  0.00000000000E+00 -0.12890733104E+04  0.12890733104E+04  0.50400001928E-02 0.  1.
    10030    2    1    2    0    0  0.00000000000E+00  0.00000000000E+00 -0.51380128921E+03  0.20643453316E+04  0.19993823755E+04 0.  0.
        4    1    3    3  502    0  0.23378886129E+03  0.89824882582E+03 -0.64027723272E+03  0.11275924496E+04  0.12699999809E+01 0.  1.
       -4    1    3    3    0  502 -0.23378886129E+03 -0.89824882582E+03  0.12647594351E+03  0.93675288200E+03  0.12699999809E+01 0. -1.
</event>
<event>
 5   0  0.2003576E-05  0.2026343E+04  0.7818609E-02  0.8594403E-01
        2   -1    0    0  501    0  0.00000000000E+00  0.00000000000E+00  0.15507321630E+04  0.15507321630E+04  0.25500000920E-02 0.  1.
       -2   -1    0    0    0  501  0.00000000000E+00  0.00000000000E+00 -0.66195575879E+03  0.66195575879E+03  0.25500000920E-02 0. -1.
    10030    2    1    2    0    0  0.00000000000E+00  0.00000000000E+00  0.88877640418E+03  0.22126879218E+04  0.20263426024E+04 0.  0.
        4    1    3    3  502    0 -0.93601705516E+03 -0.26003439042E+02  0.21881865753E+02  0.93663468618E+03  0.12699999809E+01 0. -1.
       -4    1    3    3    0  502  0.93601705516E+03  0.26003439042E+02  0.86689453843E+03  0.12760532356E+04  0.12699999809E+01 0.  1.
</event>
<event>
 5   0  0.1999142E-05  0.2000865E+04  0.7818609E-02  0.8606216E-01
       -2   -1    0    0    0  501  0.00000000000E+00  0.00000000000E+00  0.39879641958E+03  0.39879641959E+03  0.25500000920E-02 0.  1.
        2   -1    0    0  501    0  0.00000000000E+00  0.00000000000E+00 -0.25097148711E+04  0.25097148711E+04  0.25500000920E-02 0. -1.
    10030    2    1    2    0    0  0.00000000000E+00  0.00000000000E+00 -0.21109184515E+04  0.29085112907E+04  0.20008651177E+04 0.  0.
        1    1    3    3  502    0  0.29344700299E+03  0.34355459047E+03 -0.23529581344E+04  0.23959450917E+04  0.50400001928E-02 0. -1.
       -1    1    3    3    0  502 -0.29344700299E+03 -0.34355459047E+03  0.24203968291E+03  0.51256619897E+03  0.50400001928E-02 0.  1.
</event>
<event>
 5   0  0.2020029E-05  0.2008046E+04  0.7818609E-02  0.8602868E-01
        2   -1    0    0  501    0  0.00000000000E+00  0.00000000000E+00  0.10761952700E+04  0.10761952700E+04  0.25500000920E-02 0.  1.
       -2   -1    0    0    0  501  0.00000000000E+00  0.00000000000E+00 -0.93669055874E+03  0.93669055874E+03  0.25500000920E-02 0. -1.
    10030    2    1    2    0    0  0.00000000000E+00  0.00000000000E+00  0.13950471128E+03  0.20128858288E+04  0.20080457652E+04 0.  0.
        5    1    3    3  502    0  0.30361363643E+03  0.42436818273E+03  0.92959038965E+03  0.10660346980E+04  0.46999998093E+01 0.  1.
       -5    1    3    3    0  502 -0.30361363643E+03 -0.42436818273E+03 -0.79008567837E+03  0.94685113080E+03  0.46999998093E+01 0. -1.
</event>
<event>
 5   0  0.1979765E-05  0.2000183E+04  0.7818609E-02  0.8606535E-01
       -2   -1    0    0    0  501  0.00000000000E+00  0.00000000000E+00  0.83872276330E+03  0.83872276330E+03  0.25500000920E-02 0.  1.
        2   -1    0    0  501    0  0.00000000000E+00  0.00000000000E+00 -0.11925074968E+04  0.11925074968E+04  0.25500000920E-02 0. -1.
    10030    2    1    2    0    0  0.00000000000E+00  0.00000000000E+00 -0.35378473353E+03  0.20312302601E+04  0.20001831746E+04 0.  0.
        2    1    3    3  502    0  0.55138839650E+03 -0.81197223974E+03 -0.37184907867E+03  0.10495712549E+04  0.25500000920E-02 0.  1.
       -2    1    3    3    0  502 -0.55138839650E+03  0.81197223974E+03  0.18064345138E+02  0.98165900519E+03  0.25500000920E-02 0. -1.
</event>
<event>
 5   0  0.9333353E-06  0.2005400E+04  0.7818609E-02  0.8604100E-01
       -1   -1    0    0    0  501  0.00000000000E+00  0.00000000000E+00  0.55404775036E+03  0.55404775038E+03  0.50400001928E-02 0. -1.
        1   -1    0    0  501    0  0.00000000000E+00  0.00000000000E+00 -0.18146585089E+04  0.18146585089E+04  0.50400001928E-02 0.  1.
    10030    2    1    2    0    0  0.00000000000E+00  0.00000000000E+00 -0.12606107585E+04  0.23687062593E+04  0.20054001741E+04 0.  0.
        2    1    3    3  502    0  0.54827346151E+03 -0.21591470528E+03  0.32795601055E+03  0.67437237000E+03  0.25500000920E-02 0. -1.
       -2    1    3    3    0  502 -0.54827346151E+03  0.21591470528E+03 -0.15885667690E+04  0.16943338893E+04  0.25500000920E-02 0.  1.
</event>
<event>
 5   0  0.9140695E-06  0.1999164E+04  0.7818609E-02  0.8607012E-01
        1   -1    0    0  501    0  0.00000000000E+00  0.00000000000E+00  0.15281229829E+04  0.15281229829E+04  0.50400001928E-02 0. -1.
       -1   -1    0    0    0  501  0.00000000000E+00  0.00000000000E+00 -0.65385043231E+03  0.65385043233E+03  0.50400001928E-02 0.  1.
    10030    2    1    2    0    0  0.00000000000E+00  0.00000000000E+00  0.87427255057E+03  0.21819734152E+04  0.19991636982E+04 0.  0.
        1    1    3    3  502    0  0.92566665451E+03  0.36009788348E+03  0.55981871301E+03  0.11401430754E+04  0.50400001928E-02 0. -1.
       -1    1    3    3    0  502 -0.92566665451E+03 -0.36009788348E+03  0.31445383756E+03  0.10418303398E+04  0.50400001928E-02 0.  1.
</event>
<event>
 5   0  0.2020029E-05  0.1999862E+04  0.7818609E-02  0.8606685E-01
       -2   -1    0    0    0  501  0.00000000000E+00  0.00000000000E+00  0.92624342642E+03  0.92624342642E+03  0.25500000920E-02 0.  1.
        2   -1    0    0  501    0  0.00000000000E+00  0.00000000000E+00 -0.10794803722E+04  0.10794803722E+04  0.25500000920E-02 0. -1.
    10030    2    1    2    0    0  0.00000000000E+00  0.00000000000E+00 -0.15323694578E+03  0.20057237986E+04  0.19998615939E+04 0.  0.
        5    1    3    3  502    0  0.23276220416E+03  0.63495355477E+03  0.66208332622E+03  0.94642521166E+03  0.46999998093E+01 0.  1.
       -5    1    3    3    0  502 -0.23276220416E+03 -0.63495355477E+03 -0.81532027201E+03  0.10592985870E+04  0.46999998093E+01 0. -1.
</event>
<event>
 5   0  0.1999142E-05  0.2000833E+04  0.7818609E-02  0.8606231E-01
       -2   -1    0    0    0  501  0.00000000000E+00  0.00000000000E+00  0.92237692767E+03  0.92237692768E+03  0.25500000920E-02 0. -1.
        2   -1    0    0  501    0  0.00000000000E+00  0.00000000000E+00 -0.10850583438E+04  0.10850583438E+04  0.25500000920E-02 0.  1.
    10030    2    1    2    0    0  0.00000000000E+00  0.00000000000E+00 -0.16268141616E+03  0.20074352715E+04  0.20008326082E+04 0.  0.
        1    1    3    3  502    0  0.70781927310E+03 -0.27760480230E+03 -0.73368648872E+03  0.10565833679E+04  0.50400001928E-02 0.  1.
       -1    1    3    3    0  502 -0.70781927310E+03  0.27760480230E+03  0.57100507256E+03  0.95085190358E+03  0.50400001928E-02 0. -1.
</event>
<event>
 5   0  0.9342635E-06  0.1998197E+04  0.7818609E-02  0.8607464E-01
       -1   -1    0    0    0  501  0.00000000000E+00  0.00000000000E+00  0.64810468949E+03  0.64810468951E+03  0.50400001928E-02 0. -1.
        1   -1    0    0  501    0  0.00000000000E+00  0.00000000000E+00 -0.15401794305E+04  0.15401794305E+04  0.50400001928E-02 0.  1.
    10030    2    1    2    0    0  0.00000000000E+00  0.00000000000E+00 -0.89207474101E+03  0.21882841200E+04  0.19981966986E+04 0.  0.
        5    1    3    3  502    0  0.70694742090E+03 -0.85423615781E+02  0.32141603565E+03  0.78128241246E+03  0.46999998093E+01 0. -1.
       -5    1    3    3    0  502 -0.70694742090E+03  0.85423615781E+02 -0.12134907767E+04  0.14070017076E+04  0.46999998093E+01 0.  1.
</event>
<event>
 5   0  0.9220260E-06  0.1998484E+04  0.7818609E-02  0.8607330E-01
       -1   -1    0    0    0  501  0.00000000000E+00  0.00000000000E+00  0.61866861520E+03  0.61866861522E+03  0.50400001928E-02 0. -1.
        1   -1    0    0  501    0  0.00000000000E+00  0.00000000000E+00 -0.16139249746E+04  0.16139249746E+04  0.50400001928E-02 0.  1.
    10030    2    1    2    0    0  0.00000000000E+00  0.00000000000E+00 -0.99525635939E+03  0.22325935898E+04  0.19984841546E+04 0.  0.
        3    1    3    3  502    0  0.30220431053E+02 -0.45304393241E+03  0.49676925907E+03  0.67300949927E+03  0.10100000352E+00 0. -1.
       -3    1    3    3    0  502 -0.30220431053E+02  0.45304393241E+03 -0.14920256185E+04  0.15595840905E+04  0.10100000352E+00 0.  1.
</event>
<event>
 5   0  0.2020029E-05  0.2000603E+04  0.7818609E-02  0.8606339E-01
       -2   -1    0    0    0  501  0.00000000000E+00  0.00000000000E+00  0.14585458382E+04  0.14585458382E+04  0.25500000920E-02 0.  1.
        2   -1    0    0  501    0  0.00000000000E+00  0.00000000000E+00 -0.68602818429E+03  0.68602818429E+03  0.25500000920E-02 0. -1.
    10030    2    1    2    0    0  0.00000000000E+00  0.00000000000E+00  0.77251765394E+03  0.21445740225E+04  0.20006034621E+04 0.  0.
        5    1    3    3  502    0  0.30689296046E+03  0.67585921457E+02 -0.63172866190E+03  0.70558793798E+03  0.46999998093E+01 0. -1.
       -5    1    3    3    0  502 -0.30689296046E+03 -0.67585921457E+02  0.14042463158E+04  0.14389860845E+04  0.46999998093E+01 0.  1.
</event>
<event>
 5   0  0.9220260E-06  0.1997712E+04  0.7818609E-02  0.8607691E-01
       -1   -1    0    0    0  501  0.00000000000E+00  0.00000000000E+00  0.59214403957E+03  0.59214403960E+03  0.50400001928E-02 0. -1.
        1   -1    0    0  501    0  0.00000000000E+00  0.00000000000E+00 -0.16849173061E+04  0.16849173061E+04  0.50400001928E-02 0.  1.
    10030    2    1    2    0    0  0.00000000000E+00  0.00000000000E+00 -0.10927732665E+04  0.22770613457E+04  0.19977124318E+04 0.  0.
        3    1    3    3  502    0  0.50458102306E+03 -0.79736129760E+03 -0.91980494452E+03  0.13177360107E+04  0.10100000352E+00 0.  1.
       -3    1    3    3    0  502 -0.50458102306E+03  0.79736129760E+03 -0.17296832200E+03  0.95932533499E+03  0.10100000352E+00 0. -1.
</event>
<event>
 5   0  0.2020029E-05  0.1998858E+04  0.7818609E-02  0.8607155E-01
       -2   -1    0    0    0  501  0.00000000000E+00  0.00000000000E+00  0.15976171778E+04  0.15976171778E+04  0.25500000920E-02 0. -1.
        2   -1    0    0  501    0  0.00000000000E+00  0.00000000000E+00 -0.62521774849E+03  0.62521774849E+03  0.25500000920E-02 0.  1.
    10030    2    1    2    0    0  0.00000000000E+00  0.00000000000E+00  0.97239942926E+03  0.22228349262E+04  0.19988582890E+04 0.  0.
        5    1    3    3  502    0 -0.50355081999E+03 -0.84670815198E+03  0.67346879728E+03  0.11933400328E+04  0.46999998093E+01 0. -1.
       -5    1    3    3    0  502  0.50355081999E+03  0.84670815198E+03  0.29893063198E+03  0.10294948935E+04  0.46999998093E+01 0.  1.
</event>
<event>
 5   0  0.9333353E-06  0.2000451E+04  0.7818609E-02  0.8606410E-01
       -1   -1    0    0    0  501  0.00000000000E+00  0.00000000000E+00  0.63257239104E+03  0.63257239106E+03  0.50400001928E-02 0.  1.
        1   -1    0    0  501    0  0.00000000000E+00  0.00000000000E+00 -0.15815593719E+04  0.15815593719E+04  0.50400001928E-02 0. -1.
    10030    2    1    2    0    0  0.00000000000E+00  0.00000000000E+00 -0.94898698082E+03  0.22141317629E+04  0.20004507427E+04 0.  0.
        2    1    3    3  502    0  0.87710875449E+01  0.48341487123E+03  0.49464039418E+03  0.69169067455E+03  0.25500000920E-02 0.  1.
       -2    1    3    3    0  502 -0.87710875449E+01 -0.48341487123E+03 -0.14436273750E+04  0.15224410884E+04  0.25500000920E-02 0. -1.
</event>
<event>
 5   0  0.1999142E-05  0.2001304E+04  0.7818609E-02  0.8606011E-01
        2   -1    0    0  501    0  0.00000000000E+00  0.00000000000E+00  0.97981812216E+03  0.97981812216E+03  0.25500000920E-02 0.  1.
       -2   -1    0    0    0  501  0.00000000000E+00  0.00000000000E+00 -0.10219289096E+04  0.10219289096E+04  0.25500000920E-02 0. -1.
    10030    2    1    2    0    0  0.00000000000E+00  0.00000000000E+00 -0.42110787487E+02  0.20017470318E+04  0.20013040401E+04 0.  0.
        1    1    3    3  502    0 -0.25807935197E+03  0.20471364364E+03 -0.96614116912E+03  0.10207553020E+04  0.50400001928E-02 0. -1.
       -1    1    3    3    0  502  0.25807935197E+03 -0.20471364364E+03  0.92403038163E+03  0.98099172984E+03  0.50400001928E-02 0.  1.
</event>
<event>
 5   0  0.9333353E-06  0.1996943E+04  0.7818609E-02  0.8608051E-01
       -1   -1    0    0    0  501  0.00000000000E+00  0.00000000000E+00  0.51486501146E+03  0.51486501148E+03  0.50400001928E-02 0.  1.
        1   -1    0    0  501    0  0.00000000000E+00  0.00000000000E+00 -0.19363237748E+04  0.19363237748E+04  0.50400001928E-02 0. -1.
    10030    2    1    2    0    0  0.00000000000E+00  0.00000000000E+00 -0.14214587634E+04  0.24511887863E+04  0.19969430263E+04 0.  0.
        2    1    3    3  502    0  0.21065338489E+03  0.92628609755E+03 -0.33326555840E+03  0.10067009067E+04  0.25500000920E-02 0.  1.
       -2    1    3    3    0  502 -0.21065338489E+03 -0.92628609755E+03 -0.10881932050E+04  0.14444878796E+04  0.25500000920E-02 0. -1.
</event>
<event>
 5   0  0.2003576E-05  0.1993846E+04  0.7818609E-02  0.8609503E-01
       -2   -1    0    0    0  501  0.00000000000E+00  0.00000000000E+00  0.62973526048E+03  0.62973526049E+03  0.25500000920E-02 0.  1.
        2   -1    0    0  501    0  0.00000000000E+00  0.00000000000E+00 -0.15782119282E+04  0.15782119282E+04  0.25500000920E-02 0. -1.
    10030    2    1    2    0    0  0.00000000000E+00  0.00000000000E+00 -0.94847666775E+03  0.22079471887E+04  0.19938462325E+04 0.  0.
        4    1    3    3  502    0  0.57606938284E+03 -0.80340085127E+03 -0.61667879154E+03  0.11651623091E+04  0.12699999809E+01 0. -1.
       -4    1    3    3    0  502 -0.57606938284E+03  0.80340085127E+03 -0.33179787621E+03  0.10427848796E+04  0.12699999809E+01 0.  1.
</event>
<event>
 5   0  0.9370269E-06  0.2002779E+04  0.7818609E-02  0.8605323E-01
       -1   -1    0    0    0  501  0.00000000000E+00  0.00000000000E+00  0.79773321885E+03  0.79773321887E+03  0.50400001928E-02 0.  1.
        1   -1    0    0  501    0  0.00000000000E+00  0.00000000000E+00 -0.12570379227E+04  0.12570379227E+04  0.50400001928E-02 0. -1.
    10030    2    1    2    0    0  0.00000000000E+00  0.00000000000E+00 -0.45930470389E+03  0.20547711416E+04  0.20027789777E+04 0.  0.
        4    1    3    3  502    0  0.15370465533E+03 -0.41394295938E+02  0.78466916868E+03  0.80065343688E+03  0.12699999809E+01 0.  1.
       -4    1    3    3    0  502 -0.15370465533E+03  0.41394295938E+02 -0.12439738726E+04  0.12541177047E+04  0.12699999809E+01 0. -1.
</event>
<event>
 5   0  0.9333353E-06  0.2002551E+04  0.7818609E-02  0.8605429E-01
        1   -1    0    0  501    0  0.00000000000E+00  0.00000000000E+00  0.13338436554E+04  0.13338436554E+04  0.50400001928E-02 0. -1.
       -1   -1    0    0    0  501  0.00000000000E+00  0.00000000000E+00 -0.75162699604E+03  0.75162699606E+03  0.50400001928E-02 0.  1.
    10030    2    1    2    0    0  0.00000000000E+00  0.00000000000E+00  0.58221665933E+03  0.20854706514E+04  0.20025512727E+04 0.  0.
        2    1    3    3  502    0 -0.38272317108E+03 -0.50318849223E+03  0.10997104457E+04  0.12684789114E+04  0.25500000920E-02 0. -1.
       -2    1    3    3    0  502  0.38272317108E+03  0.50318849223E+03 -0.51749378633E+03  0.81699174004E+03  0.25500000920E-02 0.  1.
</event>
<event>
 5   0  0.9220260E-06  0.1996854E+04  0.7818609E-02  0.8608093E-01
        1   -1    0    0  501    0  0.00000000000E+00  0.00000000000E+00  0.11771655215E+04  0.11771655215E+04  0.50400001928E-02 0. -1.
       -1   -1    0    0    0  501  0.00000000000E+00  0.00000000000E+00 -0.84682769110E+03  0.84682769111E+03  0.50400001928E-02 0.  1.
    10030    2    1    2    0    0  0.00000000000E+00  0.00000000000E+00  0.33033783036E+03  0.20239932126E+04  0.19968538861E+04 0.  0.
        3    1    3    3  502    0  0.77253925427E+03  0.59754967632E+03 -0.44949841176E+02  0.97770292701E+03  0.10100000352E+00 0.  1.
       -3    1    3    3    0  502 -0.77253925427E+03 -0.59754967632E+03  0.37528767153E+03  0.10462902856E+04  0.10100000352E+00 0. -1.
</event>
<event>
 5   0  0.9333353E-06  0.1995341E+04  0.7818609E-02  0.8608802E-01
        1   -1    0    0  501    0  0.00000000000E+00  0.00000000000E+00  0.50708615108E+03  0.50708615110E+03  0.50400001928E-02 0.  1.
       -1   -1    0    0    0  501  0.00000000000E+00  0.00000000000E+00 -0.19628748439E+04  0.19628748439E+04  0.50400001928E-02 0. -1.
    10030    2    1    2    0    0  0.00000000000E+00  0.00000000000E+00 -0.14557886928E+04  0.24699609950E+04  0.19953412236E+04 0.  0.
        2    1    3    3  502    0 -0.79457702854E+03  0.52616930971E+03 -0.36248358680E+03  0.10196083304E+04  0.25500000920E-02 0.  1.
       -2    1    3    3    0  502  0.79457702854E+03 -0.52616930971E+03 -0.10933051060E+04  0.14503526645E+04  0.25500000920E-02 0. -1.
</event>
<event>
 5   0  0.9220260E-06  0.2003353E+04  0.7818609E-02  0.8605055E-01
       -1   -1    0    0    0  501  0.00000000000E+00  0.00000000000E+00  0.88017944295E+03  0.88017944296E+03  0.50400001928E-02 0.  1.
        1   -1    0    0  501    0  0.00000000000E+00  0.00000000000E+00 -0.11399448228E+04  0.11399448228E+04  0.50400001928E-02 0. -1.
    10030    2    1    2    0    0  0.00000000000E+00  0.00000000000E+00 -0.25976537987E+03  0.20201242658E+04  0.20033531882E+04 0.  0.
        3    1    3    3  502    0  0.17847690415E+03 -0.31358786896E+03  0.81237270340E+03  0.88889863106E+03  0.10100000352E+00 0.  1.
       -3    1    3    3    0  502 -0.17847690415E+03  0.31358786896E+03 -0.10721380833E+04  0.11312256347E+04  0.10100000352E+00 0. -1.
</event>
<event>
 5   0  0.9342635E-06  0.2004359E+04  0.7818609E-02  0.8604585E-01
        1   -1    0    0  501    0  0.00000000000E+00  0.00000000000E+00  0.10483110134E+04  0.10483110134E+04  0.50400001928E-02 0. -1.
       -1   -1    0    0    0  501  0.00000000000E+00  0.00000000000E+00 -0.95807848162E+03  0.95807848163E+03  0.50400001928E-02 0.  1.
    10030    2    1    2    0    0  0.00000000000E+00  0.00000000000E+00  0.90232531789E+02  0.20063894951E+04  0.20043594728E+04 0.  0.
        5    1    3    3  502    0  0.42794756065E+03  0.42021525190E+03 -0.75858055121E+03  0.96705042023E+03  0.46999998093E+01 0.  1.
       -5    1    3    3    0  502 -0.42794756065E+03 -0.42021525190E+03  0.84881308300E+03  0.10393390748E+04  0.46999998093E+01 0. -1.
</event>
<event>
 5   0  0.9342635E-06  0.2002292E+04  0.7818609E-02  0.8605550E-01
        1   -1    0    0  501    0  0.00000000000E+00  0.00000000000E+00  0.10742944688E+04  0.10742944688E+04  0.50400001928E-02 0.  1.
       -1   -1    0    0    0  501  0.00000000000E+00  0.00000000000E+00 -0.93297865764E+03  0.93297865765E+03  0.50400001928E-02 0. -1.
    10030    2    1    2    0    0  0.00000000000E+00  0.00000000000E+00  0.14131581115E+03  0.20072731265E+04  0.20022924975E+04 0.  0.
        5    1    3    3  502    0  0.70896646968E+02  0.61802738141E+03 -0.71569593337E+03  0.94827577095E+03  0.46999998093E+01 0. -1.
       -5    1    3    3    0  502 -0.70896646968E+02 -0.61802738141E+03  0.85701174452E+03  0.10589973555E+04  0.46999998093E+01 0.  1.
</event>
<event>
 5   0  0.9342635E-06  0.2001473E+04  0.7818609E-02  0.8605932E-01
        1   -1    0    0  501    0  0.00000000000E+00  0.00000000000E+00  0.26554534512E+04  0.26554534512E+04  0.50400001928E-02 0. -1.
       -1   -1    0    0    0  501  0.00000000000E+00  0.00000000000E+00 -0.37713851867E+03  0.37713851870E+03  0.50400001928E-02 0.  1.
    10030    2    1    2    0    0  0.00000000000E+00  0.00000000000E+00  0.22783149326E+04  0.30325919699E+04  0.20014732384E+04 0.  0.
        5    1    3    3  502    0 -0.66876194633E+02 -0.25145980943E+03 -0.32496989367E+03  0.41633157814E+03  0.46999998093E+01 0.  1.
       -5    1    3    3    0  502  0.66876194633E+02  0.25145980943E+03  0.26032848262E+04  0.26162603918E+04  0.46999998093E+01 0. -1.
</event>
<event>
 5   0  0.2003576E-05  0.1990367E+04  0.7818609E-02  0.8611138E-01
        2   -1    0    0  501    0  0.00000000000E+00  0.00000000000E+00  0.60888967401E+03  0.60888967402E+03  0.25500000920E-02 0. -1.
       -2   -1    0    0    0  501  0.00000000000E+00  0.00000000000E+00 -0.16265506209E+04  0.16265506209E+04  0.25500000920E-02 0.  1.
    10030    2    1    2    0    0  0.00000000000E+00  0.00000000000E+00 -0.10176609468E+04  0.22354402949E+04  0.19903666771E+04 0.  0.
        4    1    3    3  502    0  0.50172710889E+03  0.83062016522E+03 -0.26090527225E+03  0.10048547779E+04  0.12699999809E+01 0.  1.
       -4    1    3    3    0  502 -0.50172710889E+03 -0.83062016522E+03 -0.75675567460E+03  0.12305855170E+04  0.12699999809E+01 0. -1.
</event>
<event>
 5   0  0.9370269E-06  0.2001598E+04  0.7818609E-02  0.8605874E-01
       -1   -1    0    0    0  501  0.00000000000E+00  0.00000000000E+00  0.53007313443E+03  0.53007313445E+03  0.50400001928E-02 0. -1.
        1   -1    0    0  501    0  0.00000000000E+00  0.00000000000E+00 -0.18895480183E+04  0.18895480184E+04  0.50400001928E-02 0.  1.
    10030    2    1    2    0    0  0.00000000000E+00  0.00000000000E+00 -0.13594748839E+04  0.24196211528E+04  0.20015980024E+04 0.  0.
        4    1    3    3  502    0  0.87471651428E+03 -0.40034056166E+03 -0.34605364048E+03  0.10223288515E+04  0.12699999809E+01 0. -1.
       -4    1    3    3    0  502 -0.87471651428E+03  0.40034056166E+03 -0.10134212434E+04  0.13972923013E+04  0.12699999809E+01 0.  1.
</event>
<event>
 5   0  0.2038882E-05  0.2005344E+04  0.7818609E-02  0.8604126E-01
        2   -1    0    0  501    0  0.00000000000E+00  0.00000000000E+00  0.15961946511E+04  0.15961946511E+04  0.25500000920E-02 0.  1.
       -2   -1    0    0    0  501  0.00000000000E+00  0.00000000000E+00 -0.62984213537E+03  0.62984213537E+03  0.25500000920E-02 0. -1.
    10030    2    1    2    0    0  0.00000000000E+00  0.00000000000E+00  0.96635251572E+03  0.22260367865E+04  0.20053435092E+04 0.  0.
        3    1    3    3  502    0 -0.27102734127E+03 -0.67854726579E+03 -0.27902536126E+03  0.78213641653E+03  0.10100000352E+00 0. -1.
       -3    1    3    3    0  502  0.27102734127E+03  0.67854726579E+03  0.12453778770E+04  0.14439003699E+04  0.10100000352E+00 0.  1.
</event>
<event>
 5   0  0.1999142E-05  0.1987445E+04  0.7818609E-02  0.8612513E-01
        2   -1    0    0  501    0  0.00000000000E+00  0.00000000000E+00  0.11981831687E+04  0.11981831687E+04  0.25500000920E-02 0.  1.
       -2   -1    0    0    0  501  0.00000000000E+00  0.00000000000E+00 -0.82415115991E+03  0.82415115991E+03  0.25500000920E-02 0. -1.
    10030    2    1    2    0    0  0.00000000000E+00  0.00000000000E+00  0.37403200876E+03  0.20223343286E+04  0.19874446390E+04 0.  0.
        1    1    3    3  502    0 -0.55678032819E+03 -0.13852569659E+03 -0.63857824046E+03  0.85847298833E+03  0.50400001928E-02 0. -1.
       -1    1    3    3    0  502  0.55678032819E+03  0.13852569659E+03  0.10126102492E+04  0.11638613403E+04  0.50400001928E-02 0.  1.
</event>
<event>
 5   0  0.9370269E-06  0.1993990E+04  0.7818609E-02  0.8609435E-01
       -1   -1    0    0    0  501  0.00000000000E+00  0.00000000000E+00  0.10763557963E+04  0.10763557963E+04  0.50400001928E-02 0. -1.
        1   -1    0    0  501    0  0.00000000000E+00  0.00000000000E+00 -0.92348596565E+03  0.92348596567E+03  0.50400001928E-02 0.  1.
    10030    2    1    2    0    0  0.00000000000E+00  0.00000000000E+00  0.15286983060E+03  0.19998417619E+04  0.19939904432E+04 0.  0.
        4    1    3    3  502    0 -0.54092532378E+03  0.65117841475E+03 -0.45176443348E+03  0.95954481397E+03  0.12699999809E+01 0.  1.
       -4    1    3    3    0  502  0.54092532378E+03 -0.65117841475E+03  0.60463426409E+03  0.10402969480E+04  0.12699999809E+01 0. -1.
</event>
<event>
 5   0  0.1999142E-05  0.2057233E+04  0.7818609E-02  0.8580320E-01
       -2   -1    0    0    0  501  0.00000000000E+00  0.00000000000E+00  0.10129182828E+04  0.10129182828E+04  0.25500000920E-02 0.  1.
        2   -1    0    0  501    0  0.00000000000E+00  0.00000000000E+00 -0.10445582291E+04  0.10445582291E+04  0.25500000920E-02 0. -1.
    10030    2    1    2    0    0  0.00000000000E+00  0.00000000000E+00 -0.31639946287E+02  0.20574765120E+04  0.20572332175E+04 0.  0.
        1    1    3    3  502    0 -0.39696309835E+02 -0.77258021594E+02  0.10092439350E+04  0.10129747871E+04  0.50400001928E-02 0.  1.
       -1    1    3    3    0  502  0.39696309835E+02  0.77258021594E+02 -0.10408838813E+04  0.10445017249E+04  0.50400001928E-02 0. -1.
</event>
<event>
 5   0  0.2038882E-05  0.2000486E+04  0.7818609E-02  0.8606394E-01
        2   -1    0    0  501    0  0.00000000000E+00  0.00000000000E+00  0.15665392644E+04  0.15665392644E+04  0.25500000920E-02 0.  1.
       -2   -1    0    0    0  501  0.00000000000E+00  0.00000000000E+00 -0.63865989281E+03  0.63865989282E+03  0.25500000920E-02 0. -1.
    10030    2    1    2    0    0  0.00000000000E+00  0.00000000000E+00  0.92787937161E+03  0.22051991572E+04  0.20004857397E+04 0.  0.
        3    1    3    3  502    0  0.80930595502E+03  0.46837761343E+03  0.85543369536E+03  0.12673281086E+04  0.10100000352E+00 0. -1.
       -3    1    3    3    0  502 -0.80930595502E+03 -0.46837761343E+03  0.72445676248E+02  0.93787104860E+03  0.10100000352E+00 0.  1.
</event>
<event>
 5   0  0.9333353E-06  0.1992417E+04  0.7818609E-02  0.8610174E-01
        1   -1    0    0  501    0  0.00000000000E+00  0.00000000000E+00  0.13907720901E+04  0.13907720901E+04  0.50400001928E-02 0. -1.
       -1   -1    0    0    0  501  0.00000000000E+00  0.00000000000E+00 -0.71358328243E+03  0.71358328245E+03  0.50400001928E-02 0.  1.
    10030    2    1    2    0    0  0.00000000000E+00  0.00000000000E+00  0.67718880763E+03  0.21043553725E+04  0.19924173390E+04 0.  0.
        2    1    3    3  502    0 -0.47920041749E+03 -0.26109494709E+03  0.12188624659E+04  0.13354509808E+04  0.25500000920E-02 0. -1.
       -2    1    3    3    0  502  0.47920041749E+03  0.26109494709E+03 -0.54167365823E+03  0.76890439168E+03  0.25500000920E-02 0.  1.
</event>
<event>
 5   0  0.2038882E-05  0.1998670E+04  0.7818609E-02  0.8607243E-01
       -2   -1    0    0    0  501  0.00000000000E+00  0.00000000000E+00  0.13220585328E+04  0.13220585328E+04  0.25500000920E-02 0.  1.
        2   -1    0    0  501    0  0.00000000000E+00  0.00000000000E+00 -0.75539071586E+03  0.75539071586E+03  0.25500000920E-02 0. -1.
    10030    2    1    2    0    0  0.00000000000E+00  0.00000000000E+00  0.56666781692E+03  0.20774492486E+04  0.19986702995E+04 0.  0.
        3    1    3    3  502    0  0.44875473630E+03 -0.43485423127E+03 -0.52727153182E+03  0.81761500370E+03  0.10100000352E+00 0. -1.
       -3    1    3    3    0  502 -0.44875473630E+03  0.43485423127E+03  0.10939393487E+04  0.12598342449E+04  0.10100000352E+00 0.  1.
</event>
<event>
 5   0  0.9370269E-06  0.1992551E+04  0.7818609E-02  0.8610111E-01
        1   -1    0    0  501    0  0.00000000000E+00  0.00000000000E+00  0.14178067088E+04  0.14178067088E+04  0.50400001928E-02 0.  1.
       -1   -1    0    0    0  501  0.00000000000E+00  0.00000000000E+00 -0.70007031201E+03  0.70007031203E+03  0.50400001928E-02 0. -1.
    10030    2    1    2    0    0  0.00000000000E+00  0.00000000000E+00  0.71773639683E+03  0.21178770209E+04  0.19925505113E+04 0.  0.
        4    1    3    3  502    0 -0.32234049672E+03  0.60864495808E+03 -0.40627827873E+03  0.79963475005E+03  0.12699999809E+01 0. -1.
       -4    1    3    3    0  502  0.32234049672E+03 -0.60864495808E+03  0.11240146756E+04  0.13182422708E+04  0.12699999809E+01 0.  1.
</event>
<event>
 5   0  0.9333353E-06  0.2001134E+04  0.7818609E-02  0.8606090E-01
        1   -1    0    0  501    0  0.00000000000E+00  0.00000000000E+00  0.12269359251E+04  0.12269359251E+04  0.50400001928E-02 0. -1.
       -1   -1    0    0    0  501  0.00000000000E+00  0.00000000000E+00 -0.81596337087E+03  0.81596337088E+03  0.50400001928E-02 0.  1.
    10030    2    1    2    0    0  0.00000000000E+00  0.00000000000E+00  0.41097255426E+03  0.20428992960E+04  0.20011344516E+04 0.  0.
        2    1    3    3  502    0  0.99698625632E+02  0.52655574282E+03 -0.65709439882E+03  0.84792323663E+03  0.25500000920E-02 0.  1.
       -2    1    3    3    0  502 -0.99698625632E+02 -0.52655574282E+03  0.10680669531E+04  0.11949760594E+04  0.25500000920E-02 0. -1.
</event>
<event>
 5   0  0.9140695E-06  0.2005750E+04  0.7818609E-02  0.8603937E-01
       -1   -1    0    0    0  501  0.00000000000E+00  0.00000000000E+00  0.92272288178E+03  0.92272288180E+03  0.50400001928E-02 0.  1.
        1   -1    0    0  501    0  0.00000000000E+00  0.00000000000E+00 -0.10899890968E+04  0.10899890968E+04  0.50400001928E-02 0. -1.
    10030    2    1    2    0    0  0.00000000000E+00  0.00000000000E+00 -0.16726621501E+03  0.20127119786E+04  0.20057496160E+04 0.  0.
        1    1    3    3  502    0 -0.39232395425E+02  0.70316323174E+03 -0.80010042135E+03  0.10658979293E+04  0.50400001928E-02 0. -1.
       -1    1    3    3    0  502  0.39232395425E+02 -0.70316323174E+03  0.63283420633E+03  0.94681404935E+03  0.50400001928E-02 0.  1.
</event>
<event>
 5   0  0.1999142E-05  0.2003747E+04  0.7818609E-02  0.8604871E-01
       -2   -1    0    0    0  501  0.00000000000E+00  0.00000000000E+00  0.55255831800E+03  0.55255831801E+03  0.25500000920E-02 0. -1.
        2   -1    0    0  501    0  0.00000000000E+00  0.00000000000E+00 -0.18165507484E+04  0.18165507484E+04  0.25500000920E-02 0.  1.
    10030    2    1    2    0    0  0.00000000000E+00  0.00000000000E+00 -0.12639924304E+04  0.23691090664E+04  0.20037467166E+04 0.  0.
        1    1    3    3  502    0  0.38467506643E+02 -0.47263672180E+03 -0.16754636571E+04  0.17412764531E+04  0.50400001928E-02 0.  1.
       -1    1    3    3    0  502 -0.38467506643E+02  0.47263672180E+03  0.41147122672E+03  0.62783261328E+03  0.50400001928E-02 0. -1.
</event>
<event>
 5   0  0.9140695E-06  0.1988883E+04  0.7818609E-02  0.8611836E-01
       -1   -1    0    0    0  501  0.00000000000E+00  0.00000000000E+00  0.74105673612E+03  0.74105673614E+03  0.50400001928E-02 0.  1.
        1   -1    0    0  501    0  0.00000000000E+00  0.00000000000E+00 -0.13344646049E+04  0.13344646049E+04  0.50400001928E-02 0. -1.
    10030    2    1    2    0    0  0.00000000000E+00  0.00000000000E+00 -0.59340786875E+03  0.20755213410E+04  0.19888830882E+04 0.  0.
        1    1    3    3  502    0 -0.32327392946E+03 -0.93884184244E+03 -0.35370899683E+03  0.10540588660E+04  0.50400001928E-02 0.  1.
       -1    1    3    3    0  502  0.32327392946E+03  0.93884184244E+03 -0.23969887191E+03  0.10214624750E+04  0.50400001928E-02 0. -1.
</event>
<event>
 5   0  0.9370269E-06  0.1999256E+04  0.7818609E-02  0.8606969E-01
        1   -1    0    0  501    0  0.00000000000E+00  0.00000000000E+00  0.85777112725E+03  0.85777112726E+03  0.50400001928E-02 0. -1.
       -1   -1    0    0    0  501  0.00000000000E+00  0.00000000000E+00 -0.11649450556E+04  0.11649450557E+04  0.50400001928E-02 0.  1.
    10030    2    1    2    0    0  0.00000000000E+00  0.00000000000E+00 -0.30717392840E+03  0.20227161829E+04  0.19992560952E+04 0.  0.
        4    1    3    3  502    0  0.79508969205E+03  0.27814934050E+03  0.39098555113E+03  0.92865816537E+03  0.12699999809E+01 0. -1.
       -4    1    3    3    0  502 -0.79508969205E+03 -0.27814934050E+03 -0.69815947953E+03  0.10940580176E+04  0.12699999809E+01 0.  1.
</event>
<event>
 5   0  0.1979765E-05  0.2001963E+04  0.7818609E-02  0.8605703E-01
       -2   -1    0    0    0  501  0.00000000000E+00  0.00000000000E+00  0.59795937806E+03  0.59795937807E+03  0.25500000920E-02 0. -1.
        2   -1    0    0  501    0  0.00000000000E+00  0.00000000000E+00 -0.16756391220E+04  0.16756391220E+04  0.25500000920E-02 0.  1.
    10030    2    1    2    0    0  0.00000000000E+00  0.00000000000E+00 -0.10776797439E+04  0.22735985001E+04  0.20019631638E+04 0.  0.
        2    1    3    3  502    0  0.69285677893E+01  0.83581838076E+03 -0.11643162389E+04  0.14332734124E+04  0.25500000920E-02 0.  1.
       -2    1    3    3    0  502 -0.69285677893E+01 -0.83581838076E+03  0.86636494925E+02  0.84032508765E+03  0.25500000920E-02 0. -1.
</event>
<event>
 5   0  0.1979765E-05  0.2003640E+04  0.7818609E-02  0.8604921E-01
       -2   -1    0    0    0  501  0.00000000000E+00  0.00000000000E+00  0.11284053854E+04  0.11284053854E+04  0.25500000920E-02 0. -1.
        2   -1    0    0  501    0  0.00000000000E+00  0.00000000000E+00 -0.88943503240E+03  0.88943503240E+03  0.25500000920E-02 0.  1.
    10030    2    1    2    0    0  0.00000000000E+00  0.00000000000E+00  0.23897035301E+03  0.20178404178E+04  0.20036399682E+04 0.  0.
        2    1    3    3  502    0 -0.58546181799E+03  0.47775427042E+03  0.78189191570E+03  0.10873682224E+04  0.25500000920E-02 0. -1.
       -2    1    3    3    0  502  0.58546181799E+03 -0.47775427042E+03 -0.54292156269E+03  0.93047219543E+03  0.25500000920E-02 0.  1.
</event>
<event>
 5   0  0.7132000E-06  0.2003540E+04  0.7818609E-02  0.8604967E-01
        4   -1    0    0  501    0  0.00000000000E+00  0.00000000000E+00  0.93277127956E+03  0.93277214413E+03  0.12699999809E+01 0.  1.
       -4   -1    0    0    0  501  0.00000000000E+00  0.00000000000E+00 -0.10758709396E+04  0.10758716891E+04  0.12699999809E+01 0. -1.
    10030    2    1    2    0    0  0.00000000000E+00  0.00000000000E+00 -0.14309966000E+03  0.20086438333E+04  0.20035400012E+04 0.  0.
        4    1    3    3  502    0 -0.79565593156E+03  0.58036993463E+03 -0.25543981466E+03  0.10174225937E+04  0.12699999809E+01 0. -1.
       -4    1    3    3    0  502  0.79565593156E+03 -0.58036993463E+03  0.11234015466E+03  0.99122123953E+03  0.12699999809E+01 0.  1.
</event>
<event>
 5   0  0.1999142E-05  0.2002175E+04  0.7818609E-02  0.8605604E-01
        2   -1    0    0  501    0  0.00000000000E+00  0.00000000000E+00  0.25422708932E+04  0.25422708932E+04  0.25500000920E-02 0. -1.
       -2   -1    0    0    0  501  0.00000000000E+00  0.00000000000E+00 -0.39420527436E+03  0.39420527437E+03  0.25500000920E-02 0.  1.
    10030    2    1    2    0    0  0.00000000000E+00  0.00000000000E+00  0.21480656188E+04  0.29364761676E+04  0.20021754119E+04 0.  0.
        1    1    3    3  502    0 -0.99006919771E+03  0.32947816919E+01  0.85684720853E+03  0.13093643537E+04  0.50400001928E-02 0.  1.
       -1    1    3    3    0  502  0.99006919771E+03 -0.32947816919E+01  0.12912184103E+04  0.16271118139E+04  0.50400001928E-02 0. -1.
</event>
<event>
 5   0  0.9220260E-06  0.1998746E+04  0.7818609E-02  0.8607207E-01
        1   -1    0    0  501    0  0.00000000000E+00  0.00000000000E+00  0.11167167314E+04  0.11167167314E+04  0.50400001928E-02 0. -1.
       -1   -1    0    0    0  501  0.00000000000E+00  0.00000000000E+00 -0.89435946640E+03  0.89435946642E+03  0.50400001928E-02 0.  1.
    10030    2    1    2    0    0  0.00000000000E+00  0.00000000000E+00  0.22235726495E+03  0.20110761978E+04  0.19987457867E+04 0.  0.
        3    1    3    3  502    0  0.55736962334E+03  0.50747550483E+03 -0.54903535426E+03  0.93254067764E+03  0.10100000352E+00 0.  1.
       -3    1    3    3    0  502 -0.55736962334E+03 -0.50747550483E+03  0.77139261921E+03  0.10785355201E+04  0.10100000352E+00 0. -1.
</event>
<event>
 5   0  0.2003576E-05  0.2002995E+04  0.7818609E-02  0.8605222E-01
       -2   -1    0    0    0  501  0.00000000000E+00  0.00000000000E+00  0.70017729338E+03  0.70017729338E+03  0.25500000920E-02 0.  1.
        2   -1    0    0  501    0  0.00000000000E+00  0.00000000000E+00 -0.14324908754E+04  0.14324908754E+04  0.25500000920E-02 0. -1.
    10030    2    1    2    0    0  0.00000000000E+00  0.00000000000E+00 -0.73231358197E+03  0.21326681687E+04  0.20029953409E+04 0.  0.
        4    1    3    3  502    0  0.57118068327E+03  0.38574043376E+03  0.40748682155E+03  0.80068107122E+03  0.12699999809E+01 0.  1.
       -4    1    3    3    0  502 -0.57118068327E+03 -0.38574043376E+03 -0.11398004035E+04  0.13319870975E+04  0.12699999809E+01 0. -1.
</event>
<event>
 5   0  0.2020029E-05  0.2002117E+04  0.7818609E-02  0.8605632E-01
       -2   -1    0    0    0  501  0.00000000000E+00  0.00000000000E+00  0.47074333222E+03  0.47074333222E+03  0.25500000920E-02 0.  1.
        2   -1    0    0  501    0  0.00000000000E+00  0.00000000000E+00 -0.21287985896E+04  0.21287985896E+04  0.25500000920E-02 0. -1.
    10030    2    1    2    0    0  0.00000000000E+00  0.00000000000E+00 -0.16580552574E+04  0.25995419218E+04  0.20021166217E+04 0.  0.
        5    1    3    3  502    0 -0.66850649061E+03  0.73062797719E+03 -0.10188667591E+04  0.14208552818E+04  0.46999998093E+01 0.  1.
       -5    1    3    3    0  502  0.66850649061E+03 -0.73062797719E+03 -0.63918849829E+03  0.11786866400E+04  0.46999998093E+01 0. -1.
</event>
<event>
 5   0  0.2038882E-05  0.2002029E+04  0.7818609E-02  0.8605673E-01
        2   -1    0    0  501    0  0.00000000000E+00  0.00000000000E+00  0.13230018881E+04  0.13230018881E+04  0.25500000920E-02 0. -1.
       -2   -1    0    0    0  501  0.00000000000E+00  0.00000000000E+00 -0.75739123244E+03  0.75739123245E+03  0.25500000920E-02 0.  1.
    10030    2    1    2    0    0  0.00000000000E+00  0.00000000000E+00  0.56561065561E+03  0.20803931205E+04  0.20020290013E+04 0.  0.
        3    1    3    3  502    0  0.82288200548E+03 -0.40185964400E+03 -0.13724995924E+03  0.92599326667E+03  0.10100000352E+00 0.  1.
       -3    1    3    3    0  502 -0.82288200548E+03  0.40185964400E+03  0.70286061485E+03  0.11543998538E+04  0.10100000352E+00 0. -1.
</event>
<event>
 5   0  0.9140695E-06  0.1997454E+04  0.7818609E-02  0.8607812E-01
       -1   -1    0    0    0  501  0.00000000000E+00  0.00000000000E+00  0.80571091064E+03  0.80571091066E+03  0.50400001928E-02 0. -1.
        1   -1    0    0  501    0  0.00000000000E+00  0.00000000000E+00 -0.12379820341E+04  0.12379820341E+04  0.50400001928E-02 0.  1.
    10030    2    1    2    0    0  0.00000000000E+00  0.00000000000E+00 -0.43227112342E+03  0.20436929447E+04  0.19974540115E+04 0.  0.
        1    1    3    3  502    0 -0.28143622505E+03  0.30788116755E+03 -0.11445880982E+04  0.12182278427E+04  0.50400001928E-02 0.  1.
       -1    1    3    3    0  502  0.28143622505E+03 -0.30788116755E+03  0.71231697479E+03  0.82546510205E+03  0.50400001928E-02 0. -1.
</event>
<event>
 5   0  0.9333353E-06  0.1999653E+04  0.7818609E-02  0.8606783E-01
       -1   -1    0    0    0  501  0.00000000000E+00  0.00000000000E+00  0.68288878397E+03  0.68288878399E+03  0.50400001928E-02 0.  1.
        1   -1    0    0  501    0  0.00000000000E+00  0.00000000000E+00 -0.14638585083E+04  0.14638585083E+04  0.50400001928E-02 0. -1.
    10030    2    1    2    0    0  0.00000000000E+00  0.00000000000E+00 -0.78096972435E+03  0.21467472923E+04  0.19996525265E+04 0.  0.
        2    1    3    3  502    0  0.23819290895E+02 -0.27985104773E+03 -0.14206376338E+04  0.14481350952E+04  0.25500000920E-02 0. -1.
       -2    1    3    3    0  502 -0.23819290895E+02  0.27985104773E+03  0.63966790944E+03  0.69861219708E+03  0.25500000920E-02 0.  1.
</event>
<event>
 5   0  0.9333353E-06  0.1999598E+04  0.7818609E-02  0.8606809E-01
        1   -1    0    0  501    0  0.00000000000E+00  0.00000000000E+00  0.18403879297E+04  0.18403879297E+04  0.50400001928E-02 0. -1.
       -1   -1    0    0    0  501  0.00000000000E+00  0.00000000000E+00 -0.54314510047E+03  0.54314510049E+03  0.50400001928E-02 0.  1.
    10030    2    1    2    0    0  0.00000000000E+00  0.00000000000E+00  0.12972428292E+04  0.23835330302E+04  0.19995976465E+04 0.  0.
        2    1    3    3  502    0  0.88858542490E+02  0.59150058657E+03 -0.30634520819E+03  0.67202393638E+03  0.25500000920E-02 0.  1.
       -2    1    3    3    0  502 -0.88858542490E+02 -0.59150058657E+03  0.16035880374E+04  0.17115090938E+04  0.25500000920E-02 0. -1.
</event>
<event>
 5   0  0.1979765E-05  0.2006721E+04  0.7818609E-02  0.8603485E-01
       -2   -1    0    0    0  501  0.00000000000E+00  0.00000000000E+00  0.34199281945E+03  0.34199281946E+03  0.25500000920E-02 0.  1.
        2   -1    0    0  501    0  0.00000000000E+00  0.00000000000E+00 -0.29437243006E+04  0.29437243006E+04  0.25500000920E-02 0. -1.
    10030    2    1    2    0    0  0.00000000000E+00  0.00000000000E+00 -0.26017314811E+04  0.32857171200E+04  0.20067212794E+04 0.  0.
        2    1    3    3  502    0 -0.11906524649E+03  0.99622246307E+03 -0.12847525936E+04  0.16300996766E+04  0.25500000920E-02 0.  1.
       -2    1    3    3    0  502  0.11906524649E+03 -0.99622246307E+03 -0.13169788875E+04  0.16556174434E+04  0.25500000920E-02 0. -1.
</event>
<event>
 5   0  0.2003576E-05  0.2048998E+04  0.7818609E-02  0.8584049E-01
       -2   -1    0    0    0  501  0.00000000000E+00  0.00000000000E+00  0.80320373783E+03  0.80320373783E+03  0.25500000920E-02 0. -1.
        2   -1    0    0  501    0  0.00000000000E+00  0.00000000000E+00 -0.13067641532E+04  0.13067641532E+04  0.25500000920E-02 0.  1.
    10030    2    1    2    0    0  0.00000000000E+00  0.00000000000E+00 -0.50356041538E+03  0.21099678910E+04  0.20489976597E+04 0.  0.
        4    1    3    3  502    0  0.81876466720E+03 -0.41949755499E+02 -0.88444017771E+03  0.12059732182E+04  0.12699999809E+01 0.  1.
       -4    1    3    3    0  502 -0.81876466720E+03  0.41949755499E+02  0.38087976233E+03  0.90399467282E+03  0.12699999809E+01 0. -1.
</event>
<event>
 5   0  0.2020029E-05  0.1997019E+04  0.7818609E-02  0.8608016E-01
       -2   -1    0    0    0  501  0.00000000000E+00  0.00000000000E+00  0.79843619390E+03  0.79843619390E+03  0.25500000920E-02 0. -1.
        2   -1    0    0  501    0  0.00000000000E+00  0.00000000000E+00 -0.12487174162E+04  0.12487174162E+04  0.25500000920E-02 0.  1.
    10030    2    1    2    0    0  0.00000000000E+00  0.00000000000E+00 -0.45028122230E+03  0.20471536101E+04  0.19970189594E+04 0.  0.
        5    1    3    3  502    0  0.41506369717E+03 -0.86447376213E+03 -0.51034518782E+03  0.10863089150E+04  0.46999998093E+01 0.  1.
       -5    1    3    3    0  502 -0.41506369717E+03  0.86447376213E+03  0.60063965516E+02  0.96084469508E+03  0.46999998093E+01 0. -1.
</event>
<event>
 5   0  0.9140695E-06  0.1998655E+04  0.7818609E-02  0.8607250E-01
        1   -1    0    0  501    0  0.00000000000E+00  0.00000000000E+00  0.11487469728E+04  0.11487469728E+04  0.50400001928E-02 0.  1.
       -1   -1    0    0    0  501  0.00000000000E+00  0.00000000000E+00 -0.86934307439E+03  0.86934307441E+03  0.50400001928E-02 0. -1.
    10030    2    1    2    0    0  0.00000000000E+00  0.00000000000E+00  0.27940389840E+03  0.20180900472E+04  0.19986547726E+04 0.  0.
        1    1    3    3  502    0  0.82807883991E+03 -0.47694135007E+02 -0.42309219381E+03  0.93112636097E+03  0.50400001928E-02 0. -1.
       -1    1    3    3    0  502 -0.82807883991E+03  0.47694135007E+02  0.70249609221E+03  0.10869636862E+04  0.50400001928E-02 0.  1.
</event>
<event>
 5   0  0.9370269E-06  0.1999471E+04  0.7818609E-02  0.8606868E-01
        1   -1    0    0  501    0  0.00000000000E+00  0.00000000000E+00  0.89816476127E+03  0.89816476129E+03  0.50400001928E-02 0.  1.
       -1   -1    0    0    0  501  0.00000000000E+00  0.00000000000E+00 -0.11127924278E+04  0.11127924279E+04  0.50400001928E-02 0. -1.
    10030    2    1    2    0    0  0.00000000000E+00  0.00000000000E+00 -0.21462766657E+03  0.20109571891E+04  0.19994708753E+04 0.  0.
        4    1    3    3  502    0  0.38311955072E+03 -0.44155781976E+03  0.70834164831E+03  0.91842441277E+03  0.12699999809E+01 0.  1.
       -4    1    3    3    0  502 -0.38311955072E+03  0.44155781976E+03 -0.92296931488E+03  0.10925327764E+04  0.12699999809E+01 0. -1.
</event>
<event>
 5   0  0.1979765E-05  0.2017704E+04  0.7818609E-02  0.8598388E-01
        2   -1    0    0  501    0  0.00000000000E+00  0.00000000000E+00  0.12286576799E+04  0.12286576799E+04  0.25500000920E-02 0. -1.
       -2   -1    0    0    0  501  0.00000000000E+00  0.00000000000E+00 -0.82836918663E+03  0.82836918664E+03  0.25500000920E-02 0.  1.
    10030    2    1    2    0    0  0.00000000000E+00  0.00000000000E+00  0.40028849323E+03  0.20570268665E+04  0.20177038067E+04 0.  0.
        2    1    3    3  502    0  0.23343105035E+03  0.44290161471E+03  0.10930736204E+04  0.12022736108E+04  0.25500000920E-02 0. -1.
       -2    1    3    3    0  502 -0.23343105035E+03 -0.44290161471E+03 -0.69278512722E+03  0.85475325567E+03  0.25500000920E-02 0.  1.
</event>
<event>
 5   0  0.1999142E-05  0.1993568E+04  0.7818609E-02  0.8609634E-01
        2   -1    0    0  501    0  0.00000000000E+00  0.00000000000E+00  0.16816330612E+04  0.16816330612E+04  0.25500000920E-02 0.  1.
       -2   -1    0    0    0  501  0.00000000000E+00  0.00000000000E+00 -0.59084135632E+03  0.59084135633E+03  0.25500000920E-02 0. -1.
    10030    2    1    2    0    0  0.00000000000E+00  0.00000000000E+00  0.10907917049E+04  0.22724744175E+04  0.19935680161E+04 0.  0.
        1    1    3    3  502    0  0.78553625023E+03  0.25706890017E+02  0.12442320695E+04  0.14716798183E+04  0.50400001928E-02 0.  1.
       -1    1    3    3    0  502 -0.78553625023E+03 -0.25706890017E+02 -0.15344036469E+03  0.80079459923E+03  0.50400001928E-02 0. -1.
</event>
<event>
 5   0  0.1999142E-05  0.1997222E+04  0.7818609E-02  0.8607920E-01
       -2   -1    0    0    0  501  0.00000000000E+00  0.00000000000E+00  0.66380539052E+03  0.66380539052E+03  0.25500000920E-02 0.  1.
        2   -1    0    0  501    0  0.00000000000E+00  0.00000000000E+00 -0.15022839221E+04  0.15022839221E+04  0.25500000920E-02 0. -1.
    10030    2    1    2    0    0  0.00000000000E+00  0.00000000000E+00 -0.83847853159E+03  0.21660893126E+04  0.19972222366E+04 0.  0.
        1    1    3    3  502    0 -0.48945044917E+03 -0.70046805149E+03 -0.97965618110E+03  0.12999782562E+04  0.50400001928E-02 0. -1.
       -1    1    3    3    0  502  0.48945044917E+03  0.70046805149E+03  0.14117764951E+03  0.86611105645E+03  0.50400001928E-02 0.  1.
</event>
<event>
 5   0  0.9333353E-06  0.2002333E+04  0.7818609E-02  0.8605530E-01
       -1   -1    0    0    0  501  0.00000000000E+00  0.00000000000E+00  0.89256767080E+03  0.89256767082E+03  0.50400001928E-02 0.  1.
        1   -1    0    0  501    0  0.00000000000E+00  0.00000000000E+00 -0.11229790568E+04  0.11229790568E+04  0.50400001928E-02 0. -1.
    10030    2    1    2    0    0  0.00000000000E+00  0.00000000000E+00 -0.23041138600E+03  0.20155467276E+04  0.20023334399E+04 0.  0.
        2    1    3    3  502    0 -0.88791885218E+03 -0.35913413916E+02  0.34897193106E+03  0.95470994026E+03  0.25500000920E-02 0.  1.
       -2    1    3    3    0  502  0.88791885218E+03  0.35913413916E+02 -0.57938331705E+03  0.10608367874E+04  0.25500000920E-02 0. -1.
</event>
<event>
 5   0  0.2020029E-05  0.1999408E+04  0.7818609E-02  0.8606898E-01
       -2   -1    0    0    0  501  0.00000000000E+00  0.00000000000E+00  0.73341281474E+03  0.73341281474E+03  0.25500000920E-02 0.  1.
        2   -1    0    0  501    0  0.00000000000E+00  0.00000000000E+00 -0.13626814439E+04  0.13626814439E+04  0.25500000920E-02 0. -1.
    10030    2    1    2    0    0  0.00000000000E+00  0.00000000000E+00 -0.62926862916E+03  0.20960942586E+04  0.19994079457E+04 0.  0.
        5    1    3    3  502    0  0.46775277180E+03  0.81378673171E+03 -0.67528215000E+03  0.11563172455E+04  0.46999998093E+01 0. -1.
       -5    1    3    3    0  502 -0.46775277180E+03 -0.81378673171E+03  0.46013520840E+02  0.93977701310E+03  0.46999998093E+01 0.  1.
</event>
<event>
 5   0  0.9370269E-06  0.2000227E+04  0.7818609E-02  0.8606514E-01
       -1   -1    0    0    0  501  0.00000000000E+00  0.00000000000E+00  0.93601018198E+03  0.93601018199E+03  0.50400001928E-02 0. -1.
        1   -1    0    0  501    0  0.00000000000E+00  0.00000000000E+00 -0.10686074206E+04  0.10686074206E+04  0.50400001928E-02 0.  1.
    10030    2    1    2    0    0  0.00000000000E+00  0.00000000000E+00 -0.13259723860E+03  0.20046176026E+04  0.20002274133E+04 0.  0.
        4    1    3    3  502    0 -0.15757945411E+02  0.56441333140E+03  0.76099188321E+03  0.94758692515E+03  0.12699999809E+01 0. -1.
       -4    1    3    3    0  502  0.15757945411E+02 -0.56441333140E+03 -0.89358912181E+03  0.10570306774E+04  0.12699999809E+01 0.  1.
</event>
<event>
 5   0  0.9140695E-06  0.1996954E+04  0.7818609E-02  0.8608046E-01
        1   -1    0    0  501    0  0.00000000000E+00  0.00000000000E+00  0.11134048296E+04  0.11134048297E+04  0.50400001928E-02 0. -1.
       -1   -1    0    0    0  501  0.00000000000E+00  0.00000000000E+00 -0.89541255026E+03  0.89541255027E+03  0.50400001928E-02 0.  1.
    10030    2    1    2    0    0  0.00000000000E+00  0.00000000000E+00  0.21799227939E+03  0.20088173799E+04  0.19969543390E+04 0.  0.
        1    1    3    3  502    0 -0.46633758468E+03 -0.87753176586E+03  0.11342597125E+02  0.99381155030E+03  0.50400001928E-02 0.  1.
       -1    1    3    3    0  502  0.46633758468E+03  0.87753176586E+03  0.20664968227E+03  0.10150058296E+04  0.50400001928E-02 0. -1.
</event>
<event>
 5   0  0.9140695E-06  0.1993795E+04  0.7818609E-02  0.8609527E-01
       -1   -1    0    0    0  501  0.00000000000E+00  0.00000000000E+00  0.54707597533E+03  0.54707597535E+03  0.50400001928E-02 0. -1.
        1   -1    0    0  501    0  0.00000000000E+00  0.00000000000E+00 -0.18165750173E+04  0.18165750173E+04  0.50400001928E-02 0.  1.
    10030    2    1    2    0    0  0.00000000000E+00  0.00000000000E+00 -0.12694990420E+04  0.23636509927E+04  0.19937949236E+04 0.  0.
        1    1    3    3  502    0  0.77629510249E+03 -0.56376527744E+03 -0.31370085074E+03  0.10093926877E+04  0.50400001928E-02 0.  1.
       -1    1    3    3    0  502 -0.77629510249E+03  0.56376527744E+03 -0.95579819124E+03  0.13542583050E+04  0.50400001928E-02 0. -1.
</event>
<event>
 5   0  0.9333353E-06  0.2000691E+04  0.7818609E-02  0.8606298E-01
       -1   -1    0    0    0  501  0.00000000000E+00  0.00000000000E+00  0.86766838594E+03  0.86766838596E+03  0.50400001928E-02 0. -1.
        1   -1    0    0  501    0  0.00000000000E+00  0.00000000000E+00 -0.11533101615E+04  0.11533101616E+04  0.50400001928E-02 0.  1.
    10030    2    1    2    0    0  0.00000000000E+00  0.00000000000E+00 -0.28564177560E+03  0.20209785475E+04  0.20006906471E+04 0.  0.
        2    1    3    3  502    0 -0.34932766260E+02  0.58517712208E+03  0.67597767746E+03  0.89476163462E+03  0.25500000920E-02 0. -1.
       -2    1    3    3    0  502  0.34932766260E+02 -0.58517712208E+03 -0.96161945306E+03  0.11262169129E+04  0.25500000920E-02 0.  1.
</event>
<event>
 5   0  0.9140695E-06  0.2005183E+04  0.7818609E-02  0.8604201E-01
       -1   -1    0    0    0  501  0.00000000000E+00  0.00000000000E+00  0.74841299135E+03  0.74841299137E+03  0.50400001928E-02 0. -1.
        1   -1    0    0  501    0  0.00000000000E+00  0.00000000000E+00 -0.13430951988E+04  0.13430951988E+04  0.50400001928E-02 0.  1.
    10030    2    1    2    0    0  0.00000000000E+00  0.00000000000E+00 -0.59468220745E+03  0.20915081902E+04  0.20051831791E+04 0.  0.
        1    1    3    3  502    0 -0.81332676591E+03  0.26137970768E+03  0.25000738122E+03  0.89012553633E+03  0.50400001928E-02 0. -1.
       -1    1    3    3    0  502  0.81332676591E+03 -0.26137970768E+03 -0.84468958867E+03  0.12013826538E+04  0.50400001928E-02 0.  1.
</event>
<event>
 5   0  0.2038882E-05  0.2002620E+04  0.7818609E-02  0.8605397E-01
       -2   -1    0    0    0  501  0.00000000000E+00  0.00000000000E+00  0.11593857701E+04  0.11593857701E+04  0.25500000920E-02 0. -1.
        2   -1    0    0  501    0  0.00000000000E+00  0.00000000000E+00 -0.86478655091E+03  0.86478655091E+03  0.25500000920E-02 0.  1.
    10030    2    1    2    0    0  0.00000000000E+00  0.00000000000E+00  0.29459921919E+03  0.20241723210E+04  0.20026195058E+04 0.  0.
        3    1    3    3  502    0  0.41890142152E+02  0.71900742760E+03  0.85041158252E+03  0.11144174868E+04  0.10100000352E+00 0. -1.
       -3    1    3    3    0  502 -0.41890142152E+02 -0.71900742760E+03 -0.55581236334E+03  0.90975483422E+03  0.10100000352E+00 0.  1.
</event>
<event>
 5   0  0.9220260E-06  0.2011217E+04  0.7818609E-02  0.8601394E-01
        1   -1    0    0  501    0  0.00000000000E+00  0.00000000000E+00  0.61414086852E+03  0.61414086854E+03  0.50400001928E-02 0. -1.
       -1   -1    0    0    0  501  0.00000000000E+00  0.00000000000E+00 -0.16466063707E+04  0.16466063707E+04  0.50400001928E-02 0.  1.
    10030    2    1    2    0    0  0.00000000000E+00  0.00000000000E+00 -0.10324655022E+04  0.22607472393E+04  0.20112168124E+04 0.  0.
        3    1    3    3  502    0 -0.44059172479E+03 -0.59363980907E+02  0.49767727451E+03  0.66732887690E+03  0.10100000352E+00 0. -1.
       -3    1    3    3    0  502  0.44059172479E+03  0.59363980907E+02 -0.15301427767E+04  0.15934183624E+04  0.10100000352E+00 0.  1.
</event>
<event>
 5   0  0.2003576E-05  0.2001329E+04  0.7818609E-02  0.8606000E-01
       -2   -1    0    0    0  501  0.00000000000E+00  0.00000000000E+00  0.82008890139E+03  0.82008890139E+03  0.25500000920E-02 0. -1.
        2   -1    0    0  501    0  0.00000000000E+00  0.00000000000E+00 -0.12210007425E+04  0.12210007425E+04  0.25500000920E-02 0.  1.
    10030    2    1    2    0    0  0.00000000000E+00  0.00000000000E+00 -0.40091184112E+03  0.20410896439E+04  0.20013287162E+04 0.  0.
        4    1    3    3  502    0  0.32262658538E+03 -0.47521445445E+03 -0.10361317305E+04  0.11846886794E+04  0.12699999809E+01 0.  1.
       -4    1    3    3    0  502 -0.32262658538E+03  0.47521445445E+03  0.63521988934E+03  0.85640096451E+03  0.12699999809E+01 0. -1.
</event>
<event>
 5   0  0.2038882E-05  0.1994341E+04  0.7818609E-02  0.8609271E-01
       -2   -1    0    0    0  501  0.00000000000E+00  0.00000000000E+00  0.80824097009E+03  0.80824097009E+03  0.25500000920E-02 0.  1.
        2   -1    0    0  501    0  0.00000000000E+00  0.00000000000E+00 -0.12302629464E+04  0.12302629464E+04  0.25500000920E-02 0. -1.
    10030    2    1    2    0    0  0.00000000000E+00  0.00000000000E+00 -0.42202197634E+03  0.20385039165E+04  0.19943409110E+04 0.  0.
        3    1    3    3  502    0  0.91256055712E+03 -0.39903155828E+03 -0.16139799978E+03  0.10089808122E+04  0.10100000352E+00 0. -1.
       -3    1    3    3    0  502 -0.91256055712E+03  0.39903155828E+03 -0.26062397656E+03  0.10295231043E+04  0.10100000352E+00 0.  1.
</event>
<event>
 5   0  0.1979765E-05  0.2000898E+04  0.7818609E-02  0.8606201E-01
       -2   -1    0    0    0  501  0.00000000000E+00  0.00000000000E+00  0.68269650409E+03  0.68269650410E+03  0.25500000920E-02 0.  1.
        2   -1    0    0  501    0  0.00000000000E+00  0.00000000000E+00 -0.14660947304E+04  0.14660947304E+04  0.25500000920E-02 0. -1.
    10030    2    1    2    0    0  0.00000000000E+00  0.00000000000E+00 -0.78339822634E+03  0.21487912345E+04  0.20008975457E+04 0.  0.
        2    1    3    3  502    0 -0.92739791721E+03 -0.31363685926E+03 -0.61299509943E+03  0.11550748756E+04  0.25500000920E-02 0. -1.
       -2    1    3    3    0  502  0.92739791721E+03  0.31363685926E+03 -0.17040312691E+03  0.99371635892E+03  0.25500000920E-02 0.  1.
</event>
<event>
 5   0  0.9342635E-06  0.2000003E+04  0.7818609E-02  0.8606619E-01
        1   -1    0    0  501    0  0.00000000000E+00  0.00000000000E+00  0.15788347962E+04  0.15788347962E+04  0.50400001928E-02 0. -1.
       -1   -1    0    0    0  501  0.00000000000E+00  0.00000000000E+00 -0.63338029771E+03  0.63338029773E+03  0.50400001928E-02 0.  1.
    10030    2    1    2    0    0  0.00000000000E+00  0.00000000000E+00  0.94545449849E+03  0.22122150939E+04  0.20000028533E+04 0.  0.
        5    1    3    3  502    0  0.40702080063E+03 -0.60437074904E+02  0.14808396514E+04  0.15369537193E+04  0.46999998093E+01 0. -1.
       -5    1    3    3    0  502 -0.40702080063E+03  0.60437074904E+02 -0.53538515288E+03  0.67526137465E+03  0.46999998093E+01 0.  1.
</event>
<event>
 5   0  0.9140695E-06  0.2002700E+04  0.7818609E-02  0.8605359E-01
       -1   -1    0    0    0  501  0.00000000000E+00  0.00000000000E+00  0.12169609492E+04  0.12169609492E+04  0.50400001928E-02 0. -1.
        1   -1    0    0  501    0  0.00000000000E+00  0.00000000000E+00 -0.82393937740E+03  0.82393937742E+03  0.50400001928E-02 0.  1.
    10030    2    1    2    0    0  0.00000000000E+00  0.00000000000E+00  0.39302157183E+03  0.20409003267E+04  0.20027002241E+04 0.  0.
        1    1    3    3  502    0  0.24751853638E+03  0.75064078046E+03  0.82303434946E+03  0.11411014624E+04  0.50400001928E-02 0. -1.
       -1    1    3    3    0  502 -0.24751853638E+03 -0.75064078046E+03 -0.43001277762E+03  0.89979886424E+03  0.50400001928E-02 0.  1.
</event>
<event>
 5   0  0.2003576E-05  0.1998410E+04  0.7818609E-02  0.8607365E-01
        2   -1    0    0  501    0  0.00000000000E+00  0.00000000000E+00  0.11245442288E+04  0.11245442288E+04  0.25500000920E-02 0.  1.
       -2   -1    0    0    0  501  0.00000000000E+00  0.00000000000E+00 -0.88783549513E+03  0.88783549513E+03  0.25500000920E-02 0. -1.
    10030    2    1    2    0    0  0.00000000000E+00  0.00000000000E+00  0.23670873371E+03  0.20123797240E+04  0.19984096499E+04 0.  0.
        4    1    3    3  502    0 -0.59100039044E+03 -0.79059088542E+03  0.27465948373E+03  0.10245754509E+04  0.12699999809E+01 0. -1.
       -4    1    3    3    0  502  0.59100039044E+03  0.79059088542E+03 -0.37950750028E+02  0.98780427310E+03  0.12699999809E+01 0.  1.
</event>
<event>
 5   0  0.2003576E-05  0.2001646E+04  0.7818609E-02  0.8605852E-01
       -2   -1    0    0    0  501  0.00000000000E+00  0.00000000000E+00  0.78386147715E+03  0.78386147716E+03  0.25500000920E-02 0. -1.
        2   -1    0    0  501    0  0.00000000000E+00  0.00000000000E+00 -0.12778359051E+04  0.12778359051E+04  0.25500000920E-02 0.  1.
    10030    2    1    2    0    0  0.00000000000E+00  0.00000000000E+00 -0.49397442797E+03  0.20616973823E+04  0.20016456631E+04 0.  0.
        4    1    3    3  502    0  0.92439430350E+02 -0.82179083685E+03 -0.82760052871E+03  0.11699613138E+04  0.12699999809E+01 0.  1.
       -4    1    3    3    0  502 -0.92439430350E+02  0.82179083685E+03  0.33362610074E+03  0.89173606847E+03  0.12699999809E+01 0. -1.
</event>
<event>
 5   0  0.2020029E-05  0.1999596E+04  0.7818609E-02  0.8606810E-01
       -2   -1    0    0    0  501  0.00000000000E+00  0.00000000000E+00  0.79788631385E+03  0.79788631386E+03  0.25500000920E-02 0. -1.
        2   -1    0    0  501    0  0.00000000000E+00  0.00000000000E+00 -0.12528047552E+04  0.12528047552E+04  0.25500000920E-02 0.  1.
    10030    2    1    2    0    0  0.00000000000E+00  0.00000000000E+00 -0.45491844134E+03  0.20506910691E+04  0.19995957272E+04 0.  0.
        5    1    3    3  502    0 -0.34287298892E+03  0.23310854939E+03 -0.11604712067E+04  0.12323217899E+04  0.46999998093E+01 0.  1.
       -5    1    3    3    0  502  0.34287298892E+03 -0.23310854939E+03  0.70555276536E+03  0.81836927914E+03  0.46999998093E+01 0. -1.
</event>
<event>
 5   0  0.2038882E-05  0.2000495E+04  0.7818609E-02  0.8606389E-01
        2   -1    0    0  501    0  0.00000000000E+00  0.00000000000E+00  0.15219798459E+04  0.15219798459E+04  0.25500000920E-02 0.  1.
       -2   -1    0    0    0  501  0.00000000000E+00  0.00000000000E+00 -0.65736396436E+03  0.65736396437E+03  0.25500000920E-02 0. -1.
    10030    2    1    2    0    0  0.00000000000E+00  0.00000000000E+00  0.86461588158E+03  0.21793438103E+04  0.20004946440E+04 0.  0.
        3    1    3    3  502    0  0.15375091214E+03 -0.91688675543E+02  0.15043865493E+04  0.15150000185E+04  0.10100000352E+00 0.  1.
       -3    1    3    3    0  502 -0.15375091214E+03  0.91688675543E+02 -0.63977066772E+03  0.66434379179E+03  0.10100000352E+00 0. -1.
</event>
<event>
 5   0  0.2003576E-05  0.1999414E+04  0.7818609E-02  0.8606895E-01
        2   -1    0    0  501    0  0.00000000000E+00  0.00000000000E+00  0.14912522422E+04  0.14912522422E+04  0.25500000920E-02 0.  1.
       -2   -1    0    0    0  501  0.00000000000E+00  0.00000000000E+00 -0.67018471552E+03  0.67018471553E+03  0.25500000920E-02 0. -1.
    10030    2    1    2    0    0  0.00000000000E+00  0.00000000000E+00  0.82106752672E+03  0.21614369578E+04  0.19994143740E+04 0.  0.
        4    1    3    3  502    0 -0.44279028400E+03  0.88928849249E+03  0.53147249191E+03  0.11266596119E+04  0.12699999809E+01 0. -1.
       -4    1    3    3    0  502  0.44279028400E+03 -0.88928849249E+03  0.28959503481E+03  0.10347773459E+04  0.12699999809E+01 0.  1.
</event>
<event>
 5   0  0.9342635E-06  0.2007369E+04  0.7818609E-02  0.8603183E-01
       -1   -1    0    0    0  501  0.00000000000E+00  0.00000000000E+00  0.11638154390E+04  0.11638154390E+04  0.50400001928E-02 0. -1.
        1   -1    0    0  501    0  0.00000000000E+00  0.00000000000E+00 -0.86558584366E+03  0.86558584368E+03  0.50400001928E-02 0.  1.
    10030    2    1    2    0    0  0.00000000000E+00  0.00000000000E+00  0.29822959535E+03  0.20294012827E+04  0.20073685946E+04 0.  0.
        5    1    3    3  502    0  0.45591308729E+03 -0.88162226497E+03 -0.16715635666E+01  0.99254191115E+03  0.46999998093E+01 0.  1.
       -5    1    3    3    0  502 -0.45591308729E+03  0.88162226497E+03  0.29990115892E+03  0.10368593716E+04  0.46999998093E+01 0. -1.
</event>
<event>
 5   0  0.9333353E-06  0.2002937E+04  0.7818609E-02  0.8605249E-01
        1   -1    0    0  501    0  0.00000000000E+00  0.00000000000E+00  0.10836984435E+04  0.10836984435E+04  0.50400001928E-02 0. -1.
       -1   -1    0    0    0  501  0.00000000000E+00  0.00000000000E+00 -0.92547844265E+03  0.92547844266E+03  0.50400001928E-02 0.  1.
    10030    2    1    2    0    0  0.00000000000E+00  0.00000000000E+00  0.15822000085E+03  0.20091768862E+04  0.20029373908E+04 0.  0.
        2    1    3    3  502    0  0.32939075546E+02  0.91558598467E+03  0.48479149213E+03  0.10365353196E+04  0.25500000920E-02 0. -1.
       -2    1    3    3    0  502 -0.32939075546E+02 -0.91558598467E+03 -0.32657149128E+03  0.97264156653E+03  0.25500000920E-02 0.  1.
</event>
<event>
 5   0  0.2003576E-05  0.1999506E+04  0.7818609E-02  0.8606852E-01
        2   -1    0    0  501    0  0.00000000000E+00  0.00000000000E+00  0.18425178966E+04  0.18425178966E+04  0.25500000920E-02 0. -1.
       -2   -1    0    0    0  501  0.00000000000E+00  0.00000000000E+00 -0.54246731496E+03  0.54246731496E+03  0.25500000920E-02 0.  1.
    10030    2    1    2    0    0  0.00000000000E+00  0.00000000000E+00  0.13000505816E+04  0.23849852115E+04  0.19995056750E+04 0.  0.
        4    1    3    3  502    0  0.69220068177E+03  0.71528803926E+03  0.76144313037E+03  0.12532262432E+04  0.12699999809E+01 0.  1.
       -4    1    3    3    0  502 -0.69220068177E+03 -0.71528803926E+03  0.53860745123E+03  0.11317589683E+04  0.12699999809E+01 0. -1.
</event>
<event>
 5   0  0.2038882E-05  0.1962274E+04  0.7818609E-02  0.8624465E-01
        2   -1    0    0  501    0  0.00000000000E+00  0.00000000000E+00  0.16511202646E+04  0.16511202646E+04  0.25500000920E-02 0.  1.
       -2   -1    0    0    0  501  0.00000000000E+00  0.00000000000E+00 -0.58301634108E+03  0.58301634109E+03  0.25500000920E-02 0. -1.
    10030    2    1    2    0    0  0.00000000000E+00  0.00000000000E+00  0.10681039235E+04  0.22341366057E+04  0.19622742880E+04 0.  0.
        3    1    3    3  502    0  0.68783332631E+02 -0.33294555791E+03  0.15819126771E+04  0.16180332566E+04  0.10100000352E+00 0.  1.
       -3    1    3    3    0  502 -0.68783332631E+02  0.33294555791E+03 -0.51380875353E+03  0.61610334911E+03  0.10100000352E+00 0. -1.
</event>
<event>
 5   0  0.7132000E-06  0.2001921E+04  0.7818609E-02  0.8605723E-01
       -3   -1    0    0    0  501  0.00000000000E+00  0.00000000000E+00  0.37277006069E+03  0.37277007438E+03  0.10100000352E+00 0. -1.
        3   -1    0    0  501    0  0.00000000000E+00  0.00000000000E+00 -0.26877753582E+04  0.26877753601E+04  0.10100000352E+00 0.  1.
    10030    2    1    2    0    0  0.00000000000E+00  0.00000000000E+00 -0.23150052975E+04  0.30605454344E+04  0.20019212844E+04 0.  0.
        2    1    3    3  502    0 -0.39252491921E+03 -0.91473145047E+03 -0.99634052986E+03  0.14083692308E+04  0.25500000920E-02 0. -1.
       -2    1    3    3    0  502  0.39252491921E+03  0.91473145047E+03 -0.13186647676E+04  0.16521762037E+04  0.25500000920E-02 0.  1.
</event>
<event>
 5   0  0.1979765E-05  0.2000211E+04  0.7818609E-02  0.8606522E-01
       -2   -1    0    0    0  501  0.00000000000E+00  0.00000000000E+00  0.11667079948E+04  0.11667079948E+04  0.25500000920E-02 0. -1.
        2   -1    0    0  501    0  0.00000000000E+00  0.00000000000E+00 -0.85729340220E+03  0.85729340220E+03  0.25500000920E-02 0.  1.
    10030    2    1    2    0    0  0.00000000000E+00  0.00000000000E+00  0.30941459256E+03  0.20240013970E+04  0.20002110551E+04 0.  0.
        2    1    3    3  502    0  0.30936865802E+03  0.52926822823E+03 -0.64486643427E+03  0.88976768993E+03  0.25500000920E-02 0.  1.
       -2    1    3    3    0  502 -0.30936865802E+03 -0.52926822823E+03  0.95428102683E+03  0.11342337070E+04  0.25500000920E-02 0. -1.
</event>
<event>
 5   0  0.2003576E-05  0.2003114E+04  0.7818609E-02  0.8605166E-01
        2   -1    0    0  501    0  0.00000000000E+00  0.00000000000E+00  0.12592435872E+04  0.12592435872E+04  0.25500000920E-02 0. -1.
       -2   -1    0    0    0  501  0.00000000000E+00  0.00000000000E+00 -0.79660244874E+03  0.79660244875E+03  0.25500000920E-02 0.  1.
    10030    2    1    2    0    0  0.00000000000E+00  0.00000000000E+00  0.46264113843E+03  0.20558460359E+04  0.20031141007E+04 0.  0.
        4    1    3    3  502    0  0.32136835395E+03  0.58051510400E+03  0.10012965645E+04  0.12011959989E+04  0.12699999809E+01 0. -1.
       -4    1    3    3    0  502 -0.32136835395E+03 -0.58051510400E+03 -0.53865542603E+03  0.85465003702E+03  0.12699999809E+01 0.  1.
</event>
<event>
 5   0  0.9140695E-06  0.1999093E+04  0.7818609E-02  0.8607045E-01
       -1   -1    0    0    0  501  0.00000000000E+00  0.00000000000E+00  0.61650136078E+03  0.61650136080E+03  0.50400001928E-02 0. -1.
        1   -1    0    0  501    0  0.00000000000E+00  0.00000000000E+00 -0.16205848427E+04  0.16205848427E+04  0.50400001928E-02 0.  1.
    10030    2    1    2    0    0  0.00000000000E+00  0.00000000000E+00 -0.10040834819E+04  0.22370862035E+04  0.19990925549E+04 0.  0.
        1    1    3    3  502    0 -0.44597671578E+03 -0.79061022455E+03 -0.97035215387E+03  0.13287373934E+04  0.50400001928E-02 0.  1.
       -1    1    3    3    0  502  0.44597671578E+03  0.79061022455E+03 -0.33731328011E+02  0.90834881003E+03  0.50400001928E-02 0. -1.
</event>
<event>
 5   0  0.1979765E-05  0.1993092E+04  0.7818609E-02  0.8609857E-01
        2   -1    0    0  501    0  0.00000000000E+00  0.00000000000E+00  0.16962544058E+04  0.16962544058E+04  0.25500000920E-02 0. -1.
       -2   -1    0    0    0  501  0.00000000000E+00  0.00000000000E+00 -0.58546868007E+03  0.58546868008E+03  0.25500000920E-02 0.  1.
    10030    2    1    2    0    0  0.00000000000E+00  0.00000000000E+00  0.11107857257E+04  0.22817230858E+04  0.19930918975E+04 0.  0.
        2    1    3    3  502    0  0.99597878290E+03  0.21431215206E+02  0.58504326122E+03  0.11552959147E+04  0.25500000920E-02 0. -1.
       -2    1    3    3    0  502 -0.99597878290E+03 -0.21431215206E+02  0.52574246447E+03  0.11264271712E+04  0.25500000920E-02 0.  1.
</event>
<event>
 5   0  0.9342635E-06  0.2001550E+04  0.7818609E-02  0.8605896E-01
       -1   -1    0    0    0  501  0.00000000000E+00  0.00000000000E+00  0.54540792608E+03  0.54540792610E+03  0.50400001928E-02 0. -1.
        1   -1    0    0  501    0  0.00000000000E+00  0.00000000000E+00 -0.18363326738E+04  0.18363326738E+04  0.50400001928E-02 0.  1.
    10030    2    1    2    0    0  0.00000000000E+00  0.00000000000E+00 -0.12909247477E+04  0.23817405999E+04  0.20015497948E+04 0.  0.
        5    1    3    3  502    0  0.86424543643E+03  0.41294004533E+03 -0.99052406820E+03  0.13778968304E+04  0.46999998093E+01 0.  1.
       -5    1    3    3    0  502 -0.86424543643E+03 -0.41294004533E+03 -0.30040067954E+03  0.10038437696E+04  0.46999998093E+01 0. -1.
</event>
<event>
 5   0  0.9220260E-06  0.2004618E+04  0.7818609E-02  0.8604464E-01
        1   -1    0    0  501    0  0.00000000000E+00  0.00000000000E+00  0.85901810412E+03  0.85901810413E+03  0.50400001928E-02 0. -1.
       -1   -1    0    0    0  501  0.00000000000E+00  0.00000000000E+00 -0.11695023668E+04  0.11695023668E+04  0.50400001928E-02 0.  1.
    10030    2    1    2    0    0  0.00000000000E+00  0.00000000000E+00 -0.31048426266E+03  0.20285204709E+04  0.20046183736E+04 0.  0.
        3    1    3    3  502    0  0.66654607885E+01  0.23103408339E+03  0.83168294558E+03  0.86320200894E+03  0.10100000352E+00 0. -1.
       -3    1    3    3    0  502 -0.66654607885E+01 -0.23103408339E+03 -0.11421672082E+04  0.11653184620E+04  0.10100000352E+00 0.  1.
</event>
<event>
 5   0  0.2020029E-05  0.2028905E+04  0.7818609E-02  0.8593225E-01
        2   -1    0    0  501    0  0.00000000000E+00  0.00000000000E+00  0.15913693282E+04  0.15913693282E+04  0.25500000920E-02 0.  1.
       -2   -1    0    0    0  501  0.00000000000E+00  0.00000000000E+00 -0.64668430017E+03  0.64668430018E+03  0.25500000920E-02 0. -1.
    10030    2    1    2    0    0  0.00000000000E+00  0.00000000000E+00  0.94468502799E+03  0.22380536283E+04  0.20289046900E+04 0.  0.
        5    1    3    3  502    0 -0.10091947814E+04 -0.76575145057E+02  0.39628876176E+03  0.10869244373E+04  0.46999998093E+01 0. -1.
       -5    1    3    3    0  502  0.10091947814E+04  0.76575145057E+02  0.54839626623E+03  0.11511291911E+04  0.46999998093E+01 0.  1.
</event>
<event>
 5   0  0.9342635E-06  0.2000010E+04  0.7818609E-02  0.8606616E-01
        1   -1    0    0  501    0  0.00000000000E+00  0.00000000000E+00  0.17749945289E+04  0.17749945289E+04  0.50400001928E-02 0. -1.
       -1   -1    0    0    0  501  0.00000000000E+00  0.00000000000E+00 -0.56338787868E+03  0.56338787871E+03  0.50400001928E-02 0.  1.
    10030    2    1    2    0    0  0.00000000000E+00  0.00000000000E+00  0.12116066502E+04  0.23383824076E+04  0.20000104023E+04 0.  0.
        5    1    3    3  502    0 -0.13847203164E+03 -0.96265179197E+03  0.33381925966E+03  0.10282657070E+04  0.46999998093E+01 0.  1.
       -5    1    3    3    0  502  0.13847203164E+03  0.96265179197E+03  0.87778739054E+03  0.13101167006E+04  0.46999998093E+01 0. -1.
</event>
<event>
 5   0  0.2038882E-05  0.1998077E+04  0.7818609E-02  0.8607520E-01
        2   -1    0    0  501    0  0.00000000000E+00  0.00000000000E+00  0.14488493389E+04  0.14488493389E+04  0.25500000920E-02 0. -1.
       -2   -1    0    0    0  501  0.00000000000E+00  0.00000000000E+00 -0.68887649016E+03  0.68887649016E+03  0.25500000920E-02 0.  1.
    10030    2    1    2    0    0  0.00000000000E+00  0.00000000000E+00  0.75997284871E+03  0.21377258290E+04  0.19980773232E+04 0.  0.
        3    1    3    3  502    0  0.20876432959E+03 -0.97073811261E+03  0.49798147484E+03  0.11108107796E+04  0.10100000352E+00 0.  1.
       -3    1    3    3    0  502 -0.20876432959E+03  0.97073811261E+03  0.26199137387E+03  0.10269150494E+04  0.10100000352E+00 0. -1.
</event>
<event>
 5   0  0.9140695E-06  0.1995532E+04  0.7818609E-02  0.8608712E-01
        1   -1    0    0  501    0  0.00000000000E+00  0.00000000000E+00  0.98043351464E+03  0.98043351466E+03  0.50400001928E-02 0. -1.
       -1   -1    0    0    0  501  0.00000000000E+00  0.00000000000E+00 -0.10154048433E+04  0.10154048433E+04  0.50400001928E-02 0.  1.
    10030    2    1    2    0    0  0.00000000000E+00  0.00000000000E+00 -0.34971328618E+02  0.19958383579E+04  0.19955319484E+04 0.  0.
        1    1    3    3  502    0 -0.78028851285E+03 -0.46871251458E+03 -0.42619906282E+03  0.10050807061E+04  0.50400001928E-02 0.  1.
       -1    1    3    3    0  502  0.78028851285E+03  0.46871251458E+03  0.39122773420E+03  0.99075765182E+03  0.50400001928E-02 0. -1.
</event>
<event>
 5   0  0.9220260E-06  0.1997627E+04  0.7818609E-02  0.8607731E-01
        1   -1    0    0  501    0  0.00000000000E+00  0.00000000000E+00  0.11868829225E+04  0.11868829225E+04  0.50400001928E-02 0. -1.
       -1   -1    0    0    0  501  0.00000000000E+00  0.00000000000E+00 -0.84054491419E+03  0.84054491420E+03  0.50400001928E-02 0.  1.
    10030    2    1    2    0    0  0.00000000000E+00  0.00000000000E+00  0.34633800827E+03  0.20274278367E+04  0.19976269964E+04 0.  0.
        3    1    3    3  502    0  0.41076301167E+03 -0.71654666198E+02  0.10943254588E+04  0.11710716729E+04  0.10100000352E+00 0. -1.
       -3    1    3    3    0  502 -0.41076301167E+03  0.71654666198E+02 -0.74798745054E+03  0.85635616382E+03  0.10100000352E+00 0.  1.
</event>
<event>
 5   0  0.2038882E-05  0.2003599E+04  0.7818609E-02  0.8604940E-01
       -2   -1    0    0    0  501  0.00000000000E+00  0.00000000000E+00  0.60967667866E+03  0.60967667867E+03  0.25500000920E-02 0. -1.
        2   -1    0    0  501    0  0.00000000000E+00  0.00000000000E+00 -0.16461218754E+04  0.16461218754E+04  0.25500000920E-02 0.  1.
    10030    2    1    2    0    0  0.00000000000E+00  0.00000000000E+00 -0.10364451967E+04  0.22557985540E+04  0.20035988797E+04 0.  0.
        3    1    3    3  502    0 -0.34797114862E+03  0.93600694364E+03 -0.60835709978E+03  0.11693123149E+04  0.10100000352E+00 0. -1.
       -3    1    3    3    0  502  0.34797114862E+03 -0.93600694364E+03 -0.42808809691E+03  0.10864862391E+04  0.10100000352E+00 0.  1.
</event>
<event>
 5   0  0.2020029E-05  0.1998677E+04  0.7818609E-02  0.8607239E-01
       -2   -1    0    0    0  501  0.00000000000E+00  0.00000000000E+00  0.79664003549E+03  0.79664003549E+03  0.25500000920E-02 0.  1.
        2   -1    0    0  501    0  0.00000000000E+00  0.00000000000E+00 -0.12536117928E+04  0.12536117928E+04  0.25500000920E-02 0. -1.
    10030    2    1    2    0    0  0.00000000000E+00  0.00000000000E+00 -0.45697175731E+03  0.20502518283E+04  0.19986769055E+04 0.  0.
        5    1    3    3  502    0  0.23533544289E+03 -0.80894908186E+03 -0.77982491133E+03  0.11480114852E+04  0.46999998093E+01 0. -1.
       -5    1    3    3    0  502 -0.23533544289E+03  0.80894908186E+03  0.32285315402E+03  0.90224034313E+03  0.46999998093E+01 0.  1.
</event>
<event>
 5   0  0.2020029E-05  0.2006697E+04  0.7818609E-02  0.8603496E-01
        2   -1    0    0  501    0  0.00000000000E+00  0.00000000000E+00  0.13723274393E+04  0.13723274393E+04  0.25500000920E-02 0.  1.
       -2   -1    0    0    0  501  0.00000000000E+00  0.00000000000E+00 -0.73357737163E+03  0.73357737164E+03  0.25500000920E-02 0. -1.
    10030    2    1    2    0    0  0.00000000000E+00  0.00000000000E+00  0.63875006762E+03  0.21059048109E+04  0.20066971430E+04 0.  0.
        5    1    3    3  502    0 -0.19867559371E+03 -0.91305213331E+03  0.70288704886E+03  0.11692769061E+04  0.46999998093E+01 0.  1.
       -5    1    3    3    0  502  0.19867559371E+03  0.91305213331E+03 -0.64136981234E+02  0.93662790480E+03  0.46999998093E+01 0. -1.
</event>
<event>
 5   0  0.9370269E-06  0.1997927E+04  0.7818609E-02  0.8607590E-01
        1   -1    0    0  501    0  0.00000000000E+00  0.00000000000E+00  0.20167447971E+04  0.20167447971E+04  0.50400001928E-02 0. -1.
       -1   -1    0    0    0  501  0.00000000000E+00  0.00000000000E+00 -0.49482132983E+03  0.49482132986E+03  0.50400001928E-02 0.  1.
    10030    2    1    2    0    0  0.00000000000E+00  0.00000000000E+00  0.15219234672E+04  0.25115661269E+04  0.19979272684E+04 0.  0.
        4    1    3    3  502    0  0.93679915816E+03 -0.16661780197E+03  0.37848403746E+03  0.10240146162E+04  0.12699999809E+01 0.  1.
       -4    1    3    3    0  502 -0.93679915816E+03  0.16661780197E+03  0.11434394298E+04  0.14875515107E+04  0.12699999809E+01 0. -1.
</event>
<event>
 5   0  0.9342635E-06  0.2002880E+04  0.7818609E-02  0.8605275E-01
       -1   -1    0    0    0  501  0.00000000000E+00  0.00000000000E+00  0.66747845609E+03  0.66747845611E+03  0.50400001928E-02 0. -1.
        1   -1    0    0  501    0  0.00000000000E+00  0.00000000000E+00 -0.15024941580E+04  0.15024941580E+04  0.50400001928E-02 0.  1.
    10030    2    1    2    0    0  0.00000000000E+00  0.00000000000E+00 -0.83501570192E+03  0.21699726141E+04  0.20028804067E+04 0.  0.
        5    1    3    3  502    0 -0.31377581249E+03 -0.38129768824E+03  0.52639010273E+03  0.72176992027E+03  0.46999998093E+01 0. -1.
       -5    1    3    3    0  502  0.31377581249E+03  0.38129768824E+03 -0.13614058046E+04  0.14482026939E+04  0.46999998093E+01 0.  1.
</event>
<event>
 5   0  0.9370269E-06  0.2008534E+04  0.7818609E-02  0.8602641E-01
        1   -1    0    0  501    0  0.00000000000E+00  0.00000000000E+00  0.25350111015E+04  0.25350111015E+04  0.50400001928E-02 0. -1.
       -1   -1    0    0    0  501  0.00000000000E+00  0.00000000000E+00 -0.39784908196E+03  0.39784908199E+03  0.50400001928E-02 0.  1.
    10030    2    1    2    0    0  0.00000000000E+00  0.00000000000E+00  0.21371620195E+04  0.29328601835E+04  0.20085336338E+04 0.  0.
        4    1    3    3  502    0 -0.31144218429E+03  0.35364129932E+03 -0.22638794572E+03  0.52279204050E+03  0.12699999809E+01 0.  1.
       -4    1    3    3    0  502  0.31144218429E+03 -0.35364129932E+03  0.23635499652E+04  0.24100681430E+04  0.12699999809E+01 0. -1.
</event>
<event>
 5   0  0.9220260E-06  0.2000406E+04  0.7818609E-02  0.8606431E-01
       -1   -1    0    0    0  501  0.00000000000E+00  0.00000000000E+00  0.42215344473E+03  0.42215344476E+03  0.50400001928E-02 0. -1.
        1   -1    0    0  501    0  0.00000000000E+00  0.00000000000E+00 -0.23697686891E+04  0.23697686891E+04  0.50400001928E-02 0.  1.
    10030    2    1    2    0    0  0.00000000000E+00  0.00000000000E+00 -0.19476152444E+04  0.27919221339E+04  0.20004059742E+04 0.  0.
        3    1    3    3  502    0 -0.37184146842E+03 -0.80789709935E+03 -0.33507770413E+03  0.95038985621E+03  0.10100000352E+00 0. -1.
       -3    1    3    3    0  502  0.37184146842E+03  0.80789709935E+03 -0.16125375402E+04  0.18415322777E+04  0.10100000352E+00 0.  1.
</event>
<event>
 5   0  0.9370269E-06  0.1999062E+04  0.7818609E-02  0.8607059E-01
       -1   -1    0    0    0  501  0.00000000000E+00  0.00000000000E+00  0.87846870013E+03  0.87846870014E+03  0.50400001928E-02 0. -1.
        1   -1    0    0  501    0  0.00000000000E+00  0.00000000000E+00 -0.11372767318E+04  0.11372767318E+04  0.50400001928E-02 0.  1.
    10030    2    1    2    0    0  0.00000000000E+00  0.00000000000E+00 -0.25880803166E+03  0.20157454319E+04  0.19990617922E+04 0.  0.
        4    1    3    3  502    0  0.88553840130E+03  0.27086707385E+03  0.24991786180E+03  0.95917036152E+03  0.12699999809E+01 0. -1.
       -4    1    3    3    0  502 -0.88553840130E+03 -0.27086707385E+03 -0.50872589346E+03  0.10565750704E+04  0.12699999809E+01 0.  1.
</event>
<event>
 5   0  0.2038882E-05  0.1999524E+04  0.7818609E-02  0.8606843E-01
       -2   -1    0    0    0  501  0.00000000000E+00  0.00000000000E+00  0.19399010595E+04  0.19399010595E+04  0.25500000920E-02 0.  1.
        2   -1    0    0  501    0  0.00000000000E+00  0.00000000000E+00 -0.51524473037E+03  0.51524473037E+03  0.25500000920E-02 0. -1.
    10030    2    1    2    0    0  0.00000000000E+00  0.00000000000E+00  0.14246563292E+04  0.24551457899E+04  0.19995237417E+04 0.  0.
        3    1    3    3  502    0 -0.35330919694E+03  0.33516849955E+03  0.17844159248E+04  0.18496771379E+04  0.10100000352E+00 0.  1.
       -3    1    3    3    0  502  0.35330919694E+03 -0.33516849955E+03 -0.35975959560E+03  0.60546865200E+03  0.10100000352E+00 0. -1.
</event>
<event>
 5   0  0.2020029E-05  0.1991172E+04  0.7818609E-02  0.8610759E-01
        2   -1    0    0  501    0  0.00000000000E+00  0.00000000000E+00  0.20730734319E+04  0.20730734319E+04  0.25500000920E-02 0.  1.
       -2   -1    0    0    0  501  0.00000000000E+00  0.00000000000E+00 -0.47812637104E+03  0.47812637105E+03  0.25500000920E-02 0. -1.
    10030    2    1    2    0    0  0.00000000000E+00  0.00000000000E+00  0.15949470609E+04  0.25511998030E+04  0.19911715917E+04 0.  0.
        5    1    3    3  502    0  0.10217405855E+03  0.47962293220E+03  0.19075847044E+04  0.19696139697E+04  0.46999998093E+01 0.  1.
       -5    1    3    3    0  502 -0.10217405855E+03 -0.47962293220E+03 -0.31263764349E+03  0.58158583326E+03  0.46999998093E+01 0. -1.
</event>
<event>
 5   0  0.2020029E-05  0.1995565E+04  0.7818609E-02  0.8608697E-01
        2   -1    0    0  501    0  0.00000000000E+00  0.00000000000E+00  0.14686434255E+04  0.14686434255E+04  0.25500000920E-02 0. -1.
       -2   -1    0    0    0  501  0.00000000000E+00  0.00000000000E+00 -0.67788427610E+03  0.67788427611E+03  0.25500000920E-02 0.  1.
    10030    2    1    2    0    0  0.00000000000E+00  0.00000000000E+00  0.79075914937E+03  0.21465277016E+04  0.19955653688E+04 0.  0.
        5    1    3    3  502    0 -0.17768285679E+03 -0.16462501782E+03  0.14365252594E+04  0.14568114171E+04  0.46999998093E+01 0. -1.
       -5    1    3    3    0  502  0.17768285679E+03  0.16462501782E+03 -0.64576611008E+03  0.68971628444E+03  0.46999998093E+01 0.  1.
</event>
<event>
 5   0  0.9140695E-06  0.2000690E+04  0.7818609E-02  0.8606298E-01
       -1   -1    0    0    0  501  0.00000000000E+00  0.00000000000E+00  0.76914953845E+03  0.76914953846E+03  0.50400001928E-02 0. -1.
        1   -1    0    0  501    0  0.00000000000E+00  0.00000000000E+00 -0.13010346995E+04  0.13010346995E+04  0.50400001928E-02 0.  1.
    10030    2    1    2    0    0  0.00000000000E+00  0.00000000000E+00 -0.53188516109E+03  0.20701842380E+04  0.20006901196E+04 0.  0.
        1    1    3    3  502    0 -0.67100030378E+03  0.71020466973E+03 -0.48800877660E+03  0.10921468064E+04  0.50400001928E-02 0.  1.
       -1    1    3    3    0  502  0.67100030378E+03 -0.71020466973E+03 -0.43876384491E+02  0.97803743165E+03  0.50400001928E-02 0. -1.
</event>
<event>
 5   0  0.1999142E-05  0.1993755E+04  0.7818609E-02  0.8609546E-01
        2   -1    0    0  501    0  0.00000000000E+00  0.00000000000E+00  0.13565705035E+04  0.13565705035E+04  0.25500000920E-02 0.  1.
       -2   -1    0    0    0  501  0.00000000000E+00  0.00000000000E+00 -0.73255687684E+03  0.73255687684E+03  0.25500000920E-02 0. -1.
    10030    2    1    2    0    0  0.00000000000E+00  0.00000000000E+00  0.62401362666E+03  0.20891273803E+04  0.19937553022E+04 0.  0.
        1    1    3    3  502    0 -0.21410122610E+03 -0.12498694164E+03  0.13237536027E+04  0.13467682323E+04  0.50400001928E-02 0.  1.
       -1    1    3    3    0  502  0.21410122610E+03  0.12498694164E+03 -0.69973997608E+03  0.74235914809E+03  0.50400001928E-02 0. -1.
</event>
<event>
 5   0  0.1999142E-05  0.2000978E+04  0.7818609E-02  0.8606163E-01
        2   -1    0    0  501    0  0.00000000000E+00  0.00000000000E+00  0.13296737468E+04  0.13296737468E+04  0.25500000920E-02 0. -1.
       -2   -1    0    0    0  501  0.00000000000E+00  0.00000000000E+00 -0.75280015206E+03  0.75280015206E+03  0.25500000920E-02 0.  1.
    10030    2    1    2    0    0  0.00000000000E+00  0.00000000000E+00  0.57687359471E+03  0.20824738988E+04  0.20009783595E+04 0.  0.
        1    1    3    3  502    0 -0.23830277851E+03  0.78886114061E+03 -0.30202240518E+03  0.87767171919E+03  0.50400001928E-02 0.  1.
       -1    1    3    3    0  502  0.23830277851E+03 -0.78886114061E+03  0.87889599989E+03  0.12048021796E+04  0.50400001928E-02 0. -1.
</event>
<event>
 5   0  0.9220260E-06  0.2003259E+04  0.7818609E-02  0.8605099E-01
        1   -1    0    0  501    0  0.00000000000E+00  0.00000000000E+00  0.14445543346E+04  0.14445543346E+04  0.50400001928E-02 0.  1.
       -1   -1    0    0    0  501  0.00000000000E+00  0.00000000000E+00 -0.69451282167E+03  0.69451282169E+03  0.50400001928E-02 0. -1.
    10030    2    1    2    0    0  0.00000000000E+00  0.00000000000E+00  0.75004151294E+03  0.21390671563E+04  0.20032588520E+04 0.  0.
        3    1    3    3  502    0  0.86535903114E+03 -0.43546391115E+03  0.10323333043E+03  0.97423416148E+03  0.10100000352E+00 0. -1.
       -3    1    3    3    0  502 -0.86535903114E+03  0.43546391115E+03  0.64680818251E+03  0.11648329948E+04  0.10100000352E+00 0.  1.
</event>
<event>
 5   0  0.2003576E-05  0.2001065E+04  0.7818609E-02  0.8606123E-01
        2   -1    0    0  501    0  0.00000000000E+00  0.00000000000E+00  0.87082020607E+03  0.87082020608E+03  0.25500000920E-02 0.  1.
       -2   -1    0    0    0  501  0.00000000000E+00  0.00000000000E+00 -0.11495662447E+04  0.11495662447E+04  0.25500000920E-02 0. -1.
    10030    2    1    2    0    0  0.00000000000E+00  0.00000000000E+00 -0.27874603863E+03  0.20203864508E+04  0.20010652304E+04 0.  0.
        4    1    3    3  502    0  0.93342250824E+03 -0.47299531197E+02  0.22121547158E+03  0.96044402351E+03  0.12699999809E+01 0.  1.
       -4    1    3    3    0  502 -0.93342250824E+03  0.47299531197E+02 -0.49996151022E+03  0.10599424273E+04  0.12699999809E+01 0. -1.
</event>
<event>
 5   0  0.9333353E-06  0.1997856E+04  0.7818609E-02  0.8607624E-01
       -1   -1    0    0    0  501  0.00000000000E+00  0.00000000000E+00  0.75911982928E+03  0.75911982930E+03  0.50400001928E-02 0. -1.
        1   -1    0    0  501    0  0.00000000000E+00  0.00000000000E+00 -0.13144917562E+04  0.13144917562E+04  0.50400001928E-02 0.  1.
    10030    2    1    2    0    0  0.00000000000E+00  0.00000000000E+00 -0.55537192688E+03  0.20736115855E+04  0.19978556079E+04 0.  0.
        2    1    3    3  502    0 -0.19625061792E+03 -0.89970639191E+03 -0.67949704923E+03  0.11444221846E+04  0.25500000920E-02 0.  1.
       -2    1    3    3    0  502  0.19625061792E+03  0.89970639191E+03  0.12412512235E+03  0.92918940087E+03  0.25500000920E-02 0. -1.
</event>
<event>
 5   0  0.1979765E-05  0.2013874E+04  0.7818609E-02  0.8600162E-01
        2   -1    0    0  501    0  0.00000000000E+00  0.00000000000E+00  0.19111914553E+04  0.19111914553E+04  0.25500000920E-02 0. -1.
       -2   -1    0    0    0  501  0.00000000000E+00  0.00000000000E+00 -0.53051814241E+03  0.53051814242E+03  0.25500000920E-02 0.  1.
    10030    2    1    2    0    0  0.00000000000E+00  0.00000000000E+00  0.13806733129E+04  0.24417095977E+04  0.20138736213E+04 0.  0.
        2    1    3    3  502    0 -0.17220128994E+03 -0.19111976339E+03 -0.49000243335E+03  0.55342789315E+03  0.25500000920E-02 0.  1.
       -2    1    3    3    0  502  0.17220128994E+03  0.19111976339E+03  0.18706757462E+04  0.18882817045E+04  0.25500000920E-02 0. -1.
</event>
<event>
 5   0  0.9140695E-06  0.1993963E+04  0.7818609E-02  0.8609448E-01
       -1   -1    0    0    0  501  0.00000000000E+00  0.00000000000E+00  0.10616987506E+04  0.10616987506E+04  0.50400001928E-02 0.  1.
        1   -1    0    0  501    0  0.00000000000E+00  0.00000000000E+00 -0.93620934312E+03  0.93620934313E+03  0.50400001928E-02 0. -1.
    10030    2    1    2    0    0  0.00000000000E+00  0.00000000000E+00  0.12548940744E+03  0.19979080937E+04  0.19939631791E+04 0.  0.
        1    1    3    3  502    0 -0.46236351545E+03 -0.37427836119E+03 -0.73890565628E+03  0.94860206672E+03  0.50400001928E-02 0. -1.
       -1    1    3    3    0  502  0.46236351545E+03  0.37427836119E+03  0.86439506371E+03  0.10493060270E+04  0.50400001928E-02 0.  1.
</event>
<event>
 5   0  0.1979765E-05  0.2004708E+04  0.7818609E-02  0.8604423E-01
        2   -1    0    0  501    0  0.00000000000E+00  0.00000000000E+00  0.60177839694E+03  0.60177839694E+03  0.25500000920E-02 0. -1.
       -2   -1    0    0    0  501  0.00000000000E+00  0.00000000000E+00 -0.16695741854E+04  0.16695741854E+04  0.25500000920E-02 0.  1.
    10030    2    1    2    0    0  0.00000000000E+00  0.00000000000E+00 -0.10677957885E+04  0.22713525824E+04  0.20047081352E+04 0.  0.
        2    1    3    3  502    0 -0.42393309329E+02 -0.48867662044E+03 -0.15243005846E+04  0.16012789589E+04  0.25500000920E-02 0.  1.
       -2    1    3    3    0  502  0.42393309329E+02  0.48867662044E+03  0.45650479608E+03  0.67007362349E+03  0.25500000920E-02 0. -1.
</event>
<event>
 5   0  0.2020029E-05  0.2002217E+04  0.7818609E-02  0.8605585E-01
       -2   -1    0    0    0  501  0.00000000000E+00  0.00000000000E+00  0.61735435477E+03  0.61735435477E+03  0.25500000920E-02 0.  1.
        2   -1    0    0  501    0  0.00000000000E+00  0.00000000000E+00 -0.16234086105E+04  0.16234086105E+04  0.25500000920E-02 0. -1.
    10030    2    1    2    0    0  0.00000000000E+00  0.00000000000E+00 -0.10060542558E+04  0.22407629653E+04  0.20022171463E+04 0.  0.
        5    1    3    3  502    0 -0.14220665094E+03  0.62574983056E+03 -0.13629546578E+04  0.15064704017E+04  0.46999998093E+01 0. -1.
       -5    1    3    3    0  502  0.14220665094E+03 -0.62574983056E+03  0.35690040202E+03  0.73429256361E+03  0.46999998093E+01 0.  1.
</event>
<event>
 5   0  0.2020029E-05  0.1997770E+04  0.7818609E-02  0.8607664E-01
       -2   -1    0    0    0  501  0.00000000000E+00  0.00000000000E+00  0.78252497415E+03  0.78252497416E+03  0.25500000920E-02 0. -1.
        2   -1    0    0  501    0  0.00000000000E+00  0.00000000000E+00 -0.12750660042E+04  0.12750660042E+04  0.25500000920E-02 0.  1.
    10030    2    1    2    0    0  0.00000000000E+00  0.00000000000E+00 -0.49254103002E+03  0.20575909783E+04  0.19977697485E+04 0.  0.
        5    1    3    3  502    0 -0.18115655342E+03 -0.63978714972E+03  0.52143762119E+03  0.84502341778E+03  0.46999998093E+01 0. -1.
       -5    1    3    3    0  502  0.18115655342E+03  0.63978714972E+03 -0.10139786512E+04  0.12125675606E+04  0.46999998093E+01 0.  1.
</event>
<event>
 5   0  0.7132000E-06  0.2001271E+04  0.7818609E-02  0.8606027E-01
        4   -1    0    0  501    0  0.00000000000E+00  0.00000000000E+00  0.12120290961E+04  0.12120297615E+04  0.12699999809E+01 0.  1.
       -4   -1    0    0    0  501  0.00000000000E+00  0.00000000000E+00 -0.82611021688E+03  0.82611119309E+03  0.12699999809E+01 0. -1.
    10030    2    1    2    0    0  0.00000000000E+00  0.00000000000E+00  0.38591887923E+03  0.20381409546E+04  0.20012708886E+04 0.  0.
        2    1    3    3  502    0 -0.42396641104E+02  0.99965074944E+03  0.20632355559E+03  0.10216009523E+04  0.25500000920E-02 0.  1.
       -2    1    3    3    0  502  0.42396641104E+02 -0.99965074944E+03  0.17959532364E+03  0.10165400023E+04  0.25500000920E-02 0. -1.
</event>
<event>
 5   0  0.9140695E-06  0.1996576E+04  0.7818609E-02  0.8608223E-01
       -1   -1    0    0    0  501  0.00000000000E+00  0.00000000000E+00  0.92226443830E+03  0.92226443832E+03  0.50400001928E-02 0.  1.
        1   -1    0    0  501    0  0.00000000000E+00  0.00000000000E+00 -0.10805783119E+04  0.10805783119E+04  0.50400001928E-02 0. -1.
    10030    2    1    2    0    0  0.00000000000E+00  0.00000000000E+00 -0.15831387363E+03  0.20028427503E+04  0.19965760190E+04 0.  0.
        1    1    3    3  502    0  0.98282973851E+03  0.17235434856E+03 -0.48752836886E+02  0.99901809568E+03  0.50400001928E-02 0. -1.
       -1    1    3    3    0  502 -0.98282973851E+03 -0.17235434856E+03 -0.10956103675E+03  0.10038246546E+04  0.50400001928E-02 0.  1.
</event>
<event>
 5   0  0.9220260E-06  0.1993347E+04  0.7818609E-02  0.8609737E-01
        1   -1    0    0  501    0  0.00000000000E+00  0.00000000000E+00  0.15807674769E+04  0.15807674769E+04  0.50400001928E-02 0. -1.
       -1   -1    0    0    0  501  0.00000000000E+00  0.00000000000E+00 -0.62840247276E+03  0.62840247278E+03  0.50400001928E-02 0.  1.
    10030    2    1    2    0    0  0.00000000000E+00  0.00000000000E+00  0.95236500409E+03  0.22091699496E+04  0.19933471262E+04 0.  0.
        3    1    3    3  502    0  0.94029381683E+03 -0.15876423705E+03  0.79738942373E+03  0.12430560921E+04  0.10100000352E+00 0. -1.
       -3    1    3    3    0  502 -0.94029381683E+03  0.15876423705E+03  0.15497558036E+03  0.96611385750E+03  0.10100000352E+00 0.  1.
</event>
<event>
 5   0  0.9220260E-06  0.2002245E+04  0.7818609E-02  0.8605572E-01
       -1   -1    0    0    0  501  0.00000000000E+00  0.00000000000E+00  0.11002109949E+04  0.11002109949E+04  0.50400001928E-02 0. -1.
        1   -1    0    0  501    0  0.00000000000E+00  0.00000000000E+00 -0.91095808327E+03  0.91095808328E+03  0.50400001928E-02 0.  1.
    10030    2    1    2    0    0  0.00000000000E+00  0.00000000000E+00  0.18925291166E+03  0.20111690782E+04  0.20022448393E+04 0.  0.
        3    1    3    3  502    0 -0.66177325478E+03  0.59338401280E+03 -0.36807588535E+03  0.96204381136E+03  0.10100000352E+00 0.  1.
       -3    1    3    3    0  502  0.66177325478E+03 -0.59338401280E+03  0.55732879701E+03  0.10491252669E+04  0.10100000352E+00 0. -1.
</event>
<event>
 5   0  0.1999142E-05  0.1977227E+04  0.7818609E-02  0.8617342E-01
        2   -1    0    0  501    0  0.00000000000E+00  0.00000000000E+00  0.13021619763E+04  0.13021619763E+04  0.25500000920E-02 0. -1.
       -2   -1    0    0    0  501  0.00000000000E+00  0.00000000000E+00 -0.75056483294E+03  0.75056483295E+03  0.25500000920E-02 0.  1.
    10030    2    1    2    0    0  0.00000000000E+00  0.00000000000E+00  0.55159714331E+03  0.20527268092E+04  0.19772273376E+04 0.  0.
        1    1    3    3  502    0 -0.13696687446E+03  0.14208152330E+03 -0.72990695982E+03  0.75611589983E+03  0.50400001928E-02 0.  1.
       -1    1    3    3    0  502  0.13696687446E+03 -0.14208152330E+03  0.12815041031E+04  0.12966109094E+04  0.50400001928E-02 0. -1.
</event>
<event>
 5   0  0.9342635E-06  0.1998098E+04  0.7818609E-02  0.8607511E-01
       -1   -1    0    0    0  501  0.00000000000E+00  0.00000000000E+00  0.67481265183E+03  0.67481265185E+03  0.50400001928E-02 0. -1.
        1   -1    0    0  501    0  0.00000000000E+00  0.00000000000E+00 -0.14790752657E+04  0.14790752658E+04  0.50400001928E-02 0.  1.
    10030    2    1    2    0    0  0.00000000000E+00  0.00000000000E+00 -0.80426261391E+03  0.21538879176E+04  0.19980977978E+04 0.  0.
        5    1    3    3  502    0 -0.16316224049E+03 -0.79010361242E+03  0.23303956548E+03  0.83977089980E+03  0.46999998093E+01 0. -1.
       -5    1    3    3    0  502  0.16316224049E+03  0.79010361242E+03 -0.10373021794E+04  0.13141170178E+04  0.46999998093E+01 0.  1.
</event>
<event>
 5   0  0.1999142E-05  0.1998774E+04  0.7818609E-02  0.8607194E-01
        2   -1    0    0  501    0  0.00000000000E+00  0.00000000000E+00  0.17520625253E+04  0.17520625253E+04  0.25500000920E-02 0. -1.
       -2   -1    0    0    0  501  0.00000000000E+00  0.00000000000E+00 -0.57005616316E+03  0.57005616316E+03  0.25500000920E-02 0.  1.
    10030    2    1    2    0    0  0.00000000000E+00  0.00000000000E+00  0.11820063621E+04  0.23221186884E+04  0.19987736648E+04 0.  0.
        1    1    3    3  502    0 -0.20072867031E+03 -0.21480703535E+03 -0.51868036913E+03  0.59620750319E+03  0.50400001928E-02 0.  1.
       -1    1    3    3    0  502  0.20072867031E+03  0.21480703535E+03  0.17006867313E+04  0.17259111853E+04  0.50400001928E-02 0. -1.
</event>
<event>
 5   0  0.2038882E-05  0.2000020E+04  0.7818609E-02  0.8606611E-01
       -2   -1    0    0    0  501  0.00000000000E+00  0.00000000000E+00  0.59778602165E+03  0.59778602166E+03  0.25500000920E-02 0.  1.
        2   -1    0    0  501    0  0.00000000000E+00  0.00000000000E+00 -0.16728732715E+04  0.16728732715E+04  0.25500000920E-02 0. -1.
    10030    2    1    2    0    0  0.00000000000E+00  0.00000000000E+00 -0.10750872499E+04  0.22706592932E+04  0.20000202576E+04 0.  0.
        3    1    3    3  502    0  0.77244045643E+01  0.94882460570E+03 -0.89601023728E+03  0.13050525485E+04  0.10100000352E+00 0.  1.
       -3    1    3    3    0  502 -0.77244045643E+01 -0.94882460570E+03 -0.17907701262E+03  0.96560674472E+03  0.10100000352E+00 0. -1.
</event>
<event>
 5   0  0.1979765E-05  0.1997178E+04  0.7818609E-02  0.8607941E-01
        2   -1    0    0  501    0  0.00000000000E+00  0.00000000000E+00  0.12005683196E+04  0.12005683196E+04  0.25500000920E-02 0. -1.
       -2   -1    0    0    0  501  0.00000000000E+00  0.00000000000E+00 -0.83058961170E+03  0.83058961170E+03  0.25500000920E-02 0.  1.
    10030    2    1    2    0    0  0.00000000000E+00  0.00000000000E+00  0.36997870787E+03  0.20311579313E+04  0.19971775829E+04 0.  0.
        2    1    3    3  502    0  0.58983046519E+03  0.86409232168E+02  0.99975231717E+03  0.11639893594E+04  0.25500000920E-02 0. -1.
       -2    1    3    3    0  502 -0.58983046519E+03 -0.86409232168E+02 -0.62977360931E+03  0.86716857188E+03  0.25500000920E-02 0.  1.
</event>
<event>
 5   0  0.9333353E-06  0.2003267E+04  0.7818609E-02  0.8605095E-01
       -1   -1    0    0    0  501  0.00000000000E+00  0.00000000000E+00  0.10300230177E+04  0.10300230177E+04  0.50400001928E-02 0. -1.
        1   -1    0    0  501    0  0.00000000000E+00  0.00000000000E+00 -0.97402604353E+03  0.97402604354E+03  0.50400001928E-02 0.  1.
    10030    2    1    2    0    0  0.00000000000E+00  0.00000000000E+00  0.55996974150E+02  0.20040490612E+04  0.20032665770E+04 0.  0.
        2    1    3    3  502    0  0.94594796153E+03  0.13301023729E+03 -0.27338315107E+03  0.99360334966E+03  0.25500000920E-02 0.  1.
       -2    1    3    3    0  502 -0.94594796153E+03 -0.13301023729E+03  0.32938012522E+03  0.10104457116E+04  0.25500000920E-02 0. -1.
</event>
<event>
 5   0  0.2020029E-05  0.1998909E+04  0.7818609E-02  0.8607131E-01
       -2   -1    0    0    0  501  0.00000000000E+00  0.00000000000E+00  0.37839872065E+03  0.37839872066E+03  0.25500000920E-02 0.  1.
        2   -1    0    0  501    0  0.00000000000E+00  0.00000000000E+00 -0.26398330360E+04  0.26398330360E+04  0.25500000920E-02 0. -1.
    10030    2    1    2    0    0  0.00000000000E+00  0.00000000000E+00 -0.22614343154E+04  0.30182317567E+04  0.19989091461E+04 0.  0.
        5    1    3    3  502    0 -0.38750085429E+03  0.92102385653E+03 -0.10988471611E+04  0.14852370282E+04  0.46999998093E+01 0.  1.
       -5    1    3    3    0  502  0.38750085429E+03 -0.92102385653E+03 -0.11625871542E+04  0.15329947285E+04  0.46999998093E+01 0. -1.
</event>
<event>
 5   0  0.7132000E-06  0.1993923E+04  0.7818609E-02  0.8609467E-01
        3   -1    0    0  501    0  0.00000000000E+00  0.00000000000E+00  0.98135560638E+03  0.98135561157E+03  0.10100000352E+00 0.  1.
       -3   -1    0    0    0  501  0.00000000000E+00  0.00000000000E+00 -0.10128151744E+04  0.10128151795E+04  0.10100000352E+00 0. -1.
    10030    2    1    2    0    0  0.00000000000E+00  0.00000000000E+00 -0.31459568069E+02  0.19941707911E+04  0.19939226263E+04 0.  0.
        4    1    3    3  502    0 -0.20961739928E+03  0.94647971315E+03  0.21703711574E+03  0.99341331982E+03  0.12699999809E+01 0.  1.
       -4    1    3    3    0  502  0.20961739928E+03 -0.94647971315E+03 -0.24849668381E+03  0.10007574712E+04  0.12699999809E+01 0. -1.
</event>
<event>
 5   0  0.2020029E-05  0.1997877E+04  0.7818609E-02  0.8607614E-01
        2   -1    0    0  501    0  0.00000000000E+00  0.00000000000E+00  0.22718577265E+04  0.22718577265E+04  0.25500000920E-02 0. -1.
       -2   -1    0    0    0  501  0.00000000000E+00  0.00000000000E+00 -0.43923445263E+03  0.43923445264E+03  0.25500000920E-02 0.  1.
    10030    2    1    2    0    0  0.00000000000E+00  0.00000000000E+00  0.18326232739E+04  0.27110921792E+04  0.19978770583E+04 0.  0.
        5    1    3    3  502    0  0.78883612367E+03 -0.47506838073E+03  0.39092176262E+03  0.10003970766E+04  0.46999998093E+01 0.  1.
       -5    1    3    3    0  502 -0.78883612367E+03  0.47506838073E+03  0.14417015113E+04  0.17106951026E+04  0.46999998093E+01 0. -1.
</event>
<event>
 5   0  0.1999142E-05  0.1997138E+04  0.7818609E-02  0.8607960E-01
       -2   -1    0    0    0  501  0.00000000000E+00  0.00000000000E+00  0.52324244011E+03  0.52324244012E+03  0.25500000920E-02 0. -1.
        2   -1    0    0  501    0  0.00000000000E+00  0.00000000000E+00 -0.19056948012E+04  0.19056948012E+04  0.25500000920E-02 0.  1.
    10030    2    1    2    0    0  0.00000000000E+00  0.00000000000E+00 -0.13824523611E+04  0.24289372413E+04  0.19971383506E+04 0.  0.
        1    1    3    3  502    0 -0.77462744566E+03 -0.31487082165E+02  0.74214017946E+02  0.77881116864E+03  0.50400001928E-02 0. -1.
       -1    1    3    3    0  502  0.77462744566E+03  0.31487082165E+02 -0.14566663790E+04  0.16501260727E+04  0.50400001928E-02 0.  1.
</event>
<event>
 5   0  0.2003576E-05  0.2002127E+04  0.7818609E-02  0.8605627E-01
       -2   -1    0    0    0  501  0.00000000000E+00  0.00000000000E+00  0.73663032760E+03  0.73663032761E+03  0.25500000920E-02 0. -1.
        2   -1    0    0  501    0  0.00000000000E+00  0.00000000000E+00 -0.13604225186E+04  0.13604225186E+04  0.25500000920E-02 0.  1.
    10030    2    1    2    0    0  0.00000000000E+00  0.00000000000E+00 -0.62379219097E+03  0.20970528462E+04  0.20021273541E+04 0.  0.
        4    1    3    3  502    0 -0.85888078931E+03  0.18609938057E+03  0.19022607396E+03  0.89916447984E+03  0.12699999809E+01 0.  1.
       -4    1    3    3    0  502  0.85888078931E+03 -0.18609938057E+03 -0.81401826493E+03  0.11978883663E+04  0.12699999809E+01 0. -1.
</event>
<event>
 5   0  0.9333353E-06  0.2000686E+04  0.7818609E-02  0.8606300E-01
        1   -1    0    0  501    0  0.00000000000E+00  0.00000000000E+00  0.22860083519E+04  0.22860083519E+04  0.50400001928E-02 0. -1.
       -1   -1    0    0    0  501  0.00000000000E+00  0.00000000000E+00 -0.43774395407E+03  0.43774395410E+03  0.50400001928E-02 0.  1.
    10030    2    1    2    0    0  0.00000000000E+00  0.00000000000E+00  0.18482643979E+04  0.27237523060E+04  0.20006862173E+04 0.  0.
        2    1    3    3  502    0  0.85902614251E+03  0.37074320306E+03  0.44220513001E+03  0.10348535226E+04  0.25500000920E-02 0. -1.
       -2    1    3    3    0  502 -0.85902614251E+03 -0.37074320306E+03  0.14060592678E+04  0.16888987835E+04  0.25500000920E-02 0.  1.
</event>
<event>
 5   0  0.9333353E-06  0.1990652E+04  0.7818609E-02  0.8611004E-01
        1   -1    0    0  501    0  0.00000000000E+00  0.00000000000E+00  0.10217151788E+04  0.10217151789E+04  0.50400001928E-02 0. -1.
       -1   -1    0    0    0  501  0.00000000000E+00  0.00000000000E+00 -0.96961815548E+03  0.96961815549E+03  0.50400001928E-02 0.  1.
    10030    2    1    2    0    0  0.00000000000E+00  0.00000000000E+00  0.52097023368E+02  0.19913333343E+04  0.19906517397E+04 0.  0.
        2    1    3    3  502    0 -0.42783777665E+03 -0.86795623422E+03 -0.20701280397E+03  0.98956934505E+03  0.25500000920E-02 0.  1.
       -2    1    3    3    0  502  0.42783777665E+03  0.86795623422E+03  0.25910982733E+03  0.10017639893E+04  0.25500000920E-02 0. -1.
</event>
<event>
 5   0  0.2020029E-05  0.2000831E+04  0.7818609E-02  0.8606232E-01
        2   -1    0    0  501    0  0.00000000000E+00  0.00000000000E+00  0.10083032003E+04  0.10083032003E+04  0.25500000920E-02 0.  1.
       -2   -1    0    0    0  501  0.00000000000E+00  0.00000000000E+00 -0.99258972952E+03  0.99258972952E+03  0.25500000920E-02 0. -1.
    10030    2    1    2    0    0  0.00000000000E+00  0.00000000000E+00  0.15713470794E+02  0.20008929298E+04  0.20008312281E+04 0.  0.
        5    1    3    3  502    0 -0.96270292983E+02 -0.83848828088E+03  0.54497547170E+03  0.10046645815E+04  0.46999998093E+01 0. -1.
       -5    1    3    3    0  502  0.96270292983E+02  0.83848828088E+03 -0.52926200091E+03  0.99622834837E+03  0.46999998093E+01 0.  1.
</event>
<event>
 5   0  0.2038882E-05  0.2000677E+04  0.7818609E-02  0.8606304E-01
        2   -1    0    0  501    0  0.00000000000E+00  0.00000000000E+00  0.13479682253E+04  0.13479682253E+04  0.25500000920E-02 0.  1.
       -2   -1    0    0    0  501  0.00000000000E+00  0.00000000000E+00 -0.74235981765E+03  0.74235981766E+03  0.25500000920E-02 0. -1.
    10030    2    1    2    0    0  0.00000000000E+00  0.00000000000E+00  0.60560840761E+03  0.20903280429E+04  0.20006773312E+04 0.  0.
        3    1    3    3  502    0 -0.55796551259E+03 -0.83012725604E+03  0.31901261630E+03  0.10498599116E+04  0.10100000352E+00 0.  1.
       -3    1    3    3    0  502  0.55796551259E+03  0.83012725604E+03  0.28659579131E+03  0.10404681313E+04  0.10100000352E+00 0. -1.
</event>
<event>
 5   0  0.9333353E-06  0.1994852E+04  0.7818609E-02  0.8609031E-01
       -1   -1    0    0    0  501  0.00000000000E+00  0.00000000000E+00  0.52519365627E+03  0.52519365629E+03  0.50400001928E-02 0. -1.
        1   -1    0    0  501    0  0.00000000000E+00  0.00000000000E+00 -0.18942703150E+04  0.18942703150E+04  0.50400001928E-02 0.  1.
    10030    2    1    2    0    0  0.00000000000E+00  0.00000000000E+00 -0.13690766587E+04  0.24194639713E+04  0.19948521276E+04 0.  0.
        2    1    3    3  502    0 -0.75713389922E+02 -0.17142465203E+03 -0.18727264584E+04  0.18820795192E+04  0.25500000920E-02 0.  1.
       -2    1    3    3    0  502  0.75713389922E+02  0.17142465203E+03  0.50364979961E+03  0.53738445213E+03  0.25500000920E-02 0. -1.
</event>
<event>
 5   0  0.2003576E-05  0.1999662E+04  0.7818609E-02  0.8606779E-01
        2   -1    0    0  501    0  0.00000000000E+00  0.00000000000E+00  0.11282528451E+04  0.11282528451E+04  0.25500000920E-02 0.  1.
       -2   -1    0    0    0  501  0.00000000000E+00  0.00000000000E+00 -0.88602673728E+03  0.88602673728E+03  0.25500000920E-02 0. -1.
    10030    2    1    2    0    0  0.00000000000E+00  0.00000000000E+00  0.24222610783E+03  0.20142795824E+04  0.19996621587E+04 0.  0.
        4    1    3    3  502    0 -0.44141878020E+03  0.86109625052E+03  0.37459371482E+03  0.10376219717E+04  0.12699999809E+01 0.  1.
       -4    1    3    3    0  502  0.44141878020E+03 -0.86109625052E+03 -0.13236760699E+03  0.97665761065E+03  0.12699999809E+01 0. -1.
</event>
<event>
 5   0  0.9370269E-06  0.1998677E+04  0.7818609E-02  0.8607239E-01
       -1   -1    0    0    0  501  0.00000000000E+00  0.00000000000E+00  0.13389521624E+04  0.13389521624E+04  0.50400001928E-02 0. -1.
        1   -1    0    0  501    0  0.00000000000E+00  0.00000000000E+00 -0.74586495480E+03  0.74586495482E+03  0.50400001928E-02 0.  1.
    10030    2    1    2    0    0  0.00000000000E+00  0.00000000000E+00  0.59308720758E+03  0.20848171172E+04  0.19986770566E+04 0.  0.
        4    1    3    3  502    0 -0.22717705968E+03  0.74637041793E+03  0.94795648157E+03  0.12277220048E+04  0.12699999809E+01 0. -1.
       -4    1    3    3    0  502  0.22717705968E+03 -0.74637041793E+03 -0.35486927399E+03  0.85709511242E+03  0.12699999809E+01 0.  1.
</event>
<event>
 5   0  0.9220260E-06  0.1998320E+04  0.7818609E-02  0.8607407E-01
        1   -1    0    0  501    0  0.00000000000E+00  0.00000000000E+00  0.12495020947E+04  0.12495020947E+04  0.50400001928E-02 0.  1.
       -1   -1    0    0    0  501  0.00000000000E+00  0.00000000000E+00 -0.79897472078E+03  0.79897472080E+03  0.50400001928E-02 0. -1.
    10030    2    1    2    0    0  0.00000000000E+00  0.00000000000E+00  0.45052737388E+03  0.20484768155E+04  0.19983198815E+04 0.  0.
        3    1    3    3  502    0  0.54238225628E+03  0.79695030717E+03 -0.44031883319E+02  0.96501146157E+03  0.10100000352E+00 0. -1.
       -3    1    3    3    0  502 -0.54238225628E+03 -0.79695030717E+03  0.49455925720E+03  0.10834653539E+04  0.10100000352E+00 0.  1.
</event>
<event>
 5   0  0.1999142E-05  0.1997792E+04  0.7818609E-02  0.8607654E-01
        2   -1    0    0  501    0  0.00000000000E+00  0.00000000000E+00  0.19408258486E+04  0.19408258486E+04  0.25500000920E-02 0. -1.
       -2   -1    0    0    0  501  0.00000000000E+00  0.00000000000E+00 -0.51410752398E+03  0.51410752399E+03  0.25500000920E-02 0.  1.
    10030    2    1    2    0    0  0.00000000000E+00  0.00000000000E+00  0.14267183246E+04  0.24549333726E+04  0.19977919527E+04 0.  0.
        1    1    3    3  502    0 -0.64992960078E+03  0.46805400371E+03  0.14468649388E+04  0.16537536659E+04  0.50400001928E-02 0. -1.
       -1    1    3    3    0  502  0.64992960078E+03 -0.46805400371E+03 -0.20146614148E+02  0.80117970671E+03  0.50400001928E-02 0.  1.
</event>
<event>
 5   0  0.9333353E-06  0.1999587E+04  0.7818609E-02  0.8606814E-01
       -1   -1    0    0    0  501  0.00000000000E+00  0.00000000000E+00  0.12939328691E+04  0.12939328691E+04  0.50400001928E-02 0. -1.
        1   -1    0    0  501    0  0.00000000000E+00  0.00000000000E+00 -0.77251875141E+03  0.77251875143E+03  0.50400001928E-02 0.  1.
    10030    2    1    2    0    0  0.00000000000E+00  0.00000000000E+00  0.52141411764E+03  0.20664516205E+04  0.19995873619E+04 0.  0.
        2    1    3    3  502    0 -0.13653040461E+03 -0.60545002933E+03  0.10707394285E+04  0.12376159392E+04  0.25500000920E-02 0. -1.
       -2    1    3    3    0  502  0.13653040461E+03  0.60545002933E+03 -0.54932531082E+03  0.82883568125E+03  0.25500000920E-02 0.  1.
</event>
<event>
 5   0  0.1999142E-05  0.2022040E+04  0.7818609E-02  0.8596385E-01
       -2   -1    0    0    0  501  0.00000000000E+00  0.00000000000E+00  0.65520526574E+03  0.65520526575E+03  0.25500000920E-02 0.  1.
        2   -1    0    0  501    0  0.00000000000E+00  0.00000000000E+00 -0.15600626129E+04  0.15600626129E+04  0.25500000920E-02 0. -1.
    10030    2    1    2    0    0  0.00000000000E+00  0.00000000000E+00 -0.90485734717E+03  0.22152678787E+04  0.20220398007E+04 0.  0.
        1    1    3    3  502    0  0.17917369845E+03  0.29141887646E+03 -0.14947287394E+04  0.15333760726E+04  0.50400001928E-02 0. -1.
       -1    1    3    3    0  502 -0.17917369845E+03 -0.29141887646E+03  0.58987139220E+03  0.68189180604E+03  0.50400001928E-02 0.  1.
</event>
<event>
 5   0  0.2038882E-05  0.2006121E+04  0.7818609E-02  0.8603764E-01
        2   -1    0    0  501    0  0.00000000000E+00  0.00000000000E+00  0.85927906368E+03  0.85927906368E+03  0.25500000920E-02 0. -1.
       -2   -1    0    0    0  501  0.00000000000E+00  0.00000000000E+00 -0.11709007319E+04  0.11709007319E+04  0.25500000920E-02 0.  1.
    10030    2    1    2    0    0  0.00000000000E+00  0.00000000000E+00 -0.31162166820E+03  0.20301797956E+04  0.20061211175E+04 0.  0.
        3    1    3    3  502    0  0.25936751025E+03  0.13436814033E+03 -0.11269042083E+04  0.11641475024E+04  0.10100000352E+00 0.  1.
       -3    1    3    3    0  502 -0.25936751025E+03 -0.13436814033E+03  0.81528254006E+03  0.86603229318E+03  0.10100000352E+00 0. -1.
</event>
<event>
 5   0  0.9140695E-06  0.1999861E+04  0.7818609E-02  0.8606686E-01
       -1   -1    0    0    0  501  0.00000000000E+00  0.00000000000E+00  0.39068767207E+03  0.39068767210E+03  0.50400001928E-02 0.  1.
        1   -1    0    0  501    0  0.00000000000E+00  0.00000000000E+00 -0.25592325909E+04  0.25592325909E+04  0.50400001928E-02 0. -1.
    10030    2    1    2    0    0  0.00000000000E+00  0.00000000000E+00 -0.21685449189E+04  0.29499202630E+04  0.19998606184E+04 0.  0.
        1    1    3    3  502    0 -0.39721316883E+03 -0.18049322003E+03 -0.24114229979E+04  0.24505748262E+04  0.50400001928E-02 0. -1.
       -1    1    3    3    0  502  0.39721316883E+03  0.18049322003E+03  0.24287807905E+03  0.49934543683E+03  0.50400001928E-02 0.  1.
</event>
<event>
 5   0  0.9140695E-06  0.2002858E+04  0.7818609E-02  0.8605286E-01
       -1   -1    0    0    0  501  0.00000000000E+00  0.00000000000E+00  0.72616987794E+03  0.72616987796E+03  0.50400001928E-02 0.  1.
        1   -1    0    0  501    0  0.00000000000E+00  0.00000000000E+00 -0.13810266482E+04  0.13810266483E+04  0.50400001928E-02 0. -1.
    10030    2    1    2    0    0  0.00000000000E+00  0.00000000000E+00 -0.65485677030E+03  0.21071965262E+04  0.20028579107E+04 0.  0.
        1    1    3    3  502    0  0.31563359627E+03 -0.23853731930E+03 -0.12953186855E+04  0.13543910502E+04  0.50400001928E-02 0. -1.
       -1    1    3    3    0  502 -0.31563359627E+03  0.23853731930E+03  0.64046191524E+03  0.75280547599E+03  0.50400001928E-02 0.  1.
</event>
<event>
 5   0  0.1999142E-05  0.2003117E+04  0.7818609E-02  0.8605165E-01
       -2   -1    0    0    0  501  0.00000000000E+00  0.00000000000E+00  0.60332740743E+03  0.60332740743E+03  0.25500000920E-02 0.  1.
        2   -1    0    0  501    0  0.00000000000E+00  0.00000000000E+00 -0.16626446110E+04  0.16626446110E+04  0.25500000920E-02 0. -1.
    10030    2    1    2    0    0  0.00000000000E+00  0.00000000000E+00 -0.10593172036E+04  0.22659720184E+04  0.20031166343E+04 0.  0.
        1    1    3    3  502    0 -0.18531579805E+03  0.70959770575E+02  0.58086721596E+03  0.61382730197E+03  0.50400001928E-02 0.  1.
       -1    1    3    3    0  502  0.18531579805E+03 -0.70959770575E+02 -0.16401844195E+04  0.16521447165E+04  0.50400001928E-02 0. -1.
</event>
<event>
 5   0  0.9333353E-06  0.1999341E+04  0.7818609E-02  0.8606929E-01
        1   -1    0    0  501    0  0.00000000000E+00  0.00000000000E+00  0.10168073985E+04  0.10168073985E+04  0.50400001928E-02 0. -1.
       -1   -1    0    0    0  501  0.00000000000E+00  0.00000000000E+00 -0.98282248247E+03  0.98282248248E+03  0.50400001928E-02 0.  1.
    10030    2    1    2    0    0  0.00000000000E+00  0.00000000000E+00  0.33984916045E+02  0.19996298810E+04  0.19993410631E+04 0.  0.
        2    1    3    3  502    0  0.49927306359E+03 -0.73561040025E+03 -0.44017850555E+03  0.99204504421E+03  0.25500000920E-02 0.  1.
       -2    1    3    3    0  502 -0.49927306359E+03  0.73561040025E+03  0.47416342159E+03  0.10075848368E+04  0.25500000920E-02 0. -1.
</event>
<event>
 5   0  0.9140695E-06  0.2000177E+04  0.7818609E-02  0.8606538E-01
        1   -1    0    0  501    0  0.00000000000E+00  0.00000000000E+00  0.13216426832E+04  0.13216426832E+04  0.50400001928E-02 0. -1.
       -1   -1    0    0    0  501  0.00000000000E+00  0.00000000000E+00 -0.75676781289E+03  0.75676781291E+03  0.50400001928E-02 0.  1.
    10030    2    1    2    0    0  0.00000000000E+00  0.00000000000E+00  0.56487487027E+03  0.20784104961E+04  0.20001766350E+04 0.  0.
        1    1    3    3  502    0 -0.12713184019E+03 -0.15553503424E+03 -0.73558781852E+03  0.76252415728E+03  0.50400001928E-02 0.  1.
       -1    1    3    3    0  502  0.12713184019E+03  0.15553503424E+03  0.13004626888E+04  0.13158863388E+04  0.50400001928E-02 0. -1.
</event>
<event>
 5   0  0.2038882E-05  0.1996511E+04  0.7818609E-02  0.8608254E-01
        2   -1    0    0  501    0  0.00000000000E+00  0.00000000000E+00  0.17875037327E+04  0.17875037327E+04  0.25500000920E-02 0.  1.
       -2   -1    0    0    0  501  0.00000000000E+00  0.00000000000E+00 -0.55748914556E+03  0.55748914557E+03  0.25500000920E-02 0. -1.
    10030    2    1    2    0    0  0.00000000000E+00  0.00000000000E+00  0.12300145872E+04  0.23449928783E+04  0.19965108852E+04 0.  0.
        3    1    3    3  502    0 -0.25519619345E+03 -0.95856617880E+03  0.48348073513E+03  0.11035070674E+04  0.10100000352E+00 0. -1.
       -3    1    3    3    0  502  0.25519619345E+03  0.95856617880E+03  0.74653385204E+03  0.12414858109E+04  0.10100000352E+00 0.  1.
</event>
<event>
 5   0  0.9370269E-06  0.1995622E+04  0.7818609E-02  0.8608670E-01
       -1   -1    0    0    0  501  0.00000000000E+00  0.00000000000E+00  0.82754006329E+03  0.82754006330E+03  0.50400001928E-02 0.  1.
        1   -1    0    0  501    0  0.00000000000E+00  0.00000000000E+00 -0.12031156781E+04  0.12031156781E+04  0.50400001928E-02 0. -1.
    10030    2    1    2    0    0  0.00000000000E+00  0.00000000000E+00 -0.37557561477E+03  0.20306557414E+04  0.19956216319E+04 0.  0.
        4    1    3    3  502    0  0.53080473212E+03  0.77436801787E+03 -0.53169344370E+03  0.10789342064E+04  0.12699999809E+01 0. -1.
       -4    1    3    3    0  502 -0.53080473212E+03 -0.77436801787E+03  0.15611782893E+03  0.95172153498E+03  0.12699999809E+01 0.  1.
</event>
<event>
 5   0  0.9140695E-06  0.1998268E+04  0.7818609E-02  0.8607431E-01
       -1   -1    0    0    0  501  0.00000000000E+00  0.00000000000E+00  0.45879117279E+03  0.45879117281E+03  0.50400001928E-02 0.  1.
        1   -1    0    0  501    0  0.00000000000E+00  0.00000000000E+00 -0.21758666762E+04  0.21758666762E+04  0.50400001928E-02 0. -1.
    10030    2    1    2    0    0  0.00000000000E+00  0.00000000000E+00 -0.17170755034E+04  0.26346578490E+04  0.19982676740E+04 0.  0.
        1    1    3    3  502    0  0.78454770478E+03  0.54106308421E+03 -0.12540879583E+04  0.15751193509E+04  0.50400001928E-02 0. -1.
       -1    1    3    3    0  502 -0.78454770478E+03 -0.54106308421E+03 -0.46298754509E+03  0.10595384982E+04  0.50400001928E-02 0.  1.
</event>
<event>
 5   0  0.9370269E-06  0.1995271E+04  0.7818609E-02  0.8608835E-01
        1   -1    0    0  501    0  0.00000000000E+00  0.00000000000E+00  0.20994084490E+04  0.20994084490E+04  0.50400001928E-02 0.  1.
       -1   -1    0    0    0  501  0.00000000000E+00  0.00000000000E+00 -0.47407493340E+03  0.47407493342E+03  0.50400001928E-02 0. -1.
    10030    2    1    2    0    0  0.00000000000E+00  0.00000000000E+00  0.16253335156E+04  0.25734833824E+04  0.19952713306E+04 0.  0.
        4    1    3    3  502    0  0.37342094490E+03 -0.91310643165E+03  0.10042723918E+04  0.14077539584E+04  0.12699999809E+01 0. -1.
       -4    1    3    3    0  502 -0.37342094490E+03  0.91310643165E+03  0.62106112380E+03  0.11657294240E+04  0.12699999809E+01 0.  1.
</event>
<event>
 5   0  0.1979765E-05  0.1999364E+04  0.7818609E-02  0.8606918E-01
        2   -1    0    0  501    0  0.00000000000E+00  0.00000000000E+00  0.14835322319E+04  0.14835322319E+04  0.25500000920E-02 0. -1.
       -2   -1    0    0    0  501  0.00000000000E+00  0.00000000000E+00 -0.67363824561E+03  0.67363824561E+03  0.25500000920E-02 0.  1.
    10030    2    1    2    0    0  0.00000000000E+00  0.00000000000E+00  0.80989398625E+03  0.21571704775E+04  0.19993639488E+04 0.  0.
        2    1    3    3  502    0  0.53474603172E+03 -0.81993085707E+03  0.62374377302E+03  0.11607309004E+04  0.25500000920E-02 0. -1.
       -2    1    3    3    0  502 -0.53474603172E+03  0.81993085707E+03  0.18615021322E+03  0.99643957704E+03  0.25500000920E-02 0.  1.
</event>
<event>
 5   0  0.2003576E-05  0.2010123E+04  0.7818609E-02  0.8601902E-01
        2   -1    0    0  501    0  0.00000000000E+00  0.00000000000E+00  0.12120731381E+04  0.12120731381E+04  0.25500000920E-02 0.  1.
       -2   -1    0    0    0  501  0.00000000000E+00  0.00000000000E+00 -0.83340556325E+03  0.83340556325E+03  0.25500000920E-02 0. -1.
    10030    2    1    2    0    0  0.00000000000E+00  0.00000000000E+00  0.37866757483E+03  0.20454787013E+04  0.20101228782E+04 0.  0.
        4    1    3    3  502    0 -0.54598346549E+02  0.30727089258E+03 -0.78285004767E+03  0.84276461181E+03  0.12699999809E+01 0. -1.
       -4    1    3    3    0  502  0.54598346549E+02 -0.30727089258E+03  0.11615176225E+04  0.12027140895E+04  0.12699999809E+01 0.  1.
</event>
<event>
 5   0  0.2038882E-05  0.1999626E+04  0.7818609E-02  0.8606796E-01
       -2   -1    0    0    0  501  0.00000000000E+00  0.00000000000E+00  0.10607584332E+04  0.10607584332E+04  0.25500000920E-02 0.  1.
        2   -1    0    0  501    0  0.00000000000E+00  0.00000000000E+00 -0.94236916913E+03  0.94236916913E+03  0.25500000920E-02 0. -1.
    10030    2    1    2    0    0  0.00000000000E+00  0.00000000000E+00  0.11838926402E+03  0.20031276023E+04  0.19996260083E+04 0.  0.
        3    1    3    3  502    0 -0.59418846863E+03 -0.43836826821E+01  0.86468406760E+03  0.10491700052E+04  0.10100000352E+00 0.  1.
       -3    1    3    3    0  502  0.59418846863E+03  0.43836826821E+01 -0.74629480357E+03  0.95395759705E+03  0.10100000352E+00 0. -1.
</event>
<event>
 5   0  0.9220260E-06  0.2003084E+04  0.7818609E-02  0.8605180E-01
        1   -1    0    0  501    0  0.00000000000E+00  0.00000000000E+00  0.64567342278E+03  0.64567342280E+03  0.50400001928E-02 0.  1.
       -1   -1    0    0    0  501  0.00000000000E+00  0.00000000000E+00 -0.15535506331E+04  0.15535506331E+04  0.50400001928E-02 0. -1.
    10030    2    1    2    0    0  0.00000000000E+00  0.00000000000E+00 -0.90787721033E+03  0.21992240559E+04  0.20030839770E+04 0.  0.
        3    1    3    3  502    0  0.38419989492E+03 -0.55814322583E+03 -0.12636886458E+04  0.14338906595E+04  0.10100000352E+00 0. -1.
       -3    1    3    3    0  502 -0.38419989492E+03  0.55814322583E+03  0.35581143547E+03  0.76533339637E+03  0.10100000352E+00 0.  1.
</event>
<event>
 5   0  0.2020029E-05  0.1999277E+04  0.7818609E-02  0.8606959E-01
        2   -1    0    0  501    0  0.00000000000E+00  0.00000000000E+00  0.10288187879E+04  0.10288187879E+04  0.25500000920E-02 0.  1.
       -2   -1    0    0    0  501  0.00000000000E+00  0.00000000000E+00 -0.97128590369E+03  0.97128590369E+03  0.25500000920E-02 0. -1.
    10030    2    1    2    0    0  0.00000000000E+00  0.00000000000E+00  0.57532884232E+02  0.20001046916E+04  0.19992770555E+04 0.  0.
        5    1    3    3  502    0  0.44616839158E+03  0.17842568907E+02  0.92349147442E+03  0.10257890544E+04  0.46999998093E+01 0.  1.
       -5    1    3    3    0  502 -0.44616839158E+03 -0.17842568907E+02 -0.86595859019E+03  0.97431563716E+03  0.46999998093E+01 0. -1.
</event>
<event>
 5   0  0.1979765E-05  0.2001778E+04  0.7818609E-02  0.8605790E-01
        2   -1    0    0  501    0  0.00000000000E+00  0.00000000000E+00  0.12483363320E+04  0.12483363320E+04  0.25500000920E-02 0.  1.
       -2   -1    0    0    0  501  0.00000000000E+00  0.00000000000E+00 -0.80249147257E+03  0.80249147258E+03  0.25500000920E-02 0. -1.
    10030    2    1    2    0    0  0.00000000000E+00  0.00000000000E+00  0.44584485940E+03  0.20508278046E+04  0.20017784706E+04 0.  0.
        2    1    3    3  502    0  0.27793934578E+03  0.82498926372E+03 -0.28306345127E+03  0.91541383135E+03  0.25500000920E-02 0. -1.
       -2    1    3    3    0  502 -0.27793934578E+03 -0.82498926372E+03  0.72890831067E+03  0.11354139732E+04  0.25500000920E-02 0.  1.
</event>
<event>
 5   0  0.9220260E-06  0.1999968E+04  0.7818609E-02  0.8606636E-01
       -1   -1    0    0    0  501  0.00000000000E+00  0.00000000000E+00  0.63618606144E+03  0.63618606146E+03  0.50400001928E-02 0.  1.
        1   -1    0    0  501    0  0.00000000000E+00  0.00000000000E+00 -0.15718161637E+04  0.15718161637E+04  0.50400001928E-02 0. -1.
    10030    2    1    2    0    0  0.00000000000E+00  0.00000000000E+00 -0.93563010222E+03  0.22080022251E+04  0.19999675342E+04 0.  0.
        3    1    3    3  502    0  0.96358633984E+03  0.23049511556E+03 -0.61733074606E+03  0.11673576542E+04  0.10100000352E+00 0.  1.
       -3    1    3    3    0  502 -0.96358633984E+03 -0.23049511556E+03 -0.31829935616E+03  0.10406445709E+04  0.10100000352E+00 0. -1.
</event>
<event>
 5   0  0.2020029E-05  0.2001237E+04  0.7818609E-02  0.8606042E-01
        2   -1    0    0  501    0  0.00000000000E+00  0.00000000000E+00  0.12728643336E+04  0.12728643336E+04  0.25500000920E-02 0.  1.
       -2   -1    0    0    0  501  0.00000000000E+00  0.00000000000E+00 -0.78660211136E+03  0.78660211136E+03  0.25500000920E-02 0. -1.
    10030    2    1    2    0    0  0.00000000000E+00  0.00000000000E+00  0.48626222224E+03  0.20594664450E+04  0.20012373895E+04 0.  0.
        5    1    3    3  502    0 -0.85646116242E+02 -0.91081981679E+03 -0.17398658868E+03  0.93124723834E+03  0.46999998093E+01 0. -1.
       -5    1    3    3    0  502  0.85646116242E+02  0.91081981679E+03  0.66024881093E+03  0.11282192066E+04  0.46999998093E+01 0.  1.
</event>
<event>
 5   0  0.9342635E-06  0.2033911E+04  0.7818609E-02  0.8590928E-01
       -1   -1    0    0    0  501  0.00000000000E+00  0.00000000000E+00  0.79633091329E+03  0.79633091330E+03  0.50400001928E-02 0.  1.
        1   -1    0    0  501    0  0.00000000000E+00  0.00000000000E+00 -0.12987038687E+04  0.12987038687E+04  0.50400001928E-02 0. -1.
    10030    2    1    2    0    0  0.00000000000E+00  0.00000000000E+00 -0.50237295541E+03  0.20950347820E+04  0.20339105564E+04 0.  0.
        5    1    3    3  502    0 -0.58499507061E+03  0.30951718560E+03  0.54412872426E+03  0.85680702575E+03  0.46999998093E+01 0.  1.
       -5    1    3    3    0  502  0.58499507061E+03 -0.30951718560E+03 -0.10465016797E+04  0.12382277563E+04  0.46999998093E+01 0. -1.
</event>
<event>
 5   0  0.2020029E-05  0.2001641E+04  0.7818609E-02  0.8605854E-01
        2   -1    0    0  501    0  0.00000000000E+00  0.00000000000E+00  0.11365829611E+04  0.11365829611E+04  0.25500000920E-02 0.  1.
       -2   -1    0    0    0  501  0.00000000000E+00  0.00000000000E+00 -0.88127495395E+03  0.88127495395E+03  0.25500000920E-02 0. -1.
    10030    2    1    2    0    0  0.00000000000E+00  0.00000000000E+00  0.25530800712E+03  0.20178579150E+04  0.20016414231E+04 0.  0.
        5    1    3    3  502    0 -0.69871884815E+03  0.34473065468E+03 -0.50558528024E+03  0.92880881705E+03  0.46999998093E+01 0. -1.
       -5    1    3    3    0  502  0.69871884815E+03 -0.34473065468E+03  0.76089328736E+03  0.10890490980E+04  0.46999998093E+01 0.  1.
</event>
<event>
 5   0  0.1999142E-05  0.2001382E+04  0.7818609E-02  0.8605975E-01
        2   -1    0    0  501    0  0.00000000000E+00  0.00000000000E+00  0.11836396230E+04  0.11836396230E+04  0.25500000920E-02 0.  1.
       -2   -1    0    0    0  501  0.00000000000E+00  0.00000000000E+00 -0.84601976747E+03  0.84601976747E+03  0.25500000920E-02 0. -1.
    10030    2    1    2    0    0  0.00000000000E+00  0.00000000000E+00  0.33761985556E+03  0.20296593905E+04  0.20013820411E+04 0.  0.
        1    1    3    3  502    0  0.60159150528E+03 -0.76130852460E+03  0.41697021440E+03  0.10561094491E+04  0.50400001928E-02 0.  1.
       -1    1    3    3    0  502 -0.60159150528E+03  0.76130852460E+03 -0.79350358845E+02  0.97354994136E+03  0.50400001928E-02 0. -1.
</event>
<event>
 5   0  0.2003576E-05  0.1997488E+04  0.7818609E-02  0.8607796E-01
       -2   -1    0    0    0  501  0.00000000000E+00  0.00000000000E+00  0.58046392122E+03  0.58046392123E+03  0.25500000920E-02 0. -1.
        2   -1    0    0  501    0  0.00000000000E+00  0.00000000000E+00 -0.17184348958E+04  0.17184348958E+04  0.25500000920E-02 0.  1.
    10030    2    1    2    0    0  0.00000000000E+00  0.00000000000E+00 -0.11379709746E+04  0.22988988170E+04  0.19974878803E+04 0.  0.
        4    1    3    3  502    0  0.42772272911E+03  0.35797528068E+03 -0.15224898831E+04  0.16214407456E+04  0.12699999809E+01 0.  1.
       -4    1    3    3    0  502 -0.42772272911E+03 -0.35797528068E+03  0.38451890852E+03  0.67745807139E+03  0.12699999809E+01 0. -1.
</event>
<event>
 5   0  0.9220260E-06  0.2000161E+04  0.7818609E-02  0.8606545E-01
       -1   -1    0    0    0  501  0.00000000000E+00  0.00000000000E+00  0.56006527656E+03  0.56006527659E+03  0.50400001928E-02 0. -1.
        1   -1    0    0  501    0  0.00000000000E+00  0.00000000000E+00 -0.17857934346E+04  0.17857934346E+04  0.50400001928E-02 0.  1.
    10030    2    1    2    0    0  0.00000000000E+00  0.00000000000E+00 -0.12257281580E+04  0.23458587112E+04  0.20001608874E+04 0.  0.
        3    1    3    3  502    0 -0.29642957996E+03  0.91449772017E+03 -0.93615899569E+03  0.13418532899E+04  0.10100000352E+00 0.  1.
       -3    1    3    3    0  502  0.29642957996E+03 -0.91449772017E+03 -0.28956916232E+03  0.10040054213E+04  0.10100000352E+00 0. -1.
</event>
<event>
 5   0  0.9370269E-06  0.2004728E+04  0.7818609E-02  0.8604414E-01
        1   -1    0    0  501    0  0.00000000000E+00  0.00000000000E+00  0.65028507614E+03  0.65028507616E+03  0.50400001928E-02 0.  1.
       -1   -1    0    0    0  501  0.00000000000E+00  0.00000000000E+00 -0.15450657444E+04  0.15450657444E+04  0.50400001928E-02 0. -1.
    10030    2    1    2    0    0  0.00000000000E+00  0.00000000000E+00 -0.89478066827E+03  0.21953508206E+04  0.20047276077E+04 0.  0.
        4    1    3    3  502    0  0.90470675895E+03 -0.38862458045E+03 -0.24190990701E+03  0.10139257370E+04  0.12699999809E+01 0.  1.
       -4    1    3    3    0  502 -0.90470675895E+03  0.38862458045E+03 -0.65287076126E+03  0.11814250835E+04  0.12699999809E+01 0. -1.
</event>
<event>
 5   0  0.1999142E-05  0.1999768E+04  0.7818609E-02  0.8606729E-01
        2   -1    0    0  501    0  0.00000000000E+00  0.00000000000E+00  0.12198244411E+04  0.12198244411E+04  0.25500000920E-02 0. -1.
       -2   -1    0    0    0  501  0.00000000000E+00  0.00000000000E+00 -0.81959966371E+03  0.81959966371E+03  0.25500000920E-02 0.  1.
    10030    2    1    2    0    0  0.00000000000E+00  0.00000000000E+00  0.40022477736E+03  0.20394241048E+04  0.19997676882E+04 0.  0.
        1    1    3    3  502    0 -0.33226156065E+03  0.67585270900E+03  0.87087335474E+03  0.11513448784E+04  0.50400001928E-02 0. -1.
       -1    1    3    3    0  502  0.33226156065E+03 -0.67585270900E+03 -0.47064857738E+03  0.88807922640E+03  0.50400001928E-02 0.  1.
</event>
<event>
 5   0  0.9140695E-06  0.2002787E+04  0.7818609E-02  0.8605319E-01
       -1   -1    0    0    0  501  0.00000000000E+00  0.00000000000E+00  0.13673249485E+04  0.13673249485E+04  0.50400001928E-02 0.  1.
        1   -1    0    0  501    0  0.00000000000E+00  0.00000000000E+00 -0.73339440815E+03  0.73339440817E+03  0.50400001928E-02 0. -1.
    10030    2    1    2    0    0  0.00000000000E+00  0.00000000000E+00  0.63393054039E+03  0.21007193567E+04  0.20027865302E+04 0.  0.
        1    1    3    3  502    0 -0.87186746231E+03 -0.42511528233E+03  0.55975861483E+02  0.97160134428E+03  0.50400001928E-02 0. -1.
       -1    1    3    3    0  502  0.87186746231E+03  0.42511528233E+03  0.57795467891E+03  0.11291180124E+04  0.50400001928E-02 0.  1.
</event>
<event>
 5   0  0.2003576E-05  0.2008104E+04  0.7818609E-02  0.8602841E-01
       -2   -1    0    0    0  501  0.00000000000E+00  0.00000000000E+00  0.80277500255E+03  0.80277500256E+03  0.25500000920E-02 0.  1.
        2   -1    0    0  501    0  0.00000000000E+00  0.00000000000E+00 -0.12557947358E+04  0.12557947358E+04  0.25500000920E-02 0. -1.
    10030    2    1    2    0    0  0.00000000000E+00  0.00000000000E+00 -0.45301973326E+03  0.20585697384E+04  0.20081042027E+04 0.  0.
        4    1    3    3  502    0  0.87470905449E+03  0.23400051283E+02 -0.73128200398E+03  0.11403676927E+04  0.12699999809E+01 0. -1.
       -4    1    3    3    0  502 -0.87470905449E+03 -0.23400051283E+02  0.27826227072E+03  0.91820204564E+03  0.12699999809E+01 0.  1.
</event>
<event>
 5   0  0.2020029E-05  0.2004694E+04  0.7818609E-02  0.8604429E-01
       -2   -1    0    0    0  501  0.00000000000E+00  0.00000000000E+00  0.86546048785E+03  0.86546048786E+03  0.25500000920E-02 0. -1.
        2   -1    0    0  501    0  0.00000000000E+00  0.00000000000E+00 -0.11608838271E+04  0.11608838271E+04  0.25500000920E-02 0.  1.
    10030    2    1    2    0    0  0.00000000000E+00  0.00000000000E+00 -0.29542333923E+03  0.20263443149E+04  0.20046935759E+04 0.  0.
        5    1    3    3  502    0 -0.38042058050E+03  0.38602536051E+03  0.70456815164E+03  0.88891718812E+03  0.46999998093E+01 0. -1.
       -5    1    3    3    0  502  0.38042058050E+03 -0.38602536051E+03 -0.99999149087E+03  0.11374271268E+04  0.46999998093E+01 0.  1.
</event>
<event>
 5   0  0.2020029E-05  0.2003365E+04  0.7818609E-02  0.8605049E-01
       -2   -1    0    0    0  501  0.00000000000E+00  0.00000000000E+00  0.10192105499E+04  0.10192105499E+04  0.25500000920E-02 0.  1.
        2   -1    0    0  501    0  0.00000000000E+00  0.00000000000E+00 -0.98445592116E+03  0.98445592117E+03  0.25500000920E-02 0. -1.
    10030    2    1    2    0    0  0.00000000000E+00  0.00000000000E+00  0.34754628688E+02  0.20036664710E+04  0.20033650299E+04 0.  0.
        5    1    3    3  502    0 -0.20242662765E+03  0.77096039224E+03  0.62408981122E+03  0.10123569768E+04  0.46999998093E+01 0.  1.
       -5    1    3    3    0  502  0.20242662765E+03 -0.77096039224E+03 -0.58933518253E+03  0.99130949423E+03  0.46999998093E+01 0. -1.
</event>
<event>
 5   0  0.9370269E-06  0.2005190E+04  0.7818609E-02  0.8604198E-01
        1   -1    0    0  501    0  0.00000000000E+00  0.00000000000E+00  0.11547138412E+04  0.11547138412E+04  0.50400001928E-02 0. -1.
       -1   -1    0    0    0  501  0.00000000000E+00  0.00000000000E+00 -0.87051557516E+03  0.87051557518E+03  0.50400001928E-02 0.  1.
    10030    2    1    2    0    0  0.00000000000E+00  0.00000000000E+00  0.28419826603E+03  0.20252294164E+04  0.20051896505E+04 0.  0.
        4    1    3    3  502    0 -0.11159824082E+03 -0.51356591158E+03  0.10044415602E+04  0.11336262936E+04  0.12699999809E+01 0. -1.
       -4    1    3    3    0  502  0.11159824082E+03  0.51356591158E+03 -0.72024329413E+03  0.89160312277E+03  0.12699999809E+01 0.  1.
</event>
<event>
 5   0  0.9370269E-06  0.1993907E+04  0.7818609E-02  0.8609475E-01
        1   -1    0    0  501    0  0.00000000000E+00  0.00000000000E+00  0.19892380156E+04  0.19892380156E+04  0.50400001928E-02 0. -1.
       -1   -1    0    0    0  501  0.00000000000E+00  0.00000000000E+00 -0.49964648809E+03  0.49964648812E+03  0.50400001928E-02 0.  1.
    10030    2    1    2    0    0  0.00000000000E+00  0.00000000000E+00  0.14895915275E+04  0.24888845037E+04  0.19939065059E+04 0.  0.
        4    1    3    3  502    0 -0.18365923464E+02 -0.20191612019E+03  0.19632307633E+04  0.19736727362E+04  0.12699999809E+01 0. -1.
       -4    1    3    3    0  502  0.18365923464E+02  0.20191612019E+03 -0.47363923584E+03  0.51521176749E+03  0.12699999809E+01 0.  1.
</event>
<event>
 5   0  0.9140695E-06  0.1999591E+04  0.7818609E-02  0.8606812E-01
       -1   -1    0    0    0  501  0.00000000000E+00  0.00000000000E+00  0.88015990513E+03  0.88015990515E+03  0.50400001928E-02 0.  1.
        1   -1    0    0  501    0  0.00000000000E+00  0.00000000000E+00 -0.11356926203E+04  0.11356926203E+04  0.50400001928E-02 0. -1.
    10030    2    1    2    0    0  0.00000000000E+00  0.00000000000E+00 -0.25553271515E+03  0.20158525254E+04  0.19995910671E+04 0.  0.
        1    1    3    3  502    0 -0.21097924896E+03  0.20010640187E+03  0.83658818179E+03  0.88568312702E+03  0.50400001928E-02 0.  1.
       -1    1    3    3    0  502  0.21097924896E+03 -0.20010640187E+03 -0.10921208969E+04  0.11301693984E+04  0.50400001928E-02 0. -1.
</event>
<event>
 5   0  0.2020029E-05  0.2001422E+04  0.7818609E-02  0.8605956E-01
        2   -1    0    0  501    0  0.00000000000E+00  0.00000000000E+00  0.13562085049E+04  0.13562085049E+04  0.25500000920E-02 0.  1.
       -2   -1    0    0    0  501  0.00000000000E+00  0.00000000000E+00 -0.73839853599E+03  0.73839853599E+03  0.25500000920E-02 0. -1.
    10030    2    1    2    0    0  0.00000000000E+00  0.00000000000E+00  0.61780996892E+03  0.20946070409E+04  0.20014218691E+04 0.  0.
        5    1    3    3  502    0 -0.67788404361E+03  0.16873403683E+02  0.10790965422E+04  0.12744735877E+04  0.46999998093E+01 0.  1.
       -5    1    3    3    0  502  0.67788404361E+03 -0.16873403683E+02 -0.46128657331E+03  0.82013345319E+03  0.46999998093E+01 0. -1.
</event>
<event>
 5   0  0.2003576E-05  0.2000511E+04  0.7818609E-02  0.8606382E-01
       -2   -1    0    0    0  501  0.00000000000E+00  0.00000000000E+00  0.74056224809E+03  0.74056224810E+03  0.25500000920E-02 0. -1.
        2   -1    0    0  501    0  0.00000000000E+00  0.00000000000E+00 -0.13510159333E+04  0.13510159333E+04  0.25500000920E-02 0.  1.
    10030    2    1    2    0    0  0.00000000000E+00  0.00000000000E+00 -0.61045368523E+03  0.20915781814E+04  0.20005113314E+04 0.  0.
        4    1    3    3  502    0  0.28745667653E+03 -0.30009699028E+03  0.64603725769E+03  0.76815056837E+03  0.12699999809E+01 0. -1.
       -4    1    3    3    0  502 -0.28745667653E+03  0.30009699028E+03 -0.12564909429E+04  0.13234276131E+04  0.12699999809E+01 0.  1.
</event>
<event>
 5   0  0.1999142E-05  0.1952454E+04  0.7818609E-02  0.8629178E-01
        2   -1    0    0  501    0  0.00000000000E+00  0.00000000000E+00  0.16952980568E+04  0.16952980568E+04  0.25500000920E-02 0.  1.
       -2   -1    0    0    0  501  0.00000000000E+00  0.00000000000E+00 -0.56215451256E+03  0.56215451257E+03  0.25500000920E-02 0. -1.
    10030    2    1    2    0    0  0.00000000000E+00  0.00000000000E+00  0.11331435442E+04  0.22574525694E+04  0.19524543045E+04 0.  0.
        1    1    3    3  502    0 -0.58761741427E+02 -0.71466909527E+03  0.13324827382E+04  0.15131804603E+04  0.50400001928E-02 0.  1.
       -1    1    3    3    0  502  0.58761741427E+02  0.71466909527E+03 -0.19933919396E+03  0.74427210902E+03  0.50400001928E-02 0. -1.
</event>
<event>
 5   0  0.1999142E-05  0.2012389E+04  0.7818609E-02  0.8600850E-01
        2   -1    0    0  501    0  0.00000000000E+00  0.00000000000E+00  0.98017435147E+03  0.98017435148E+03  0.25500000920E-02 0. -1.
       -2   -1    0    0    0  501  0.00000000000E+00  0.00000000000E+00 -0.10329058880E+04  0.10329058880E+04  0.25500000920E-02 0.  1.
    10030    2    1    2    0    0  0.00000000000E+00  0.00000000000E+00 -0.52731536534E+02  0.20130802395E+04  0.20123894841E+04 0.  0.
        1    1    3    3  502    0 -0.56451860422E+03 -0.35667437107E+03  0.72657446078E+03  0.98681726200E+03  0.50400001928E-02 0. -1.
       -1    1    3    3    0  502  0.56451860422E+03  0.35667437107E+03 -0.77930599731E+03  0.10262629775E+04  0.50400001928E-02 0.  1.
</event>
<event>
 5   0  0.9333353E-06  0.1982096E+04  0.7818609E-02  0.8615037E-01
       -1   -1    0    0    0  501  0.00000000000E+00  0.00000000000E+00  0.53324514096E+03  0.53324514098E+03  0.50400001928E-02 0. -1.
        1   -1    0    0  501    0  0.00000000000E+00  0.00000000000E+00 -0.18418856373E+04  0.18418856373E+04  0.50400001928E-02 0.  1.
    10030    2    1    2    0    0  0.00000000000E+00  0.00000000000E+00 -0.13086404963E+04  0.23751307783E+04  0.19820964319E+04 0.  0.
        2    1    3    3  502    0  0.28123741841E+03  0.58170917674E+03 -0.15547924312E+04  0.16837041177E+04  0.25500000920E-02 0.  1.
       -2    1    3    3    0  502 -0.28123741841E+03 -0.58170917674E+03  0.24615193492E+03  0.69142666053E+03  0.25500000920E-02 0. -1.
</event>
<event>
 5   0  0.9342635E-06  0.1997686E+04  0.7818609E-02  0.8607703E-01
        1   -1    0    0  501    0  0.00000000000E+00  0.00000000000E+00  0.83898631910E+03  0.83898631911E+03  0.50400001928E-02 0. -1.
       -1   -1    0    0    0  501  0.00000000000E+00  0.00000000000E+00 -0.11891576827E+04  0.11891576827E+04  0.50400001928E-02 0.  1.
    10030    2    1    2    0    0  0.00000000000E+00  0.00000000000E+00 -0.35017136359E+03  0.20281440018E+04  0.19976856880E+04 0.  0.
        5    1    3    3  502    0 -0.74065514311E+03 -0.43664191313E+03  0.34103401460E+03  0.92496080481E+03  0.46999998093E+01 0. -1.
       -5    1    3    3    0  502  0.74065514311E+03  0.43664191313E+03 -0.69120537819E+03  0.11031831970E+04  0.46999998093E+01 0.  1.
</event>
<event>
 5   0  0.2020029E-05  0.2000277E+04  0.7818609E-02  0.8606491E-01
        2   -1    0    0  501    0  0.00000000000E+00  0.00000000000E+00  0.12774661003E+04  0.12774661003E+04  0.25500000920E-02 0.  1.
       -2   -1    0    0    0  501  0.00000000000E+00  0.00000000000E+00 -0.78301684318E+03  0.78301684318E+03  0.25500000920E-02 0. -1.
    10030    2    1    2    0    0  0.00000000000E+00  0.00000000000E+00  0.49444925709E+03  0.20604829435E+04  0.20002774539E+04 0.  0.
        5    1    3    3  502    0 -0.96087211103E+03 -0.31457392079E+02 -0.36736390507E+02  0.96210001229E+03  0.46999998093E+01 0. -1.
       -5    1    3    3    0  502  0.96087211103E+03  0.31457392079E+02  0.53118564760E+03  0.10983829312E+04  0.46999998093E+01 0.  1.
</event>
<event>
 5   0  0.9370269E-06  0.2013290E+04  0.7818609E-02  0.8600432E-01
       -1   -1    0    0    0  501  0.00000000000E+00  0.00000000000E+00  0.66657307134E+03  0.66657307136E+03  0.50400001928E-02 0. -1.
        1   -1    0    0  501    0  0.00000000000E+00  0.00000000000E+00 -0.15202147867E+04  0.15202147867E+04  0.50400001928E-02 0.  1.
    10030    2    1    2    0    0  0.00000000000E+00  0.00000000000E+00 -0.85364171532E+03  0.21867878580E+04  0.20132900829E+04 0.  0.
        4    1    3    3  502    0  0.11214662589E+03  0.94214617851E+03 -0.61509671981E+02  0.95078985061E+03  0.12699999809E+01 0.  1.
       -4    1    3    3    0  502 -0.11214662589E+03 -0.94214617851E+03 -0.79213204334E+03  0.12359980074E+04  0.12699999809E+01 0. -1.
</event>
<event>
 5   0  0.1979765E-05  0.1997633E+04  0.7818609E-02  0.8607728E-01
        2   -1    0    0  501    0  0.00000000000E+00  0.00000000000E+00  0.16928325138E+04  0.16928325138E+04  0.25500000920E-02 0.  1.
       -2   -1    0    0    0  501  0.00000000000E+00  0.00000000000E+00 -0.58932830557E+03  0.58932830558E+03  0.25500000920E-02 0. -1.
    10030    2    1    2    0    0  0.00000000000E+00  0.00000000000E+00  0.11035042082E+04  0.22821608193E+04  0.19976327160E+04 0.  0.
        2    1    3    3  502    0 -0.63474047313E+02 -0.67186889061E+03  0.13929715449E+04  0.15478392958E+04  0.25500000920E-02 0.  1.
       -2    1    3    3    0  502  0.63474047313E+02  0.67186889061E+03 -0.28946733671E+03  0.73432152350E+03  0.25500000920E-02 0. -1.
</event>
<event>
 5   0  0.9140695E-06  0.2004387E+04  0.7818609E-02  0.8604573E-01
        1   -1    0    0  501    0  0.00000000000E+00  0.00000000000E+00  0.12563707378E+04  0.12563707378E+04  0.50400001928E-02 0. -1.
       -1   -1    0    0    0  501  0.00000000000E+00  0.00000000000E+00 -0.79943866023E+03  0.79943866024E+03  0.50400001928E-02 0.  1.
    10030    2    1    2    0    0  0.00000000000E+00  0.00000000000E+00  0.45693207757E+03  0.20558093980E+04  0.20043865290E+04 0.  0.
        1    1    3    3  502    0 -0.74820535105E+03 -0.66638008702E+03  0.25180215425E+03  0.10330914735E+04  0.50400001928E-02 0. -1.
       -1    1    3    3    0  502  0.74820535105E+03  0.66638008702E+03  0.20512992332E+03  0.10227179245E+04  0.50400001928E-02 0.  1.
</event>
<event>
 5   0  0.2038882E-05  0.2003423E+04  0.7818609E-02  0.8605022E-01
       -2   -1    0    0    0  501  0.00000000000E+00  0.00000000000E+00  0.77024355526E+03  0.77024355526E+03  0.25500000920E-02 0.  1.
        2   -1    0    0  501    0  0.00000000000E+00  0.00000000000E+00 -0.13027379796E+04  0.13027379796E+04  0.25500000920E-02 0. -1.
    10030    2    1    2    0    0  0.00000000000E+00  0.00000000000E+00 -0.53249442430E+03  0.20729815348E+04  0.20034226044E+04 0.  0.
        3    1    3    3  502    0 -0.77308696463E+03 -0.55629706729E+03  0.54842342500E+02  0.95401130742E+03  0.10100000352E+00 0.  1.
       -3    1    3    3    0  502  0.77308696463E+03  0.55629706729E+03 -0.58733676680E+03  0.11189702274E+04  0.10100000352E+00 0. -1.
</event>
<event>
 5   0  0.2020029E-05  0.2001976E+04  0.7818609E-02  0.8605697E-01
        2   -1    0    0  501    0  0.00000000000E+00  0.00000000000E+00  0.11985673100E+04  0.11985673100E+04  0.25500000920E-02 0. -1.
       -2   -1    0    0    0  501  0.00000000000E+00  0.00000000000E+00 -0.83597894051E+03  0.83597894051E+03  0.25500000920E-02 0.  1.
    10030    2    1    2    0    0  0.00000000000E+00  0.00000000000E+00  0.36258836952E+03  0.20345462505E+04  0.20019760538E+04 0.  0.
        5    1    3    3  502    0 -0.90253163140E+02  0.71539792411E+03 -0.52427404592E+03  0.89152969020E+03  0.46999998093E+01 0.  1.
       -5    1    3    3    0  502  0.90253163140E+02 -0.71539792411E+03  0.88686241544E+03  0.11430165603E+04  0.46999998093E+01 0. -1.
</event>
<event>
 5   0  0.9140695E-06  0.2003065E+04  0.7818609E-02  0.8605189E-01
        1   -1    0    0  501    0  0.00000000000E+00  0.00000000000E+00  0.13469397083E+04  0.13469397083E+04  0.50400001928E-02 0. -1.
       -1   -1    0    0    0  501  0.00000000000E+00  0.00000000000E+00 -0.74470128894E+03  0.74470128895E+03  0.50400001928E-02 0.  1.
    10030    2    1    2    0    0  0.00000000000E+00  0.00000000000E+00  0.60223841938E+03  0.20916409973E+04  0.20030653878E+04 0.  0.
        1    1    3    3  502    0  0.87498817588E+02  0.87433477471E+02  0.13389326560E+04  0.13446342675E+04  0.50400001928E-02 0. -1.
       -1    1    3    3    0  502 -0.87498817588E+02 -0.87433477471E+02 -0.73669423660E+03  0.74700672978E+03  0.50400001928E-02 0.  1.
</event>
<event>
 5   0  0.9370269E-06  0.1990716E+04  0.7818609E-02  0.8610974E-01
        1   -1    0    0  501    0  0.00000000000E+00  0.00000000000E+00  0.18916630211E+04  0.18916630211E+04  0.50400001928E-02 0. -1.
       -1   -1    0    0    0  501  0.00000000000E+00  0.00000000000E+00 -0.52373879107E+03  0.52373879110E+03  0.50400001928E-02 0.  1.
    10030    2    1    2    0    0  0.00000000000E+00  0.00000000000E+00  0.13679242300E+04  0.24154018122E+04  0.19907157545E+04 0.  0.
        4    1    3    3  502    0 -0.90016101869E+03 -0.29591782641E+03  0.31418701447E+03  0.99828468511E+03  0.12699999809E+01 0.  1.
       -4    1    3    3    0  502  0.90016101869E+03  0.29591782641E+03  0.10537372155E+04  0.14171171271E+04  0.12699999809E+01 0. -1.
</event>
<event>
 5   0  0.9342635E-06  0.2000123E+04  0.7818609E-02  0.8606563E-01
        1   -1    0    0  501    0  0.00000000000E+00  0.00000000000E+00  0.11225238450E+04  0.11225238450E+04  0.50400001928E-02 0. -1.
       -1   -1    0    0    0  501  0.00000000000E+00  0.00000000000E+00 -0.89095912227E+03  0.89095912228E+03  0.50400001928E-02 0.  1.
    10030    2    1    2    0    0  0.00000000000E+00  0.00000000000E+00  0.23156472271E+03  0.20134829673E+04  0.20001228559E+04 0.  0.
        5    1    3    3  502    0 -0.62057733475E+03  0.79768901264E+02 -0.66957066118E+03  0.91642035460E+03  0.46999998093E+01 0.  1.
       -5    1    3    3    0  502  0.62057733475E+03 -0.79768901264E+02  0.90113538389E+03  0.10970626127E+04  0.46999998093E+01 0. -1.
</event>
<event>
 5   0  0.9342635E-06  0.1998968E+04  0.7818609E-02  0.8607103E-01
       -1   -1    0    0    0  501  0.00000000000E+00  0.00000000000E+00  0.10091680082E+04  0.10091680082E+04  0.50400001928E-02 0. -1.
        1   -1    0    0  501    0  0.00000000000E+00  0.00000000000E+00 -0.98989258882E+03  0.98989258883E+03  0.50400001928E-02 0.  1.
    10030    2    1    2    0    0  0.00000000000E+00  0.00000000000E+00  0.19275419400E+02  0.19990605971E+04  0.19989676658E+04 0.  0.
        5    1    3    3  502    0  0.32484875991E+03 -0.35830047503E+03 -0.86506854356E+03  0.99109617207E+03  0.46999998093E+01 0.  1.
       -5    1    3    3    0  502 -0.32484875991E+03  0.35830047503E+03  0.88434396296E+03  0.10079644250E+04  0.46999998093E+01 0. -1.
</event>
<event>
 5   0  0.2020029E-05  0.1999901E+04  0.7818609E-02  0.8606667E-01
       -2   -1    0    0    0  501  0.00000000000E+00  0.00000000000E+00  0.48307579497E+03  0.48307579497E+03  0.25500000920E-02 0. -1.
        2   -1    0    0  501    0  0.00000000000E+00  0.00000000000E+00 -0.20698644999E+04  0.20698644999E+04  0.25500000920E-02 0.  1.
    10030    2    1    2    0    0  0.00000000000E+00  0.00000000000E+00 -0.15867887050E+04  0.25529402949E+04  0.19999014364E+04 0.  0.
        5    1    3    3  502    0 -0.73220502432E+03  0.25989320909E+03  0.10122796148E+02  0.77704133659E+03  0.46999998093E+01 0. -1.
       -5    1    3    3    0  502  0.73220502432E+03 -0.25989320909E+03 -0.15969115011E+04  0.17758989583E+04  0.46999998093E+01 0.  1.
</event>
<event>
 5   0  0.2020029E-05  0.1998630E+04  0.7818609E-02  0.8607262E-01
       -2   -1    0    0    0  501  0.00000000000E+00  0.00000000000E+00  0.20531330037E+04  0.20531330037E+04  0.25500000920E-02 0.  1.
        2   -1    0    0  501    0  0.00000000000E+00  0.00000000000E+00 -0.48639335281E+03  0.48639335282E+03  0.25500000920E-02 0. -1.
    10030    2    1    2    0    0  0.00000000000E+00  0.00000000000E+00  0.15667396509E+04  0.25395263565E+04  0.19986297760E+04 0.  0.
        5    1    3    3  502    0 -0.75274059189E+03 -0.38669570101E+03  0.14586685364E+04  0.16863830979E+04  0.46999998093E+01 0.  1.
       -5    1    3    3    0  502  0.75274059189E+03  0.38669570101E+03  0.10807111446E+03  0.85314325857E+03  0.46999998093E+01 0. -1.
</event>
<event>
 5   0  0.2038882E-05  0.1971032E+04  0.7818609E-02  0.8620285E-01
       -2   -1    0    0    0  501  0.00000000000E+00  0.00000000000E+00  0.68036439003E+03  0.68036439003E+03  0.25500000920E-02 0.  1.
        2   -1    0    0  501    0  0.00000000000E+00  0.00000000000E+00 -0.14275314724E+04  0.14275314724E+04  0.25500000920E-02 0. -1.
    10030    2    1    2    0    0  0.00000000000E+00  0.00000000000E+00 -0.74716708241E+03  0.21078958625E+04  0.19710317902E+04 0.  0.
        3    1    3    3  502    0 -0.21736683908E+03 -0.40268851058E+03 -0.13070227452E+04  0.13848158166E+04  0.10100000352E+00 0. -1.
       -3    1    3    3    0  502  0.21736683908E+03  0.40268851058E+03  0.55985566282E+03  0.72308004583E+03  0.10100000352E+00 0.  1.
</event>
<event>
 5   0  0.2020029E-05  0.1994836E+04  0.7818609E-02  0.8609039E-01
        2   -1    0    0  501    0  0.00000000000E+00  0.00000000000E+00  0.16324478991E+04  0.16324478991E+04  0.25500000920E-02 0.  1.
       -2   -1    0    0    0  501  0.00000000000E+00  0.00000000000E+00 -0.60941800800E+03  0.60941800801E+03  0.25500000920E-02 0. -1.
    10030    2    1    2    0    0  0.00000000000E+00  0.00000000000E+00  0.10230298911E+04  0.22418659071E+04  0.19948364814E+04 0.  0.
        5    1    3    3  502    0  0.65590503607E+03 -0.47347876159E+03 -0.14419934713E+03  0.82171107802E+03  0.46999998093E+01 0. -1.
       -5    1    3    3    0  502 -0.65590503607E+03  0.47347876159E+03  0.11672292382E+04  0.14201548291E+04  0.46999998093E+01 0.  1.
</event>
<event>
 5   0  0.9333353E-06  0.1997799E+04  0.7818609E-02  0.8607651E-01
        1   -1    0    0  501    0  0.00000000000E+00  0.00000000000E+00  0.71714363486E+03  0.71714363488E+03  0.50400001928E-02 0. -1.
       -1   -1    0    0    0  501  0.00000000000E+00  0.00000000000E+00 -0.13913528679E+04  0.13913528679E+04  0.50400001928E-02 0.  1.
    10030    2    1    2    0    0  0.00000000000E+00  0.00000000000E+00 -0.67420923303E+03  0.21084965028E+04  0.19977986416E+04 0.  0.
        2    1    3    3  502    0 -0.37665503548E+03 -0.82920077657E+03 -0.77015322150E+03  0.11927191322E+04  0.25500000920E-02 0.  1.
       -2    1    3    3    0  502  0.37665503548E+03  0.82920077657E+03  0.95943988473E+02  0.91577737063E+03  0.25500000920E-02 0. -1.
</event>
<event>
 5   0  0.2038882E-05  0.2003231E+04  0.7818609E-02  0.8605112E-01
        2   -1    0    0  501    0  0.00000000000E+00  0.00000000000E+00  0.68989221697E+03  0.68989221697E+03  0.25500000920E-02 0.  1.
       -2   -1    0    0    0  501  0.00000000000E+00  0.00000000000E+00 -0.14541887000E+04  0.14541887000E+04  0.25500000920E-02 0. -1.
    10030    2    1    2    0    0  0.00000000000E+00  0.00000000000E+00 -0.76429648308E+03  0.21440809170E+04  0.20032308566E+04 0.  0.
        3    1    3    3  502    0  0.22418604431E+01 -0.77435184749E+03  0.29782193182E+03  0.82965277250E+03  0.10100000352E+00 0.  1.
       -3    1    3    3    0  502 -0.22418604431E+01  0.77435184749E+03 -0.10621184149E+04  0.13144281445E+04  0.10100000352E+00 0. -1.
</event>
<event>
 5   0  0.1979765E-05  0.2001136E+04  0.7818609E-02  0.8606090E-01
       -2   -1    0    0    0  501  0.00000000000E+00  0.00000000000E+00  0.88200702422E+03  0.88200702422E+03  0.25500000920E-02 0. -1.
        2   -1    0    0  501    0  0.00000000000E+00  0.00000000000E+00 -0.11350656804E+04  0.11350656804E+04  0.25500000920E-02 0.  1.
    10030    2    1    2    0    0  0.00000000000E+00  0.00000000000E+00 -0.25305865620E+03  0.20170727046E+04  0.20011355807E+04 0.  0.
        2    1    3    3  502    0  0.43379208960E+03  0.88150830339E+03 -0.31752039377E+03  0.10324977803E+04  0.25500000920E-02 0.  1.
       -2    1    3    3    0  502 -0.43379208960E+03 -0.88150830339E+03  0.64461737569E+02  0.98457492430E+03  0.25500000920E-02 0. -1.
</event>
<event>
 5   0  0.2038882E-05  0.1999217E+04  0.7818609E-02  0.8606987E-01
        2   -1    0    0  501    0  0.00000000000E+00  0.00000000000E+00  0.21374247786E+04  0.21374247786E+04  0.25500000920E-02 0. -1.
       -2   -1    0    0    0  501  0.00000000000E+00  0.00000000000E+00 -0.46748641743E+03  0.46748641743E+03  0.25500000920E-02 0.  1.
    10030    2    1    2    0    0  0.00000000000E+00  0.00000000000E+00  0.16699383612E+04  0.26049111961E+04  0.19992168990E+04 0.  0.
        3    1    3    3  502    0 -0.49413116769E+03 -0.29658650130E+03 -0.22923395166E+03  0.62022365194E+03  0.10100000352E+00 0.  1.
       -3    1    3    3    0  502  0.49413116769E+03  0.29658650130E+03  0.18991723129E+04  0.19846875441E+04  0.10100000352E+00 0. -1.
</event>
<event>
 5   0  0.9333353E-06  0.1999916E+04  0.7818609E-02  0.8606660E-01
        1   -1    0    0  501    0  0.00000000000E+00  0.00000000000E+00  0.22268120140E+04  0.22268120140E+04  0.50400001928E-02 0.  1.
       -1   -1    0    0    0  501  0.00000000000E+00  0.00000000000E+00 -0.44903478344E+03  0.44903478347E+03  0.50400001928E-02 0. -1.
    10030    2    1    2    0    0  0.00000000000E+00  0.00000000000E+00  0.17777772305E+04  0.26758467975E+04  0.19999160487E+04 0.  0.
        2    1    3    3  502    0 -0.17669243956E+03 -0.20739452586E+02  0.22054671033E+04  0.22126308971E+04  0.25500000920E-02 0.  1.
       -2    1    3    3    0  502  0.17669243956E+03  0.20739452586E+02 -0.42768987275E+03  0.46321590036E+03  0.25500000920E-02 0. -1.
</event>
<event>
 5   0  0.1979765E-05  0.2000359E+04  0.7818609E-02  0.8606453E-01
        2   -1    0    0  501    0  0.00000000000E+00  0.00000000000E+00  0.85965239236E+03  0.85965239236E+03  0.25500000920E-02 0.  1.
       -2   -1    0    0    0  501  0.00000000000E+00  0.00000000000E+00 -0.11636784428E+04  0.11636784428E+04  0.25500000920E-02 0. -1.
    10030    2    1    2    0    0  0.00000000000E+00  0.00000000000E+00 -0.30402605041E+03  0.20233308351E+04  0.20003589251E+04 0.  0.
        2    1    3    3  502    0 -0.33049040349E+03  0.87016820897E+02  0.79876199455E+03  0.86880179435E+03  0.25500000920E-02 0.  1.
       -2    1    3    3    0  502  0.33049040349E+03 -0.87016820897E+02 -0.11027880450E+04  0.11545290408E+04  0.25500000920E-02 0. -1.
</event>
<event>
 5   0  0.9370269E-06  0.2001944E+04  0.7818609E-02  0.8605712E-01
        1   -1    0    0  501    0  0.00000000000E+00  0.00000000000E+00  0.10401206310E+04  0.10401206310E+04  0.50400001928E-02 0. -1.
       -1   -1    0    0    0  501  0.00000000000E+00  0.00000000000E+00 -0.96329673523E+03  0.96329673524E+03  0.50400001928E-02 0.  1.
    10030    2    1    2    0    0  0.00000000000E+00  0.00000000000E+00  0.76823895777E+02  0.20034173663E+04  0.20019438635E+04 0.  0.
        4    1    3    3  502    0 -0.12400547313E+03 -0.10775172031E+03  0.10265370095E+04  0.10395997477E+04  0.12699999809E+01 0. -1.
       -4    1    3    3    0  502  0.12400547313E+03  0.10775172031E+03 -0.94971311373E+03  0.96381761858E+03  0.12699999809E+01 0.  1.
</event>
<event>
 5   0  0.9370269E-06  0.1997652E+04  0.7818609E-02  0.8607719E-01
       -1   -1    0    0    0  501  0.00000000000E+00  0.00000000000E+00  0.88537359390E+03  0.88537359392E+03  0.50400001928E-02 0.  1.
        1   -1    0    0  501    0  0.00000000000E+00  0.00000000000E+00 -0.11268166017E+04  0.11268166017E+04  0.50400001928E-02 0. -1.
    10030    2    1    2    0    0  0.00000000000E+00  0.00000000000E+00 -0.24144300778E+03  0.20121901956E+04  0.19976522864E+04 0.  0.
        4    1    3    3  502    0 -0.52105238458E+03  0.12539128625E+03 -0.96972767049E+03  0.11079674769E+04  0.12699999809E+01 0. -1.
       -4    1    3    3    0  502  0.52105238458E+03 -0.12539128625E+03  0.72828466270E+03  0.90422271868E+03  0.12699999809E+01 0.  1.
</event>
<event>
 5   0  0.2003576E-05  0.2009960E+04  0.7818609E-02  0.8601978E-01
       -2   -1    0    0    0  501  0.00000000000E+00  0.00000000000E+00  0.93388805963E+03  0.93388805963E+03  0.25500000920E-02 0.  1.
        2   -1    0    0  501    0  0.00000000000E+00  0.00000000000E+00 -0.10814835114E+04  0.10814835114E+04  0.25500000920E-02 0. -1.
    10030    2    1    2    0    0  0.00000000000E+00  0.00000000000E+00 -0.14759545178E+03  0.20153715710E+04  0.20099597389E+04 0.  0.
        4    1    3    3  502    0 -0.15627862866E+03 -0.42962431221E+02  0.92069641298E+03  0.93485414801E+03  0.12699999809E+01 0.  1.
       -4    1    3    3    0  502  0.15627862866E+03  0.42962431221E+02 -0.10682918648E+04  0.10805174230E+04  0.12699999809E+01 0. -1.
</event>
<event>
 5   0  0.9220260E-06  0.2041024E+04  0.7818609E-02  0.8587677E-01
       -1   -1    0    0    0  501  0.00000000000E+00  0.00000000000E+00  0.70389009180E+03  0.70389009182E+03  0.50400001928E-02 0.  1.
        1   -1    0    0  501    0  0.00000000000E+00  0.00000000000E+00 -0.14795552729E+04  0.14795552729E+04  0.50400001928E-02 0. -1.
    10030    2    1    2    0    0  0.00000000000E+00  0.00000000000E+00 -0.77566518108E+03  0.21834453647E+04  0.20410235637E+04 0.  0.
        3    1    3    3  502    0  0.89612860602E+03 -0.28801756594E+03  0.33942433632E+02  0.94188783611E+03  0.10100000352E+00 0.  1.
       -3    1    3    3    0  502 -0.89612860602E+03  0.28801756594E+03 -0.80960761471E+03  0.12415575286E+04  0.10100000352E+00 0. -1.
</event>
<event>
 5   0  0.9333353E-06  0.2001199E+04  0.7818609E-02  0.8606060E-01
        1   -1    0    0  501    0  0.00000000000E+00  0.00000000000E+00  0.68237271696E+03  0.68237271698E+03  0.50400001928E-02 0. -1.
       -1   -1    0    0    0  501  0.00000000000E+00  0.00000000000E+00 -0.14672330317E+04  0.14672330317E+04  0.50400001928E-02 0.  1.
    10030    2    1    2    0    0  0.00000000000E+00  0.00000000000E+00 -0.78486031469E+03  0.21496057486E+04  0.20011994306E+04 0.  0.
        2    1    3    3  502    0  0.64938929232E+03  0.59513357408E+03  0.11743820813E+03  0.88864062292E+03  0.25500000920E-02 0. -1.
       -2    1    3    3    0  502 -0.64938929232E+03 -0.59513357408E+03 -0.90229852282E+03  0.12609651257E+04  0.25500000920E-02 0.  1.
</event>
<event>
 5   0  0.2038882E-05  0.1980887E+04  0.7818609E-02  0.8615609E-01
        2   -1    0    0  501    0  0.00000000000E+00  0.00000000000E+00  0.18868261444E+04  0.18868261444E+04  0.25500000920E-02 0. -1.
       -2   -1    0    0    0  501  0.00000000000E+00  0.00000000000E+00 -0.51990948372E+03  0.51990948373E+03  0.25500000920E-02 0.  1.
    10030    2    1    2    0    0  0.00000000000E+00  0.00000000000E+00  0.13669166607E+04  0.24067356281E+04  0.19808874845E+04 0.  0.
        3    1    3    3  502    0 -0.39626017902E+03 -0.40398869313E+03 -0.30415535678E+03  0.64244804063E+03  0.10100000352E+00 0.  1.
       -3    1    3    3    0  502  0.39626017902E+03  0.40398869313E+03  0.16710720174E+04  0.17642875875E+04  0.10100000352E+00 0. -1.
</event>
<event>
 5   0  0.2038882E-05  0.2000464E+04  0.7818609E-02  0.8606404E-01
        2   -1    0    0  501    0  0.00000000000E+00  0.00000000000E+00  0.13786728214E+04  0.13786728214E+04  0.25500000920E-02 0. -1.
       -2   -1    0    0    0  501  0.00000000000E+00  0.00000000000E+00 -0.72567206498E+03  0.72567206499E+03  0.25500000920E-02 0.  1.
    10030    2    1    2    0    0  0.00000000000E+00  0.00000000000E+00  0.65300075640E+03  0.21043448864E+04  0.20004642993E+04 0.  0.
        3    1    3    3  502    0  0.37954432155E+02  0.28090428723E+03  0.13355384277E+04  0.13652877570E+04  0.10100000352E+00 0. -1.
       -3    1    3    3    0  502 -0.37954432155E+02 -0.28090428723E+03 -0.68253767128E+03  0.73905712934E+03  0.10100000352E+00 0.  1.
</event>
<event>
 5   0  0.2003576E-05  0.2002907E+04  0.7818609E-02  0.8605263E-01
        2   -1    0    0  501    0  0.00000000000E+00  0.00000000000E+00  0.21851213271E+04  0.21851213271E+04  0.25500000920E-02 0.  1.
       -2   -1    0    0    0  501  0.00000000000E+00  0.00000000000E+00 -0.45897170775E+03  0.45897170776E+03  0.25500000920E-02 0. -1.
    10030    2    1    2    0    0  0.00000000000E+00  0.00000000000E+00  0.17261496193E+04  0.26440930348E+04  0.20029067548E+04 0.  0.
        4    1    3    3  502    0 -0.14374004703E+03  0.42226742910E+03 -0.32058475707E+03  0.54931519382E+03  0.12699999809E+01 0. -1.
       -4    1    3    3    0  502  0.14374004703E+03 -0.42226742910E+03  0.20467343764E+04  0.20947778410E+04  0.12699999809E+01 0.  1.
</event>
<event>
 5   0  0.9140695E-06  0.2000182E+04  0.7818609E-02  0.8606535E-01
        1   -1    0    0  501    0  0.00000000000E+00  0.00000000000E+00  0.15483996093E+04  0.15483996093E+04  0.50400001928E-02 0. -1.
       -1   -1    0    0    0  501  0.00000000000E+00  0.00000000000E+00 -0.64594592802E+03  0.64594592804E+03  0.50400001928E-02 0.  1.
    10030    2    1    2    0    0  0.00000000000E+00  0.00000000000E+00  0.90245368127E+03  0.21943455373E+04  0.20001824143E+04 0.  0.
        1    1    3    3  502    0  0.56540539901E+03  0.10644533646E+03  0.13486621880E+04  0.14662549479E+04  0.50400001928E-02 0. -1.
       -1    1    3    3    0  502 -0.56540539901E+03 -0.10644533646E+03 -0.44620850675E+03  0.72809058942E+03  0.50400001928E-02 0.  1.
</event>
<event>
 5   0  0.2003576E-05  0.2001232E+04  0.7818609E-02  0.8606045E-01
        2   -1    0    0  501    0  0.00000000000E+00  0.00000000000E+00  0.18762981875E+04  0.18762981875E+04  0.25500000920E-02 0.  1.
       -2   -1    0    0    0  501  0.00000000000E+00  0.00000000000E+00 -0.53362132953E+03  0.53362132954E+03  0.25500000920E-02 0. -1.
    10030    2    1    2    0    0  0.00000000000E+00  0.00000000000E+00  0.13426768579E+04  0.24099195170E+04  0.20012323537E+04 0.  0.
        4    1    3    3  502    0  0.45308821218E+03  0.73812945554E+03  0.12747790186E+04  0.15411642289E+04  0.12699999809E+01 0.  1.
       -4    1    3    3    0  502 -0.45308821218E+03 -0.73812945554E+03  0.67897839298E+02  0.86875528812E+03  0.12699999809E+01 0. -1.
</event>
<event>
 5   0  0.9220260E-06  0.2000697E+04  0.7818609E-02  0.8606295E-01
       -1   -1    0    0    0  501  0.00000000000E+00  0.00000000000E+00  0.49532757895E+03  0.49532757897E+03  0.50400001928E-02 0.  1.
        1   -1    0    0  501    0  0.00000000000E+00  0.00000000000E+00 -0.20202732412E+04  0.20202732413E+04  0.50400001928E-02 0. -1.
    10030    2    1    2    0    0  0.00000000000E+00  0.00000000000E+00 -0.15249456623E+04  0.25156008202E+04  0.20006969320E+04 0.  0.
        3    1    3    3  502    0 -0.90648597804E+03 -0.42139358295E+03 -0.80964760042E+03  0.12863975386E+04  0.10100000352E+00 0.  1.
       -3    1    3    3    0  502  0.90648597804E+03  0.42139358295E+03 -0.71529806188E+03  0.12292032817E+04  0.10100000352E+00 0. -1.
</event>
<event>
 5   0  0.2038882E-05  0.1999920E+04  0.7818609E-02  0.8606658E-01
       -2   -1    0    0    0  501  0.00000000000E+00  0.00000000000E+00  0.47961575508E+03  0.47961575509E+03  0.25500000920E-02 0. -1.
        2   -1    0    0  501    0  0.00000000000E+00  0.00000000000E+00 -0.20848355854E+04  0.20848355854E+04  0.25500000920E-02 0.  1.
    10030    2    1    2    0    0  0.00000000000E+00  0.00000000000E+00 -0.16052198304E+04  0.25644513405E+04  0.19999199919E+04 0.  0.
        3    1    3    3  502    0 -0.93642813059E+03 -0.34959633006E+03 -0.83898559679E+03  0.13049950496E+04  0.10100000352E+00 0. -1.
       -3    1    3    3    0  502  0.93642813059E+03  0.34959633006E+03 -0.76623423356E+03  0.12594562909E+04  0.10100000352E+00 0.  1.
</event>
<event>
 5   0  0.2038882E-05  0.2001595E+04  0.7818609E-02  0.8605875E-01
       -2   -1    0    0    0  501  0.00000000000E+00  0.00000000000E+00  0.60475045984E+03  0.60475045985E+03  0.25500000920E-02 0. -1.
        2   -1    0    0  501    0  0.00000000000E+00  0.00000000000E+00 -0.16562127090E+04  0.16562127090E+04  0.25500000920E-02 0.  1.
    10030    2    1    2    0    0  0.00000000000E+00  0.00000000000E+00 -0.10514622492E+04  0.22609631689E+04  0.20015947616E+04 0.  0.
        3    1    3    3  502    0  0.34818664586E+03 -0.92139047789E+03 -0.32556558709E+03  0.10373944837E+04  0.10100000352E+00 0. -1.
       -3    1    3    3    0  502 -0.34818664586E+03  0.92139047789E+03 -0.72589666210E+03  0.12235686852E+04  0.10100000352E+00 0.  1.
</event>
<event>
 5   0  0.9370269E-06  0.2001008E+04  0.7818609E-02  0.8606150E-01
        1   -1    0    0  501    0  0.00000000000E+00  0.00000000000E+00  0.15170661168E+04  0.15170661168E+04  0.50400001928E-02 0. -1.
       -1   -1    0    0    0  501  0.00000000000E+00  0.00000000000E+00 -0.65983145103E+03  0.65983145104E+03  0.50400001928E-02 0.  1.
    10030    2    1    2    0    0  0.00000000000E+00  0.00000000000E+00  0.85723466576E+03  0.21768975678E+04  0.20010076833E+04 0.  0.
        4    1    3    3  502    0  0.52044746724E+03  0.53733230537E+03 -0.29417353922E+03  0.80382290128E+03  0.12699999809E+01 0.  1.
       -4    1    3    3    0  502 -0.52044746724E+03 -0.53733230537E+03  0.11514082050E+04  0.13730746666E+04  0.12699999809E+01 0. -1.
</event>
<event>
 5   0  0.9140695E-06  0.2003409E+04  0.7818609E-02  0.8605028E-01
        1   -1    0    0  501    0  0.00000000000E+00  0.00000000000E+00  0.14774702315E+04  0.14774702315E+04  0.50400001928E-02 0.  1.
       -1   -1    0    0    0  501  0.00000000000E+00  0.00000000000E+00 -0.67914190232E+03  0.67914190234E+03  0.50400001928E-02 0. -1.
    10030    2    1    2    0    0  0.00000000000E+00  0.00000000000E+00  0.79832832917E+03  0.21566121338E+04  0.20034090383E+04 0.  0.
        1    1    3    3  502    0 -0.11240237582E+03 -0.42364022605E+03 -0.57044100510E+03  0.71938048038E+03  0.50400001928E-02 0. -1.
       -1    1    3    3    0  502  0.11240237582E+03  0.42364022605E+03  0.13687693343E+04  0.14372316535E+04  0.50400001928E-02 0.  1.
</event>
<event>
 5   0  0.1999142E-05  0.2004471E+04  0.7818609E-02  0.8604533E-01
        2   -1    0    0  501    0  0.00000000000E+00  0.00000000000E+00  0.14302421283E+04  0.14302421283E+04  0.25500000920E-02 0.  1.
       -2   -1    0    0    0  501  0.00000000000E+00  0.00000000000E+00 -0.70231198819E+03  0.70231198820E+03  0.25500000920E-02 0. -1.
    10030    2    1    2    0    0  0.00000000000E+00  0.00000000000E+00  0.72793014006E+03  0.21325541165E+04  0.20044711948E+04 0.  0.
        1    1    3    3  502    0  0.31926858904E+03 -0.84369586584E+03  0.82858683681E+03  0.12248719493E+04  0.50400001928E-02 0.  1.
       -1    1    3    3    0  502 -0.31926858904E+03  0.84369586584E+03 -0.10065669674E+03  0.90768216718E+03  0.50400001928E-02 0. -1.
</event>
<event>
 5   0  0.9370269E-06  0.2006008E+04  0.7818609E-02  0.8603817E-01
        1   -1    0    0  501    0  0.00000000000E+00  0.00000000000E+00  0.16222007414E+04  0.16222007414E+04  0.50400001928E-02 0.  1.
       -1   -1    0    0    0  501  0.00000000000E+00  0.00000000000E+00 -0.62015548593E+03  0.62015548595E+03  0.50400001928E-02 0. -1.
    10030    2    1    2    0    0  0.00000000000E+00  0.00000000000E+00  0.10020452554E+04  0.22423562273E+04  0.20060076661E+04 0.  0.
        4    1    3    3  502    0 -0.32661110965E+02  0.69386610096E+03 -0.30775587508E+03  0.75975799158E+03  0.12699999809E+01 0. -1.
       -4    1    3    3    0  502  0.32661110965E+02 -0.69386610096E+03  0.13098011305E+04  0.14825982358E+04  0.12699999809E+01 0.  1.
</event>
<event>
 5   0  0.2020029E-05  0.2002714E+04  0.7818609E-02  0.8605353E-01
       -2   -1    0    0    0  501  0.00000000000E+00  0.00000000000E+00  0.15823933869E+04  0.15823933869E+04  0.25500000920E-02 0. -1.
        2   -1    0    0  501    0  0.00000000000E+00  0.00000000000E+00 -0.63367068187E+03  0.63367068188E+03  0.25500000920E-02 0.  1.
    10030    2    1    2    0    0  0.00000000000E+00  0.00000000000E+00  0.94872270502E+03  0.22160640688E+04  0.20027144544E+04 0.  0.
        5    1    3    3  502    0 -0.64340071535E+03  0.64163809411E+03  0.93993357453E+03  0.13073488971E+04  0.46999998093E+01 0. -1.
       -5    1    3    3    0  502  0.64340071535E+03 -0.64163809411E+03  0.87891304841E+01  0.90871517163E+03  0.46999998093E+01 0.  1.
</event>
<event>
 5   0  0.9333353E-06  0.2003056E+04  0.7818609E-02  0.8605193E-01
       -1   -1    0    0    0  501  0.00000000000E+00  0.00000000000E+00  0.62519720474E+03  0.62519720476E+03  0.50400001928E-02 0. -1.
        1   -1    0    0  501    0  0.00000000000E+00  0.00000000000E+00 -0.16043875305E+04  0.16043875305E+04  0.50400001928E-02 0.  1.
    10030    2    1    2    0    0  0.00000000000E+00  0.00000000000E+00 -0.97919032579E+03  0.22295847353E+04  0.20030562642E+04 0.  0.
        2    1    3    3  502    0  0.64984998568E+03 -0.35791567411E+03 -0.12384749001E+04  0.14436858079E+04  0.25500000920E-02 0.  1.
       -2    1    3    3    0  502 -0.64984998568E+03  0.35791567411E+03  0.25928457429E+03  0.78589892743E+03  0.25500000920E-02 0. -1.
</event>
<event>
 5   0  0.9342635E-06  0.2002142E+04  0.7818609E-02  0.8605620E-01
        1   -1    0    0  501    0  0.00000000000E+00  0.00000000000E+00  0.17113886563E+04  0.17113886563E+04  0.50400001928E-02 0.  1.
       -1   -1    0    0    0  501  0.00000000000E+00  0.00000000000E+00 -0.58557286207E+03  0.58557286209E+03  0.50400001928E-02 0. -1.
    10030    2    1    2    0    0  0.00000000000E+00  0.00000000000E+00  0.11258157942E+04  0.22969615184E+04  0.20021416070E+04 0.  0.
        5    1    3    3  502    0 -0.14878630894E+03 -0.85776205803E+03 -0.40571092405E+01  0.87059270848E+03  0.46999998093E+01 0. -1.
       -5    1    3    3    0  502  0.14878630894E+03  0.85776205803E+03  0.11298729034E+04  0.14263688099E+04  0.46999998093E+01 0.  1.
</event>
<event>
 5   0  0.9140695E-06  0.2006034E+04  0.7818609E-02  0.8603805E-01
       -1   -1    0    0    0  501  0.00000000000E+00  0.00000000000E+00  0.61811640905E+03  0.61811640907E+03  0.50400001928E-02 0.  1.
        1   -1    0    0  501    0  0.00000000000E+00  0.00000000000E+00 -0.16275951376E+04  0.16275951376E+04  0.50400001928E-02 0. -1.
    10030    2    1    2    0    0  0.00000000000E+00  0.00000000000E+00 -0.10094787286E+04  0.22457115467E+04  0.20060341591E+04 0.  0.
        1    1    3    3  502    0  0.91769776406E+03 -0.40166877669E+03 -0.44836088605E+03  0.10975128594E+04  0.50400001928E-02 0.  1.
       -1    1    3    3    0  502 -0.91769776406E+03  0.40166877669E+03 -0.56111784252E+03  0.11481986873E+04  0.50400001928E-02 0. -1.
</event>
<event>
 5   0  0.2020029E-05  0.1999357E+04  0.7818609E-02  0.8606921E-01
       -2   -1    0    0    0  501  0.00000000000E+00  0.00000000000E+00  0.11207547978E+04  0.11207547978E+04  0.25500000920E-02 0.  1.
        2   -1    0    0  501    0  0.00000000000E+00  0.00000000000E+00 -0.89168226557E+03  0.89168226557E+03  0.25500000920E-02 0. -1.
    10030    2    1    2    0    0  0.00000000000E+00  0.00000000000E+00  0.22907253223E+03  0.20124370634E+04  0.19993570739E+04 0.  0.
        5    1    3    3  502    0  0.24341112034E+03 -0.46582265464E+03 -0.74137695212E+03  0.90879128199E+03  0.46999998093E+01 0. -1.
       -5    1    3    3    0  502 -0.24341112034E+03  0.46582265464E+03  0.97044948436E+03  0.11036457814E+04  0.46999998093E+01 0.  1.
</event>
<event>
 5   0  0.9333353E-06  0.1998603E+04  0.7818609E-02  0.8607274E-01
       -1   -1    0    0    0  501  0.00000000000E+00  0.00000000000E+00  0.44919490055E+03  0.44919490058E+03  0.50400001928E-02 0.  1.
        1   -1    0    0  501    0  0.00000000000E+00  0.00000000000E+00 -0.22230953039E+04  0.22230953039E+04  0.50400001928E-02 0. -1.
    10030    2    1    2    0    0  0.00000000000E+00  0.00000000000E+00 -0.17739004034E+04  0.26722902045E+04  0.19986025858E+04 0.  0.
        2    1    3    3  502    0  0.23864395240E+03  0.82533400440E+03 -0.15693532598E+04  0.17891329769E+04  0.25500000920E-02 0. -1.
       -2    1    3    3    0  502 -0.23864395240E+03 -0.82533400440E+03 -0.20454714360E+03  0.88315722767E+03  0.25500000920E-02 0.  1.
</event>
<event>
 5   0  0.9220260E-06  0.1974491E+04  0.7818609E-02  0.8618641E-01
       -1   -1    0    0    0  501  0.00000000000E+00  0.00000000000E+00  0.45779985530E+03  0.45779985533E+03  0.50400001928E-02 0.  1.
        1   -1    0    0  501    0  0.00000000000E+00  0.00000000000E+00 -0.21289953686E+04  0.21289953686E+04  0.50400001928E-02 0. -1.
    10030    2    1    2    0    0  0.00000000000E+00  0.00000000000E+00 -0.16711955133E+04  0.25867952239E+04  0.19744910957E+04 0.  0.
        3    1    3    3  502    0 -0.74142478546E+03  0.63979455639E+03 -0.99926143936E+03  0.13991323101E+04  0.10100000352E+00 0.  1.
       -3    1    3    3    0  502  0.74142478546E+03 -0.63979455639E+03 -0.67193407396E+03  0.11876629138E+04  0.10100000352E+00 0. -1.
</event>
<event>
 5   0  0.2038882E-05  0.1996442E+04  0.7818609E-02  0.8608286E-01
        2   -1    0    0  501    0  0.00000000000E+00  0.00000000000E+00  0.13310073005E+04  0.13310073006E+04  0.25500000920E-02 0.  1.
       -2   -1    0    0    0  501  0.00000000000E+00  0.00000000000E+00 -0.74863955547E+03  0.74863955548E+03  0.25500000920E-02 0. -1.
    10030    2    1    2    0    0  0.00000000000E+00  0.00000000000E+00  0.58236774507E+03  0.20796468560E+04  0.19964415482E+04 0.  0.
        3    1    3    3  502    0 -0.27549458257E+03 -0.34988980984E+03 -0.63942744936E+03  0.77922244401E+03  0.10100000352E+00 0. -1.
       -3    1    3    3    0  502  0.27549458257E+03  0.34988980984E+03  0.12217951944E+04  0.13004244120E+04  0.10100000352E+00 0.  1.
</event>
<event>
 5   0  0.2020029E-05  0.1998477E+04  0.7818609E-02  0.8607333E-01
        2   -1    0    0  501    0  0.00000000000E+00  0.00000000000E+00  0.88509199820E+03  0.88509199820E+03  0.25500000920E-02 0. -1.
       -2   -1    0    0    0  501  0.00000000000E+00  0.00000000000E+00 -0.11281056443E+04  0.11281056443E+04  0.25500000920E-02 0.  1.
    10030    2    1    2    0    0  0.00000000000E+00  0.00000000000E+00 -0.24301364612E+03  0.20131976425E+04  0.19984766988E+04 0.  0.
        5    1    3    3  502    0 -0.27227547152E+03  0.36933034609E+03 -0.10156918246E+04  0.11145361409E+04  0.46999998093E+01 0.  1.
       -5    1    3    3    0  502  0.27227547152E+03 -0.36933034609E+03  0.77267817847E+03  0.89866150158E+03  0.46999998093E+01 0. -1.
</event>
<event>
 5   0  0.1999142E-05  0.2003447E+04  0.7818609E-02  0.8605011E-01
       -2   -1    0    0    0  501  0.00000000000E+00  0.00000000000E+00  0.75480349021E+03  0.75480349022E+03  0.25500000920E-02 0. -1.
        2   -1    0    0  501    0  0.00000000000E+00  0.00000000000E+00 -0.13294193574E+04  0.13294193574E+04  0.25500000920E-02 0.  1.
    10030    2    1    2    0    0  0.00000000000E+00  0.00000000000E+00 -0.57461586719E+03  0.20842228476E+04  0.20034473998E+04 0.  0.
        1    1    3    3  502    0  0.64980111332E+03 -0.14227674798E+03 -0.10664821256E+04  0.12569281141E+04  0.50400001928E-02 0.  1.
       -1    1    3    3    0  502 -0.64980111332E+03  0.14227674798E+03  0.49186625839E+03  0.82729473349E+03  0.50400001928E-02 0. -1.
</event>
<event>
 5   0  0.9370269E-06  0.2001528E+04  0.7818609E-02  0.8605906E-01
       -1   -1    0    0    0  501  0.00000000000E+00  0.00000000000E+00  0.15171931627E+04  0.15171931627E+04  0.50400001928E-02 0. -1.
        1   -1    0    0  501    0  0.00000000000E+00  0.00000000000E+00 -0.66011958405E+03  0.66011958407E+03  0.50400001928E-02 0.  1.
    10030    2    1    2    0    0  0.00000000000E+00  0.00000000000E+00  0.85707357869E+03  0.21773127468E+04  0.20015283356E+04 0.  0.
        4    1    3    3  502    0  0.38350018148E+03 -0.25546221068E+03  0.13949235092E+04  0.14690631503E+04  0.12699999809E+01 0. -1.
       -4    1    3    3    0  502 -0.38350018148E+03  0.25546221068E+03 -0.53784993050E+03  0.70824959648E+03  0.12699999809E+01 0.  1.
</event>
<event>
 5   0  0.9220260E-06  0.1997532E+04  0.7818609E-02  0.8607776E-01
        1   -1    0    0  501    0  0.00000000000E+00  0.00000000000E+00  0.16459167642E+04  0.16459167642E+04  0.50400001928E-02 0.  1.
       -1   -1    0    0    0  501  0.00000000000E+00  0.00000000000E+00 -0.60606531157E+03  0.60606531159E+03  0.50400001928E-02 0. -1.
    10030    2    1    2    0    0  0.00000000000E+00  0.00000000000E+00  0.10398514526E+04  0.22519820758E+04  0.19975315332E+04 0.  0.
        3    1    3    3  502    0  0.41758439126E+03  0.87410291959E+03  0.24585255380E+03  0.99943790516E+03  0.10100000352E+00 0. -1.
       -3    1    3    3    0  502 -0.41758439126E+03 -0.87410291959E+03  0.79399889881E+03  0.12525441706E+04  0.10100000352E+00 0.  1.
</event>
<event>
 5   0  0.9140695E-06  0.1996004E+04  0.7818609E-02  0.8608491E-01
        1   -1    0    0  501    0  0.00000000000E+00  0.00000000000E+00  0.94490798325E+03  0.94490798326E+03  0.50400001928E-02 0.  1.
       -1   -1    0    0    0  501  0.00000000000E+00  0.00000000000E+00 -0.10540795037E+04  0.10540795037E+04  0.50400001928E-02 0. -1.
    10030    2    1    2    0    0  0.00000000000E+00  0.00000000000E+00 -0.10917152044E+03  0.19989874870E+04  0.19960041463E+04 0.  0.
        1    1    3    3  502    0  0.93223130204E+03 -0.29343794170E+03  0.14782300428E+03  0.98843951092E+03  0.50400001928E-02 0. -1.
       -1    1    3    3    0  502 -0.93223130204E+03  0.29343794170E+03 -0.25699452472E+03  0.10105479760E+04  0.50400001928E-02 0.  1.
</event>
<event>
 5   0  0.1979765E-05  0.2008882E+04  0.7818609E-02  0.8602479E-01
        2   -1    0    0  501    0  0.00000000000E+00  0.00000000000E+00  0.13199375867E+04  0.13199375867E+04  0.25500000920E-02 0.  1.
       -2   -1    0    0    0  501  0.00000000000E+00  0.00000000000E+00 -0.76435571470E+03  0.76435571471E+03  0.25500000920E-02 0. -1.
    10030    2    1    2    0    0  0.00000000000E+00  0.00000000000E+00  0.55558187201E+03  0.20842933014E+04  0.20088821145E+04 0.  0.
        2    1    3    3  502    0  0.18468753258E+03 -0.80747209656E+03 -0.31167467493E+03  0.88502077626E+03  0.25500000920E-02 0. -1.
       -2    1    3    3    0  502 -0.18468753258E+03  0.80747209656E+03  0.86725654694E+03  0.11992725252E+04  0.25500000920E-02 0.  1.
</event>
<event>
 5   0  0.9140695E-06  0.2000924E+04  0.7818609E-02  0.8606189E-01
        1   -1    0    0  501    0  0.00000000000E+00  0.00000000000E+00  0.59907070278E+03  0.59907070280E+03  0.50400001928E-02 0. -1.
       -1   -1    0    0    0  501  0.00000000000E+00  0.00000000000E+00 -0.16707955810E+04  0.16707955810E+04  0.50400001928E-02 0.  1.
    10030    2    1    2    0    0  0.00000000000E+00  0.00000000000E+00 -0.10717248782E+04  0.22698662838E+04  0.20009244693E+04 0.  0.
        1    1    3    3  502    0 -0.99645066974E+03 -0.14705511107E+02 -0.63601533980E+03  0.11822206654E+04  0.50400001928E-02 0.  1.
       -1    1    3    3    0  502  0.99645066974E+03  0.14705511107E+02 -0.43570953842E+03  0.10876456184E+04  0.50400001928E-02 0. -1.
</event>
<event>
 5   0  0.9333353E-06  0.2001211E+04  0.7818609E-02  0.8606055E-01
        1   -1    0    0  501    0  0.00000000000E+00  0.00000000000E+00  0.15029103033E+04  0.15029103033E+04  0.50400001928E-02 0.  1.
       -1   -1    0    0    0  501  0.00000000000E+00  0.00000000000E+00 -0.66618173369E+03  0.66618173371E+03  0.50400001928E-02 0. -1.
    10030    2    1    2    0    0  0.00000000000E+00  0.00000000000E+00  0.83672856956E+03  0.21690920370E+04  0.20012110248E+04 0.  0.
        2    1    3    3  502    0 -0.72269919618E+03  0.21292140419E+03  0.11320723173E+04  0.13598593252E+04  0.25500000920E-02 0.  1.
       -2    1    3    3    0  502  0.72269919618E+03 -0.21292140419E+03 -0.29534374778E+03  0.80923271182E+03  0.25500000920E-02 0. -1.
</event>
<event>
 5   0  0.9370269E-06  0.2000236E+04  0.7818609E-02  0.8606510E-01
        1   -1    0    0  501    0  0.00000000000E+00  0.00000000000E+00  0.11748281450E+04  0.11748281450E+04  0.50400001928E-02 0.  1.
       -1   -1    0    0    0  501  0.00000000000E+00  0.00000000000E+00 -0.85138902695E+03  0.85138902696E+03  0.50400001928E-02 0. -1.
    10030    2    1    2    0    0  0.00000000000E+00  0.00000000000E+00  0.32343911806E+03  0.20262171720E+04  0.20002357773E+04 0.  0.
        4    1    3    3  502    0  0.35217242759E+03  0.92612042413E+03  0.23901947106E+02  0.99110916388E+03  0.12699999809E+01 0.  1.
       -4    1    3    3    0  502 -0.35217242759E+03 -0.92612042413E+03  0.29953717095E+03  0.10351080081E+04  0.12699999809E+01 0. -1.
</event>
<event>
 5   0  0.1999142E-05  0.2002278E+04  0.7818609E-02  0.8605556E-01
       -2   -1    0    0    0  501  0.00000000000E+00  0.00000000000E+00  0.12406495252E+04  0.12406495252E+04  0.25500000920E-02 0.  1.
        2   -1    0    0  501    0  0.00000000000E+00  0.00000000000E+00 -0.80786695772E+03  0.80786695772E+03  0.25500000920E-02 0. -1.
    10030    2    1    2    0    0  0.00000000000E+00  0.00000000000E+00  0.43278256747E+03  0.20485164829E+04  0.20022784597E+04 0.  0.
        1    1    3    3  502    0  0.32179455620E+03 -0.88665464866E+03  0.55965612261E+03  0.10967785456E+04  0.50400001928E-02 0. -1.
       -1    1    3    3    0  502 -0.32179455620E+03  0.88665464866E+03 -0.12687355514E+03  0.95173793736E+03  0.50400001928E-02 0.  1.
</event>
<event>
 5   0  0.2038882E-05  0.2005400E+04  0.7818609E-02  0.8604100E-01
       -2   -1    0    0    0  501  0.00000000000E+00  0.00000000000E+00  0.10294806667E+04  0.10294806667E+04  0.25500000920E-02 0. -1.
        2   -1    0    0  501    0  0.00000000000E+00  0.00000000000E+00 -0.97661640635E+03  0.97661640635E+03  0.25500000920E-02 0.  1.
    10030    2    1    2    0    0  0.00000000000E+00  0.00000000000E+00  0.52864260367E+02  0.20060970731E+04  0.20054004180E+04 0.  0.
        3    1    3    3  502    0 -0.10987269892E+03 -0.51109867338E+03 -0.82950161767E+03  0.98049314522E+03  0.10100000352E+00 0.  1.
       -3    1    3    3    0  502  0.10987269892E+03  0.51109867338E+03  0.88236587804E+03  0.10256039279E+04  0.10100000352E+00 0. -1.
</event>
<event>
 5   0  0.9333353E-06  0.1996382E+04  0.7818609E-02  0.8608314E-01
       -1   -1    0    0    0  501  0.00000000000E+00  0.00000000000E+00  0.61904588936E+03  0.61904588938E+03  0.50400001928E-02 0.  1.
        1   -1    0    0  501    0  0.00000000000E+00  0.00000000000E+00 -0.16095496158E+04  0.16095496158E+04  0.50400001928E-02 0. -1.
    10030    2    1    2    0    0  0.00000000000E+00  0.00000000000E+00 -0.99050372641E+03  0.22285955051E+04  0.19963818005E+04 0.  0.
        2    1    3    3  502    0  0.73751118061E+03 -0.36109902969E+01 -0.12461354388E+04  0.14480294585E+04  0.25500000920E-02 0. -1.
       -2    1    3    3    0  502 -0.73751118061E+03  0.36109902969E+01  0.25563171243E+03  0.78056604664E+03  0.25500000920E-02 0.  1.
</event>
<event>
 5   0  0.7132000E-06  0.1999860E+04  0.7818609E-02  0.8606686E-01
        3   -1    0    0  501    0  0.00000000000E+00  0.00000000000E+00  0.90224478383E+03  0.90224478948E+03  0.10100000352E+00 0. -1.
       -3   -1    0    0    0  501  0.00000000000E+00  0.00000000000E+00 -0.11081914620E+04  0.11081914666E+04  0.10100000352E+00 0.  1.
    10030    2    1    2    0    0  0.00000000000E+00  0.00000000000E+00 -0.20594667814E+03  0.20104362561E+04  0.19998599715E+04 0.  0.
        3    1    3    3  502    0 -0.43236445817E+03 -0.88513666847E+03 -0.27550269679E+03  0.10228918284E+04  0.10100000352E+00 0.  1.
       -3    1    3    3    0  502  0.43236445817E+03  0.88513666847E+03  0.69556018651E+02  0.98754442761E+03  0.10100000352E+00 0. -1.
</event>
<event>
 5   0  0.9342635E-06  0.1997709E+04  0.7818609E-02  0.8607693E-01
       -1   -1    0    0    0  501  0.00000000000E+00  0.00000000000E+00  0.56176423687E+03  0.56176423689E+03  0.50400001928E-02 0. -1.
        1   -1    0    0  501    0  0.00000000000E+00  0.00000000000E+00 -0.17760302208E+04  0.17760302208E+04  0.50400001928E-02 0.  1.
    10030    2    1    2    0    0  0.00000000000E+00  0.00000000000E+00 -0.12142659839E+04  0.23377944577E+04  0.19977089495E+04 0.  0.
        5    1    3    3  502    0 -0.20934780811E+03  0.18289397765E+03  0.51557061565E+03  0.58575751087E+03  0.46999998093E+01 0. -1.
       -5    1    3    3    0  502  0.20934780811E+03 -0.18289397765E+03 -0.17298365996E+04  0.17520369468E+04  0.46999998093E+01 0.  1.
</event>
<event>
 5   0  0.2020029E-05  0.1992957E+04  0.7818609E-02  0.8609921E-01
        2   -1    0    0  501    0  0.00000000000E+00  0.00000000000E+00  0.10343485872E+04  0.10343485872E+04  0.25500000920E-02 0.  1.
       -2   -1    0    0    0  501  0.00000000000E+00  0.00000000000E+00 -0.95999503105E+03  0.95999503106E+03  0.25500000920E-02 0. -1.
    10030    2    1    2    0    0  0.00000000000E+00  0.00000000000E+00  0.74353556097E+02  0.19943436182E+04  0.19929571035E+04 0.  0.
        5    1    3    3  502    0 -0.54360064284E+03 -0.38722444608E+03 -0.70327244515E+03  0.96956621880E+03  0.46999998093E+01 0. -1.
       -5    1    3    3    0  502  0.54360064284E+03  0.38722444608E+03  0.77762600125E+03  0.10247773994E+04  0.46999998093E+01 0.  1.
</event>
<event>
 5   0  0.1999142E-05  0.1999402E+04  0.7818609E-02  0.8606900E-01
       -2   -1    0    0    0  501  0.00000000000E+00  0.00000000000E+00  0.83910622634E+03  0.83910622635E+03  0.25500000920E-02 0. -1.
        2   -1    0    0  501    0  0.00000000000E+00  0.00000000000E+00 -0.11910322568E+04  0.11910322568E+04  0.25500000920E-02 0.  1.
    10030    2    1    2    0    0  0.00000000000E+00  0.00000000000E+00 -0.35192603042E+03  0.20301384831E+04  0.19994024932E+04 0.  0.
        1    1    3    3  502    0 -0.41642407371E+01 -0.96328534250E+03 -0.44740496482E+03  0.10621239073E+04  0.50400001928E-02 0.  1.
       -1    1    3    3    0  502  0.41642407371E+01  0.96328534250E+03  0.95478934403E+02  0.96801457577E+03  0.50400001928E-02 0. -1.
</event>
<event>
 5   0  0.9342635E-06  0.1999815E+04  0.7818609E-02  0.8606707E-01
       -1   -1    0    0    0  501  0.00000000000E+00  0.00000000000E+00  0.97781749382E+03  0.97781749384E+03  0.50400001928E-02 0. -1.
        1   -1    0    0  501    0  0.00000000000E+00  0.00000000000E+00 -0.10224964998E+04  0.10224964998E+04  0.50400001928E-02 0.  1.
    10030    2    1    2    0    0  0.00000000000E+00  0.00000000000E+00 -0.44679005959E+02  0.20003139936E+04  0.19998149563E+04 0.  0.
        5    1    3    3  502    0 -0.54457040232E+03  0.15491404978E+03  0.80202487491E+03  0.98174399712E+03  0.46999998093E+01 0. -1.
       -5    1    3    3    0  502  0.54457040232E+03 -0.15491404978E+03 -0.84670388087E+03  0.10185699965E+04  0.46999998093E+01 0.  1.
</event>
<event>
 5   0  0.9370269E-06  0.1987944E+04  0.7818609E-02  0.8612278E-01
       -1   -1    0    0    0  501  0.00000000000E+00  0.00000000000E+00  0.35972121023E+03  0.35972121026E+03  0.50400001928E-02 0.  1.
        1   -1    0    0  501    0  0.00000000000E+00  0.00000000000E+00 -0.27465159418E+04  0.27465159418E+04  0.50400001928E-02 0. -1.
    10030    2    1    2    0    0  0.00000000000E+00  0.00000000000E+00 -0.23867947316E+04  0.31062371521E+04  0.19879437000E+04 0.  0.
        4    1    3    3  502    0  0.15459074961E+03 -0.75583998371E+02  0.33626822134E+03  0.37774220079E+03  0.12699999809E+01 0.  1.
       -4    1    3    3    0  502 -0.15459074961E+03  0.75583998371E+02 -0.27230629530E+04  0.27284949513E+04  0.12699999809E+01 0. -1.
</event>
<event>
 5   0  0.2003576E-05  0.2001060E+04  0.7818609E-02  0.8606125E-01
        2   -1    0    0  501    0  0.00000000000E+00  0.00000000000E+00  0.85781612854E+03  0.85781612855E+03  0.25500000920E-02 0.  1.
       -2   -1    0    0    0  501  0.00000000000E+00  0.00000000000E+00 -0.11669864530E+04  0.11669864530E+04  0.25500000920E-02 0. -1.
    10030    2    1    2    0    0  0.00000000000E+00  0.00000000000E+00 -0.30917032443E+03  0.20248025815E+04  0.20010595205E+04 0.  0.
        4    1    3    3  502    0 -0.51452442896E+03  0.85461224494E+03 -0.76463457024E+02  0.10004727634E+04  0.12699999809E+01 0.  1.
       -4    1    3    3    0  502  0.51452442896E+03 -0.85461224494E+03 -0.23270686740E+03  0.10243298181E+04  0.12699999809E+01 0. -1.
</event>
<event>
 5   0  0.2038882E-05  0.2004801E+04  0.7818609E-02  0.8604379E-01
       -2   -1    0    0    0  501  0.00000000000E+00  0.00000000000E+00  0.57394129522E+03  0.57394129522E+03  0.25500000920E-02 0.  1.
        2   -1    0    0  501    0  0.00000000000E+00  0.00000000000E+00 -0.17507136227E+04  0.17507136227E+04  0.25500000920E-02 0. -1.
    10030    2    1    2    0    0  0.00000000000E+00  0.00000000000E+00 -0.11767723275E+04  0.23246549179E+04  0.20048010816E+04 0.  0.
        3    1    3    3  502    0  0.76865739960E+03  0.55787745659E+03 -0.96006544756E+03  0.13504766301E+04  0.10100000352E+00 0. -1.
       -3    1    3    3    0  502 -0.76865739960E+03 -0.55787745659E+03 -0.21670687992E+03  0.97417828786E+03  0.10100000352E+00 0.  1.
</event>
<event>
 5   0  0.2020029E-05  0.1995979E+04  0.7818609E-02  0.8608503E-01
       -2   -1    0    0    0  501  0.00000000000E+00  0.00000000000E+00  0.11803087710E+04  0.11803087710E+04  0.25500000920E-02 0. -1.
        2   -1    0    0  501    0  0.00000000000E+00  0.00000000000E+00 -0.84383257557E+03  0.84383257558E+03  0.25500000920E-02 0.  1.
    10030    2    1    2    0    0  0.00000000000E+00  0.00000000000E+00  0.33647619545E+03  0.20241413466E+04  0.19959789480E+04 0.  0.
        5    1    3    3  502    0  0.97692638644E+03 -0.14794859030E+03  0.31052800705E+03  0.10357237484E+04  0.46999998093E+01 0. -1.
       -5    1    3    3    0  502 -0.97692638644E+03  0.14794859030E+03  0.25948188401E+02  0.98841759818E+03  0.46999998093E+01 0.  1.
</event>
<event>
 5   0  0.2020029E-05  0.1996900E+04  0.7818609E-02  0.8608071E-01
        2   -1    0    0  501    0  0.00000000000E+00  0.00000000000E+00  0.83476480509E+03  0.83476480510E+03  0.25500000920E-02 0.  1.
       -2   -1    0    0    0  501  0.00000000000E+00  0.00000000000E+00 -0.11942319145E+04  0.11942319145E+04  0.25500000920E-02 0. -1.
    10030    2    1    2    0    0  0.00000000000E+00  0.00000000000E+00 -0.35946710937E+03  0.20289967196E+04  0.19969003694E+04 0.  0.
        5    1    3    3  502    0  0.17704910580E+03  0.92596289034E+03 -0.51384554912E+03  0.10736912957E+04  0.46999998093E+01 0. -1.
       -5    1    3    3    0  502 -0.17704910580E+03 -0.92596289034E+03  0.15437843975E+03  0.95530542384E+03  0.46999998093E+01 0.  1.
</event>
<event>
 5   0  0.2020029E-05  0.2004518E+04  0.7818609E-02  0.8604511E-01
        2   -1    0    0  501    0  0.00000000000E+00  0.00000000000E+00  0.11212111920E+04  0.11212111920E+04  0.25500000920E-02 0. -1.
       -2   -1    0    0    0  501  0.00000000000E+00  0.00000000000E+00 -0.89592683075E+03  0.89592683075E+03  0.25500000920E-02 0.  1.
    10030    2    1    2    0    0  0.00000000000E+00  0.00000000000E+00  0.22528436126E+03  0.20171380228E+04  0.20045180866E+04 0.  0.
        5    1    3    3  502    0  0.49067210043E+02  0.49278268729E+01 -0.89469415337E+03  0.89606450251E+03  0.46999998093E+01 0.  1.
       -5    1    3    3    0  502 -0.49067210043E+02 -0.49278268729E+01  0.11199785146E+04  0.11210735203E+04  0.46999998093E+01 0. -1.
</event>
<event>
 5   0  0.9342635E-06  0.1982090E+04  0.7818609E-02  0.8615040E-01
        1   -1    0    0  501    0  0.00000000000E+00  0.00000000000E+00  0.12958463097E+04  0.12958463097E+04  0.50400001928E-02 0.  1.
       -1   -1    0    0    0  501  0.00000000000E+00  0.00000000000E+00 -0.75793754839E+03  0.75793754841E+03  0.50400001928E-02 0. -1.
    10030    2    1    2    0    0  0.00000000000E+00  0.00000000000E+00  0.53790876133E+03  0.20537838581E+04  0.19820903865E+04 0.  0.
        5    1    3    3  502    0 -0.53505707226E+03 -0.81810602956E+03  0.10007147519E+03  0.98265962383E+03  0.46999998093E+01 0. -1.
       -5    1    3    3    0  502  0.53505707226E+03  0.81810602956E+03  0.43783728614E+03  0.10711242343E+04  0.46999998093E+01 0.  1.
</event>
<event>
 5   0  0.1999142E-05  0.2001264E+04  0.7818609E-02  0.8606030E-01
       -2   -1    0    0    0  501  0.00000000000E+00  0.00000000000E+00  0.47695774443E+03  0.47695774443E+03  0.25500000920E-02 0. -1.
        2   -1    0    0  501    0  0.00000000000E+00  0.00000000000E+00 -0.20992736947E+04  0.20992736947E+04  0.25500000920E-02 0.  1.
    10030    2    1    2    0    0  0.00000000000E+00  0.00000000000E+00 -0.16223159502E+04  0.25762314391E+04  0.20012644467E+04 0.  0.
        1    1    3    3  502    0 -0.34130949173E+03  0.39369764413E+02  0.39864739182E+03  0.52627168889E+03  0.50400001928E-02 0. -1.
       -1    1    3    3    0  502  0.34130949173E+03 -0.39369764413E+02 -0.20209633421E+04  0.20499597502E+04  0.50400001928E-02 0.  1.
</event>
<event>
 5   0  0.9333353E-06  0.2003483E+04  0.7818609E-02  0.8604994E-01
        1   -1    0    0  501    0  0.00000000000E+00  0.00000000000E+00  0.97007938407E+03  0.97007938408E+03  0.50400001928E-02 0. -1.
       -1   -1    0    0    0  501  0.00000000000E+00  0.00000000000E+00 -0.10344371524E+04  0.10344371524E+04  0.50400001928E-02 0.  1.
    10030    2    1    2    0    0  0.00000000000E+00  0.00000000000E+00 -0.64357768284E+02  0.20045165364E+04  0.20034831226E+04 0.  0.
        2    1    3    3  502    0  0.21982608296E+03 -0.70258910883E+03  0.64753240704E+03  0.98043519968E+03  0.25500000920E-02 0.  1.
       -2    1    3    3    0  502 -0.21982608296E+03  0.70258910883E+03 -0.71189017532E+03  0.10240813368E+04  0.25500000920E-02 0. -1.
</event>
<event>
 5   0  0.9333353E-06  0.1984177E+04  0.7818609E-02  0.8614055E-01
       -1   -1    0    0    0  501  0.00000000000E+00  0.00000000000E+00  0.89458338938E+03  0.89458338939E+03  0.50400001928E-02 0. -1.
        1   -1    0    0  501    0  0.00000000000E+00  0.00000000000E+00 -0.11002207253E+04  0.11002207254E+04  0.50400001928E-02 0.  1.
    10030    2    1    2    0    0  0.00000000000E+00  0.00000000000E+00 -0.20563733597E+03  0.19948041147E+04  0.19841765905E+04 0.  0.
        2    1    3    3  502    0 -0.41122877789E+03 -0.80605582200E+03  0.30605868419E+03  0.95525233008E+03  0.25500000920E-02 0. -1.
       -2    1    3    3    0  502  0.41122877789E+03  0.80605582200E+03 -0.51169602016E+03  0.10395517847E+04  0.25500000920E-02 0.  1.
</event>
<event>
 5   0  0.9220260E-06  0.1999903E+04  0.7818609E-02  0.8606666E-01
        1   -1    0    0  501    0  0.00000000000E+00  0.00000000000E+00  0.99319914680E+03  0.99319914682E+03  0.50400001928E-02 0.  1.
       -1   -1    0    0    0  501  0.00000000000E+00  0.00000000000E+00 -0.10067500766E+04  0.10067500766E+04  0.50400001928E-02 0. -1.
    10030    2    1    2    0    0  0.00000000000E+00  0.00000000000E+00 -0.13550929775E+02  0.19999492234E+04  0.19999033148E+04 0.  0.
        3    1    3    3  502    0 -0.77169322835E+02  0.18756542746E+03 -0.98596463521E+03  0.10066092420E+04  0.10100000352E+00 0. -1.
       -3    1    3    3    0  502  0.77169322835E+02 -0.18756542746E+03  0.97241370544E+03  0.99333998142E+03  0.10100000352E+00 0.  1.
</event>
<event>
 5   0  0.1999142E-05  0.2001205E+04  0.7818609E-02  0.8606058E-01
       -2   -1    0    0    0  501  0.00000000000E+00  0.00000000000E+00  0.61016919308E+03  0.61016919309E+03  0.25500000920E-02 0. -1.
        2   -1    0    0  501    0  0.00000000000E+00  0.00000000000E+00 -0.16408650536E+04  0.16408650536E+04  0.25500000920E-02 0.  1.
    10030    2    1    2    0    0  0.00000000000E+00  0.00000000000E+00 -0.10306958606E+04  0.22510342467E+04  0.20012049428E+04 0.  0.
        1    1    3    3  502    0 -0.13453295474E+03  0.93931046243E+03 -0.15821885700E+03  0.96199608496E+03  0.50400001928E-02 0. -1.
       -1    1    3    3    0  502  0.13453295474E+03 -0.93931046243E+03 -0.87247700355E+03  0.12890381618E+04  0.50400001928E-02 0.  1.
</event>
<event>
 5   0  0.9370269E-06  0.1996680E+04  0.7818609E-02  0.8608174E-01
       -1   -1    0    0    0  501  0.00000000000E+00  0.00000000000E+00  0.85595841647E+03  0.85595841648E+03  0.50400001928E-02 0. -1.
        1   -1    0    0  501    0  0.00000000000E+00  0.00000000000E+00 -0.11644056747E+04  0.11644056747E+04  0.50400001928E-02 0.  1.
    10030    2    1    2    0    0  0.00000000000E+00  0.00000000000E+00 -0.30844725820E+03  0.20203640912E+04  0.19966800820E+04 0.  0.
        4    1    3    3  502    0  0.87866813842E+01  0.93836147087E+03 -0.49897274714E+03  0.10628145986E+04  0.12699999809E+01 0.  1.
       -4    1    3    3    0  502 -0.87866813842E+01 -0.93836147087E+03  0.19052548894E+03  0.95754949252E+03  0.12699999809E+01 0. -1.
</event>
<event>
 5   0  0.9370269E-06  0.1999972E+04  0.7818609E-02  0.8606634E-01
        1   -1    0    0  501    0  0.00000000000E+00  0.00000000000E+00  0.10784770831E+04  0.10784770832E+04  0.50400001928E-02 0.  1.
       -1   -1    0    0    0  501  0.00000000000E+00  0.00000000000E+00 -0.92720724743E+03  0.92720724744E+03  0.50400001928E-02 0. -1.
    10030    2    1    2    0    0  0.00000000000E+00  0.00000000000E+00  0.15126983571E+03  0.20056843306E+04  0.19999717675E+04 0.  0.
        4    1    3    3  502    0  0.28311796733E+03  0.28960920783E+03 -0.84127463636E+03  0.93368833311E+03  0.12699999809E+01 0. -1.
       -4    1    3    3    0  502 -0.28311796733E+03 -0.28960920783E+03  0.99254447208E+03  0.10719959975E+04  0.12699999809E+01 0.  1.
</event>
<event>
 5   0  0.9342635E-06  0.2001288E+04  0.7818609E-02  0.8606019E-01
        1   -1    0    0  501    0  0.00000000000E+00  0.00000000000E+00  0.12790420387E+04  0.12790420387E+04  0.50400001928E-02 0.  1.
       -1   -1    0    0    0  501  0.00000000000E+00  0.00000000000E+00 -0.78284231281E+03  0.78284231283E+03  0.50400001928E-02 0. -1.
    10030    2    1    2    0    0  0.00000000000E+00  0.00000000000E+00  0.49619972586E+03  0.20618843515E+04  0.20012878131E+04 0.  0.
        5    1    3    3  502    0 -0.96786703983E+03 -0.25312447660E+03  0.26940273765E+03  0.10360687875E+04  0.46999998093E+01 0. -1.
       -5    1    3    3    0  502  0.96786703983E+03  0.25312447660E+03  0.22679698822E+03  0.10258155640E+04  0.46999998093E+01 0.  1.
</event>
<event>
 5   0  0.1979765E-05  0.1995706E+04  0.7818609E-02  0.8608631E-01
        2   -1    0    0  501    0  0.00000000000E+00  0.00000000000E+00  0.11714059198E+04  0.11714059198E+04  0.25500000920E-02 0. -1.
       -2   -1    0    0    0  501  0.00000000000E+00  0.00000000000E+00 -0.85001359656E+03  0.85001359657E+03  0.25500000920E-02 0.  1.
    10030    2    1    2    0    0  0.00000000000E+00  0.00000000000E+00  0.32139232325E+03  0.20214195164E+04  0.19957063501E+04 0.  0.
        2    1    3    3  502    0 -0.59042772316E+02  0.62815200130E+03  0.94373493510E+03  0.11352077402E+04  0.25500000920E-02 0. -1.
       -2    1    3    3    0  502  0.59042772316E+02 -0.62815200130E+03 -0.62234261185E+03  0.88621177617E+03  0.25500000920E-02 0.  1.
</event>
<event>
 5   0  0.2003576E-05  0.2028094E+04  0.7818609E-02  0.8593598E-01
       -2   -1    0    0    0  501  0.00000000000E+00  0.00000000000E+00  0.19812036680E+04  0.19812036680E+04  0.25500000920E-02 0.  1.
        2   -1    0    0  501    0  0.00000000000E+00  0.00000000000E+00 -0.51902328403E+03  0.51902328404E+03  0.25500000920E-02 0. -1.
    10030    2    1    2    0    0  0.00000000000E+00  0.00000000000E+00  0.14621803840E+04  0.25002269521E+04  0.20280935226E+04 0.  0.
        4    1    3    3  502    0 -0.20343155687E+03  0.22867985694E+03 -0.46071904384E+03  0.55312071517E+03  0.12699999809E+01 0. -1.
       -4    1    3    3    0  502  0.20343155687E+03 -0.22867985694E+03  0.19228994278E+04  0.19471062369E+04  0.12699999809E+01 0.  1.
</event>
<event>
 5   0  0.2020029E-05  0.1971173E+04  0.7818609E-02  0.8620218E-01
       -2   -1    0    0    0  501  0.00000000000E+00  0.00000000000E+00  0.68180783578E+03  0.68180783579E+03  0.25500000920E-02 0.  1.
        2   -1    0    0  501    0  0.00000000000E+00  0.00000000000E+00 -0.14247134365E+04  0.14247134365E+04  0.25500000920E-02 0. -1.
    10030    2    1    2    0    0  0.00000000000E+00  0.00000000000E+00 -0.74290560074E+03  0.21065212723E+04  0.19711730363E+04 0.  0.
        5    1    3    3  502    0 -0.17238914041E+03 -0.50810589260E+03 -0.12549405573E+04  0.13648397365E+04  0.46999998093E+01 0. -1.
       -5    1    3    3    0  502  0.17238914041E+03  0.50810589260E+03  0.51203495659E+03  0.74168153584E+03  0.46999998093E+01 0.  1.
</event>
<event>
 5   0  0.2038882E-05  0.1998624E+04  0.7818609E-02  0.8607264E-01
       -2   -1    0    0    0  501  0.00000000000E+00  0.00000000000E+00  0.14450906491E+04  0.14450906491E+04  0.25500000920E-02 0. -1.
        2   -1    0    0  501    0  0.00000000000E+00  0.00000000000E+00 -0.69104647472E+03  0.69104647472E+03  0.25500000920E-02 0.  1.
    10030    2    1    2    0    0  0.00000000000E+00  0.00000000000E+00  0.75404417433E+03  0.21361371238E+04  0.19986243256E+04 0.  0.
        3    1    3    3  502    0  0.20146560966E+03 -0.69371240613E+03  0.11150382136E+04  0.13285840290E+04  0.10100000352E+00 0. -1.
       -3    1    3    3    0  502 -0.20146560966E+03  0.69371240613E+03 -0.36099403922E+03  0.80755309476E+03  0.10100000352E+00 0.  1.
</event>
<event>
 5   0  0.2020029E-05  0.2001985E+04  0.7818609E-02  0.8605693E-01
       -2   -1    0    0    0  501  0.00000000000E+00  0.00000000000E+00  0.10172419051E+04  0.10172419051E+04  0.25500000920E-02 0.  1.
        2   -1    0    0  501    0  0.00000000000E+00  0.00000000000E+00 -0.98500300152E+03  0.98500300152E+03  0.25500000920E-02 0. -1.
    10030    2    1    2    0    0  0.00000000000E+00  0.00000000000E+00  0.32238903581E+02  0.20022449066E+04  0.20019853444E+04 0.  0.
        5    1    3    3  502    0 -0.28924288333E+03 -0.71330461636E+03  0.65612375690E+03  0.10114274050E+04  0.46999998093E+01 0.  1.
       -5    1    3    3    0  502  0.28924288333E+03  0.71330461636E+03 -0.62388485332E+03  0.99081750160E+03  0.46999998093E+01 0. -1.
</event>
<event>
 5   0  0.1979765E-05  0.2003081E+04  0.7818609E-02  0.8605182E-01
       -2   -1    0    0    0  501  0.00000000000E+00  0.00000000000E+00  0.93942519971E+03  0.93942519971E+03  0.25500000920E-02 0.  1.
        2   -1    0    0  501    0  0.00000000000E+00  0.00000000000E+00 -0.10677625617E+04  0.10677625617E+04  0.25500000920E-02 0. -1.
    10030    2    1    2    0    0  0.00000000000E+00  0.00000000000E+00 -0.12833736204E+03  0.20071877615E+04  0.20030806852E+04 0.  0.
        2    1    3    3  502    0  0.46896336464E+03  0.41958913820E+03  0.71659601126E+03  0.95367265119E+03  0.25500000920E-02 0.  1.
       -2    1    3    3    0  502 -0.46896336464E+03 -0.41958913820E+03 -0.84493337329E+03  0.10535151103E+04  0.25500000920E-02 0. -1.
</event>
<event>
 5   0  0.9140695E-06  0.1995712E+04  0.7818609E-02  0.8608628E-01
        1   -1    0    0  501    0  0.00000000000E+00  0.00000000000E+00  0.83962313771E+03  0.83962313773E+03  0.50400001928E-02 0.  1.
       -1   -1    0    0    0  501  0.00000000000E+00  0.00000000000E+00 -0.11859092001E+04  0.11859092001E+04  0.50400001928E-02 0. -1.
    10030    2    1    2    0    0  0.00000000000E+00  0.00000000000E+00 -0.34628606236E+03  0.20255323378E+04  0.19957122073E+04 0.  0.
        1    1    3    3  502    0 -0.88935019597E+03  0.38528098067E+03 -0.41403221759E+03  0.10539487095E+04  0.50400001928E-02 0. -1.
       -1    1    3    3    0  502  0.88935019597E+03 -0.38528098067E+03  0.67746155230E+02  0.97158362826E+03  0.50400001928E-02 0.  1.
</event>
<event>
 5   0  0.9370269E-06  0.1999571E+04  0.7818609E-02  0.8606821E-01
       -1   -1    0    0    0  501  0.00000000000E+00  0.00000000000E+00  0.10214175808E+04  0.10214175809E+04  0.50400001928E-02 0.  1.
        1   -1    0    0  501    0  0.00000000000E+00  0.00000000000E+00 -0.97861107602E+03  0.97861107603E+03  0.50400001928E-02 0. -1.
    10030    2    1    2    0    0  0.00000000000E+00  0.00000000000E+00  0.42806504827E+02  0.20000286569E+04  0.19995705118E+04 0.  0.
        4    1    3    3  502    0  0.84355925321E+03 -0.38815024798E+02  0.55675492495E+03  0.10114724312E+04  0.12699999809E+01 0.  1.
       -4    1    3    3    0  502 -0.84355925321E+03  0.38815024798E+02 -0.51394842012E+03  0.98855622565E+03  0.12699999809E+01 0. -1.
</event>
<event>
 5   0  0.2003576E-05  0.2000650E+04  0.7818609E-02  0.8606317E-01
        2   -1    0    0  501    0  0.00000000000E+00  0.00000000000E+00  0.17649407425E+04  0.17649407425E+04  0.25500000920E-02 0. -1.
       -2   -1    0    0    0  501  0.00000000000E+00  0.00000000000E+00 -0.56695976103E+03  0.56695976104E+03  0.25500000920E-02 0.  1.
    10030    2    1    2    0    0  0.00000000000E+00  0.00000000000E+00  0.11979809814E+04  0.23319005035E+04  0.20006502759E+04 0.  0.
        4    1    3    3  502    0 -0.38327124152E+03 -0.90110422492E+03  0.83718689521E+03  0.12883202937E+04  0.12699999809E+01 0. -1.
       -4    1    3    3    0  502  0.38327124152E+03  0.90110422492E+03  0.36079408622E+03  0.10435802098E+04  0.12699999809E+01 0.  1.
</event>
<event>
 5   0  0.2003576E-05  0.2023109E+04  0.7818609E-02  0.8595892E-01
        2   -1    0    0  501    0  0.00000000000E+00  0.00000000000E+00  0.78939409549E+03  0.78939409549E+03  0.25500000920E-02 0. -1.
       -2   -1    0    0    0  501  0.00000000000E+00  0.00000000000E+00 -0.12962379019E+04  0.12962379019E+04  0.25500000920E-02 0.  1.
    10030    2    1    2    0    0  0.00000000000E+00  0.00000000000E+00 -0.50684380639E+03  0.20856319974E+04  0.20231090392E+04 0.  0.
        4    1    3    3  502    0  0.20000303667E+03  0.36613422320E+03 -0.12034132786E+04  0.12736799504E+04  0.12699999809E+01 0.  1.
       -4    1    3    3    0  502 -0.20000303667E+03 -0.36613422320E+03  0.69656947219E+03  0.81195204697E+03  0.12699999809E+01 0. -1.
</event>
<event>
 5   0  0.9333353E-06  0.2004201E+04  0.7818609E-02  0.8604659E-01
        1   -1    0    0  501    0  0.00000000000E+00  0.00000000000E+00  0.11922721367E+04  0.11922721367E+04  0.50400001928E-02 0. -1.
       -1   -1    0    0    0  501  0.00000000000E+00  0.00000000000E+00 -0.84226166375E+03  0.84226166376E+03  0.50400001928E-02 0.  1.
    10030    2    1    2    0    0  0.00000000000E+00  0.00000000000E+00  0.35001047296E+03  0.20345338005E+04  0.20042007021E+04 0.  0.
        2    1    3    3  502    0 -0.15005116821E+03 -0.22042269646E+03 -0.80558740707E+03  0.84857090961E+03  0.25500000920E-02 0.  1.
       -2    1    3    3    0  502  0.15005116821E+03  0.22042269646E+03  0.11555978800E+04  0.11859628909E+04  0.25500000920E-02 0. -1.
</event>
<event>
 5   0  0.9333353E-06  0.1988188E+04  0.7818609E-02  0.8612163E-01
        1   -1    0    0  501    0  0.00000000000E+00  0.00000000000E+00  0.20499902528E+04  0.20499902528E+04  0.50400001928E-02 0.  1.
       -1   -1    0    0    0  501  0.00000000000E+00  0.00000000000E+00 -0.48206227320E+03  0.48206227323E+03  0.50400001928E-02 0. -1.
    10030    2    1    2    0    0  0.00000000000E+00  0.00000000000E+00  0.15679279796E+04  0.25320525260E+04  0.19881880810E+04 0.  0.
        2    1    3    3  502    0  0.23030119853E+03 -0.52298302138E+03  0.18199096543E+04  0.19075169809E+04  0.25500000920E-02 0.  1.
       -2    1    3    3    0  502 -0.23030119853E+03  0.52298302138E+03 -0.25198167472E+03  0.62453554510E+03  0.25500000920E-02 0. -1.
</event>
<event>
 5   0  0.1979765E-05  0.1998055E+04  0.7818609E-02  0.8607531E-01
        2   -1    0    0  501    0  0.00000000000E+00  0.00000000000E+00  0.65899151646E+03  0.65899151647E+03  0.25500000920E-02 0. -1.
       -2   -1    0    0    0  501  0.00000000000E+00  0.00000000000E+00 -0.15145202590E+04  0.15145202590E+04  0.25500000920E-02 0.  1.
    10030    2    1    2    0    0  0.00000000000E+00  0.00000000000E+00 -0.85552874251E+03  0.21735117754E+04  0.19980550565E+04 0.  0.
        2    1    3    3  502    0 -0.59226234469E+03 -0.48825895956E+03 -0.11233568431E+04  0.13605521282E+04  0.25500000920E-02 0.  1.
       -2    1    3    3    0  502  0.59226234469E+03  0.48825895956E+03  0.26782810064E+03  0.81295964723E+03  0.25500000920E-02 0. -1.
</event>
<event>
 5   0  0.2038882E-05  0.1998686E+04  0.7818609E-02  0.8607235E-01
       -2   -1    0    0    0  501  0.00000000000E+00  0.00000000000E+00  0.55039121248E+03  0.55039121249E+03  0.25500000920E-02 0.  1.
        2   -1    0    0  501    0  0.00000000000E+00  0.00000000000E+00 -0.18145026234E+04  0.18145026234E+04  0.25500000920E-02 0. -1.
    10030    2    1    2    0    0  0.00000000000E+00  0.00000000000E+00 -0.12641114109E+04  0.23648938359E+04  0.19986858672E+04 0.  0.
        3    1    3    3  502    0  0.43714960104E+01 -0.66346432830E+03  0.25218764065E+03  0.70979056150E+03  0.10100000352E+00 0.  1.
       -3    1    3    3    0  502 -0.43714960104E+01  0.66346432830E+03 -0.15162990515E+04  0.16551032744E+04  0.10100000352E+00 0. -1.
</event>
<event>
 5   0  0.1979765E-05  0.2001445E+04  0.7818609E-02  0.8605945E-01
       -2   -1    0    0    0  501  0.00000000000E+00  0.00000000000E+00  0.65678852516E+03  0.65678852517E+03  0.25500000920E-02 0. -1.
        2   -1    0    0  501    0  0.00000000000E+00  0.00000000000E+00 -0.15247606180E+04  0.15247606180E+04  0.25500000920E-02 0.  1.
    10030    2    1    2    0    0  0.00000000000E+00  0.00000000000E+00 -0.86797209281E+03  0.21815491431E+04  0.20014447557E+04 0.  0.
        2    1    3    3  502    0 -0.85087647214E+03  0.51346418817E+03 -0.56207245387E+03  0.11417362597E+04  0.25500000920E-02 0. -1.
       -2    1    3    3    0  502  0.85087647214E+03 -0.51346418817E+03 -0.30589963893E+03  0.10398128834E+04  0.25500000920E-02 0.  1.
</event>
<event>
 5   0  0.1999142E-05  0.2001303E+04  0.7818609E-02  0.8606012E-01
       -2   -1    0    0    0  501  0.00000000000E+00  0.00000000000E+00  0.46382672439E+03  0.46382672439E+03  0.25500000920E-02 0.  1.
        2   -1    0    0  501    0  0.00000000000E+00  0.00000000000E+00 -0.21587881664E+04  0.21587881664E+04  0.25500000920E-02 0. -1.
    10030    2    1    2    0    0  0.00000000000E+00  0.00000000000E+00 -0.16949614421E+04  0.26226148908E+04  0.20013032193E+04 0.  0.
        1    1    3    3  502    0  0.52817190140E+03  0.35807573287E+03 -0.18575674434E+04  0.19641131827E+04  0.50400001928E-02 0. -1.
       -1    1    3    3    0  502 -0.52817190140E+03 -0.35807573287E+03  0.16260600130E+03  0.65850170811E+03  0.50400001928E-02 0.  1.
</event>
<event>
 5   0  0.9220260E-06  0.2003250E+04  0.7818609E-02  0.8605103E-01
        1   -1    0    0  501    0  0.00000000000E+00  0.00000000000E+00  0.29590736065E+04  0.29590736065E+04  0.50400001928E-02 0. -1.
       -1   -1    0    0    0  501  0.00000000000E+00  0.00000000000E+00 -0.33904264977E+03  0.33904264981E+03  0.50400001928E-02 0.  1.
    10030    2    1    2    0    0  0.00000000000E+00  0.00000000000E+00  0.26200309567E+04  0.32981162563E+04  0.20032495167E+04 0.  0.
        3    1    3    3  502    0 -0.90216527852E+03 -0.32698273840E+03  0.83732214394E+03  0.12735494823E+04  0.10100000352E+00 0.  1.
       -3    1    3    3    0  502  0.90216527852E+03  0.32698273840E+03  0.17827088128E+04  0.20245667740E+04  0.10100000352E+00 0. -1.
</event>
<event>
 5   0  0.2020029E-05  0.1998253E+04  0.7818609E-02  0.8607438E-01
       -2   -1    0    0    0  501  0.00000000000E+00  0.00000000000E+00  0.62988239321E+03  0.62988239322E+03  0.25500000920E-02 0.  1.
        2   -1    0    0  501    0  0.00000000000E+00  0.00000000000E+00 -0.15848263379E+04  0.15848263379E+04  0.25500000920E-02 0. -1.
    10030    2    1    2    0    0  0.00000000000E+00  0.00000000000E+00 -0.95494394467E+03  0.22147087311E+04  0.19982534439E+04 0.  0.
        5    1    3    3  502    0 -0.98888783882E+03  0.12708940717E+03 -0.40580506451E+03  0.10764528395E+04  0.46999998093E+01 0. -1.
       -5    1    3    3    0  502  0.98888783882E+03 -0.12708940717E+03 -0.54913888016E+03  0.11382558917E+04  0.46999998093E+01 0.  1.
</event>
<event>
 5   0  0.2003576E-05  0.2021477E+04  0.7818609E-02  0.8596645E-01
       -2   -1    0    0    0  501  0.00000000000E+00  0.00000000000E+00  0.68794193379E+03  0.68794193380E+03  0.25500000920E-02 0. -1.
        2   -1    0    0  501    0  0.00000000000E+00  0.00000000000E+00 -0.14849973763E+04  0.14849973763E+04  0.25500000920E-02 0.  1.
    10030    2    1    2    0    0  0.00000000000E+00  0.00000000000E+00 -0.79705544247E+03  0.21729393101E+04  0.20214766550E+04 0.  0.
        4    1    3    3  502    0 -0.25156114879E+03  0.52916699019E+03  0.48676411209E+03  0.76173593115E+03  0.12699999809E+01 0. -1.
       -4    1    3    3    0  502  0.25156114879E+03 -0.52916699019E+03 -0.12838195546E+04  0.14112033789E+04  0.12699999809E+01 0.  1.
</event>
<event>
 5   0  0.1979765E-05  0.2002028E+04  0.7818609E-02  0.8605673E-01
        2   -1    0    0  501    0  0.00000000000E+00  0.00000000000E+00  0.96996242538E+03  0.96996242538E+03  0.25500000920E-02 0.  1.
       -2   -1    0    0    0  501  0.00000000000E+00  0.00000000000E+00 -0.10330592635E+04  0.10330592635E+04  0.25500000920E-02 0. -1.
    10030    2    1    2    0    0  0.00000000000E+00  0.00000000000E+00 -0.63096838117E+02  0.20030216889E+04  0.20020276410E+04 0.  0.
        2    1    3    3  502    0  0.79630857264E+02  0.56826782573E+03  0.78907787658E+03  0.97566043812E+03  0.25500000920E-02 0.  1.
       -2    1    3    3    0  502 -0.79630857264E+02 -0.56826782573E+03 -0.85217471470E+03  0.10273612508E+04  0.25500000920E-02 0. -1.
</event>
<event>
 5   0  0.9220260E-06  0.1999548E+04  0.7818609E-02  0.8606832E-01
       -1   -1    0    0    0  501  0.00000000000E+00  0.00000000000E+00  0.10064103424E+04  0.10064103424E+04  0.50400001928E-02 0. -1.
        1   -1    0    0  501    0  0.00000000000E+00  0.00000000000E+00 -0.99318129366E+03  0.99318129367E+03  0.50400001928E-02 0.  1.
    10030    2    1    2    0    0  0.00000000000E+00  0.00000000000E+00  0.13229048722E+02  0.19995916361E+04  0.19995478747E+04 0.  0.
        3    1    3    3  502    0 -0.62884794389E+03 -0.12497298960E+03  0.77375576934E+03  0.10048711288E+04  0.10100000352E+00 0. -1.
       -3    1    3    3    0  502  0.62884794389E+03  0.12497298960E+03 -0.76052672061E+03  0.99472050729E+03  0.10100000352E+00 0.  1.
</event>
<event>
 5   0  0.9342635E-06  0.2002077E+04  0.7818609E-02  0.8605650E-01
        1   -1    0    0  501    0  0.00000000000E+00  0.00000000000E+00  0.18001481276E+04  0.18001481276E+04  0.50400001928E-02 0. -1.
       -1   -1    0    0    0  501  0.00000000000E+00  0.00000000000E+00 -0.55666404778E+03  0.55666404780E+03  0.50400001928E-02 0.  1.
    10030    2    1    2    0    0  0.00000000000E+00  0.00000000000E+00  0.12434840798E+04  0.23568121754E+04  0.20020766652E+04 0.  0.
        5    1    3    3  502    0 -0.57255729400E+03  0.87451451555E+02  0.15828504489E+04  0.16854991085E+04  0.46999998093E+01 0. -1.
       -5    1    3    3    0  502  0.57255729400E+03 -0.87451451555E+02 -0.33936636908E+03  0.67131306687E+03  0.46999998093E+01 0.  1.
</event>
<event>
 5   0  0.1999142E-05  0.1999673E+04  0.7818609E-02  0.8606774E-01
       -2   -1    0    0    0  501  0.00000000000E+00  0.00000000000E+00  0.61392691407E+03  0.61392691407E+03  0.25500000920E-02 0. -1.
        2   -1    0    0  501    0  0.00000000000E+00  0.00000000000E+00 -0.16283258958E+04  0.16283258958E+04  0.25500000920E-02 0.  1.
    10030    2    1    2    0    0  0.00000000000E+00  0.00000000000E+00 -0.10143989818E+04  0.22422528099E+04  0.19996730656E+04 0.  0.
        1    1    3    3  502    0  0.36453680591E+03 -0.59238748105E+03 -0.13125645877E+04  0.14854749434E+04  0.50400001928E-02 0.  1.
       -1    1    3    3    0  502 -0.36453680591E+03  0.59238748105E+03  0.29816560597E+03  0.75677786647E+03  0.50400001928E-02 0. -1.
</event>
<event>
 5   0  0.2020029E-05  0.2000311E+04  0.7818609E-02  0.8606475E-01
        2   -1    0    0  501    0  0.00000000000E+00  0.00000000000E+00  0.86215696399E+03  0.86215696400E+03  0.25500000920E-02 0.  1.
       -2   -1    0    0    0  501  0.00000000000E+00  0.00000000000E+00 -0.11602425575E+04  0.11602425575E+04  0.25500000920E-02 0. -1.
    10030    2    1    2    0    0  0.00000000000E+00  0.00000000000E+00 -0.29808559352E+03  0.20223995215E+04  0.20003111767E+04 0.  0.
        5    1    3    3  502    0 -0.96243927807E+03  0.25862140471E+03 -0.23432298982E+03  0.10237693825E+04  0.46999998093E+01 0. -1.
       -5    1    3    3    0  502  0.96243927807E+03 -0.25862140471E+03 -0.63762603700E+02  0.99863013903E+03  0.46999998093E+01 0.  1.
</event>
<event>
 5   0  0.2020029E-05  0.2001221E+04  0.7818609E-02  0.8606050E-01
       -2   -1    0    0    0  501  0.00000000000E+00  0.00000000000E+00  0.76212876676E+03  0.76212876676E+03  0.25500000920E-02 0.  1.
        2   -1    0    0  501    0  0.00000000000E+00  0.00000000000E+00 -0.13137172931E+04  0.13137172931E+04  0.25500000920E-02 0. -1.
    10030    2    1    2    0    0  0.00000000000E+00  0.00000000000E+00 -0.55158852636E+03  0.20758460599E+04  0.20012213675E+04 0.  0.
        5    1    3    3  502    0  0.24834841206E+03  0.22303587427E+03 -0.12542490789E+04  0.12979155507E+04  0.46999998093E+01 0. -1.
       -5    1    3    3    0  502 -0.24834841206E+03 -0.22303587427E+03  0.70266055253E+03  0.77793050914E+03  0.46999998093E+01 0.  1.
</event>
<event>
 5   0  0.9370269E-06  0.2006731E+04  0.7818609E-02  0.8603480E-01
        1   -1    0    0  501    0  0.00000000000E+00  0.00000000000E+00  0.44231739219E+03  0.44231739222E+03  0.50400001928E-02 0.  1.
       -1   -1    0    0    0  501  0.00000000000E+00  0.00000000000E+00 -0.22760625198E+04  0.22760625198E+04  0.50400001928E-02 0. -1.
    10030    2    1    2    0    0  0.00000000000E+00  0.00000000000E+00 -0.18337451276E+04  0.27183799121E+04  0.20067307127E+04 0.  0.
        4    1    3    3  502    0 -0.12759277431E+03  0.15127527833E+03 -0.22493616656E+04  0.22580508500E+04  0.12699999809E+01 0. -1.
       -4    1    3    3    0  502  0.12759277431E+03 -0.15127527833E+03  0.41561653791E+03  0.46032906205E+03  0.12699999809E+01 0.  1.
</event>
<event>
 5   0  0.9370269E-06  0.2000222E+04  0.7818609E-02  0.8606517E-01
        1   -1    0    0  501    0  0.00000000000E+00  0.00000000000E+00  0.10704159662E+04  0.10704159662E+04  0.50400001928E-02 0.  1.
       -1   -1    0    0    0  501  0.00000000000E+00  0.00000000000E+00 -0.93442413044E+03  0.93442413045E+03  0.50400001928E-02 0. -1.
    10030    2    1    2    0    0  0.00000000000E+00  0.00000000000E+00  0.13599183573E+03  0.20048400966E+04  0.20002224960E+04 0.  0.
        4    1    3    3  502    0 -0.31204525513E+03  0.17349005130E+03 -0.86837156851E+03  0.93890459209E+03  0.12699999809E+01 0. -1.
       -4    1    3    3    0  502  0.31204525513E+03 -0.17349005130E+03  0.10043634042E+04  0.10659355045E+04  0.12699999809E+01 0.  1.
</event>
<event>
 5   0  0.9333353E-06  0.1995055E+04  0.7818609E-02  0.8608936E-01
        1   -1    0    0  501    0  0.00000000000E+00  0.00000000000E+00  0.92465336806E+03  0.92465336807E+03  0.50400001928E-02 0.  1.
       -1   -1    0    0    0  501  0.00000000000E+00  0.00000000000E+00 -0.10761450946E+04  0.10761450946E+04  0.50400001928E-02 0. -1.
    10030    2    1    2    0    0  0.00000000000E+00  0.00000000000E+00 -0.15149172655E+03  0.20007984627E+04  0.19950550732E+04 0.  0.
        2    1    3    3  502    0  0.97145675275E+03  0.44511419775E+02 -0.29853781754E+03  0.10172680657E+04  0.25500000920E-02 0. -1.
       -2    1    3    3    0  502 -0.97145675275E+03 -0.44511419775E+02  0.14704609099E+03  0.98353039701E+03  0.25500000920E-02 0.  1.
</event>
<event>
 5   0  0.1999142E-05  0.2000362E+04  0.7818609E-02  0.8606451E-01
        2   -1    0    0  501    0  0.00000000000E+00  0.00000000000E+00  0.12437793426E+04  0.12437793426E+04  0.25500000920E-02 0.  1.
       -2   -1    0    0    0  501  0.00000000000E+00  0.00000000000E+00 -0.80429234125E+03  0.80429234126E+03  0.25500000920E-02 0. -1.
    10030    2    1    2    0    0  0.00000000000E+00  0.00000000000E+00  0.43948700131E+03  0.20480716838E+04  0.20003621666E+04 0.  0.
        1    1    3    3  502    0 -0.81396583256E+03 -0.52216825757E+03 -0.41613519040E+02  0.96795234944E+03  0.50400001928E-02 0. -1.
       -1    1    3    3    0  502  0.81396583256E+03  0.52216825757E+03  0.48110052035E+03  0.10801193344E+04  0.50400001928E-02 0.  1.
</event>
<event>
 5   0  0.2020029E-05  0.2002511E+04  0.7818609E-02  0.8605448E-01
       -2   -1    0    0    0  501  0.00000000000E+00  0.00000000000E+00  0.53344506886E+03  0.53344506887E+03  0.25500000920E-02 0. -1.
        2   -1    0    0  501    0  0.00000000000E+00  0.00000000000E+00 -0.18793176505E+04  0.18793176505E+04  0.25500000920E-02 0.  1.
    10030    2    1    2    0    0  0.00000000000E+00  0.00000000000E+00 -0.13458725816E+04  0.24127627194E+04  0.20025111570E+04 0.  0.
        5    1    3    3  502    0  0.21690385652E+03 -0.93611314259E+02 -0.18452432285E+04  0.18603104643E+04  0.46999998093E+01 0.  1.
       -5    1    3    3    0  502 -0.21690385652E+03  0.93611314259E+02  0.49937064691E+03  0.55245225506E+03  0.46999998093E+01 0. -1.
</event>
<event>
 5   0  0.2038882E-05  0.2001929E+04  0.7818609E-02  0.8605719E-01
        2   -1    0    0  501    0  0.00000000000E+00  0.00000000000E+00  0.11429310300E+04  0.11429310300E+04  0.25500000920E-02 0.  1.
       -2   -1    0    0    0  501  0.00000000000E+00  0.00000000000E+00 -0.87663211617E+03  0.87663211617E+03  0.25500000920E-02 0. -1.
    10030    2    1    2    0    0  0.00000000000E+00  0.00000000000E+00  0.26629891380E+03  0.20195631461E+04  0.20019291171E+04 0.  0.
        3    1    3    3  502    0  0.98888185421E+03  0.15468451507E+03  0.14398729373E+03  0.10112106466E+04  0.10100000352E+00 0.  1.
       -3    1    3    3    0  502 -0.98888185421E+03 -0.15468451507E+03  0.12231162008E+03  0.10083524996E+04  0.10100000352E+00 0. -1.
</event>
<event>
 5   0  0.9370269E-06  0.1995821E+04  0.7818609E-02  0.8608577E-01
        1   -1    0    0  501    0  0.00000000000E+00  0.00000000000E+00  0.17713615284E+04  0.17713615284E+04  0.50400001928E-02 0.  1.
       -1   -1    0    0    0  501  0.00000000000E+00  0.00000000000E+00 -0.56218101901E+03  0.56218101904E+03  0.50400001928E-02 0. -1.
    10030    2    1    2    0    0  0.00000000000E+00  0.00000000000E+00  0.12091805094E+04  0.23335425475E+04  0.19958214641E+04 0.  0.
        4    1    3    3  502    0  0.97305846004E+03 -0.68183640205E+01  0.86323499512E+03  0.13007941907E+04  0.12699999809E+01 0.  1.
       -4    1    3    3    0  502 -0.97305846004E+03  0.68183640205E+01  0.34594551430E+03  0.10327483568E+04  0.12699999809E+01 0. -1.
</event>
<event>
 5   0  0.1999142E-05  0.2000594E+04  0.7818609E-02  0.8606343E-01
        2   -1    0    0  501    0  0.00000000000E+00  0.00000000000E+00  0.92397059788E+03  0.92397059789E+03  0.25500000920E-02 0.  1.
       -2   -1    0    0    0  501  0.00000000000E+00  0.00000000000E+00 -0.10829290321E+04  0.10829290321E+04  0.25500000920E-02 0. -1.
    10030    2    1    2    0    0  0.00000000000E+00  0.00000000000E+00 -0.15895843423E+03  0.20068996300E+04  0.20005944969E+04 0.  0.
        1    1    3    3  502    0 -0.28246544694E+03  0.22435788060E+03  0.85645179060E+03  0.92931849059E+03  0.50400001928E-02 0.  1.
       -1    1    3    3    0  502  0.28246544694E+03 -0.22435788060E+03 -0.10154102248E+04  0.10775811394E+04  0.50400001928E-02 0. -1.
</event>
<event>
 5   0  0.9370269E-06  0.1995228E+04  0.7818609E-02  0.8608855E-01
       -1   -1    0    0    0  501  0.00000000000E+00  0.00000000000E+00  0.57358402846E+03  0.57358402848E+03  0.50400001928E-02 0. -1.
        1   -1    0    0  501    0  0.00000000000E+00  0.00000000000E+00 -0.17351132611E+04  0.17351132611E+04  0.50400001928E-02 0.  1.
    10030    2    1    2    0    0  0.00000000000E+00  0.00000000000E+00 -0.11615292327E+04  0.23086972896E+04  0.19952275601E+04 0.  0.
        4    1    3    3  502    0  0.67195097401E+03 -0.80357672092E+02  0.26737093049E+03  0.72764297173E+03  0.12699999809E+01 0. -1.
       -4    1    3    3    0  502 -0.67195097401E+03  0.80357672092E+02 -0.14289001632E+04  0.15810543179E+04  0.12699999809E+01 0.  1.
</event>
<event>
 5   0  0.2038882E-05  0.1998022E+04  0.7818609E-02  0.8607546E-01
       -2   -1    0    0    0  501  0.00000000000E+00  0.00000000000E+00  0.68110602295E+03  0.68110602295E+03  0.25500000920E-02 0.  1.
        2   -1    0    0  501    0  0.00000000000E+00  0.00000000000E+00 -0.14652974915E+04  0.14652974915E+04  0.25500000920E-02 0. -1.
    10030    2    1    2    0    0  0.00000000000E+00  0.00000000000E+00 -0.78419146853E+03  0.21464035144E+04  0.19980219687E+04 0.  0.
        3    1    3    3  502    0  0.67060945231E+03 -0.31958875476E+03  0.32546848054E+03  0.81103868695E+03  0.10100000352E+00 0.  1.
       -3    1    3    3    0  502 -0.67060945231E+03  0.31958875476E+03 -0.11096599491E+04  0.13353648275E+04  0.10100000352E+00 0. -1.
</event>
<event>
 5   0  0.2003576E-05  0.1998397E+04  0.7818609E-02  0.8607370E-01
       -2   -1    0    0    0  501  0.00000000000E+00  0.00000000000E+00  0.11983046160E+04  0.11983046160E+04  0.25500000920E-02 0. -1.
        2   -1    0    0  501    0  0.00000000000E+00  0.00000000000E+00 -0.83317535043E+03  0.83317535043E+03  0.25500000920E-02 0.  1.
    10030    2    1    2    0    0  0.00000000000E+00  0.00000000000E+00  0.36512926559E+03  0.20314799665E+04  0.19983972262E+04 0.  0.
        4    1    3    3  502    0  0.43338218585E+03 -0.37870837574E+03 -0.64775337538E+03  0.86650227991E+03  0.12699999809E+01 0.  1.
       -4    1    3    3    0  502 -0.43338218585E+03  0.37870837574E+03  0.10128826410E+04  0.11649776865E+04  0.12699999809E+01 0. -1.
</event>
<event>
 5   0  0.9140695E-06  0.1998619E+04  0.7818609E-02  0.8607267E-01
       -1   -1    0    0    0  501  0.00000000000E+00  0.00000000000E+00  0.14595533324E+04  0.14595533324E+04  0.50400001928E-02 0.  1.
        1   -1    0    0  501    0  0.00000000000E+00  0.00000000000E+00 -0.68419501052E+03  0.68419501054E+03  0.50400001928E-02 0. -1.
    10030    2    1    2    0    0  0.00000000000E+00  0.00000000000E+00  0.77535832187E+03  0.21437483429E+04  0.19986186306E+04 0.  0.
        1    1    3    3  502    0 -0.28052963483E+03 -0.94892389567E+03  0.53732979763E+03  0.11260003318E+04  0.50400001928E-02 0.  1.
       -1    1    3    3    0  502  0.28052963483E+03  0.94892389567E+03  0.23802852424E+03  0.10177480111E+04  0.50400001928E-02 0. -1.
</event>
<event>
 5   0  0.1999142E-05  0.2001997E+04  0.7818609E-02  0.8605687E-01
        2   -1    0    0  501    0  0.00000000000E+00  0.00000000000E+00  0.71142280208E+03  0.71142280208E+03  0.25500000920E-02 0.  1.
       -2   -1    0    0    0  501  0.00000000000E+00  0.00000000000E+00 -0.14084427929E+04  0.14084427929E+04  0.25500000920E-02 0. -1.
    10030    2    1    2    0    0  0.00000000000E+00  0.00000000000E+00 -0.69701999084E+03  0.21198655950E+04  0.20019973210E+04 0.  0.
        1    1    3    3  502    0 -0.48510512447E+02 -0.84960408915E+03  0.20960665344E+03  0.87642188889E+03  0.50400001928E-02 0.  1.
       -1    1    3    3    0  502  0.48510512447E+02  0.84960408915E+03 -0.90662664429E+03  0.12434437061E+04  0.50400001928E-02 0. -1.
</event>
<event>
 5   0  0.9342635E-06  0.2000291E+04  0.7818609E-02  0.8606485E-01
       -1   -1    0    0    0  501  0.00000000000E+00  0.00000000000E+00  0.95060346665E+03  0.95060346666E+03  0.50400001928E-02 0.  1.
        1   -1    0    0  501    0  0.00000000000E+00  0.00000000000E+00 -0.10522693213E+04  0.10522693213E+04  0.50400001928E-02 0. -1.
    10030    2    1    2    0    0  0.00000000000E+00  0.00000000000E+00 -0.10166585461E+03  0.20028727879E+04  0.20002908435E+04 0.  0.
        5    1    3    3  502    0  0.13318438317E+03  0.98018833935E+03  0.96875329906E+02  0.99393872048E+03  0.46999998093E+01 0.  1.
       -5    1    3    3    0  502 -0.13318438317E+03 -0.98018833935E+03 -0.19854118451E+03  0.10089340675E+04  0.46999998093E+01 0. -1.
</event>
<event>
 5   0  0.9342635E-06  0.2001027E+04  0.7818609E-02  0.8606141E-01
       -1   -1    0    0    0  501  0.00000000000E+00  0.00000000000E+00  0.10007277467E+04  0.10007277467E+04  0.50400001928E-02 0. -1.
        1   -1    0    0  501    0  0.00000000000E+00  0.00000000000E+00 -0.10002989327E+04  0.10002989327E+04  0.50400001928E-02 0.  1.
    10030    2    1    2    0    0  0.00000000000E+00  0.00000000000E+00  0.42881394682E+00  0.20010266794E+04  0.20010266335E+04 0.  0.
        5    1    3    3  502    0 -0.17334957302E+03 -0.50196276774E+03  0.84814609368E+03  0.10006950489E+04  0.46999998093E+01 0. -1.
       -5    1    3    3    0  502  0.17334957302E+03  0.50196276774E+03 -0.84771727973E+03  0.10003316305E+04  0.46999998093E+01 0.  1.
</event>
<event>
 5   0  0.9370269E-06  0.2004111E+04  0.7818609E-02  0.8604701E-01
       -1   -1    0    0    0  501  0.00000000000E+00  0.00000000000E+00  0.10386814275E+04  0.10386814275E+04  0.50400001928E-02 0.  1.
        1   -1    0    0  501    0  0.00000000000E+00  0.00000000000E+00 -0.96672135710E+03  0.96672135711E+03  0.50400001928E-02 0. -1.
    10030    2    1    2    0    0  0.00000000000E+00  0.00000000000E+00  0.71960070435E+02  0.20054027847E+04  0.20041112936E+04 0.  0.
        4    1    3    3  502    0 -0.11373062693E+03 -0.38429364810E+03 -0.88303309205E+03  0.96972435157E+03  0.12699999809E+01 0. -1.
       -4    1    3    3    0  502  0.11373062693E+03  0.38429364810E+03  0.95499316248E+03  0.10356784331E+04  0.12699999809E+01 0.  1.
</event>
<event>
 5   0  0.9220260E-06  0.1995135E+04  0.7818609E-02  0.8608898E-01
        1   -1    0    0  501    0  0.00000000000E+00  0.00000000000E+00  0.18042074121E+04  0.18042074121E+04  0.50400001928E-02 0.  1.
       -1   -1    0    0    0  501  0.00000000000E+00  0.00000000000E+00 -0.55156692122E+03  0.55156692125E+03  0.50400001928E-02 0. -1.
    10030    2    1    2    0    0  0.00000000000E+00  0.00000000000E+00  0.12526404908E+04  0.23557743333E+04  0.19951352110E+04 0.  0.
        3    1    3    3  502    0  0.70115533444E+03 -0.61655639677E+03  0.21157190441E+03  0.95735222063E+03  0.10100000352E+00 0. -1.
       -3    1    3    3    0  502 -0.70115533444E+03  0.61655639677E+03  0.10410685864E+04  0.13984221127E+04  0.10100000352E+00 0.  1.
</event>
<event>
 5   0  0.9220260E-06  0.2020855E+04  0.7818609E-02  0.8596932E-01
        1   -1    0    0  501    0  0.00000000000E+00  0.00000000000E+00  0.20623696790E+04  0.20623696790E+04  0.50400001928E-02 0. -1.
       -1   -1    0    0    0  501  0.00000000000E+00  0.00000000000E+00 -0.49504382697E+03  0.49504382699E+03  0.50400001928E-02 0.  1.
    10030    2    1    2    0    0  0.00000000000E+00  0.00000000000E+00  0.15673258520E+04  0.25574135060E+04  0.20208546495E+04 0.  0.
        3    1    3    3  502    0 -0.68988022890E+02  0.91434635935E+03  0.13208342841E+04  0.16079153673E+04  0.10100000352E+00 0.  1.
       -3    1    3    3    0  502  0.68988022890E+02 -0.91434635935E+03  0.24649156796E+03  0.94949813872E+03  0.10100000352E+00 0. -1.
</event>
<event>
 5   0  0.9370269E-06  0.1999451E+04  0.7818609E-02  0.8606878E-01
       -1   -1    0    0    0  501  0.00000000000E+00  0.00000000000E+00  0.25720950249E+04  0.25720950249E+04  0.50400001928E-02 0.  1.
        1   -1    0    0  501    0  0.00000000000E+00  0.00000000000E+00 -0.38857452428E+03  0.38857452431E+03  0.50400001928E-02 0. -1.
    10030    2    1    2    0    0  0.00000000000E+00  0.00000000000E+00  0.21835205007E+04  0.29606695492E+04  0.19994505253E+04 0.  0.
        4    1    3    3  502    0 -0.16419176177E+03 -0.28771649994E+03 -0.30494038957E+03  0.45025545312E+03  0.12699999809E+01 0. -1.
       -4    1    3    3    0  502  0.16419176177E+03  0.28771649994E+03  0.24884608902E+04  0.25104140961E+04  0.12699999809E+01 0.  1.
</event>
<event>
 5   0  0.9220260E-06  0.2001058E+04  0.7818609E-02  0.8606126E-01
        1   -1    0    0  501    0  0.00000000000E+00  0.00000000000E+00  0.23937881833E+04  0.23937881833E+04  0.50400001928E-02 0. -1.
       -1   -1    0    0    0  501  0.00000000000E+00  0.00000000000E+00 -0.41819000027E+03  0.41819000030E+03  0.50400001928E-02 0.  1.
    10030    2    1    2    0    0  0.00000000000E+00  0.00000000000E+00  0.19755981830E+04  0.28119781836E+04  0.20010580012E+04 0.  0.
        3    1    3    3  502    0 -0.16469981500E+03 -0.96932980919E+03  0.72742271031E+03  0.12230576919E+04  0.10100000352E+00 0.  1.
       -3    1    3    3    0  502  0.16469981500E+03  0.96932980919E+03  0.12481754727E+04  0.15889204917E+04  0.10100000352E+00 0. -1.
</event>
<event>
 5   0  0.9140695E-06  0.2000875E+04  0.7818609E-02  0.8606212E-01
       -1   -1    0    0    0  501  0.00000000000E+00  0.00000000000E+00  0.86014125628E+03  0.86014125630E+03  0.50400001928E-02 0. -1.
        1   -1    0    0  501    0  0.00000000000E+00  0.00000000000E+00 -0.11636173524E+04  0.11636173524E+04  0.50400001928E-02 0.  1.
    10030    2    1    2    0    0  0.00000000000E+00  0.00000000000E+00 -0.30347609615E+03  0.20237586087E+04  0.20008750999E+04 0.  0.
        1    1    3    3  502    0 -0.11476879629E+03  0.32444304237E+03  0.79838828259E+03  0.86940152642E+03  0.50400001928E-02 0. -1.
       -1    1    3    3    0  502  0.11476879629E+03 -0.32444304237E+03 -0.11018643787E+04  0.11543570823E+04  0.50400001928E-02 0.  1.
</event>
<event>
 5   0  0.9342635E-06  0.1985656E+04  0.7818609E-02  0.8613356E-01
       -1   -1    0    0    0  501  0.00000000000E+00  0.00000000000E+00  0.11868368332E+04  0.11868368333E+04  0.50400001928E-02 0.  1.
        1   -1    0    0  501    0  0.00000000000E+00  0.00000000000E+00 -0.83053360512E+03  0.83053360514E+03  0.50400001928E-02 0. -1.
    10030    2    1    2    0    0  0.00000000000E+00  0.00000000000E+00  0.35630322812E+03  0.20173704384E+04  0.19856564394E+04 0.  0.
        5    1    3    3  502    0 -0.83140784214E+03 -0.45576035388E+03  0.47735356695E+03  0.10615295653E+04  0.46999998093E+01 0.  1.
       -5    1    3    3    0  502  0.83140784214E+03  0.45576035388E+03 -0.12105033883E+03  0.95584087309E+03  0.46999998093E+01 0. -1.
</event>
<event>
 5   0  0.2038882E-05  0.2003964E+04  0.7818609E-02  0.8604770E-01
       -2   -1    0    0    0  501  0.00000000000E+00  0.00000000000E+00  0.75869346796E+03  0.75869346796E+03  0.25500000920E-02 0.  1.
        2   -1    0    0  501    0  0.00000000000E+00  0.00000000000E+00 -0.13232852215E+04  0.13232852215E+04  0.25500000920E-02 0. -1.
    10030    2    1    2    0    0  0.00000000000E+00  0.00000000000E+00 -0.56459175357E+03  0.20819786895E+04  0.20039639256E+04 0.  0.
        3    1    3    3  502    0 -0.31458623658E+03 -0.25805221037E+03 -0.12335909051E+04  0.12989618835E+04  0.10100000352E+00 0. -1.
       -3    1    3    3    0  502  0.31458623658E+03  0.25805221037E+03  0.66899915151E+03  0.78301680598E+03  0.10100000352E+00 0.  1.
</event>
<event>
 5   0  0.1979765E-05  0.2003092E+04  0.7818609E-02  0.8605176E-01
       -2   -1    0    0    0  501  0.00000000000E+00  0.00000000000E+00  0.10314915424E+04  0.10314915424E+04  0.25500000920E-02 0.  1.
        2   -1    0    0  501    0  0.00000000000E+00  0.00000000000E+00 -0.97246966590E+03  0.97246966590E+03  0.25500000920E-02 0. -1.
    10030    2    1    2    0    0  0.00000000000E+00  0.00000000000E+00  0.59021876474E+02  0.20039612083E+04  0.20030918457E+04 0.  0.
        2    1    3    3  502    0  0.32103379047E+02 -0.43048684724E+03 -0.87462057217E+03  0.97535157654E+03  0.25500000920E-02 0. -1.
       -2    1    3    3    0  502 -0.32103379047E+02  0.43048684724E+03  0.93364244864E+03  0.10286096317E+04  0.25500000920E-02 0.  1.
</event>
<event>
 5   0  0.9342635E-06  0.2003337E+04  0.7818609E-02  0.8605062E-01
       -1   -1    0    0    0  501  0.00000000000E+00  0.00000000000E+00  0.55134116808E+03  0.55134116810E+03  0.50400001928E-02 0.  1.
        1   -1    0    0  501    0  0.00000000000E+00  0.00000000000E+00 -0.18198171228E+04  0.18198171228E+04  0.50400001928E-02 0. -1.
    10030    2    1    2    0    0  0.00000000000E+00  0.00000000000E+00 -0.12684759547E+04  0.23711582909E+04  0.20033373138E+04 0.  0.
        5    1    3    3  502    0  0.76761675602E+03 -0.44242481336E+03 -0.81173311626E+02  0.88971141171E+03  0.46999998093E+01 0.  1.
       -5    1    3    3    0  502 -0.76761675602E+03  0.44242481336E+03 -0.11873026431E+04  0.14814468792E+04  0.46999998093E+01 0. -1.
</event>
<event>
 5   0  0.2038882E-05  0.1999167E+04  0.7818609E-02  0.8607010E-01
        2   -1    0    0  501    0  0.00000000000E+00  0.00000000000E+00  0.19175773223E+04  0.19175773223E+04  0.25500000920E-02 0.  1.
       -2   -1    0    0    0  501  0.00000000000E+00  0.00000000000E+00 -0.52105711621E+03  0.52105711622E+03  0.25500000920E-02 0. -1.
    10030    2    1    2    0    0  0.00000000000E+00  0.00000000000E+00  0.13965202061E+04  0.24386344385E+04  0.19991671363E+04 0.  0.
        3    1    3    3  502    0 -0.70476199446E+03  0.65124894016E+03  0.10397079980E+04  0.14148524242E+04  0.10100000352E+00 0.  1.
       -3    1    3    3    0  502  0.70476199446E+03 -0.65124894016E+03  0.35681220812E+03  0.10237820144E+04  0.10100000352E+00 0. -1.
</event>
<event>
 5   0  0.1999142E-05  0.2004426E+04  0.7818609E-02  0.8604554E-01
        2   -1    0    0  501    0  0.00000000000E+00  0.00000000000E+00  0.10653028399E+04  0.10653028399E+04  0.25500000920E-02 0.  1.
       -2   -1    0    0    0  501  0.00000000000E+00  0.00000000000E+00 -0.94285940300E+03  0.94285940300E+03  0.25500000920E-02 0. -1.
    10030    2    1    2    0    0  0.00000000000E+00  0.00000000000E+00  0.12244343685E+03  0.20081622429E+04  0.20044259024E+04 0.  0.
        1    1    3    3  502    0  0.46836856916E+03 -0.43903019979E+03 -0.70983238180E+03  0.95706773177E+03  0.50400001928E-02 0. -1.
       -1    1    3    3    0  502 -0.46836856916E+03  0.43903019979E+03  0.83227581865E+03  0.10510945111E+04  0.50400001928E-02 0.  1.
</event>
<event>
 5   0  0.2003576E-05  0.2002622E+04  0.7818609E-02  0.8605396E-01
       -2   -1    0    0    0  501  0.00000000000E+00  0.00000000000E+00  0.50702397459E+03  0.50702397459E+03  0.25500000920E-02 0. -1.
        2   -1    0    0  501    0  0.00000000000E+00  0.00000000000E+00 -0.19774677175E+04  0.19774677175E+04  0.25500000920E-02 0.  1.
    10030    2    1    2    0    0  0.00000000000E+00  0.00000000000E+00 -0.14704437429E+04  0.24844916921E+04  0.20026218233E+04 0.  0.
        4    1    3    3  502    0  0.12240415769E+03  0.93939817105E+03 -0.33288946904E+03  0.10041258452E+04  0.12699999809E+01 0. -1.
       -4    1    3    3    0  502 -0.12240415769E+03 -0.93939817105E+03 -0.11375542739E+04  0.14803658468E+04  0.12699999809E+01 0.  1.
</event>
<event>
 5   0  0.1979765E-05  0.2009662E+04  0.7818609E-02  0.8602117E-01
       -2   -1    0    0    0  501  0.00000000000E+00  0.00000000000E+00  0.70405126762E+03  0.70405126762E+03  0.25500000920E-02 0.  1.
        2   -1    0    0  501    0  0.00000000000E+00  0.00000000000E+00 -0.14341076745E+04  0.14341076745E+04  0.25500000920E-02 0. -1.
    10030    2    1    2    0    0  0.00000000000E+00  0.00000000000E+00 -0.73005640688E+03  0.21381589421E+04  0.20096619876E+04 0.  0.
        2    1    3    3  502    0  0.13220949838E+03  0.99575718187E+03 -0.39264167718E+03  0.10785078597E+04  0.25500000920E-02 0.  1.
       -2    1    3    3    0  502 -0.13220949838E+03 -0.99575718187E+03 -0.33741472970E+03  0.10596510825E+04  0.25500000920E-02 0. -1.
</event>
<event>
 5   0  0.9342635E-06  0.1999247E+04  0.7818609E-02  0.8606973E-01
       -1   -1    0    0    0  501  0.00000000000E+00  0.00000000000E+00  0.13352237835E+04  0.13352237835E+04  0.50400001928E-02 0.  1.
        1   -1    0    0  501    0  0.00000000000E+00  0.00000000000E+00 -0.74837398764E+03  0.74837398765E+03  0.50400001928E-02 0. -1.
    10030    2    1    2    0    0  0.00000000000E+00  0.00000000000E+00  0.58684979585E+03  0.20835977711E+04  0.19992466054E+04 0.  0.
        5    1    3    3  502    0 -0.83048755020E+03  0.53554267741E+03  0.13637135587E+03  0.99756441750E+03  0.46999998093E+01 0. -1.
       -5    1    3    3    0  502  0.83048755020E+03 -0.53554267741E+03  0.45047843998E+03  0.10860333537E+04  0.46999998093E+01 0.  1.
</event>
<event>
 5   0  0.1979765E-05  0.2000757E+04  0.7818609E-02  0.8606267E-01
       -2   -1    0    0    0  501  0.00000000000E+00  0.00000000000E+00  0.44842400885E+03  0.44842400885E+03  0.25500000920E-02 0. -1.
        2   -1    0    0  501    0  0.00000000000E+00  0.00000000000E+00 -0.22317209036E+04  0.22317209036E+04  0.25500000920E-02 0.  1.
    10030    2    1    2    0    0  0.00000000000E+00  0.00000000000E+00 -0.17832968948E+04  0.26801449125E+04  0.20007570909E+04 0.  0.
        2    1    3    3  502    0  0.63044457832E+03 -0.62135555958E+03 -0.15159694638E+04  0.17554789982E+04  0.25500000920E-02 0.  1.
       -2    1    3    3    0  502 -0.63044457832E+03  0.62135555958E+03 -0.26732743096E+03  0.92466591431E+03  0.25500000920E-02 0. -1.
</event>
<event>
 5   0  0.9342635E-06  0.1996509E+04  0.7818609E-02  0.8608255E-01
       -1   -1    0    0    0  501  0.00000000000E+00  0.00000000000E+00  0.93955292501E+03  0.93955292503E+03  0.50400001928E-02 0. -1.
        1   -1    0    0  501    0  0.00000000000E+00  0.00000000000E+00 -0.10606237209E+04  0.10606237209E+04  0.50400001928E-02 0.  1.
    10030    2    1    2    0    0  0.00000000000E+00  0.00000000000E+00 -0.12107079586E+03  0.20001766459E+04  0.19965090727E+04 0.  0.
        5    1    3    3  502    0  0.46589862886E+03  0.44690349858E+03  0.70224736735E+03  0.95391704271E+03  0.46999998093E+01 0. -1.
       -5    1    3    3    0  502 -0.46589862886E+03 -0.44690349858E+03 -0.82331816322E+03  0.10462596032E+04  0.46999998093E+01 0.  1.
</event>
<event>
 5   0  0.9370269E-06  0.1998697E+04  0.7818609E-02  0.8607230E-01
        1   -1    0    0  501    0  0.00000000000E+00  0.00000000000E+00  0.11783367171E+04  0.11783367171E+04  0.50400001928E-02 0. -1.
       -1   -1    0    0    0  501  0.00000000000E+00  0.00000000000E+00 -0.84754816919E+03  0.84754816920E+03  0.50400001928E-02 0.  1.
    10030    2    1    2    0    0  0.00000000000E+00  0.00000000000E+00  0.33078854794E+03  0.20258848863E+04  0.19986967027E+04 0.  0.
        4    1    3    3  502    0  0.64795195214E+02 -0.92563279543E+03  0.54152295859E+03  0.10743571179E+04  0.12699999809E+01 0. -1.
       -4    1    3    3    0  502 -0.64795195214E+02  0.92563279543E+03 -0.21073441064E+03  0.95152776840E+03  0.12699999809E+01 0.  1.
</event>
<event>
 5   0  0.9333353E-06  0.2006721E+04  0.7818609E-02  0.8603485E-01
       -1   -1    0    0    0  501  0.00000000000E+00  0.00000000000E+00  0.16916001840E+04  0.16916001840E+04  0.50400001928E-02 0. -1.
        1   -1    0    0  501    0  0.00000000000E+00  0.00000000000E+00 -0.59513585219E+03  0.59513585221E+03  0.50400001928E-02 0.  1.
    10030    2    1    2    0    0  0.00000000000E+00  0.00000000000E+00  0.10964643318E+04  0.22867360362E+04  0.20067206254E+04 0.  0.
        2    1    3    3  502    0  0.60066555556E+03  0.47666967533E+03  0.12856104887E+04  0.14969326698E+04  0.25500000920E-02 0. -1.
       -2    1    3    3    0  502 -0.60066555556E+03 -0.47666967533E+03 -0.18914615691E+03  0.78980336647E+03  0.25500000920E-02 0.  1.
</event>
<event>
 5   0  0.9370269E-06  0.1998949E+04  0.7818609E-02  0.8607112E-01
        1   -1    0    0  501    0  0.00000000000E+00  0.00000000000E+00  0.88561751298E+03  0.88561751299E+03  0.50400001928E-02 0.  1.
       -1   -1    0    0    0  501  0.00000000000E+00  0.00000000000E+00 -0.11279697604E+04  0.11279697605E+04  0.50400001928E-02 0. -1.
    10030    2    1    2    0    0  0.00000000000E+00  0.00000000000E+00 -0.24235224746E+03  0.20135872734E+04  0.19989494981E+04 0.  0.
        4    1    3    3  502    0  0.13217635383E+03 -0.79441271991E+03 -0.71744482031E+03  0.10785596141E+04  0.12699999809E+01 0. -1.
       -4    1    3    3    0  502 -0.13217635383E+03  0.79441271991E+03  0.47509257285E+03  0.93502765935E+03  0.12699999809E+01 0.  1.
</event>
<event>
 5   0  0.1999142E-05  0.1996194E+04  0.7818609E-02  0.8608402E-01
        2   -1    0    0  501    0  0.00000000000E+00  0.00000000000E+00  0.87989765074E+03  0.87989765075E+03  0.25500000920E-02 0. -1.
       -2   -1    0    0    0  501  0.00000000000E+00  0.00000000000E+00 -0.11321741508E+04  0.11321741508E+04  0.25500000920E-02 0.  1.
    10030    2    1    2    0    0  0.00000000000E+00  0.00000000000E+00 -0.25227650010E+03  0.20120718016E+04  0.19961937537E+04 0.  0.
        1    1    3    3  502    0  0.35847079730E+03 -0.41196059212E+03 -0.96823827844E+03  0.11116196318E+04  0.50400001928E-02 0.  1.
       -1    1    3    3    0  502 -0.35847079730E+03  0.41196059212E+03  0.71596177835E+03  0.90045216977E+03  0.50400001928E-02 0. -1.
</event>
<event>
 5   0  0.2003576E-05  0.1994898E+04  0.7818609E-02  0.8609010E-01
       -2   -1    0    0    0  501  0.00000000000E+00  0.00000000000E+00  0.15799450808E+04  0.15799450808E+04  0.25500000920E-02 0.  1.
        2   -1    0    0  501    0  0.00000000000E+00  0.00000000000E+00 -0.62970829671E+03  0.62970829671E+03  0.25500000920E-02 0. -1.
    10030    2    1    2    0    0  0.00000000000E+00  0.00000000000E+00  0.95023678412E+03  0.22096533775E+04  0.19948980182E+04 0.  0.
        4    1    3    3  502    0  0.16332044148E+03  0.74163996953E+03 -0.24118203337E+03  0.79678968186E+03  0.12699999809E+01 0. -1.
       -4    1    3    3    0  502 -0.16332044148E+03 -0.74163996953E+03  0.11914188175E+04  0.14128636957E+04  0.12699999809E+01 0.  1.
</event>
<event>
 5   0  0.9220260E-06  0.1982173E+04  0.7818609E-02  0.8615001E-01
       -1   -1    0    0    0  501  0.00000000000E+00  0.00000000000E+00  0.10568821824E+04  0.10568821824E+04  0.50400001928E-02 0.  1.
        1   -1    0    0  501    0  0.00000000000E+00  0.00000000000E+00 -0.92938687688E+03  0.92938687690E+03  0.50400001928E-02 0. -1.
    10030    2    1    2    0    0  0.00000000000E+00  0.00000000000E+00  0.12749530549E+03  0.19862690593E+04  0.19821729801E+04 0.  0.
        3    1    3    3  502    0  0.60637986750E+02 -0.51241240723E+03 -0.78417406768E+03  0.93870784547E+03  0.10100000352E+00 0. -1.
       -3    1    3    3    0  502 -0.60637986750E+02  0.51241240723E+03  0.91166937317E+03  0.10475612138E+04  0.10100000352E+00 0.  1.
</event>
<event>
 5   0  0.2038882E-05  0.1997911E+04  0.7818609E-02  0.8607598E-01
        2   -1    0    0  501    0  0.00000000000E+00  0.00000000000E+00  0.10079652325E+04  0.10079652325E+04  0.25500000920E-02 0. -1.
       -2   -1    0    0    0  501  0.00000000000E+00  0.00000000000E+00 -0.99002615253E+03  0.99002615254E+03  0.25500000920E-02 0.  1.
    10030    2    1    2    0    0  0.00000000000E+00  0.00000000000E+00  0.17939079936E+02  0.19979913850E+04  0.19979108499E+04 0.  0.
        3    1    3    3  502    0 -0.29113141506E+03  0.31072327208E+03  0.91266822520E+03  0.10071096028E+04  0.10100000352E+00 0. -1.
       -3    1    3    3    0  502  0.29113141506E+03 -0.31072327208E+03 -0.89472914526E+03  0.99088178217E+03  0.10100000352E+00 0.  1.
</event>
<event>
 5   0  0.9220260E-06  0.1998963E+04  0.7818609E-02  0.8607106E-01
        1   -1    0    0  501    0  0.00000000000E+00  0.00000000000E+00  0.11769809560E+04  0.11769809560E+04  0.50400001928E-02 0. -1.
       -1   -1    0    0    0  501  0.00000000000E+00  0.00000000000E+00 -0.84875052868E+03  0.84875052869E+03  0.50400001928E-02 0.  1.
    10030    2    1    2    0    0  0.00000000000E+00  0.00000000000E+00  0.32823042730E+03  0.20257314847E+04  0.19989629398E+04 0.  0.
        3    1    3    3  502    0 -0.64471265662E+03 -0.23607429939E+03 -0.57195688621E+03  0.89359956038E+03  0.10100000352E+00 0.  1.
       -3    1    3    3    0  502  0.64471265662E+03  0.23607429939E+03  0.90018731351E+03  0.11321319243E+04  0.10100000352E+00 0. -1.
</event>
<event>
 5   0  0.9333353E-06  0.2000106E+04  0.7818609E-02  0.8606571E-01
       -1   -1    0    0    0  501  0.00000000000E+00  0.00000000000E+00  0.86657617044E+03  0.86657617045E+03  0.50400001928E-02 0.  1.
        1   -1    0    0  501    0  0.00000000000E+00  0.00000000000E+00 -0.11540893763E+04  0.11540893764E+04  0.50400001928E-02 0. -1.
    10030    2    1    2    0    0  0.00000000000E+00  0.00000000000E+00 -0.28751320591E+03  0.20206655468E+04  0.20001063493E+04 0.  0.
        2    1    3    3  502    0  0.90909695977E+03 -0.74570275478E+02  0.27044344727E+03  0.95139774355E+03  0.25500000920E-02 0.  1.
       -2    1    3    3    0  502 -0.90909695977E+03  0.74570275478E+02 -0.55795665318E+03  0.10692678033E+04  0.25500000920E-02 0. -1.
</event>
<event>
 5   0  0.1979765E-05  0.2001301E+04  0.7818609E-02  0.8606013E-01
       -2   -1    0    0    0  501  0.00000000000E+00  0.00000000000E+00  0.27461356223E+03  0.27461356225E+03  0.25500000920E-02 0. -1.
        2   -1    0    0  501    0  0.00000000000E+00  0.00000000000E+00 -0.36462196204E+04  0.36462196204E+04  0.25500000920E-02 0.  1.
    10030    2    1    2    0    0  0.00000000000E+00  0.00000000000E+00 -0.33716060582E+04  0.39208331826E+04  0.20013009356E+04 0.  0.
        2    1    3    3  502    0  0.65561040894E+03 -0.75109968661E+03 -0.18534855895E+04  0.21046103150E+04  0.25500000920E-02 0. -1.
       -2    1    3    3    0  502 -0.65561040894E+03  0.75109968661E+03 -0.15181204686E+04  0.18162228676E+04  0.25500000920E-02 0.  1.
</event>
<event>
 5   0  0.9342635E-06  0.2005378E+04  0.7818609E-02  0.8604111E-01
        1   -1    0    0  501    0  0.00000000000E+00  0.00000000000E+00  0.98250229851E+03  0.98250229852E+03  0.50400001928E-02 0.  1.
       -1   -1    0    0    0  501  0.00000000000E+00  0.00000000000E+00 -0.10232902049E+04  0.10232902049E+04  0.50400001928E-02 0. -1.
    10030    2    1    2    0    0  0.00000000000E+00  0.00000000000E+00 -0.40787906402E+02  0.20057925034E+04  0.20053777483E+04 0.  0.
        5    1    3    3  502    0  0.83259517884E+03 -0.48179112870E+03 -0.30334018527E+03  0.10086499797E+04  0.46999998093E+01 0.  1.
       -5    1    3    3    0  502 -0.83259517884E+03  0.48179112870E+03  0.26255227886E+03  0.99714252375E+03  0.46999998093E+01 0. -1.
</event>
<event>
 5   0  0.9140695E-06  0.1997610E+04  0.7818609E-02  0.8607739E-01
       -1   -1    0    0    0  501  0.00000000000E+00  0.00000000000E+00  0.72579561520E+03  0.72579561522E+03  0.50400001928E-02 0.  1.
        1   -1    0    0  501    0  0.00000000000E+00  0.00000000000E+00 -0.13745078323E+04  0.13745078323E+04  0.50400001928E-02 0. -1.
    10030    2    1    2    0    0  0.00000000000E+00  0.00000000000E+00 -0.64871221712E+03  0.21003034476E+04  0.19976103302E+04 0.  0.
        1    1    3    3  502    0 -0.90881731951E+03  0.10316619796E+03 -0.74625715789E+03  0.11804625917E+04  0.50400001928E-02 0. -1.
       -1    1    3    3    0  502  0.90881731951E+03 -0.10316619796E+03  0.97544940764E+02  0.91984085587E+03  0.50400001928E-02 0.  1.
</event>
<event>
 5   0  0.2003576E-05  0.2046539E+04  0.7818609E-02  0.8585166E-01
        2   -1    0    0  501    0  0.00000000000E+00  0.00000000000E+00  0.19208347821E+04  0.19208347821E+04  0.25500000920E-02 0.  1.
       -2   -1    0    0    0  501  0.00000000000E+00  0.00000000000E+00 -0.54511755619E+03  0.54511755620E+03  0.25500000920E-02 0. -1.
    10030    2    1    2    0    0  0.00000000000E+00  0.00000000000E+00  0.13757172259E+04  0.24659523383E+04  0.20465392860E+04 0.  0.
        4    1    3    3  502    0  0.10023714633E+04 -0.13514895478E+03  0.87478076134E+03  0.13372571869E+04  0.12699999809E+01 0.  1.
       -4    1    3    3    0  502 -0.10023714633E+04  0.13514895478E+03  0.50093646458E+03  0.11286951515E+04  0.12699999809E+01 0. -1.
</event>
<event>
 5   0  0.9140695E-06  0.1997568E+04  0.7818609E-02  0.8607759E-01
       -1   -1    0    0    0  501  0.00000000000E+00  0.00000000000E+00  0.73336403089E+03  0.73336403090E+03  0.50400001928E-02 0. -1.
        1   -1    0    0  501    0  0.00000000000E+00  0.00000000000E+00 -0.13602647576E+04  0.13602647576E+04  0.50400001928E-02 0.  1.
    10030    2    1    2    0    0  0.00000000000E+00  0.00000000000E+00 -0.62690072670E+03  0.20936287885E+04  0.19975677668E+04 0.  0.
        1    1    3    3  502    0  0.74848139921E+03  0.35242525597E+01 -0.10065632871E+04  0.12543550041E+04  0.50400001928E-02 0.  1.
       -1    1    3    3    0  502 -0.74848139921E+03 -0.35242525597E+01  0.37966256045E+03  0.83927378438E+03  0.50400001928E-02 0. -1.
</event>
<event>
 5   0  0.2003576E-05  0.2000870E+04  0.7818609E-02  0.8606214E-01
        2   -1    0    0  501    0  0.00000000000E+00  0.00000000000E+00  0.89347311184E+03  0.89347311185E+03  0.25500000920E-02 0.  1.
       -2   -1    0    0    0  501  0.00000000000E+00  0.00000000000E+00 -0.11202017988E+04  0.11202017988E+04  0.25500000920E-02 0. -1.
    10030    2    1    2    0    0  0.00000000000E+00  0.00000000000E+00 -0.22672868697E+03  0.20136749107E+04  0.20008699979E+04 0.  0.
        4    1    3    3  502    0  0.10284790226E+03  0.23924175012E+03 -0.10854934325E+04  0.11162938282E+04  0.12699999809E+01 0. -1.
       -4    1    3    3    0  502 -0.10284790226E+03 -0.23924175012E+03  0.85876474555E+03  0.89738108243E+03  0.12699999809E+01 0.  1.
</event>
<event>
 5   0  0.2020029E-05  0.2001880E+04  0.7818609E-02  0.8605742E-01
       -2   -1    0    0    0  501  0.00000000000E+00  0.00000000000E+00  0.95029319616E+03  0.95029319617E+03  0.25500000920E-02 0. -1.
        2   -1    0    0  501    0  0.00000000000E+00  0.00000000000E+00 -0.10542858281E+04  0.10542858281E+04  0.25500000920E-02 0.  1.
    10030    2    1    2    0    0  0.00000000000E+00  0.00000000000E+00 -0.10399263196E+03  0.20045790243E+04  0.20018797659E+04 0.  0.
        5    1    3    3  502    0 -0.26450617138E+03 -0.38349703533E+02  0.91388935731E+03  0.95218173783E+03  0.46999998093E+01 0. -1.
       -5    1    3    3    0  502  0.26450617138E+03  0.38349703533E+02 -0.10178819893E+04  0.10523972865E+04  0.46999998093E+01 0.  1.
</event>
<event>
 5   0  0.9370269E-06  0.1999323E+04  0.7818609E-02  0.8606937E-01
       -1   -1    0    0    0  501  0.00000000000E+00  0.00000000000E+00  0.64243459770E+03  0.64243459772E+03  0.50400001928E-02 0. -1.
        1   -1    0    0  501    0  0.00000000000E+00  0.00000000000E+00 -0.15555244242E+04  0.15555244242E+04  0.50400001928E-02 0.  1.
    10030    2    1    2    0    0  0.00000000000E+00  0.00000000000E+00 -0.91308982649E+03  0.21979590219E+04  0.19993225930E+04 0.  0.
        4    1    3    3  502    0  0.17879553570E+03 -0.33375775726E+03  0.56055402672E+03  0.67644993450E+03  0.12699999809E+01 0. -1.
       -4    1    3    3    0  502 -0.17879553570E+03  0.33375775726E+03 -0.14736438532E+04  0.15215090874E+04  0.12699999809E+01 0.  1.
</event>
<event>
 5   0  0.2020029E-05  0.1998778E+04  0.7818609E-02  0.8607192E-01
       -2   -1    0    0    0  501  0.00000000000E+00  0.00000000000E+00  0.44827204528E+03  0.44827204529E+03  0.25500000920E-02 0.  1.
        2   -1    0    0  501    0  0.00000000000E+00  0.00000000000E+00 -0.22280638219E+04  0.22280638219E+04  0.25500000920E-02 0. -1.
    10030    2    1    2    0    0  0.00000000000E+00  0.00000000000E+00 -0.17797917766E+04  0.26763358672E+04  0.19987783533E+04 0.  0.
        5    1    3    3  502    0 -0.45399302192E+03  0.88434740410E+03 -0.10276009380E+04  0.14297432542E+04  0.46999998093E+01 0. -1.
       -5    1    3    3    0  502  0.45399302192E+03 -0.88434740410E+03 -0.75219083859E+03  0.12465926130E+04  0.46999998093E+01 0.  1.
</event>
<event>
 5   0  0.9333353E-06  0.1995960E+04  0.7818609E-02  0.8608512E-01
       -1   -1    0    0    0  501  0.00000000000E+00  0.00000000000E+00  0.10333394051E+04  0.10333394051E+04  0.50400001928E-02 0.  1.
        1   -1    0    0  501    0  0.00000000000E+00  0.00000000000E+00 -0.96383083633E+03  0.96383083634E+03  0.50400001928E-02 0. -1.
    10030    2    1    2    0    0  0.00000000000E+00  0.00000000000E+00  0.69508568732E+02  0.19971702414E+04  0.19959603032E+04 0.  0.
        2    1    3    3  502    0  0.37599143676E+03 -0.84870838074E+03 -0.33192236668E+03  0.98582347992E+03  0.25500000920E-02 0.  1.
       -2    1    3    3    0  502 -0.37599143676E+03  0.84870838074E+03  0.40143093542E+03  0.10113467615E+04  0.25500000920E-02 0. -1.
</event>
<event>
 5   0  0.1979765E-05  0.2000367E+04  0.7818609E-02  0.8606449E-01
        2   -1    0    0  501    0  0.00000000000E+00  0.00000000000E+00  0.21164127330E+04  0.21164127330E+04  0.25500000920E-02 0.  1.
       -2   -1    0    0    0  501  0.00000000000E+00  0.00000000000E+00 -0.47267093088E+03  0.47267093088E+03  0.25500000920E-02 0. -1.
    10030    2    1    2    0    0  0.00000000000E+00  0.00000000000E+00  0.16437418021E+04  0.25890836639E+04  0.20003667430E+04 0.  0.
        2    1    3    3  502    0 -0.92431998283E+03 -0.37005811684E+03  0.69869869342E+03  0.12163430045E+04  0.25500000920E-02 0.  1.
       -2    1    3    3    0  502  0.92431998283E+03  0.37005811684E+03  0.94504310870E+03  0.13727406593E+04  0.25500000920E-02 0. -1.
</event>
<event>
 5   0  0.9342635E-06  0.2000810E+04  0.7818609E-02  0.8606242E-01
        1   -1    0    0  501    0  0.00000000000E+00  0.00000000000E+00  0.14059250719E+04  0.14059250719E+04  0.50400001928E-02 0. -1.
       -1   -1    0    0    0  501  0.00000000000E+00  0.00000000000E+00 -0.71185171468E+03  0.71185171470E+03  0.50400001928E-02 0.  1.
    10030    2    1    2    0    0  0.00000000000E+00  0.00000000000E+00  0.69407335720E+03  0.21177767866E+04  0.20008100091E+04 0.  0.
        5    1    3    3  502    0  0.30749865102E+03  0.86174842385E+03  0.77518633630E+03  0.11992087860E+04  0.46999998093E+01 0. -1.
       -5    1    3    3    0  502 -0.30749865102E+03 -0.86174842385E+03 -0.81112979100E+02  0.91856800062E+03  0.46999998093E+01 0.  1.
</event>
</LesHouchesEvents>
